<event>
 7    1  0.6055092E-013  0.5930195E+02  0.7816164E-02  0.1266605E+00
        -11   -1    0    0    0    0  0.00000000000E+00  0.00000000000E+00  0.45593999997E+02  0.45594000000E+02  0.51100000000E-03 0.  1.
         11   -1    0    0    0    0 -0.00000000000E+00 -0.00000000000E+00 -0.45593999997E+02  0.45594000000E+02  0.51100000000E-03 0. -1.
    9900012    2    1    2    0    0 -0.11066561430E+02 -0.10592330806E+02 -0.27965222889E+02  0.59301953756E+02  0.50000017743E+02 0.  0.
        -12    1    1    2    0    0  0.11066561430E+02  0.10592330806E+02  0.27965222889E+02  0.31886046244E+02  0.00000000000E+00 0.  1.
         11    1    3    3    0    0  0.12503079117E+02 -0.10079032223E+02 -0.86975741471E+01  0.18263670887E+02  0.51100000000E-03 0.  1.
        -11    1    3    3    0    0 -0.13998614111E+02  0.63030213432E+01 -0.23901632312E+02  0.28407345925E+02  0.51100000000E-03 0. -1.
        -12    1    3    3    0    0 -0.95710264357E+01 -0.68163199261E+01  0.46339835697E+01  0.12630936944E+02  0.00000000000E+00 0.  1.
</event>
<event>
 7    1  0.6055092E-013  0.5930194E+02  0.7816164E-02  0.1266605E+00
        -11   -1    0    0    0    0  0.00000000000E+00  0.00000000000E+00  0.45593999997E+02  0.45594000000E+02  0.51100000000E-03 0.  1.
         11   -1    0    0    0    0 -0.00000000000E+00 -0.00000000000E+00 -0.45593999997E+02  0.45594000000E+02  0.51100000000E-03 0. -1.
    9900012    2    1    2    0    0  0.39353651728E+01  0.19233531348E+02 -0.25125781289E+02  0.59301941722E+02  0.49999995794E+02 0.  0.
        -12    1    1    2    0    0 -0.39353651728E+01 -0.19233531348E+02  0.25125781289E+02  0.31886058278E+02  0.00000000000E+00 0.  1.
         11    1    3    3    0    0 -0.16223565444E+02  0.19426597888E+02 -0.81815451389E+01  0.26599519964E+02  0.51100000000E-03 0. -1.
        -11    1    3    3    0    0  0.19363312002E+02  0.40208447007E+01 -0.55687548591E+01  0.20545463605E+02  0.51100000000E-03 0.  1.
         12    1    3    3    0    0  0.79561861411E+00 -0.42139112406E+01 -0.11375481291E+02  0.12156958152E+02  0.00000000000E+00 0. -1.
</event>
<event>
 7    1  0.6055092E-013  0.5930195E+02  0.7816164E-02  0.1266605E+00
        -11   -1    0    0    0    0  0.00000000000E+00  0.00000000000E+00  0.45593999997E+02  0.45594000000E+02  0.51100000000E-03 0. -1.
         11   -1    0    0    0    0 -0.00000000000E+00 -0.00000000000E+00 -0.45593999997E+02  0.45594000000E+02  0.51100000000E-03 0.  1.
    9900012    2    1    2    0    0 -0.23274932434E+02  0.43432621525E+01  0.21357283989E+02  0.59301953125E+02  0.50000016591E+02 0.  0.
        -12    1    1    2    0    0  0.23274932434E+02 -0.43432621525E+01 -0.21357283989E+02  0.31886046875E+02  0.00000000000E+00 0.  1.
         11    1    3    3    0    0 -0.11902750214E+02 -0.60701778596E+01  0.18512094861E+02  0.22830247005E+02  0.51100000000E-03 0. -1.
        -11    1    3    3    0    0  0.55411655818E+01  0.13135111173E+02 -0.78517787596E+01  0.16275321548E+02  0.51100000000E-03 0.  1.
        -12    1    3    3    0    0 -0.16913347803E+02 -0.27216711607E+01  0.10696967887E+02  0.20196384572E+02  0.00000000000E+00 0.  1.
</event>
<event>
 7    1  0.6055092E-013  0.5930192E+02  0.7816164E-02  0.1266605E+00
        -11   -1    0    0    0    0  0.00000000000E+00  0.00000000000E+00  0.45593999997E+02  0.45594000000E+02  0.51100000000E-03 0.  1.
         11   -1    0    0    0    0 -0.00000000000E+00 -0.00000000000E+00 -0.45593999997E+02  0.45594000000E+02  0.51100000000E-03 0. -1.
    9900012    2    1    2    0    0  0.16331109046E+02 -0.26835535753E+02 -0.54654092856E+01  0.59301924661E+02  0.49999964680E+02 0.  0.
        -12    1    1    2    0    0 -0.16331109046E+02  0.26835535753E+02  0.54654092856E+01  0.31886075339E+02  0.00000000000E+00 0.  1.
         11    1    3    3    0    0  0.64988554490E+01 -0.17933899991E+02  0.66084351551E+01  0.20187404650E+02  0.51100000000E-03 0. -1.
        -11    1    3    3    0    0 -0.49267177813E+01 -0.92509998674E+01 -0.19836279138E+02  0.22435051080E+02  0.51100000000E-03 0.  1.
        -12    1    3    3    0    0  0.14758971378E+02  0.34936410482E+00  0.77624346974E+01  0.16679468932E+02  0.00000000000E+00 0.  1.
</event>
<event>
 7    1  0.6055092E-013  0.5930195E+02  0.7816164E-02  0.1266605E+00
        -11   -1    0    0    0    0  0.00000000000E+00  0.00000000000E+00  0.45593999997E+02  0.45594000000E+02  0.51100000000E-03 0.  1.
         11   -1    0    0    0    0 -0.00000000000E+00 -0.00000000000E+00 -0.45593999997E+02  0.45594000000E+02  0.51100000000E-03 0. -1.
    9900012    2    1    2    0    0  0.15723509191E+02  0.55295295722E+01 -0.27183004781E+02  0.59301949954E+02  0.50000010809E+02 0.  0.
        -12    1    1    2    0    0 -0.15723509191E+02 -0.55295295722E+01  0.27183004781E+02  0.31886050046E+02  0.00000000000E+00 0.  1.
         11    1    3    3    0    0  0.11229962670E+02  0.60915633648E+01 -0.32174342854E+02  0.34618023401E+02  0.51100000000E-03 0. -1.
        -11    1    3    3    0    0  0.89927799984E+01 -0.97375079440E+01 -0.12524976357E+00  0.13255370264E+02  0.51100000000E-03 0.  1.
         12    1    3    3    0    0 -0.44992334774E+01  0.91754741515E+01  0.51165878367E+01  0.11428556290E+02  0.00000000000E+00 0. -1.
</event>
<event>
 7    1  0.6055092E-013  0.5930195E+02  0.7816164E-02  0.1266605E+00
        -11   -1    0    0    0    0  0.00000000000E+00  0.00000000000E+00  0.45593999997E+02  0.45594000000E+02  0.51100000000E-03 0. -1.
         11   -1    0    0    0    0 -0.00000000000E+00 -0.00000000000E+00 -0.45593999997E+02  0.45594000000E+02  0.51100000000E-03 0.  1.
    9900012    2    1    2    0    0  0.52688921179E+01 -0.22837122600E+02  0.21620007904E+02  0.59301950784E+02  0.50000012322E+02 0.  0.
        -12    1    1    2    0    0 -0.52688921179E+01  0.22837122600E+02 -0.21620007904E+02  0.31886049216E+02  0.00000000000E+00 0.  1.
         11    1    3    3    0    0  0.78249633067E+01 -0.28889632891E+02  0.26557550854E+02  0.40014303030E+02  0.51100000000E-03 0. -1.
        -11    1    3    3    0    0 -0.13368582115E+01  0.29594794411E+01 -0.11489946959E+02  0.11940041449E+02  0.51100000000E-03 0.  1.
         12    1    3    3    0    0 -0.12192129772E+01  0.30930308495E+01  0.65524040089E+01  0.73476063052E+01  0.00000000000E+00 0. -1.
</event>
<event>
 7    1  0.6055092E-013  0.5930194E+02  0.7816164E-02  0.1266605E+00
        -11   -1    0    0    0    0  0.00000000000E+00  0.00000000000E+00  0.45593999997E+02  0.45594000000E+02  0.51100000000E-03 0.  1.
         11   -1    0    0    0    0 -0.00000000000E+00 -0.00000000000E+00 -0.45593999997E+02  0.45594000000E+02  0.51100000000E-03 0. -1.
    9900012    2    1    2    0    0 -0.21891880532E+02  0.22441043449E+02 -0.58194507309E+01  0.59301939235E+02  0.49999991259E+02 0.  0.
        -12    1    1    2    0    0  0.21891880532E+02 -0.22441043449E+02  0.58194507309E+01  0.31886060765E+02  0.00000000000E+00 0.  1.
         11    1    3    3    0    0 -0.13989339833E+02  0.79022436695E+00 -0.16761665024E+01  0.14111542011E+02  0.51100000000E-03 0. -1.
        -11    1    3    3    0    0  0.12069471075E+02  0.30597779953E+01 -0.11479642186E+02  0.16935659373E+02  0.51100000000E-03 0.  1.
        -12    1    3    3    0    0 -0.19972011773E+02  0.18591041087E+02  0.73363579576E+01  0.28254737851E+02  0.00000000000E+00 0.  1.
</event>
<event>
 7    1  0.6055092E-013  0.5930195E+02  0.7816164E-02  0.1266605E+00
        -11   -1    0    0    0    0  0.00000000000E+00  0.00000000000E+00  0.45593999997E+02  0.45594000000E+02  0.51100000000E-03 0. -1.
         11   -1    0    0    0    0 -0.00000000000E+00 -0.00000000000E+00 -0.45593999997E+02  0.45594000000E+02  0.51100000000E-03 0.  1.
    9900012    2    1    2    0    0  0.23161490056E+02 -0.56181401218E+01  0.21182586192E+02  0.59301951675E+02  0.50000013946E+02 0.  0.
        -12    1    1    2    0    0 -0.23161490056E+02  0.56181401218E+01 -0.21182586192E+02  0.31886048325E+02  0.00000000000E+00 0.  1.
         11    1    3    3    0    0  0.45800071386E+01 -0.15906430275E+02  0.14587098097E+02  0.22062964910E+02  0.51100000000E-03 0. -1.
        -11    1    3    3    0    0  0.28378327688E+01  0.11671465537E+02 -0.90201789436E+01  0.15021319218E+02  0.51100000000E-03 0.  1.
         12    1    3    3    0    0  0.15743650148E+02 -0.13831753839E+01  0.15615667039E+02  0.22217667546E+02  0.00000000000E+00 0. -1.
</event>
<event>
 7    1  0.6055092E-013  0.5930192E+02  0.7816164E-02  0.1266605E+00
        -11   -1    0    0    0    0  0.00000000000E+00  0.00000000000E+00  0.45593999997E+02  0.45594000000E+02  0.51100000000E-03 0. -1.
         11   -1    0    0    0    0 -0.00000000000E+00 -0.00000000000E+00 -0.45593999997E+02  0.45594000000E+02  0.51100000000E-03 0.  1.
    9900012    2    1    2    0    0 -0.12986859303E+02 -0.27372603376E+02 -0.99400150423E+01  0.59301924212E+02  0.49999963860E+02 0.  0.
        -12    1    1    2    0    0  0.12986859303E+02  0.27372603376E+02  0.99400150423E+01  0.31886075788E+02  0.00000000000E+00 0.  1.
         11    1    3    3    0    0 -0.16865394714E+02 -0.96655333225E+00  0.39336007643E+01  0.17344998687E+02  0.51100000000E-03 0. -1.
        -11    1    3    3    0    0  0.12210716958E+02 -0.48583781075E+00 -0.60056132835E+01  0.13616351868E+02  0.51100000000E-03 0.  1.
         12    1    3    3    0    0 -0.83321815469E+01 -0.25920212233E+02 -0.78680025230E+01  0.28340573658E+02  0.00000000000E+00 0. -1.
</event>
<event>
 7    1  0.6055092E-013  0.5930225E+02  0.7816164E-02  0.1266604E+00
        -11   -1    0    0    0    0  0.00000000000E+00  0.00000000000E+00  0.45593999997E+02  0.45594000000E+02  0.51100000000E-03 0.  1.
         11   -1    0    0    0    0 -0.00000000000E+00 -0.00000000000E+00 -0.45593999997E+02  0.45594000000E+02  0.51100000000E-03 0. -1.
    9900012    2    1    2    0    0  0.15323848273E+01  0.13612939584E+01 -0.31819801079E+02  0.59302249810E+02  0.50000557670E+02 0.  0.
        -12    1    1    2    0    0 -0.15323848273E+01 -0.13612939584E+01  0.31819801079E+02  0.31885750190E+02  0.00000000000E+00 0.  1.
         11    1    3    3    0    0  0.62818259985E+01 -0.11403662183E+02 -0.10386652902E+02  0.16654951451E+02  0.51100000000E-03 0. -1.
        -11    1    3    3    0    0 -0.15521941628E+02  0.16623941608E+02 -0.61605203564E+01  0.23563491206E+02  0.51100000000E-03 0.  1.
         12    1    3    3    0    0  0.10772500457E+02 -0.38589854663E+01 -0.15272627821E+02  0.19083807153E+02  0.00000000000E+00 0. -1.
</event>
<event>
 7    1  0.6055092E-013  0.5930195E+02  0.7816164E-02  0.1266605E+00
        -11   -1    0    0    0    0  0.00000000000E+00  0.00000000000E+00  0.45593999997E+02  0.45594000000E+02  0.51100000000E-03 0. -1.
         11   -1    0    0    0    0 -0.00000000000E+00 -0.00000000000E+00 -0.45593999997E+02  0.45594000000E+02  0.51100000000E-03 0.  1.
    9900012    2    1    2    0    0  0.28209436445E+02 -0.11238428438E+02 -0.97285929717E+01  0.59301951334E+02  0.50000013325E+02 0.  0.
        -12    1    1    2    0    0 -0.28209436445E+02  0.11238428438E+02  0.97285929717E+01  0.31886048666E+02  0.00000000000E+00 0.  1.
         11    1    3    3    0    0  0.28893307269E+02 -0.15956702308E+02 -0.48389065539E+01  0.33359474972E+02  0.51100000000E-03 0. -1.
        -11    1    3    3    0    0 -0.86382365837E+01  0.60630798062E+01 -0.11429958697E+02  0.15557121331E+02  0.51100000000E-03 0.  1.
         12    1    3    3    0    0  0.79543657597E+01 -0.13448059369E+01  0.65402722794E+01  0.10385355032E+02  0.00000000000E+00 0. -1.
</event>
<event>
 7    1  0.6055092E-013  0.5930193E+02  0.7816164E-02  0.1266605E+00
        -11   -1    0    0    0    0  0.00000000000E+00  0.00000000000E+00  0.45593999997E+02  0.45594000000E+02  0.51100000000E-03 0. -1.
         11   -1    0    0    0    0 -0.00000000000E+00 -0.00000000000E+00 -0.45593999997E+02  0.45594000000E+02  0.51100000000E-03 0.  1.
    9900012    2    1    2    0    0  0.67047954434E+01 -0.28474999658E+02 -0.12686262481E+02  0.59301934969E+02  0.49999983478E+02 0.  0.
        -12    1    1    2    0    0 -0.67047954434E+01  0.28474999658E+02  0.12686262481E+02  0.31886065031E+02  0.00000000000E+00 0.  1.
         11    1    3    3    0    0 -0.58210860198E+01 -0.21005829803E+02  0.66705604206E+01  0.22795313219E+02  0.51100000000E-03 0. -1.
        -11    1    3    3    0    0  0.50079060134E+01 -0.40638225510E+01 -0.25445752671E+02  0.26250335343E+02  0.51100000000E-03 0.  1.
        -12    1    3    3    0    0  0.75179754497E+01 -0.34053473040E+01  0.60889297694E+01  0.10256286407E+02  0.00000000000E+00 0.  1.
</event>
<event>
 7    1  0.6055092E-013  0.5930188E+02  0.7816164E-02  0.1266605E+00
        -11   -1    0    0    0    0  0.00000000000E+00  0.00000000000E+00  0.45593999997E+02  0.45594000000E+02  0.51100000000E-03 0.  1.
         11   -1    0    0    0    0 -0.00000000000E+00 -0.00000000000E+00 -0.45593999997E+02  0.45594000000E+02  0.51100000000E-03 0. -1.
    9900012    2    1    2    0    0 -0.11780371739E+02 -0.46252857120E+01 -0.29266949295E+02  0.59301878454E+02  0.49999880408E+02 0.  0.
        -12    1    1    2    0    0  0.11780371739E+02  0.46252857120E+01  0.29266949295E+02  0.31886121546E+02  0.00000000000E+00 0.  1.
         11    1    3    3    0    0  0.11891837642E+02 -0.13309836979E+02 -0.11658621407E+02  0.21318794906E+02  0.51100000000E-03 0. -1.
        -11    1    3    3    0    0 -0.23105018757E+02  0.76641416757E+01 -0.22382054265E+02  0.33068675703E+02  0.51100000000E-03 0.  1.
        -12    1    3    3    0    0 -0.56719062406E+00  0.10204095912E+01  0.47737263764E+01  0.49144078437E+01  0.00000000000E+00 0.  1.
</event>
<event>
 7    1  0.6055092E-013  0.5930195E+02  0.7816164E-02  0.1266605E+00
        -11   -1    0    0    0    0  0.00000000000E+00  0.00000000000E+00  0.45593999997E+02  0.45594000000E+02  0.51100000000E-03 0.  1.
         11   -1    0    0    0    0 -0.00000000000E+00 -0.00000000000E+00 -0.45593999997E+02  0.45594000000E+02  0.51100000000E-03 0. -1.
    9900012    2    1    2    0    0  0.22178558589E+02 -0.19759408640E+02  0.11592986786E+02  0.59301952369E+02  0.50000015213E+02 0.  0.
        -12    1    1    2    0    0 -0.22178558589E+02  0.19759408640E+02 -0.11592986786E+02  0.31886047631E+02  0.00000000000E+00 0.  1.
         11    1    3    3    0    0  0.21182745832E+02  0.45412662305E+01 -0.55454663045E+00  0.21671163840E+02  0.51100000000E-03 0. -1.
        -11    1    3    3    0    0  0.49058170795E+01 -0.11891109365E+02  0.18985150669E+02  0.22932541711E+02  0.51100000000E-03 0.  1.
         12    1    3    3    0    0 -0.39100043228E+01 -0.12409565505E+02 -0.68376172525E+01  0.14698246818E+02  0.00000000000E+00 0. -1.
</event>
<event>
 7    1  0.6055092E-013  0.5930199E+02  0.7816164E-02  0.1266605E+00
        -11   -1    0    0    0    0  0.00000000000E+00  0.00000000000E+00  0.45593999997E+02  0.45594000000E+02  0.51100000000E-03 0.  1.
         11   -1    0    0    0    0 -0.00000000000E+00 -0.00000000000E+00 -0.45593999997E+02  0.45594000000E+02  0.51100000000E-03 0. -1.
    9900012    2    1    2    0    0  0.25622206709E+02 -0.11633871101E+02 -0.14995778486E+02  0.59301987301E+02  0.50000078920E+02 0.  0.
        -12    1    1    2    0    0 -0.25622206709E+02  0.11633871101E+02  0.14995778486E+02  0.31886012699E+02  0.00000000000E+00 0.  1.
         11    1    3    3    0    0  0.35841238949E+01 -0.18153414441E+02 -0.17679613132E+02  0.25592208203E+02  0.51100000000E-03 0. -1.
        -11    1    3    3    0    0  0.15342922865E+02 -0.22224458203E+01  0.11744958097E+02  0.19449642372E+02  0.51100000000E-03 0.  1.
         12    1    3    3    0    0  0.66951599494E+01  0.87419891602E+01 -0.90611234515E+01  0.14260136725E+02  0.00000000000E+00 0. -1.
</event>
<event>
 7    1  0.6055092E-013  0.5930192E+02  0.7816164E-02  0.1266605E+00
        -11   -1    0    0    0    0  0.00000000000E+00  0.00000000000E+00  0.45593999997E+02  0.45594000000E+02  0.51100000000E-03 0.  1.
         11   -1    0    0    0    0 -0.00000000000E+00 -0.00000000000E+00 -0.45593999997E+02  0.45594000000E+02  0.51100000000E-03 0. -1.
    9900012    2    1    2    0    0 -0.20589311728E+01 -0.34141250459E+01 -0.31635849048E+02  0.59301915380E+02  0.49999947754E+02 0.  0.
        -12    1    1    2    0    0  0.20589311728E+01  0.34141250459E+01  0.31635849048E+02  0.31886084620E+02  0.00000000000E+00 0.  1.
         11    1    3    3    0    0 -0.55367803622E+01  0.92008629582E+01 -0.25375351957E+02  0.27553952586E+02  0.51100000000E-03 0. -1.
        -11    1    3    3    0    0  0.15846629257E+02 -0.81005881373E+01 -0.20006845813E+01  0.17909157602E+02  0.51100000000E-03 0.  1.
         12    1    3    3    0    0 -0.12368780067E+02 -0.45143998669E+01 -0.42598125097E+01  0.13838805192E+02  0.00000000000E+00 0. -1.
</event>
<event>
 7    1  0.6055092E-013  0.5930197E+02  0.7816164E-02  0.1266605E+00
        -11   -1    0    0    0    0  0.00000000000E+00  0.00000000000E+00  0.45593999997E+02  0.45594000000E+02  0.51100000000E-03 0.  1.
         11   -1    0    0    0    0 -0.00000000000E+00 -0.00000000000E+00 -0.45593999997E+02  0.45594000000E+02  0.51100000000E-03 0. -1.
    9900012    2    1    2    0    0  0.17916346854E+02  0.63851745458E+01 -0.25592053513E+02  0.59301966356E+02  0.50000040721E+02 0.  0.
        -12    1    1    2    0    0 -0.17916346854E+02 -0.63851745458E+01  0.25592053513E+02  0.31886033644E+02  0.00000000000E+00 0.  1.
         11    1    3    3    0    0  0.19951181374E+02 -0.23674090565E+01 -0.93801355140E+01  0.22172983705E+02  0.51100000000E-03 0. -1.
        -11    1    3    3    0    0 -0.14130439022E+02 -0.36968593797E+01 -0.12838552876E+02  0.19446452541E+02  0.51100000000E-03 0.  1.
        -12    1    3    3    0    0  0.12095604502E+02  0.12449442982E+02 -0.33733651232E+01  0.17682530110E+02  0.00000000000E+00 0.  1.
</event>
<event>
 7    1  0.6055092E-013  0.5930194E+02  0.7816164E-02  0.1266605E+00
        -11   -1    0    0    0    0  0.00000000000E+00  0.00000000000E+00  0.45593999997E+02  0.45594000000E+02  0.51100000000E-03 0.  1.
         11   -1    0    0    0    0 -0.00000000000E+00 -0.00000000000E+00 -0.45593999997E+02  0.45594000000E+02  0.51100000000E-03 0. -1.
    9900012    2    1    2    0    0  0.31565668015E+02  0.33795265833E+01  0.29846540007E+01  0.59301941029E+02  0.49999994532E+02 0.  0.
        -12    1    1    2    0    0 -0.31565668015E+02 -0.33795265833E+01 -0.29846540007E+01  0.31886058971E+02  0.00000000000E+00 0.  1.
         11    1    3    3    0    0 -0.12264291450E+02  0.74183493926E+01 -0.29083836225E+01  0.14625438388E+02  0.51100000000E-03 0.  1.
        -11    1    3    3    0    0  0.38267845056E+02 -0.18975866047E+01  0.54422804811E+01  0.38699447248E+02  0.51100000000E-03 0. -1.
         12    1    3    3    0    0  0.55621144089E+01 -0.21412362045E+01  0.45075714213E+00  0.59770553940E+01  0.00000000000E+00 0. -1.
</event>
<event>
 7    1  0.6055092E-013  0.5930194E+02  0.7816164E-02  0.1266605E+00
        -11   -1    0    0    0    0  0.00000000000E+00  0.00000000000E+00  0.45593999997E+02  0.45594000000E+02  0.51100000000E-03 0. -1.
         11   -1    0    0    0    0 -0.00000000000E+00 -0.00000000000E+00 -0.45593999997E+02  0.45594000000E+02  0.51100000000E-03 0.  1.
    9900012    2    1    2    0    0 -0.18070587904E+02 -0.11886479031E+02  0.23428324599E+02  0.59301938398E+02  0.49999989733E+02 0.  0.
        -12    1    1    2    0    0  0.18070587904E+02  0.11886479031E+02 -0.23428324599E+02  0.31886061602E+02  0.00000000000E+00 0.  1.
         11    1    3    3    0    0 -0.76289926328E+01  0.32014297894E+01  0.19045835714E+02  0.20765224285E+02  0.51100000000E-03 0. -1.
        -11    1    3    3    0    0 -0.19321009482E+02 -0.63999338141E+01 -0.71632024129E+01  0.21577118188E+02  0.51100000000E-03 0.  1.
        -12    1    3    3    0    0  0.88794142104E+01 -0.86879750059E+01  0.11545691298E+02  0.16959595926E+02  0.00000000000E+00 0.  1.
</event>
<event>
 7    1  0.6055092E-013  0.5930196E+02  0.7816164E-02  0.1266605E+00
        -11   -1    0    0    0    0  0.00000000000E+00  0.00000000000E+00  0.45593999997E+02  0.45594000000E+02  0.51100000000E-03 0.  1.
         11   -1    0    0    0    0 -0.00000000000E+00 -0.00000000000E+00 -0.45593999997E+02  0.45594000000E+02  0.51100000000E-03 0. -1.
    9900012    2    1    2    0    0 -0.18806359999E+02 -0.11404277497E+02 -0.23086415452E+02  0.59301963870E+02  0.50000036188E+02 0.  0.
        -12    1    1    2    0    0  0.18806359999E+02  0.11404277497E+02  0.23086415452E+02  0.31886036130E+02  0.00000000000E+00 0.  1.
         11    1    3    3    0    0 -0.20908892216E+02  0.12209322571E+02 -0.77638569676E+01  0.25426891407E+02  0.51100000000E-03 0.  1.
        -11    1    3    3    0    0  0.10326585626E+02 -0.10485814133E+02 -0.77218023866E+01  0.16619774399E+02  0.51100000000E-03 0. -1.
        -12    1    3    3    0    0 -0.82240534088E+01 -0.13127785935E+02 -0.76007560981E+01  0.17255298064E+02  0.00000000000E+00 0.  1.
</event>
<event>
 7    1  0.6055092E-013  0.5930193E+02  0.7816164E-02  0.1266605E+00
        -11   -1    0    0    0    0  0.00000000000E+00  0.00000000000E+00  0.45593999997E+02  0.45594000000E+02  0.51100000000E-03 0.  1.
         11   -1    0    0    0    0 -0.00000000000E+00 -0.00000000000E+00 -0.45593999997E+02  0.45594000000E+02  0.51100000000E-03 0. -1.
    9900012    2    1    2    0    0  0.21672454067E+01 -0.27025171292E+02  0.16782864227E+02  0.59301931448E+02  0.49999977058E+02 0.  0.
        -12    1    1    2    0    0 -0.21672454067E+01  0.27025171292E+02 -0.16782864227E+02  0.31886068552E+02  0.00000000000E+00 0.  1.
         11    1    3    3    0    0 -0.52593058136E+01 -0.31050029467E+01 -0.78266706462E+01  0.99276439604E+01  0.51100000000E-03 0. -1.
        -11    1    3    3    0    0 -0.65827337333E+01 -0.25048269410E+02  0.23995477552E+02  0.35306247706E+02  0.51100000000E-03 0.  1.
        -12    1    3    3    0    0  0.14009284954E+02  0.11281010644E+01  0.61405732063E+00  0.14068039782E+02  0.00000000000E+00 0.  1.
</event>
<event>
 7    1  0.6055092E-013  0.5930193E+02  0.7816164E-02  0.1266605E+00
        -11   -1    0    0    0    0  0.00000000000E+00  0.00000000000E+00  0.45593999997E+02  0.45594000000E+02  0.51100000000E-03 0. -1.
         11   -1    0    0    0    0 -0.00000000000E+00 -0.00000000000E+00 -0.45593999997E+02  0.45594000000E+02  0.51100000000E-03 0.  1.
    9900012    2    1    2    0    0  0.15207849587E+01 -0.24681432261E+02  0.20130470935E+02  0.59301925525E+02  0.49999966256E+02 0.  0.
        -12    1    1    2    0    0 -0.15207849587E+01  0.24681432261E+02 -0.20130470935E+02  0.31886074475E+02  0.00000000000E+00 0.  1.
         11    1    3    3    0    0  0.27924495328E+01 -0.10598099275E+02  0.40976571817E+01  0.11700781054E+02  0.51100000000E-03 0. -1.
        -11    1    3    3    0    0  0.12610516011E+02  0.84531642639E+01  0.14647752286E+02  0.21095917791E+02  0.51100000000E-03 0.  1.
        -12    1    3    3    0    0 -0.13882180586E+02 -0.22536497249E+02  0.13850614670E+01  0.26505226680E+02  0.00000000000E+00 0.  1.
</event>
<event>
 7    1  0.6055092E-013  0.5930187E+02  0.7816164E-02  0.1266605E+00
        -11   -1    0    0    0    0  0.00000000000E+00  0.00000000000E+00  0.45593999997E+02  0.45594000000E+02  0.51100000000E-03 0.  1.
         11   -1    0    0    0    0 -0.00000000000E+00 -0.00000000000E+00 -0.45593999997E+02  0.45594000000E+02  0.51100000000E-03 0. -1.
    9900012    2    1    2    0    0 -0.26111749297E+00 -0.24423776833E+02 -0.20497218239E+02  0.59301874292E+02  0.49999872818E+02 0.  0.
        -12    1    1    2    0    0  0.26111749297E+00  0.24423776833E+02  0.20497218239E+02  0.31886125708E+02  0.00000000000E+00 0.  1.
         11    1    3    3    0    0 -0.12355355410E+02 -0.44825957083E+01 -0.13201478365E+02  0.18628674211E+02  0.51100000000E-03 0. -1.
        -11    1    3    3    0    0  0.53055165302E+01 -0.27858755064E+02 -0.76911041289E+00  0.28369883159E+02  0.51100000000E-03 0.  1.
        -12    1    3    3    0    0  0.67887213865E+01  0.79175739394E+01 -0.65266294610E+01  0.12303316921E+02  0.00000000000E+00 0.  1.
</event>
<event>
 7    1  0.6055092E-013  0.5930193E+02  0.7816164E-02  0.1266605E+00
        -11   -1    0    0    0    0  0.00000000000E+00  0.00000000000E+00  0.45593999997E+02  0.45594000000E+02  0.51100000000E-03 0.  1.
         11   -1    0    0    0    0 -0.00000000000E+00 -0.00000000000E+00 -0.45593999997E+02  0.45594000000E+02  0.51100000000E-03 0. -1.
    9900012    2    1    2    0    0 -0.10136245170E+02 -0.30650273684E+01 -0.30076296935E+02  0.59301929432E+02  0.49999973381E+02 0.  0.
        -12    1    1    2    0    0  0.10136245170E+02  0.30650273684E+01  0.30076296935E+02  0.31886070568E+02  0.00000000000E+00 0.  1.
         11    1    3    3    0    0 -0.92982510203E+01  0.79269520600E+01  0.16116461041E+01  0.12324424710E+02  0.51100000000E-03 0. -1.
        -11    1    3    3    0    0 -0.29776036855E+01 -0.21472316990E+02 -0.12537528990E+02  0.25042287317E+02  0.51100000000E-03 0.  1.
         12    1    3    3    0    0  0.21396095355E+01  0.10480337562E+02 -0.19150414049E+02  0.21935217405E+02  0.00000000000E+00 0. -1.
</event>
<event>
 7    1  0.6055092E-013  0.5930196E+02  0.7816164E-02  0.1266605E+00
        -11   -1    0    0    0    0  0.00000000000E+00  0.00000000000E+00  0.45593999997E+02  0.45594000000E+02  0.51100000000E-03 0.  1.
         11   -1    0    0    0    0 -0.00000000000E+00 -0.00000000000E+00 -0.45593999997E+02  0.45594000000E+02  0.51100000000E-03 0. -1.
    9900012    2    1    2    0    0 -0.17524528401E+02 -0.25098853203E+02  0.89251417469E+01  0.59301957866E+02  0.50000025237E+02 0.  0.
        -12    1    1    2    0    0  0.17524528401E+02  0.25098853203E+02 -0.89251417469E+01  0.31886042134E+02  0.00000000000E+00 0.  1.
         11    1    3    3    0    0 -0.30351828469E+02 -0.13500610257E+02  0.19594906275E+02  0.38567607145E+02  0.51100000000E-03 0. -1.
        -11    1    3    3    0    0  0.44087077218E+01 -0.63243893689E+01 -0.59368752283E+01  0.97304209777E+01  0.51100000000E-03 0.  1.
         12    1    3    3    0    0  0.84185923466E+01 -0.52738535777E+01 -0.47328892998E+01  0.11003929743E+02  0.00000000000E+00 0. -1.
</event>
<event>
 7    1  0.6055092E-013  0.5930194E+02  0.7816164E-02  0.1266605E+00
        -11   -1    0    0    0    0  0.00000000000E+00  0.00000000000E+00  0.45593999997E+02  0.45594000000E+02  0.51100000000E-03 0.  1.
         11   -1    0    0    0    0 -0.00000000000E+00 -0.00000000000E+00 -0.45593999997E+02  0.45594000000E+02  0.51100000000E-03 0. -1.
    9900012    2    1    2    0    0 -0.30372189540E+02  0.23383704887E+00 -0.97054897597E+01  0.59301935510E+02  0.49999984465E+02 0.  0.
        -12    1    1    2    0    0  0.30372189540E+02 -0.23383704887E+00  0.97054897597E+01  0.31886064490E+02  0.00000000000E+00 0.  1.
         11    1    3    3    0    0 -0.59981612839E+01 -0.67632795661E+01  0.11138648648E+02  0.14345361035E+02  0.51100000000E-03 0. -1.
        -11    1    3    3    0    0 -0.37337353092E+01  0.65348204848E+01 -0.22998817308E+02  0.24198972209E+02  0.51100000000E-03 0.  1.
        -12    1    3    3    0    0 -0.20640292947E+02  0.46229613016E+00  0.21546789008E+01  0.20757602265E+02  0.00000000000E+00 0.  1.
</event>
<event>
 7    1  0.6055092E-013  0.5930191E+02  0.7816164E-02  0.1266605E+00
        -11   -1    0    0    0    0  0.00000000000E+00  0.00000000000E+00  0.45593999997E+02  0.45594000000E+02  0.51100000000E-03 0.  1.
         11   -1    0    0    0    0 -0.00000000000E+00 -0.00000000000E+00 -0.45593999997E+02  0.45594000000E+02  0.51100000000E-03 0. -1.
    9900012    2    1    2    0    0  0.14783067721E+02  0.14131732681E+02 -0.24463799360E+02  0.59301914650E+02  0.49999946423E+02 0.  0.
        -12    1    1    2    0    0 -0.14783067721E+02 -0.14131732681E+02  0.24463799360E+02  0.31886085350E+02  0.00000000000E+00 0.  1.
         11    1    3    3    0    0  0.71318072196E+01  0.27336469480E+02 -0.29561056808E+02  0.40890112713E+02  0.51100000000E-03 0. -1.
        -11    1    3    3    0    0 -0.11607947774E+01 -0.65545406002E+00  0.25362436696E+01  0.28652393884E+01  0.51100000000E-03 0.  1.
         12    1    3    3    0    0  0.88120552791E+01 -0.12549282739E+02  0.25610137790E+01  0.15546562549E+02  0.00000000000E+00 0. -1.
</event>
<event>
 7    1  0.6055092E-013  0.5930191E+02  0.7816164E-02  0.1266605E+00
        -11   -1    0    0    0    0  0.00000000000E+00  0.00000000000E+00  0.45593999997E+02  0.45594000000E+02  0.51100000000E-03 0.  1.
         11   -1    0    0    0    0 -0.00000000000E+00 -0.00000000000E+00 -0.45593999997E+02  0.45594000000E+02  0.51100000000E-03 0. -1.
    9900012    2    1    2    0    0  0.65767000452E+01 -0.30976094602E+02  0.37351265750E+01  0.59301912268E+02  0.49999942079E+02 0.  0.
        -12    1    1    2    0    0 -0.65767000452E+01  0.30976094602E+02 -0.37351265750E+01  0.31886087732E+02  0.00000000000E+00 0.  1.
         11    1    3    3    0    0  0.86407446409E+00 -0.21110428963E+02 -0.20271025647E+01  0.21225126165E+02  0.51100000000E-03 0. -1.
        -11    1    3    3    0    0  0.11645261634E+02  0.60263853899E+01  0.14032163407E+02  0.19204974604E+02  0.51100000000E-03 0.  1.
        -12    1    3    3    0    0 -0.59326360532E+01 -0.15892051030E+02 -0.82699342674E+01  0.18871811499E+02  0.00000000000E+00 0.  1.
</event>
<event>
 7    1  0.6055092E-013  0.5930195E+02  0.7816164E-02  0.1266605E+00
        -11   -1    0    0    0    0  0.00000000000E+00  0.00000000000E+00  0.45593999997E+02  0.45594000000E+02  0.51100000000E-03 0.  1.
         11   -1    0    0    0    0 -0.00000000000E+00 -0.00000000000E+00 -0.45593999997E+02  0.45594000000E+02  0.51100000000E-03 0. -1.
    9900012    2    1    2    0    0 -0.13932154698E+02  0.28105881663E+02 -0.57161929808E+01  0.59301946924E+02  0.50000005281E+02 0.  0.
        -12    1    1    2    0    0  0.13932154698E+02 -0.28105881663E+02  0.57161929808E+01  0.31886053076E+02  0.00000000000E+00 0.  1.
         11    1    3    3    0    0 -0.11130447279E+02  0.29956270684E+02 -0.19343189976E+02  0.37355374562E+02  0.51100000000E-03 0. -1.
        -11    1    3    3    0    0 -0.65971642032E+01 -0.51178135669E+01  0.14624407954E+02  0.16840068275E+02  0.51100000000E-03 0.  1.
         12    1    3    3    0    0  0.37954567848E+01  0.32674245463E+01 -0.99741095932E+00  0.51065040872E+01  0.00000000000E+00 0. -1.
</event>
<event>
 7    1  0.6055092E-013  0.5930196E+02  0.7816164E-02  0.1266605E+00
        -11   -1    0    0    0    0  0.00000000000E+00  0.00000000000E+00  0.45593999997E+02  0.45594000000E+02  0.51100000000E-03 0.  1.
         11   -1    0    0    0    0 -0.00000000000E+00 -0.00000000000E+00 -0.45593999997E+02  0.45594000000E+02  0.51100000000E-03 0. -1.
    9900012    2    1    2    0    0 -0.30042279859E+02 -0.91515571308E+01  0.55163305037E+01  0.59301961060E+02  0.50000031063E+02 0.  0.
        -12    1    1    2    0    0  0.30042279859E+02  0.91515571308E+01 -0.55163305037E+01  0.31886038940E+02  0.00000000000E+00 0.  1.
         11    1    3    3    0    0  0.79584744845E+01 -0.57518431217E+00  0.12617711183E+02  0.14928991555E+02  0.51100000000E-03 0. -1.
        -11    1    3    3    0    0 -0.14096072563E+02  0.58340898752E+01  0.10586436543E+01  0.15292370419E+02  0.51100000000E-03 0.  1.
         12    1    3    3    0    0 -0.23904681781E+02 -0.14410462694E+02 -0.81600243332E+01  0.29080599086E+02  0.00000000000E+00 0. -1.
</event>
<event>
 7    1  0.6055092E-013  0.5930194E+02  0.7816164E-02  0.1266605E+00
        -11   -1    0    0    0    0  0.00000000000E+00  0.00000000000E+00  0.45593999997E+02  0.45594000000E+02  0.51100000000E-03 0. -1.
         11   -1    0    0    0    0 -0.00000000000E+00 -0.00000000000E+00 -0.45593999997E+02  0.45594000000E+02  0.51100000000E-03 0.  1.
    9900012    2    1    2    0    0  0.12533188146E+02 -0.29232765401E+02  0.22550977815E+01  0.59301939659E+02  0.49999992032E+02 0.  0.
        -12    1    1    2    0    0 -0.12533188146E+02  0.29232765401E+02 -0.22550977815E+01  0.31886060341E+02  0.00000000000E+00 0.  1.
         11    1    3    3    0    0  0.13264724778E+02 -0.23603998425E+02 -0.11745333280E+01  0.27101313508E+02  0.51100000000E-03 0. -1.
        -11    1    3    3    0    0  0.22447433555E+01  0.12596947606E+02  0.48389041010E+01  0.13679800981E+02  0.51100000000E-03 0.  1.
        -12    1    3    3    0    0 -0.29762799874E+01 -0.18225714582E+02 -0.14092729916E+01  0.18520825169E+02  0.00000000000E+00 0.  1.
</event>
<event>
 7    1  0.6055092E-013  0.5930195E+02  0.7816164E-02  0.1266605E+00
        -11   -1    0    0    0    0  0.00000000000E+00  0.00000000000E+00  0.45593999997E+02  0.45594000000E+02  0.51100000000E-03 0. -1.
         11   -1    0    0    0    0 -0.00000000000E+00 -0.00000000000E+00 -0.45593999997E+02  0.45594000000E+02  0.51100000000E-03 0.  1.
    9900012    2    1    2    0    0  0.28777482617E+00  0.83505381693E+01  0.30771840452E+02  0.59301945574E+02  0.50000002820E+02 0.  0.
        -12    1    1    2    0    0 -0.28777482617E+00 -0.83505381693E+01 -0.30771840452E+02  0.31886054426E+02  0.00000000000E+00 0.  1.
         11    1    3    3    0    0  0.73767487472E+01  0.14523050452E+02  0.14423451907E+02  0.21757099569E+02  0.51100000000E-03 0. -1.
        -11    1    3    3    0    0  0.20113153883E+01 -0.11169664986E+01  0.24322760365E+02  0.24431325706E+02  0.51100000000E-03 0.  1.
        -12    1    3    3    0    0 -0.91002893093E+01 -0.50555457843E+01 -0.79743718193E+01  0.13113520298E+02  0.00000000000E+00 0.  1.
</event>
<event>
 7    1  0.6055092E-013  0.5930195E+02  0.7816164E-02  0.1266605E+00
        -11   -1    0    0    0    0  0.00000000000E+00  0.00000000000E+00  0.45593999997E+02  0.45594000000E+02  0.51100000000E-03 0.  1.
         11   -1    0    0    0    0 -0.00000000000E+00 -0.00000000000E+00 -0.45593999997E+02  0.45594000000E+02  0.51100000000E-03 0. -1.
    9900012    2    1    2    0    0 -0.75884920217E+00  0.21411167373E+02 -0.23615802436E+02  0.59301951874E+02  0.50000014310E+02 0.  0.
        -12    1    1    2    0    0  0.75884920217E+00 -0.21411167373E+02  0.23615802436E+02  0.31886048126E+02  0.00000000000E+00 0.  1.
         11    1    3    3    0    0 -0.67003331481E+01 -0.77937610208E+01  0.78400192004E+01  0.12926835516E+02  0.51100000000E-03 0.  1.
        -11    1    3    3    0    0  0.68050066633E+01  0.78664957789E+01 -0.18976998948E+02  0.21640618310E+02  0.51100000000E-03 0. -1.
        -12    1    3    3    0    0 -0.86352271736E+00  0.21338432615E+02 -0.12478822689E+02  0.24734498047E+02  0.00000000000E+00 0.  1.
</event>
<event>
 7    1  0.6055092E-013  0.5930196E+02  0.7816164E-02  0.1266605E+00
        -11   -1    0    0    0    0  0.00000000000E+00  0.00000000000E+00  0.45593999997E+02  0.45594000000E+02  0.51100000000E-03 0.  1.
         11   -1    0    0    0    0 -0.00000000000E+00 -0.00000000000E+00 -0.45593999997E+02  0.45594000000E+02  0.51100000000E-03 0. -1.
    9900012    2    1    2    0    0  0.79765822183E+01  0.26396285981E+02 -0.16010305665E+02  0.59301958148E+02  0.50000025752E+02 0.  0.
        -12    1    1    2    0    0 -0.79765822183E+01 -0.26396285981E+02  0.16010305665E+02  0.31886041852E+02  0.00000000000E+00 0.  1.
         11    1    3    3    0    0 -0.10060247454E+02 -0.32988859795E+01 -0.93972405053E+01  0.14156247981E+02  0.51100000000E-03 0. -1.
        -11    1    3    3    0    0  0.12024229283E+02  0.23280848102E+02  0.85974882174E+01  0.27577106123E+02  0.51100000000E-03 0.  1.
         12    1    3    3    0    0  0.60126003890E+01  0.64143238591E+01 -0.15210553377E+02  0.17568604044E+02  0.00000000000E+00 0. -1.
</event>
<event>
 7    1  0.6055092E-013  0.5930196E+02  0.7816164E-02  0.1266605E+00
        -11   -1    0    0    0    0  0.00000000000E+00  0.00000000000E+00  0.45593999997E+02  0.45594000000E+02  0.51100000000E-03 0. -1.
         11   -1    0    0    0    0 -0.00000000000E+00 -0.00000000000E+00 -0.45593999997E+02  0.45594000000E+02  0.51100000000E-03 0.  1.
    9900012    2    1    2    0    0 -0.11287875565E+02 -0.11216431591E+02  0.27631413856E+02  0.59301960671E+02  0.50000030354E+02 0.  0.
        -12    1    1    2    0    0  0.11287875565E+02  0.11216431591E+02 -0.27631413856E+02  0.31886039329E+02  0.00000000000E+00 0.  1.
         11    1    3    3    0    0  0.18742594241E+01 -0.14956368265E+02  0.24665413915E+02  0.28906546732E+02  0.51100000000E-03 0. -1.
        -11    1    3    3    0    0 -0.21165149024E+02  0.26731804848E+00 -0.43731459732E-01  0.21166882265E+02  0.51100000000E-03 0.  1.
        -12    1    3    3    0    0  0.80030140350E+01  0.34726186256E+01  0.30097314002E+01  0.92285316744E+01  0.00000000000E+00 0.  1.
</event>
<event>
 7    1  0.6055092E-013  0.5930189E+02  0.7816164E-02  0.1266605E+00
        -11   -1    0    0    0    0  0.00000000000E+00  0.00000000000E+00  0.45593999997E+02  0.45594000000E+02  0.51100000000E-03 0.  1.
         11   -1    0    0    0    0 -0.00000000000E+00 -0.00000000000E+00 -0.45593999997E+02  0.45594000000E+02  0.51100000000E-03 0. -1.
    9900012    2    1    2    0    0  0.21953966245E+02 -0.14457813911E+01 -0.23079362128E+02  0.59301892148E+02  0.49999905384E+02 0.  0.
        -12    1    1    2    0    0 -0.21953966245E+02  0.14457813911E+01  0.23079362128E+02  0.31886107852E+02  0.00000000000E+00 0.  1.
         11    1    3    3    0    0  0.12023359022E+02  0.93511476329E+01  0.10448112596E+02  0.18470738515E+02  0.51100000000E-03 0. -1.
        -11    1    3    3    0    0  0.32210422898E+01 -0.14032129014E+02 -0.14663583348E+02  0.20549852432E+02  0.51100000000E-03 0.  1.
         12    1    3    3    0    0  0.67095649323E+01  0.32351999903E+01 -0.18863891376E+02  0.20281301201E+02  0.00000000000E+00 0. -1.
</event>
<event>
 7    1  0.6055092E-013  0.5930197E+02  0.7816164E-02  0.1266605E+00
        -11   -1    0    0    0    0  0.00000000000E+00  0.00000000000E+00  0.45593999997E+02  0.45594000000E+02  0.51100000000E-03 0.  1.
         11   -1    0    0    0    0 -0.00000000000E+00 -0.00000000000E+00 -0.45593999997E+02  0.45594000000E+02  0.51100000000E-03 0. -1.
    9900012    2    1    2    0    0 -0.10744474308E+02  0.19096729431E+02 -0.23164417306E+02  0.59301968070E+02  0.50000043847E+02 0.  0.
        -12    1    1    2    0    0  0.10744474308E+02 -0.19096729431E+02  0.23164417306E+02  0.31886031930E+02  0.00000000000E+00 0.  1.
         11    1    3    3    0    0 -0.16152529395E+02 -0.85172684875E+01 -0.12709825620E+02  0.22248319844E+02  0.51100000000E-03 0. -1.
        -11    1    3    3    0    0  0.80855968962E+01  0.30475137174E+02 -0.84009778245E+01  0.32629546298E+02  0.51100000000E-03 0.  1.
        -12    1    3    3    0    0 -0.26775418090E+01 -0.28611392551E+01 -0.20536138612E+01  0.44241019277E+01  0.00000000000E+00 0.  1.
</event>
<event>
 7    1  0.6055092E-013  0.5930193E+02  0.7816164E-02  0.1266605E+00
        -11   -1    0    0    0    0  0.00000000000E+00  0.00000000000E+00  0.45593999997E+02  0.45594000000E+02  0.51100000000E-03 0.  1.
         11   -1    0    0    0    0 -0.00000000000E+00 -0.00000000000E+00 -0.45593999997E+02  0.45594000000E+02  0.51100000000E-03 0. -1.
    9900012    2    1    2    0    0 -0.83354208577E+01 -0.17492332353E+02 -0.25323123760E+02  0.59301928919E+02  0.49999972444E+02 0.  0.
        -12    1    1    2    0    0  0.83354208577E+01  0.17492332353E+02  0.25323123760E+02  0.31886071081E+02  0.00000000000E+00 0.  1.
         11    1    3    3    0    0  0.58739539247E+01  0.11163537882E+01 -0.22147846131E+02  0.22940720760E+02  0.51100000000E-03 0. -1.
        -11    1    3    3    0    0 -0.54682911019E+01 -0.24111634173E+02  0.20065786875E+01  0.24805230665E+02  0.51100000000E-03 0.  1.
         12    1    3    3    0    0 -0.87410836804E+01  0.55029480312E+01 -0.51818563170E+01  0.11555977494E+02  0.00000000000E+00 0. -1.
</event>
<event>
 7    1  0.6055092E-013  0.5930190E+02  0.7816164E-02  0.1266605E+00
        -11   -1    0    0    0    0  0.00000000000E+00  0.00000000000E+00  0.45593999997E+02  0.45594000000E+02  0.51100000000E-03 0.  1.
         11   -1    0    0    0    0 -0.00000000000E+00 -0.00000000000E+00 -0.45593999997E+02  0.45594000000E+02  0.51100000000E-03 0. -1.
    9900012    2    1    2    0    0  0.15539358861E+02 -0.11543171034E+02 -0.25337858337E+02  0.59301897441E+02  0.49999915036E+02 0.  0.
        -12    1    1    2    0    0 -0.15539358861E+02  0.11543171034E+02  0.25337858337E+02  0.31886102559E+02  0.00000000000E+00 0.  1.
         11    1    3    3    0    0 -0.20245359727E+01  0.13985911702E+02 -0.33284213527E+01  0.14518362890E+02  0.51100000000E-03 0.  1.
        -11    1    3    3    0    0  0.17643758835E+02 -0.69347116302E+01 -0.50553752368E+01  0.19620124114E+02  0.51100000000E-03 0. -1.
         12    1    3    3    0    0 -0.79864000974E-01 -0.18594371106E+02 -0.16954061747E+02  0.25163410437E+02  0.00000000000E+00 0. -1.
</event>
<event>
 7    1  0.6055092E-013  0.5930189E+02  0.7816164E-02  0.1266605E+00
        -11   -1    0    0    0    0  0.00000000000E+00  0.00000000000E+00  0.45593999997E+02  0.45594000000E+02  0.51100000000E-03 0.  1.
         11   -1    0    0    0    0 -0.00000000000E+00 -0.00000000000E+00 -0.45593999997E+02  0.45594000000E+02  0.51100000000E-03 0. -1.
    9900012    2    1    2    0    0 -0.22014463814E+01  0.28211188934E+02  0.14697148200E+02  0.59301894681E+02  0.49999910003E+02 0.  0.
        -12    1    1    2    0    0  0.22014463814E+01 -0.28211188934E+02 -0.14697148200E+02  0.31886105319E+02  0.00000000000E+00 0.  1.
         11    1    3    3    0    0  0.15169081803E+02  0.87440702466E+01  0.19775004331E+02  0.26412319167E+02  0.51100000000E-03 0. -1.
        -11    1    3    3    0    0 -0.18771838280E+02  0.80443295032E+01 -0.28996167649E+00  0.20424916832E+02  0.51100000000E-03 0.  1.
         12    1    3    3    0    0  0.14013100958E+01  0.11422789184E+02 -0.47878944549E+01  0.12464658681E+02  0.00000000000E+00 0. -1.
</event>
<event>
 7    1  0.6055092E-013  0.5930194E+02  0.7816164E-02  0.1266605E+00
        -11   -1    0    0    0    0  0.00000000000E+00  0.00000000000E+00  0.45593999997E+02  0.45594000000E+02  0.51100000000E-03 0.  1.
         11   -1    0    0    0    0 -0.00000000000E+00 -0.00000000000E+00 -0.45593999997E+02  0.45594000000E+02  0.51100000000E-03 0. -1.
    9900012    2    1    2    0    0 -0.24344403932E+02  0.42768682938E+01 -0.20143954977E+02  0.59301944626E+02  0.50000001091E+02 0.  0.
        -12    1    1    2    0    0  0.24344403932E+02 -0.42768682938E+01  0.20143954977E+02  0.31886055374E+02  0.00000000000E+00 0.  1.
         11    1    3    3    0    0 -0.22513154381E+02 -0.97486620448E+01 -0.18628859706E+02  0.30804430624E+02  0.51100000000E-03 0. -1.
        -11    1    3    3    0    0 -0.77401961444E+01  0.16783919143E+02  0.51358892459E+01  0.19183011670E+02  0.51100000000E-03 0.  1.
         12    1    3    3    0    0  0.59089465934E+01 -0.27583888039E+01 -0.66509845171E+01  0.93145023315E+01  0.00000000000E+00 0. -1.
</event>
<event>
 7    1  0.6055092E-013  0.5930194E+02  0.7816164E-02  0.1266605E+00
        -11   -1    0    0    0    0  0.00000000000E+00  0.00000000000E+00  0.45593999997E+02  0.45594000000E+02  0.51100000000E-03 0.  1.
         11   -1    0    0    0    0 -0.00000000000E+00 -0.00000000000E+00 -0.45593999997E+02  0.45594000000E+02  0.51100000000E-03 0. -1.
    9900012    2    1    2    0    0 -0.19442213733E+02 -0.27794350529E+01 -0.25119626223E+02  0.59301944182E+02  0.50000000282E+02 0.  0.
        -12    1    1    2    0    0  0.19442213733E+02  0.27794350529E+01  0.25119626223E+02  0.31886055818E+02  0.00000000000E+00 0.  1.
         11    1    3    3    0    0  0.10427264529E+02  0.13838087333E+00 -0.16544575572E+02  0.19556839620E+02  0.51100000000E-03 0. -1.
        -11    1    3    3    0    0 -0.10889502978E+02 -0.26824376514E+00  0.87026963557E+01  0.13942386953E+02  0.51100000000E-03 0.  1.
        -12    1    3    3    0    0 -0.18979975284E+02 -0.26495721611E+01 -0.17277747006E+02  0.25802717609E+02  0.00000000000E+00 0.  1.
</event>
<event>
 7    1  0.6055092E-013  0.5930197E+02  0.7816164E-02  0.1266605E+00
        -11   -1    0    0    0    0  0.00000000000E+00  0.00000000000E+00  0.45593999997E+02  0.45594000000E+02  0.51100000000E-03 0.  1.
         11   -1    0    0    0    0 -0.00000000000E+00 -0.00000000000E+00 -0.45593999997E+02  0.45594000000E+02  0.51100000000E-03 0. -1.
    9900012    2    1    2    0    0 -0.14247394600E+02  0.19381904186E+02 -0.20930180660E+02  0.59301969748E+02  0.50000046908E+02 0.  0.
        -12    1    1    2    0    0  0.14247394600E+02 -0.19381904186E+02  0.20930180660E+02  0.31886030252E+02  0.00000000000E+00 0.  1.
         11    1    3    3    0    0 -0.15307598891E+02  0.26639796255E+02 -0.62844188588E+01  0.31360727813E+02  0.51100000000E-03 0. -1.
        -11    1    3    3    0    0 -0.34033384991E+01 -0.56429097253E+01 -0.19839432771E+02  0.20905220306E+02  0.51100000000E-03 0.  1.
         12    1    3    3    0    0  0.44635427906E+01 -0.16149823439E+01  0.51936709699E+01  0.70360216286E+01  0.00000000000E+00 0. -1.
</event>
<event>
 7    1  0.6055092E-013  0.5930194E+02  0.7816164E-02  0.1266605E+00
        -11   -1    0    0    0    0  0.00000000000E+00  0.00000000000E+00  0.45593999997E+02  0.45594000000E+02  0.51100000000E-03 0.  1.
         11   -1    0    0    0    0 -0.00000000000E+00 -0.00000000000E+00 -0.45593999997E+02  0.45594000000E+02  0.51100000000E-03 0. -1.
    9900012    2    1    2    0    0 -0.13409091847E+02  0.17021980018E+02 -0.23391651254E+02  0.59301938840E+02  0.49999990538E+02 0.  0.
        -12    1    1    2    0    0  0.13409091847E+02 -0.17021980018E+02  0.23391651254E+02  0.31886061160E+02  0.00000000000E+00 0.  1.
         11    1    3    3    0    0  0.28088352024E+01 -0.42424604819E+01 -0.27698284086E+02  0.28161728777E+02  0.51100000000E-03 0. -1.
        -11    1    3    3    0    0 -0.11930992888E+01  0.11924099616E+02  0.59371938991E+01  0.13373776924E+02  0.51100000000E-03 0.  1.
         12    1    3    3    0    0 -0.15024827761E+02  0.93403408844E+01 -0.16305610680E+01  0.17766433139E+02  0.00000000000E+00 0. -1.
</event>
<event>
 7    1  0.6055092E-013  0.5930194E+02  0.7816164E-02  0.1266605E+00
        -11   -1    0    0    0    0  0.00000000000E+00  0.00000000000E+00  0.45593999997E+02  0.45594000000E+02  0.51100000000E-03 0. -1.
         11   -1    0    0    0    0 -0.00000000000E+00 -0.00000000000E+00 -0.45593999997E+02  0.45594000000E+02  0.51100000000E-03 0.  1.
    9900012    2    1    2    0    0 -0.58109276748E+01 -0.29132555259E+02 -0.11586546656E+02  0.59301941608E+02  0.49999995588E+02 0.  0.
        -12    1    1    2    0    0  0.58109276748E+01  0.29132555259E+02  0.11586546656E+02  0.31886058392E+02  0.00000000000E+00 0.  1.
         11    1    3    3    0    0 -0.19938675398E+02 -0.30626934622E+02 -0.78688909662E+01  0.37382875040E+02  0.51100000000E-03 0. -1.
        -11    1    3    3    0    0  0.53254739988E+01  0.85960342092E+01 -0.34842728154E+00  0.10117997790E+02  0.51100000000E-03 0.  1.
         12    1    3    3    0    0  0.88022737239E+01 -0.71016548461E+01 -0.33692284080E+01  0.11801068779E+02  0.00000000000E+00 0. -1.
</event>
<event>
 7    1  0.6055092E-013  0.5930192E+02  0.7816164E-02  0.1266605E+00
        -11   -1    0    0    0    0  0.00000000000E+00  0.00000000000E+00  0.45593999997E+02  0.45594000000E+02  0.51100000000E-03 0.  1.
         11   -1    0    0    0    0 -0.00000000000E+00 -0.00000000000E+00 -0.45593999997E+02  0.45594000000E+02  0.51100000000E-03 0. -1.
    9900012    2    1    2    0    0 -0.78140261068E+01  0.23586821638E+02 -0.19983119378E+02  0.59301918098E+02  0.49999952711E+02 0.  0.
        -12    1    1    2    0    0  0.78140261068E+01 -0.23586821638E+02  0.19983119378E+02  0.31886081902E+02  0.00000000000E+00 0.  1.
         11    1    3    3    0    0 -0.17888167032E+02  0.11114937519E+02 -0.22205041384E+01  0.21176850444E+02  0.51100000000E-03 0. -1.
        -11    1    3    3    0    0  0.13396432499E+02  0.11167971757E+02  0.24389187509E+01  0.17610687715E+02  0.51100000000E-03 0.  1.
         12    1    3    3    0    0 -0.33222915732E+01  0.13039123620E+01 -0.20201533990E+02  0.20514379939E+02  0.00000000000E+00 0. -1.
</event>
<event>
 7    1  0.6055092E-013  0.5930196E+02  0.7816164E-02  0.1266605E+00
        -11   -1    0    0    0    0  0.00000000000E+00  0.00000000000E+00  0.45593999997E+02  0.45594000000E+02  0.51100000000E-03 0. -1.
         11   -1    0    0    0    0 -0.00000000000E+00 -0.00000000000E+00 -0.45593999997E+02  0.45594000000E+02  0.51100000000E-03 0.  1.
    9900012    2    1    2    0    0  0.93207366742E+01 -0.21225371912E+02  0.21893544075E+02  0.59301955763E+02  0.50000021402E+02 0.  0.
        -12    1    1    2    0    0 -0.93207366742E+01  0.21225371912E+02 -0.21893544075E+02  0.31886044237E+02  0.00000000000E+00 0.  1.
         11    1    3    3    0    0  0.19907375154E+02  0.63580126071E+01  0.31039166626E+01  0.21127285882E+02  0.51100000000E-03 0. -1.
        -11    1    3    3    0    0 -0.95540662389E+01 -0.10978409856E+02  0.15413305861E+02  0.21198482552E+02  0.51100000000E-03 0.  1.
        -12    1    3    3    0    0 -0.10325722409E+01 -0.16604974663E+02  0.33763215508E+01  0.16976187329E+02  0.00000000000E+00 0.  1.
</event>
<event>
 7    1  0.6055092E-013  0.5930180E+02  0.7816164E-02  0.1266605E+00
        -11   -1    0    0    0    0  0.00000000000E+00  0.00000000000E+00  0.45593999997E+02  0.45594000000E+02  0.51100000000E-03 0.  1.
         11   -1    0    0    0    0 -0.00000000000E+00 -0.00000000000E+00 -0.45593999997E+02  0.45594000000E+02  0.51100000000E-03 0. -1.
    9900012    2    1    2    0    0  0.24571822413E+02 -0.17562089342E+02  0.10223896627E+02  0.59301803912E+02  0.49999744462E+02 0.  0.
        -12    1    1    2    0    0 -0.24571822413E+02  0.17562089342E+02 -0.10223896627E+02  0.31886196088E+02  0.00000000000E+00 0.  1.
         11    1    3    3    0    0 -0.24586893132E+01 -0.64940334848E+01 -0.11333284693E+02  0.13291386919E+02  0.51100000000E-03 0. -1.
        -11    1    3    3    0    0  0.20140289322E+02 -0.15660965983E+02  0.26156241122E+02  0.36538282108E+02  0.51100000000E-03 0.  1.
         12    1    3    3    0    0  0.68902224041E+01  0.45929101261E+01 -0.45990598031E+01  0.94721348849E+01  0.00000000000E+00 0. -1.
</event>
<event>
 7    1  0.6055092E-013  0.5930191E+02  0.7816164E-02  0.1266605E+00
        -11   -1    0    0    0    0  0.00000000000E+00  0.00000000000E+00  0.45593999997E+02  0.45594000000E+02  0.51100000000E-03 0.  1.
         11   -1    0    0    0    0 -0.00000000000E+00 -0.00000000000E+00 -0.45593999997E+02  0.45594000000E+02  0.51100000000E-03 0. -1.
    9900012    2    1    2    0    0 -0.28561899430E+01 -0.31092747231E+02  0.64657502119E+01  0.59301910915E+02  0.49999939610E+02 0.  0.
        -12    1    1    2    0    0  0.28561899430E+01  0.31092747231E+02 -0.64657502119E+01  0.31886089085E+02  0.00000000000E+00 0.  1.
         11    1    3    3    0    0 -0.11049507709E+01 -0.20187828792E+02 -0.17366469816E+02  0.26652647555E+02  0.51100000000E-03 0. -1.
        -11    1    3    3    0    0  0.61165401142E+01 -0.12823409515E+02  0.15650056621E+02  0.21137080381E+02  0.51100000000E-03 0.  1.
         12    1    3    3    0    0 -0.78677792863E+01  0.19184910764E+01  0.81821634076E+01  0.11512182979E+02  0.00000000000E+00 0. -1.
</event>
<event>
 7    1  0.6055092E-013  0.5930201E+02  0.7816164E-02  0.1266605E+00
        -11   -1    0    0    0    0  0.00000000000E+00  0.00000000000E+00  0.45593999997E+02  0.45594000000E+02  0.51100000000E-03 0. -1.
         11   -1    0    0    0    0 -0.00000000000E+00 -0.00000000000E+00 -0.45593999997E+02  0.45594000000E+02  0.51100000000E-03 0.  1.
    9900012    2    1    2    0    0  0.29924045135E+02 -0.10670129953E+02  0.27233273807E+01  0.59302005230E+02  0.50000111618E+02 0.  0.
        -12    1    1    2    0    0 -0.29924045135E+02  0.10670129953E+02 -0.27233273807E+01  0.31885994770E+02  0.00000000000E+00 0.  1.
         11    1    3    3    0    0  0.86600522786E+01 -0.18347526077E+02  0.20100172631E+01  0.20387947132E+02  0.51100000000E-03 0. -1.
        -11    1    3    3    0    0 -0.18630870718E+01  0.14102302299E+02 -0.32362946274E+01  0.14588338725E+02  0.51100000000E-03 0.  1.
        -12    1    3    3    0    0  0.23127079928E+02 -0.64249061746E+01  0.39496047450E+01  0.24325719373E+02  0.00000000000E+00 0.  1.
</event>
<event>
 7    1  0.6055092E-013  0.5930200E+02  0.7816164E-02  0.1266605E+00
        -11   -1    0    0    0    0  0.00000000000E+00  0.00000000000E+00  0.45593999997E+02  0.45594000000E+02  0.51100000000E-03 0.  1.
         11   -1    0    0    0    0 -0.00000000000E+00 -0.00000000000E+00 -0.45593999997E+02  0.45594000000E+02  0.51100000000E-03 0. -1.
    9900012    2    1    2    0    0 -0.51741382647E+01  0.91614844369E+01 -0.30100045300E+02  0.59301996316E+02  0.50000095361E+02 0.  0.
        -12    1    1    2    0    0  0.51741382647E+01 -0.91614844369E+01  0.30100045300E+02  0.31886003684E+02  0.00000000000E+00 0.  1.
         11    1    3    3    0    0 -0.11438539169E+02  0.90206321099E+01 -0.24263238936E+02  0.28300472539E+02  0.51100000000E-03 0. -1.
        -11    1    3    3    0    0 -0.14480578169E+00  0.56514307655E+01  0.10884622228E+02  0.12265179971E+02  0.51100000000E-03 0.  1.
        -12    1    3    3    0    0  0.64092066856E+01 -0.55105784385E+01 -0.16721428592E+02  0.18736343806E+02  0.00000000000E+00 0.  1.
</event>
<event>
 7    1  0.6055092E-013  0.5930194E+02  0.7816164E-02  0.1266605E+00
        -11   -1    0    0    0    0  0.00000000000E+00  0.00000000000E+00  0.45593999997E+02  0.45594000000E+02  0.51100000000E-03 0.  1.
         11   -1    0    0    0    0 -0.00000000000E+00 -0.00000000000E+00 -0.45593999997E+02  0.45594000000E+02  0.51100000000E-03 0. -1.
    9900012    2    1    2    0    0 -0.27885383744E+02 -0.11829432499E+02  0.99594683808E+01  0.59301935485E+02  0.49999984420E+02 0.  0.
        -12    1    1    2    0    0  0.27885383744E+02  0.11829432499E+02 -0.99594683808E+01  0.31886064515E+02  0.00000000000E+00 0.  1.
         11    1    3    3    0    0 -0.18988080926E+02  0.63454204688E+01 -0.55235096630E+01  0.20768262745E+02  0.51100000000E-03 0. -1.
        -11    1    3    3    0    0  0.92940817511E+01 -0.27745381682E+01  0.10287978461E+02  0.14139325257E+02  0.51100000000E-03 0.  1.
        -12    1    3    3    0    0 -0.18191384569E+02 -0.15400314799E+02  0.51949995827E+01  0.24394347483E+02  0.00000000000E+00 0.  1.
</event>
<event>
 7    1  0.6055092E-013  0.5930197E+02  0.7816164E-02  0.1266605E+00
        -11   -1    0    0    0    0  0.00000000000E+00  0.00000000000E+00  0.45593999997E+02  0.45594000000E+02  0.51100000000E-03 0.  1.
         11   -1    0    0    0    0 -0.00000000000E+00 -0.00000000000E+00 -0.45593999997E+02  0.45594000000E+02  0.51100000000E-03 0. -1.
    9900012    2    1    2    0    0  0.31176031395E+02  0.44308674108E+01 -0.50141501499E+01  0.59301965106E+02  0.50000038442E+02 0.  0.
        -12    1    1    2    0    0 -0.31176031395E+02 -0.44308674108E+01  0.50141501499E+01  0.31886034894E+02  0.00000000000E+00 0.  1.
         11    1    3    3    0    0  0.17201066256E+02  0.13133247184E+02 -0.17344113959E+02  0.27734043182E+02  0.51100000000E-03 0. -1.
        -11    1    3    3    0    0  0.34571162965E+01 -0.14933565873E+02  0.18013861449E+01  0.15433989603E+02  0.51100000000E-03 0.  1.
         12    1    3    3    0    0  0.10517848843E+02  0.62311860996E+01  0.10528577664E+02  0.16133932320E+02  0.00000000000E+00 0. -1.
</event>
<event>
 7    1  0.6055092E-013  0.5930197E+02  0.7816164E-02  0.1266605E+00
        -11   -1    0    0    0    0  0.00000000000E+00  0.00000000000E+00  0.45593999997E+02  0.45594000000E+02  0.51100000000E-03 0.  1.
         11   -1    0    0    0    0 -0.00000000000E+00 -0.00000000000E+00 -0.45593999997E+02  0.45594000000E+02  0.51100000000E-03 0. -1.
    9900012    2    1    2    0    0 -0.14688514161E+02  0.19603204433E+02 -0.20412759341E+02  0.59301971458E+02  0.50000050025E+02 0.  0.
        -12    1    1    2    0    0  0.14688514161E+02 -0.19603204433E+02  0.20412759341E+02  0.31886028542E+02  0.00000000000E+00 0.  1.
         11    1    3    3    0    0 -0.21012787325E+02  0.16747917621E+02  0.82299937215E+01  0.28102718245E+02  0.51100000000E-03 0. -1.
        -11    1    3    3    0    0  0.11188870010E+01 -0.23207756696E+01 -0.18501132977E+02  0.18679663528E+02  0.51100000000E-03 0.  1.
         12    1    3    3    0    0  0.52053861629E+01  0.51760624811E+01 -0.10141620085E+02  0.12519589685E+02  0.00000000000E+00 0. -1.
</event>
<event>
 7    1  0.6055092E-013  0.5930200E+02  0.7816164E-02  0.1266605E+00
        -11   -1    0    0    0    0  0.00000000000E+00  0.00000000000E+00  0.45593999997E+02  0.45594000000E+02  0.51100000000E-03 0.  1.
         11   -1    0    0    0    0 -0.00000000000E+00 -0.00000000000E+00 -0.45593999997E+02  0.45594000000E+02  0.51100000000E-03 0. -1.
    9900012    2    1    2    0    0 -0.12197458654E+02 -0.27260576120E+02  0.11171380904E+02  0.59302003711E+02  0.50000108848E+02 0.  0.
        -12    1    1    2    0    0  0.12197458654E+02  0.27260576120E+02 -0.11171380904E+02  0.31885996289E+02  0.00000000000E+00 0.  1.
         11    1    3    3    0    0 -0.33613218454E+01  0.83225260933E+01 -0.91194957594E+01  0.12795629265E+02  0.51100000000E-03 0. -1.
        -11    1    3    3    0    0 -0.13331422004E+02 -0.33871036515E+02  0.15039210431E+02  0.39384664247E+02  0.51100000000E-03 0.  1.
        -12    1    3    3    0    0  0.44952851949E+01 -0.17120656990E+01  0.52516662322E+01  0.71217101988E+01  0.00000000000E+00 0.  1.
</event>
<event>
 7    1  0.6055092E-013  0.5930194E+02  0.7816164E-02  0.1266605E+00
        -11   -1    0    0    0    0  0.00000000000E+00  0.00000000000E+00  0.45593999997E+02  0.45594000000E+02  0.51100000000E-03 0.  1.
         11   -1    0    0    0    0 -0.00000000000E+00 -0.00000000000E+00 -0.45593999997E+02  0.45594000000E+02  0.51100000000E-03 0. -1.
    9900012    2    1    2    0    0 -0.34082712917E+01 -0.31577327469E+02  0.28243593621E+01  0.59301938326E+02  0.49999989601E+02 0.  0.
        -12    1    1    2    0    0  0.34082712917E+01  0.31577327469E+02 -0.28243593621E+01  0.31886061674E+02  0.00000000000E+00 0.  1.
         11    1    3    3    0    0 -0.50320334870E+01 -0.37069785990E+01 -0.62791813069E+01  0.88595242250E+01  0.51100000000E-03 0. -1.
        -11    1    3    3    0    0 -0.64634396698E+01 -0.23703641485E+02  0.23117082783E+02  0.33734821604E+02  0.51100000000E-03 0.  1.
        -12    1    3    3    0    0  0.80872018651E+01 -0.41667073851E+01 -0.14013542114E+02  0.16707592497E+02  0.00000000000E+00 0.  1.
</event>
<event>
 7    1  0.6055092E-013  0.5930195E+02  0.7816164E-02  0.1266605E+00
        -11   -1    0    0    0    0  0.00000000000E+00  0.00000000000E+00  0.45593999997E+02  0.45594000000E+02  0.51100000000E-03 0.  1.
         11   -1    0    0    0    0 -0.00000000000E+00 -0.00000000000E+00 -0.45593999997E+02  0.45594000000E+02  0.51100000000E-03 0. -1.
    9900012    2    1    2    0    0  0.13341601981E+02 -0.14615031608E+02 -0.25002457478E+02  0.59301947057E+02  0.50000005525E+02 0.  0.
        -12    1    1    2    0    0 -0.13341601981E+02  0.14615031608E+02  0.25002457478E+02  0.31886052943E+02  0.00000000000E+00 0.  1.
         11    1    3    3    0    0  0.41148657394E+01  0.53850001927E+01  0.66891401386E+01  0.95223391656E+01  0.51100000000E-03 0.  1.
        -11    1    3    3    0    0  0.55676670531E+01 -0.21156043835E+02 -0.37146838825E+02  0.43109914661E+02  0.51100000000E-03 0. -1.
         12    1    3    3    0    0  0.36590691881E+01  0.11560120344E+01  0.54552412081E+01  0.66696932303E+01  0.00000000000E+00 0. -1.
</event>
<event>
 7    1  0.6055092E-013  0.5930195E+02  0.7816164E-02  0.1266605E+00
        -11   -1    0    0    0    0  0.00000000000E+00  0.00000000000E+00  0.45593999997E+02  0.45594000000E+02  0.51100000000E-03 0.  1.
         11   -1    0    0    0    0 -0.00000000000E+00 -0.00000000000E+00 -0.45593999997E+02  0.45594000000E+02  0.51100000000E-03 0. -1.
    9900012    2    1    2    0    0  0.21663384343E+02 -0.20107562504E+02 -0.11962605860E+02  0.59301949288E+02  0.50000009594E+02 0.  0.
        -12    1    1    2    0    0 -0.21663384343E+02  0.20107562504E+02  0.11962605860E+02  0.31886050712E+02  0.00000000000E+00 0.  1.
         11    1    3    3    0    0 -0.70272697434E+01  0.12322590034E+01  0.98349004759E+01  0.12150154317E+02  0.51100000000E-03 0.  1.
        -11    1    3    3    0    0  0.30108709112E+02 -0.12498340824E+02 -0.14872774411E+02  0.35832140694E+02  0.51100000000E-03 0. -1.
        -12    1    3    3    0    0 -0.14180550263E+01 -0.88414806829E+01 -0.69247319248E+01  0.11319654277E+02  0.00000000000E+00 0.  1.
</event>
<event>
 7    1  0.6055092E-013  0.5930192E+02  0.7816164E-02  0.1266605E+00
        -11   -1    0    0    0    0  0.00000000000E+00  0.00000000000E+00  0.45593999997E+02  0.45594000000E+02  0.51100000000E-03 0.  1.
         11   -1    0    0    0    0 -0.00000000000E+00 -0.00000000000E+00 -0.45593999997E+02  0.45594000000E+02  0.51100000000E-03 0. -1.
    9900012    2    1    2    0    0 -0.26123720392E+02  0.17409047397E+02 -0.55855335469E+01  0.59301923362E+02  0.49999962310E+02 0.  0.
        -12    1    1    2    0    0  0.26123720392E+02 -0.17409047397E+02  0.55855335469E+01  0.31886076638E+02  0.00000000000E+00 0.  1.
         11    1    3    3    0    0 -0.66268246556E+01  0.29294014816E+02 -0.94847105199E+01  0.31496251253E+02  0.51100000000E-03 0. -1.
        -11    1    3    3    0    0 -0.11396758527E+02 -0.67897071464E+01 -0.55289160716E+01  0.14372026344E+02  0.51100000000E-03 0.  1.
         12    1    3    3    0    0 -0.81001372100E+01 -0.50952602734E+01  0.94280930446E+01  0.13433645765E+02  0.00000000000E+00 0. -1.
</event>
<event>
 7    1  0.6055092E-013  0.5930196E+02  0.7816164E-02  0.1266605E+00
        -11   -1    0    0    0    0  0.00000000000E+00  0.00000000000E+00  0.45593999997E+02  0.45594000000E+02  0.51100000000E-03 0. -1.
         11   -1    0    0    0    0 -0.00000000000E+00 -0.00000000000E+00 -0.45593999997E+02  0.45594000000E+02  0.51100000000E-03 0.  1.
    9900012    2    1    2    0    0  0.10008186611E+02 -0.26614373650E+02 -0.14430199680E+02  0.59301963137E+02  0.50000034850E+02 0.  0.
        -12    1    1    2    0    0 -0.10008186611E+02  0.26614373650E+02  0.14430199680E+02  0.31886036863E+02  0.00000000000E+00 0.  1.
         11    1    3    3    0    0  0.59881336663E+00 -0.24697328904E+02 -0.22740506532E+02  0.33577481592E+02  0.51100000000E-03 0. -1.
        -11    1    3    3    0    0 -0.26100792671E+01 -0.58116565412E+01  0.11088110241E+02  0.12788043420E+02  0.51100000000E-03 0.  1.
         12    1    3    3    0    0  0.12019452512E+02  0.38946117948E+01 -0.27778033877E+01  0.12936438125E+02  0.00000000000E+00 0. -1.
</event>
<event>
 7    1  0.6055092E-013  0.5930176E+02  0.7816164E-02  0.1266605E+00
        -11   -1    0    0    0    0  0.00000000000E+00  0.00000000000E+00  0.45593999997E+02  0.45594000000E+02  0.51100000000E-03 0. -1.
         11   -1    0    0    0    0 -0.00000000000E+00 -0.00000000000E+00 -0.45593999997E+02  0.45594000000E+02  0.51100000000E-03 0.  1.
    9900012    2    1    2    0    0  0.18695669692E+02 -0.15264755692E+02  0.20837261573E+02  0.59301759999E+02  0.49999664374E+02 0.  0.
        -12    1    1    2    0    0 -0.18695669692E+02  0.15264755692E+02 -0.20837261573E+02  0.31886240001E+02  0.00000000000E+00 0.  1.
         11    1    3    3    0    0  0.35238393688E+02 -0.53841161606E+01  0.11322110678E+02  0.37402182918E+02  0.51100000000E-03 0. -1.
        -11    1    3    3    0    0 -0.46315791665E+01 -0.42908459053E+01  0.47681457859E+01  0.79118960215E+01  0.51100000000E-03 0.  1.
         12    1    3    3    0    0 -0.11911144829E+02 -0.55897936258E+01  0.47470051087E+01  0.13987681060E+02  0.00000000000E+00 0. -1.
</event>
<event>
 7    1  0.6055092E-013  0.5930192E+02  0.7816164E-02  0.1266605E+00
        -11   -1    0    0    0    0  0.00000000000E+00  0.00000000000E+00  0.45593999997E+02  0.45594000000E+02  0.51100000000E-03 0.  1.
         11   -1    0    0    0    0 -0.00000000000E+00 -0.00000000000E+00 -0.45593999997E+02  0.45594000000E+02  0.51100000000E-03 0. -1.
    9900012    2    1    2    0    0  0.16064544115E+02  0.25892831762E+02  0.93922237878E+01  0.59301918680E+02  0.49999953771E+02 0.  0.
        -12    1    1    2    0    0 -0.16064544115E+02 -0.25892831762E+02 -0.93922237878E+01  0.31886081320E+02  0.00000000000E+00 0.  1.
         11    1    3    3    0    0 -0.12261505216E+02  0.21823223665E+02  0.10170839597E+02  0.27019318638E+02  0.51100000000E-03 0. -1.
        -11    1    3    3    0    0  0.82874954068E+01 -0.54132910134E+01 -0.19235050804E+01  0.10083956157E+02  0.51100000000E-03 0.  1.
         12    1    3    3    0    0  0.20038553924E+02  0.94828991109E+01  0.11448892712E+01  0.22198643885E+02  0.00000000000E+00 0. -1.
</event>
<event>
 7    1  0.6055092E-013  0.5930197E+02  0.7816164E-02  0.1266605E+00
        -11   -1    0    0    0    0  0.00000000000E+00  0.00000000000E+00  0.45593999997E+02  0.45594000000E+02  0.51100000000E-03 0. -1.
         11   -1    0    0    0    0 -0.00000000000E+00 -0.00000000000E+00 -0.45593999997E+02  0.45594000000E+02  0.51100000000E-03 0.  1.
    9900012    2    1    2    0    0  0.26837294315E+02 -0.13492940575E+02  0.10696679439E+02  0.59301972299E+02  0.50000051560E+02 0.  0.
        -12    1    1    2    0    0 -0.26837294315E+02  0.13492940575E+02 -0.10696679439E+02  0.31886027701E+02  0.00000000000E+00 0.  1.
         11    1    3    3    0    0  0.17678124906E+02 -0.30257810138E+01 -0.18667301915E+02  0.25887054911E+02  0.51100000000E-03 0.  1.
        -11    1    3    3    0    0  0.34743629903E+01 -0.91191886433E+01  0.21565312797E+02  0.23670519978E+02  0.51100000000E-03 0. -1.
        -12    1    3    3    0    0  0.56848064192E+01 -0.13479709184E+01  0.77986685569E+01  0.97443974098E+01  0.00000000000E+00 0.  1.
</event>
<event>
 7    1  0.6055092E-013  0.5930196E+02  0.7816164E-02  0.1266605E+00
        -11   -1    0    0    0    0  0.00000000000E+00  0.00000000000E+00  0.45593999997E+02  0.45594000000E+02  0.51100000000E-03 0. -1.
         11   -1    0    0    0    0 -0.00000000000E+00 -0.00000000000E+00 -0.45593999997E+02  0.45594000000E+02  0.51100000000E-03 0.  1.
    9900012    2    1    2    0    0 -0.26523805467E+02  0.23095807720E+01  0.17546305548E+02  0.59301964527E+02  0.50000037386E+02 0.  0.
        -12    1    1    2    0    0  0.26523805467E+02 -0.23095807720E+01 -0.17546305548E+02  0.31886035473E+02  0.00000000000E+00 0.  1.
         11    1    3    3    0    0 -0.15166757087E+02  0.61912378971E+01  0.33471185580E+01  0.16720201857E+02  0.51100000000E-03 0. -1.
        -11    1    3    3    0    0  0.47893152849E+01 -0.12519170917E+02  0.19368742297E+02  0.23554518882E+02  0.51100000000E-03 0.  1.
        -12    1    3    3    0    0 -0.16146363664E+02  0.86375137921E+01 -0.51695553068E+01  0.19027243788E+02  0.00000000000E+00 0.  1.
</event>
<event>
 7    1  0.6055092E-013  0.5930192E+02  0.7816164E-02  0.1266605E+00
        -11   -1    0    0    0    0  0.00000000000E+00  0.00000000000E+00  0.45593999997E+02  0.45594000000E+02  0.51100000000E-03 0.  1.
         11   -1    0    0    0    0 -0.00000000000E+00 -0.00000000000E+00 -0.45593999997E+02  0.45594000000E+02  0.51100000000E-03 0. -1.
    9900012    2    1    2    0    0 -0.10461555527E+02 -0.10952275799E+02 -0.28059323595E+02  0.59301919497E+02  0.49999955262E+02 0.  0.
        -12    1    1    2    0    0  0.10461555527E+02  0.10952275799E+02  0.28059323595E+02  0.31886080503E+02  0.00000000000E+00 0.  1.
         11    1    3    3    0    0 -0.17148797609E+02 -0.14091401790E+01 -0.23507992926E+02  0.29132330273E+02  0.51100000000E-03 0. -1.
        -11    1    3    3    0    0  0.55246344120E+01 -0.19107760005E+02 -0.10499855904E+01  0.19918095988E+02  0.51100000000E-03 0.  1.
        -12    1    3    3    0    0  0.11626076699E+01  0.95646243844E+01 -0.35013450788E+01  0.10251493236E+02  0.00000000000E+00 0.  1.
</event>
<event>
 7    1  0.6055092E-013  0.5930195E+02  0.7816164E-02  0.1266605E+00
        -11   -1    0    0    0    0  0.00000000000E+00  0.00000000000E+00  0.45593999997E+02  0.45594000000E+02  0.51100000000E-03 0.  1.
         11   -1    0    0    0    0 -0.00000000000E+00 -0.00000000000E+00 -0.45593999997E+02  0.45594000000E+02  0.51100000000E-03 0. -1.
    9900012    2    1    2    0    0  0.31093939958E+02  0.65406137610E+01  0.26660010618E+01  0.59301948314E+02  0.50000007817E+02 0.  0.
        -12    1    1    2    0    0 -0.31093939958E+02 -0.65406137610E+01 -0.26660010618E+01  0.31886051686E+02  0.00000000000E+00 0.  1.
         11    1    3    3    0    0  0.31739670177E+02  0.69210198714E+01 -0.13554686910E+02  0.35199953360E+02  0.51100000000E-03 0. -1.
        -11    1    3    3    0    0 -0.18331301970E+01 -0.89341391875E+01  0.94024601948E+01  0.13099063605E+02  0.51100000000E-03 0.  1.
        -12    1    3    3    0    0  0.11873999776E+01  0.85537330771E+01  0.68182277773E+01  0.11002931350E+02  0.00000000000E+00 0.  1.
</event>
<event>
 7    1  0.6055092E-013  0.5930194E+02  0.7816164E-02  0.1266605E+00
        -11   -1    0    0    0    0  0.00000000000E+00  0.00000000000E+00  0.45593999997E+02  0.45594000000E+02  0.51100000000E-03 0.  1.
         11   -1    0    0    0    0 -0.00000000000E+00 -0.00000000000E+00 -0.45593999997E+02  0.45594000000E+02  0.51100000000E-03 0. -1.
    9900012    2    1    2    0    0  0.26233622699E+02  0.62945696652E+01  0.16996945022E+02  0.59301941804E+02  0.49999995945E+02 0.  0.
        -12    1    1    2    0    0 -0.26233622699E+02 -0.62945696652E+01 -0.16996945022E+02  0.31886058196E+02  0.00000000000E+00 0.  1.
         11    1    3    3    0    0  0.63404520826E+01  0.14006431627E+01 -0.17124756649E+02  0.18314486736E+02  0.51100000000E-03 0. -1.
        -11    1    3    3    0    0  0.34427281226E+01 -0.24903926916E+01  0.10047488910E+02  0.10909008495E+02  0.51100000000E-03 0.  1.
         12    1    3    3    0    0  0.16450442493E+02  0.73843191942E+01  0.24074212760E+02  0.30078446573E+02  0.00000000000E+00 0. -1.
</event>
<event>
 7    1  0.6055092E-013  0.5930194E+02  0.7816164E-02  0.1266605E+00
        -11   -1    0    0    0    0  0.00000000000E+00  0.00000000000E+00  0.45593999997E+02  0.45594000000E+02  0.51100000000E-03 0.  1.
         11   -1    0    0    0    0 -0.00000000000E+00 -0.00000000000E+00 -0.45593999997E+02  0.45594000000E+02  0.51100000000E-03 0. -1.
    9900012    2    1    2    0    0 -0.14031195488E+02  0.25054353882E+02 -0.13860943220E+02  0.59301939689E+02  0.49999992086E+02 0.  0.
        -12    1    1    2    0    0  0.14031195488E+02 -0.25054353882E+02  0.13860943220E+02  0.31886060311E+02  0.00000000000E+00 0.  1.
         11    1    3    3    0    0  0.13314399958E+02  0.20997452246E+02 -0.12343668421E+02  0.27758465329E+02  0.51100000000E-03 0. -1.
        -11    1    3    3    0    0 -0.14885001092E+02 -0.41678152507E+01  0.33949076807E+01  0.15825907238E+02  0.51100000000E-03 0.  1.
         12    1    3    3    0    0 -0.12460594354E+02  0.82247168866E+01 -0.49121824790E+01  0.15717567122E+02  0.00000000000E+00 0. -1.
</event>
<event>
 7    1  0.6055092E-013  0.5930199E+02  0.7816164E-02  0.1266605E+00
        -11   -1    0    0    0    0  0.00000000000E+00  0.00000000000E+00  0.45593999997E+02  0.45594000000E+02  0.51100000000E-03 0.  1.
         11   -1    0    0    0    0 -0.00000000000E+00 -0.00000000000E+00 -0.45593999997E+02  0.45594000000E+02  0.51100000000E-03 0. -1.
    9900012    2    1    2    0    0  0.12062322019E+02 -0.89402214552E+01 -0.28129885135E+02  0.59301990374E+02  0.50000084524E+02 0.  0.
        -12    1    1    2    0    0 -0.12062322019E+02  0.89402214552E+01  0.28129885135E+02  0.31886009626E+02  0.00000000000E+00 0.  1.
         11    1    3    3    0    0  0.84289281745E+01 -0.48882469546E+01 -0.38630170001E+01  0.10481635801E+02  0.51100000000E-03 0. -1.
        -11    1    3    3    0    0 -0.12855460936E+02 -0.87363822851E+01  0.37377250480E+01  0.15986176532E+02  0.51100000000E-03 0.  1.
        -12    1    3    3    0    0  0.16488854780E+02  0.46844077845E+01 -0.28004593183E+02  0.32834178041E+02  0.00000000000E+00 0.  1.
</event>
<event>
 7    1  0.6055092E-013  0.5930194E+02  0.7816164E-02  0.1266605E+00
        -11   -1    0    0    0    0  0.00000000000E+00  0.00000000000E+00  0.45593999997E+02  0.45594000000E+02  0.51100000000E-03 0.  1.
         11   -1    0    0    0    0 -0.00000000000E+00 -0.00000000000E+00 -0.45593999997E+02  0.45594000000E+02  0.51100000000E-03 0. -1.
    9900012    2    1    2    0    0  0.23393182048E+02 -0.29958148195E+01 -0.21459386443E+02  0.59301935030E+02  0.49999983590E+02 0.  0.
        -12    1    1    2    0    0 -0.23393182048E+02  0.29958148195E+01  0.21459386443E+02  0.31886064970E+02  0.00000000000E+00 0.  1.
         11    1    3    3    0    0  0.40801559121E+01  0.43290272448E+01  0.14157098204E+02  0.15356157689E+02  0.51100000000E-03 0. -1.
        -11    1    3    3    0    0  0.49292393127E+01 -0.83995881577E+01 -0.22218946976E+02  0.24259680261E+02  0.51100000000E-03 0.  1.
         12    1    3    3    0    0  0.14383786823E+02  0.10747460935E+01 -0.13397537672E+02  0.19686097079E+02  0.00000000000E+00 0. -1.
</event>
<event>
 7    1  0.6055092E-013  0.5930188E+02  0.7816164E-02  0.1266605E+00
        -11   -1    0    0    0    0  0.00000000000E+00  0.00000000000E+00  0.45593999997E+02  0.45594000000E+02  0.51100000000E-03 0.  1.
         11   -1    0    0    0    0 -0.00000000000E+00 -0.00000000000E+00 -0.45593999997E+02  0.45594000000E+02  0.51100000000E-03 0. -1.
    9900012    2    1    2    0    0  0.47326552414E+01  0.72978790932E+01  0.30676828494E+02  0.59301876508E+02  0.49999876860E+02 0.  0.
        -12    1    1    2    0    0 -0.47326552414E+01 -0.72978790932E+01 -0.30676828494E+02  0.31886123492E+02  0.00000000000E+00 0.  1.
         11    1    3    3    0    0 -0.39605702786E+01 -0.10919259865E+02  0.70344890285E+01  0.13579410484E+02  0.51100000000E-03 0. -1.
        -11    1    3    3    0    0  0.48359171098E+01  0.10509710971E+02 -0.72482777816E+01  0.13652019999E+02  0.51100000000E-03 0.  1.
        -12    1    3    3    0    0  0.38573084101E+01  0.77074279879E+01  0.30890617247E+02  0.32070446026E+02  0.00000000000E+00 0.  1.
</event>
<event>
 7    1  0.6055092E-013  0.5930195E+02  0.7816164E-02  0.1266605E+00
        -11   -1    0    0    0    0  0.00000000000E+00  0.00000000000E+00  0.45593999997E+02  0.45594000000E+02  0.51100000000E-03 0.  1.
         11   -1    0    0    0    0 -0.00000000000E+00 -0.00000000000E+00 -0.45593999997E+02  0.45594000000E+02  0.51100000000E-03 0. -1.
    9900012    2    1    2    0    0  0.26763573757E+02 -0.78997132606E+01 -0.15428095575E+02  0.59301945322E+02  0.50000002361E+02 0.  0.
        -12    1    1    2    0    0 -0.26763573757E+02  0.78997132606E+01  0.15428095575E+02  0.31886054678E+02  0.00000000000E+00 0.  1.
         11    1    3    3    0    0  0.17933606750E+01 -0.21916756688E+02 -0.30669415777E+01  0.22202848852E+02  0.51100000000E-03 0. -1.
        -11    1    3    3    0    0  0.18383629586E+01  0.57437823024E+01 -0.10938807726E+02  0.12491121977E+02  0.51100000000E-03 0.  1.
         12    1    3    3    0    0  0.23131850123E+02  0.82732611250E+01 -0.14223462706E+01  0.24607974494E+02  0.00000000000E+00 0. -1.
</event>
<event>
 7    1  0.6055092E-013  0.5930194E+02  0.7816164E-02  0.1266605E+00
        -11   -1    0    0    0    0  0.00000000000E+00  0.00000000000E+00  0.45593999997E+02  0.45594000000E+02  0.51100000000E-03 0. -1.
         11   -1    0    0    0    0 -0.00000000000E+00 -0.00000000000E+00 -0.45593999997E+02  0.45594000000E+02  0.51100000000E-03 0.  1.
    9900012    2    1    2    0    0  0.24596591246E+01 -0.29363990936E+02  0.12183059983E+02  0.59301939766E+02  0.49999992228E+02 0.  0.
        -12    1    1    2    0    0 -0.24596591246E+01  0.29363990936E+02 -0.12183059983E+02  0.31886060234E+02  0.00000000000E+00 0.  1.
         11    1    3    3    0    0  0.15529446651E+02  0.61336827985E+01  0.13684753987E+01  0.16752865521E+02  0.51100000000E-03 0. -1.
        -11    1    3    3    0    0  0.18598599975E+01 -0.18096482663E+02  0.39533423277E+01  0.18616408886E+02  0.51100000000E-03 0.  1.
         12    1    3    3    0    0 -0.14929647524E+02 -0.17401191072E+02  0.68612422567E+01  0.23932665360E+02  0.00000000000E+00 0. -1.
</event>
<event>
 7    1  0.6055092E-013  0.5930194E+02  0.7816164E-02  0.1266605E+00
        -11   -1    0    0    0    0  0.00000000000E+00  0.00000000000E+00  0.45593999997E+02  0.45594000000E+02  0.51100000000E-03 0. -1.
         11   -1    0    0    0    0 -0.00000000000E+00 -0.00000000000E+00 -0.45593999997E+02  0.45594000000E+02  0.51100000000E-03 0.  1.
    9900012    2    1    2    0    0 -0.14971594034E+02 -0.27439415639E+02  0.62968667111E+01  0.59301942092E+02  0.49999996470E+02 0.  0.
        -12    1    1    2    0    0  0.14971594034E+02  0.27439415639E+02 -0.62968667111E+01  0.31886057908E+02  0.00000000000E+00 0.  1.
         11    1    3    3    0    0  0.86862567758E+00 -0.10820989713E+02  0.14420076477E+02  0.18049568826E+02  0.51100000000E-03 0. -1.
        -11    1    3    3    0    0 -0.20108612860E+02  0.20460423209E+01  0.58007957370E+00  0.20220758959E+02  0.51100000000E-03 0.  1.
        -12    1    3    3    0    0  0.42683931483E+01 -0.18664468248E+02 -0.87032893395E+01  0.21031614307E+02  0.00000000000E+00 0.  1.
</event>
<event>
 7    1  0.6055092E-013  0.5930195E+02  0.7816164E-02  0.1266605E+00
        -11   -1    0    0    0    0  0.00000000000E+00  0.00000000000E+00  0.45593999997E+02  0.45594000000E+02  0.51100000000E-03 0. -1.
         11   -1    0    0    0    0 -0.00000000000E+00 -0.00000000000E+00 -0.45593999997E+02  0.45594000000E+02  0.51100000000E-03 0.  1.
    9900012    2    1    2    0    0  0.10312283097E+02 -0.20736146149E+02  0.21917785147E+02  0.59301949044E+02  0.50000009149E+02 0.  0.
        -12    1    1    2    0    0 -0.10312283097E+02  0.20736146149E+02 -0.21917785147E+02  0.31886050956E+02  0.00000000000E+00 0.  1.
         11    1    3    3    0    0  0.82969833993E+01  0.91828411089E+01 -0.95665003946E+01  0.15642328293E+02  0.51100000000E-03 0.  1.
        -11    1    3    3    0    0  0.24904925906E+01 -0.18618261830E+02  0.21733770395E+02  0.28726277217E+02  0.51100000000E-03 0. -1.
        -12    1    3    3    0    0 -0.47519289280E+00 -0.11300725429E+02  0.97505151464E+01  0.14933343534E+02  0.00000000000E+00 0.  1.
</event>
<event>
 7    1  0.6055092E-013  0.5930196E+02  0.7816164E-02  0.1266605E+00
        -11   -1    0    0    0    0  0.00000000000E+00  0.00000000000E+00  0.45593999997E+02  0.45594000000E+02  0.51100000000E-03 0. -1.
         11   -1    0    0    0    0 -0.00000000000E+00 -0.00000000000E+00 -0.45593999997E+02  0.45594000000E+02  0.51100000000E-03 0.  1.
    9900012    2    1    2    0    0 -0.21513321031E+02 -0.22322509688E+02 -0.74566785030E+01  0.59301961130E+02  0.50000031190E+02 0.  0.
        -12    1    1    2    0    0  0.21513321031E+02  0.22322509688E+02  0.74566785030E+01  0.31886038870E+02  0.00000000000E+00 0.  1.
         11    1    3    3    0    0 -0.99122596783E+01  0.96739028450E+01 -0.57149458788E+01  0.14983253814E+02  0.51100000000E-03 0. -1.
        -11    1    3    3    0    0 -0.17952245462E+01 -0.12564336575E+02 -0.14355729148E+02  0.19161741684E+02  0.51100000000E-03 0.  1.
         12    1    3    3    0    0 -0.98058368067E+01 -0.19432075958E+02  0.12613996524E+02  0.25156965632E+02  0.00000000000E+00 0. -1.
</event>
<event>
 7    1  0.6055092E-013  0.5930195E+02  0.7816164E-02  0.1266605E+00
        -11   -1    0    0    0    0  0.00000000000E+00  0.00000000000E+00  0.45593999997E+02  0.45594000000E+02  0.51100000000E-03 0.  1.
         11   -1    0    0    0    0 -0.00000000000E+00 -0.00000000000E+00 -0.45593999997E+02  0.45594000000E+02  0.51100000000E-03 0. -1.
    9900012    2    1    2    0    0  0.11839181170E+02 -0.20191908555E+02 -0.21652738439E+02  0.59301945622E+02  0.50000002908E+02 0.  0.
        -12    1    1    2    0    0 -0.11839181170E+02  0.20191908555E+02  0.21652738439E+02  0.31886054378E+02  0.00000000000E+00 0.  1.
         11    1    3    3    0    0  0.14469152608E+02 -0.13829249380E+02 -0.76418328217E+01  0.21424334873E+02  0.51100000000E-03 0. -1.
        -11    1    3    3    0    0 -0.13567665484E+02 -0.15483221656E+02 -0.55871318214E+01  0.21331379275E+02  0.51100000000E-03 0.  1.
        -12    1    3    3    0    0  0.10937694046E+02  0.91205624812E+01 -0.84237737963E+01  0.16546231474E+02  0.00000000000E+00 0.  1.
</event>
<event>
 7    1  0.6055092E-013  0.5930189E+02  0.7816164E-02  0.1266605E+00
        -11   -1    0    0    0    0  0.00000000000E+00  0.00000000000E+00  0.45593999997E+02  0.45594000000E+02  0.51100000000E-03 0. -1.
         11   -1    0    0    0    0 -0.00000000000E+00 -0.00000000000E+00 -0.45593999997E+02  0.45594000000E+02  0.51100000000E-03 0.  1.
    9900012    2    1    2    0    0  0.26684431561E+02  0.17301355589E+02  0.23083474957E+01  0.59301886077E+02  0.49999894312E+02 0.  0.
        -12    1    1    2    0    0 -0.26684431561E+02 -0.17301355589E+02 -0.23083474957E+01  0.31886113923E+02  0.00000000000E+00 0.  1.
         11    1    3    3    0    0  0.22386994957E+02  0.10145060648E+02  0.78465413457E+01  0.25800542826E+02  0.51100000000E-03 0. -1.
        -11    1    3    3    0    0 -0.18877911237E+01  0.19286953245E+02 -0.41095965810E+01  0.19810075849E+02  0.51100000000E-03 0.  1.
        -12    1    3    3    0    0  0.61852277271E+01 -0.12130658304E+02 -0.14285972690E+01  0.13691267402E+02  0.00000000000E+00 0.  1.
</event>
<event>
 7    1  0.6055092E-013  0.5930192E+02  0.7816164E-02  0.1266605E+00
        -11   -1    0    0    0    0  0.00000000000E+00  0.00000000000E+00  0.45593999997E+02  0.45594000000E+02  0.51100000000E-03 0.  1.
         11   -1    0    0    0    0 -0.00000000000E+00 -0.00000000000E+00 -0.45593999997E+02  0.45594000000E+02  0.51100000000E-03 0. -1.
    9900012    2    1    2    0    0 -0.66083517416E+01 -0.30965832720E+02 -0.37641709896E+01  0.59301920090E+02  0.49999956344E+02 0.  0.
        -12    1    1    2    0    0  0.66083517416E+01  0.30965832720E+02  0.37641709896E+01  0.31886079910E+02  0.00000000000E+00 0.  1.
         11    1    3    3    0    0 -0.36039494707E+01 -0.48580583033E+01  0.14558049120E+02  0.15764706680E+02  0.51100000000E-03 0.  1.
        -11    1    3    3    0    0 -0.55311485044E+01 -0.26200299866E+02 -0.24853143824E+02  0.36533930462E+02  0.51100000000E-03 0. -1.
         12    1    3    3    0    0  0.25267462335E+01  0.92525449495E-01  0.65309237149E+01  0.70032829485E+01  0.00000000000E+00 0. -1.
</event>
<event>
 7    1  0.6055092E-013  0.5930195E+02  0.7816164E-02  0.1266605E+00
        -11   -1    0    0    0    0  0.00000000000E+00  0.00000000000E+00  0.45593999997E+02  0.45594000000E+02  0.51100000000E-03 0.  1.
         11   -1    0    0    0    0 -0.00000000000E+00 -0.00000000000E+00 -0.45593999997E+02  0.45594000000E+02  0.51100000000E-03 0. -1.
    9900012    2    1    2    0    0 -0.16895882084E+02 -0.19391742200E+02 -0.18847005001E+02  0.59301951413E+02  0.50000013470E+02 0.  0.
        -12    1    1    2    0    0  0.16895882084E+02  0.19391742200E+02  0.18847005001E+02  0.31886048587E+02  0.00000000000E+00 0.  1.
         11    1    3    3    0    0 -0.57618595065E+01 -0.28913808486E+02 -0.28039550868E+02  0.40686899111E+02  0.51100000000E-03 0. -1.
        -11    1    3    3    0    0 -0.17834891959E+01  0.23752825011E+01  0.55506876409E+01  0.62954693407E+01  0.51100000000E-03 0.  1.
         12    1    3    3    0    0 -0.93505333819E+01  0.71467837855E+01  0.36418582257E+01  0.12319582961E+02  0.00000000000E+00 0. -1.
</event>
<event>
 7    1  0.6055092E-013  0.5930196E+02  0.7816164E-02  0.1266605E+00
        -11   -1    0    0    0    0  0.00000000000E+00  0.00000000000E+00  0.45593999997E+02  0.45594000000E+02  0.51100000000E-03 0. -1.
         11   -1    0    0    0    0 -0.00000000000E+00 -0.00000000000E+00 -0.45593999997E+02  0.45594000000E+02  0.51100000000E-03 0.  1.
    9900012    2    1    2    0    0 -0.18160412150E+02 -0.34304119747E+01  0.25983678614E+02  0.59301955246E+02  0.50000020459E+02 0.  0.
        -12    1    1    2    0    0  0.18160412150E+02  0.34304119747E+01 -0.25983678614E+02  0.31886044754E+02  0.00000000000E+00 0.  1.
         11    1    3    3    0    0 -0.10166604790E+02 -0.17909885186E+02  0.10395432430E+02  0.23069218799E+02  0.51100000000E-03 0. -1.
        -11    1    3    3    0    0  0.71623560734E+01  0.97109828713E+01  0.16356243167E+02  0.20325580525E+02  0.51100000000E-03 0.  1.
         12    1    3    3    0    0 -0.15156163434E+02  0.47684903405E+01 -0.76799698399E+00  0.15907155922E+02  0.00000000000E+00 0. -1.
</event>
<event>
 7    1  0.6055092E-013  0.5930200E+02  0.7816164E-02  0.1266605E+00
        -11   -1    0    0    0    0  0.00000000000E+00  0.00000000000E+00  0.45593999997E+02  0.45594000000E+02  0.51100000000E-03 0.  1.
         11   -1    0    0    0    0 -0.00000000000E+00 -0.00000000000E+00 -0.45593999997E+02  0.45594000000E+02  0.51100000000E-03 0. -1.
    9900012    2    1    2    0    0 -0.87151902990E+01 -0.16344013115E+02 -0.25954497103E+02  0.59301996385E+02  0.50000095487E+02 0.  0.
        -12    1    1    2    0    0  0.87151902990E+01  0.16344013115E+02  0.25954497103E+02  0.31886003615E+02  0.00000000000E+00 0.  1.
         11    1    3    3    0    0 -0.69934685574E+01 -0.11676729145E+02 -0.27592324508E+02  0.30766718675E+02  0.51100000000E-03 0. -1.
        -11    1    3    3    0    0 -0.13731374587E+02 -0.75814589530E+01  0.34071490427E+01  0.16051100671E+02  0.51100000000E-03 0.  1.
        -12    1    3    3    0    0  0.12009652845E+02  0.29141749829E+01 -0.17693216381E+01  0.12484177039E+02  0.00000000000E+00 0.  1.
</event>
<event>
 7    1  0.6055092E-013  0.5930194E+02  0.7816164E-02  0.1266605E+00
        -11   -1    0    0    0    0  0.00000000000E+00  0.00000000000E+00  0.45593999997E+02  0.45594000000E+02  0.51100000000E-03 0. -1.
         11   -1    0    0    0    0 -0.00000000000E+00 -0.00000000000E+00 -0.45593999997E+02  0.45594000000E+02  0.51100000000E-03 0.  1.
    9900012    2    1    2    0    0  0.18629159974E+01  0.31784103785E+02  0.17381410966E+01  0.59301939662E+02  0.49999992037E+02 0.  0.
        -12    1    1    2    0    0 -0.18629159974E+01 -0.31784103785E+02 -0.17381410966E+01  0.31886060338E+02  0.00000000000E+00 0.  1.
         11    1    3    3    0    0 -0.13893375172E+02  0.16457852258E+02 -0.14237094005E+02  0.25818242012E+02  0.51100000000E-03 0. -1.
        -11    1    3    3    0    0  0.17889071781E+02  0.12194321352E+02  0.18866865604E+02  0.28717224455E+02  0.51100000000E-03 0.  1.
        -12    1    3    3    0    0 -0.21327806116E+01  0.31319301744E+01 -0.28916305020E+01  0.47664731946E+01  0.00000000000E+00 0.  1.
</event>
<event>
 7    1  0.6055092E-013  0.5930192E+02  0.7816164E-02  0.1266605E+00
        -11   -1    0    0    0    0  0.00000000000E+00  0.00000000000E+00  0.45593999997E+02  0.45594000000E+02  0.51100000000E-03 0.  1.
         11   -1    0    0    0    0 -0.00000000000E+00 -0.00000000000E+00 -0.45593999997E+02  0.45594000000E+02  0.51100000000E-03 0. -1.
    9900012    2    1    2    0    0  0.12473955956E+02 -0.24671601998E+02 -0.15888181097E+02  0.59301924341E+02  0.49999964097E+02 0.  0.
        -12    1    1    2    0    0 -0.12473955956E+02  0.24671601998E+02  0.15888181097E+02  0.31886075659E+02  0.00000000000E+00 0.  1.
         11    1    3    3    0    0  0.12694831055E+02 -0.24588450933E+02 -0.11234997840E+02  0.29865964433E+02  0.51100000000E-03 0. -1.
        -11    1    3    3    0    0 -0.13534326742E+02 -0.54460511211E+01 -0.98794855774E+00  0.14622363550E+02  0.51100000000E-03 0.  1.
        -12    1    3    3    0    0  0.13313451643E+02  0.53629000559E+01 -0.36652346988E+01  0.14813596358E+02  0.00000000000E+00 0.  1.
</event>
<event>
 7    1  0.6055092E-013  0.5930193E+02  0.7816164E-02  0.1266605E+00
        -11   -1    0    0    0    0  0.00000000000E+00  0.00000000000E+00  0.45593999997E+02  0.45594000000E+02  0.51100000000E-03 0. -1.
         11   -1    0    0    0    0 -0.00000000000E+00 -0.00000000000E+00 -0.45593999997E+02  0.45594000000E+02  0.51100000000E-03 0.  1.
    9900012    2    1    2    0    0  0.21243445123E+02 -0.10053318174E+02  0.21549213113E+02  0.59301925409E+02  0.49999966044E+02 0.  0.
        -12    1    1    2    0    0 -0.21243445123E+02  0.10053318174E+02 -0.21549213113E+02  0.31886074591E+02  0.00000000000E+00 0.  1.
         11    1    3    3    0    0  0.94755749099E+01 -0.43710696969E+01  0.29628418987E+02  0.31412353973E+02  0.51100000000E-03 0. -1.
        -11    1    3    3    0    0  0.17339617937E+02 -0.94033242482E+01 -0.42690682100E+01  0.20181917668E+02  0.51100000000E-03 0.  1.
         12    1    3    3    0    0 -0.55717477235E+01  0.37210757707E+01 -0.38101376644E+01  0.77076537680E+01  0.00000000000E+00 0. -1.
</event>
<event>
 7    1  0.6055092E-013  0.5930199E+02  0.7816164E-02  0.1266605E+00
        -11   -1    0    0    0    0  0.00000000000E+00  0.00000000000E+00  0.45593999997E+02  0.45594000000E+02  0.51100000000E-03 0. -1.
         11   -1    0    0    0    0 -0.00000000000E+00 -0.00000000000E+00 -0.45593999997E+02  0.45594000000E+02  0.51100000000E-03 0.  1.
    9900012    2    1    2    0    0 -0.11717743619E+02 -0.22756908151E+02  0.19014075804E+02  0.59301992680E+02  0.50000088730E+02 0.  0.
        -12    1    1    2    0    0  0.11717743619E+02  0.22756908151E+02 -0.19014075804E+02  0.31886007320E+02  0.00000000000E+00 0.  1.
         11    1    3    3    0    0 -0.13601819530E+02  0.33234419964E-01 -0.23426502961E+01  0.13802123377E+02  0.51100000000E-03 0. -1.
        -11    1    3    3    0    0  0.10971359269E+02 -0.24358616309E+02  0.23993950273E+02  0.35908530500E+02  0.51100000000E-03 0.  1.
        -12    1    3    3    0    0 -0.90872833576E+01  0.15684737377E+01 -0.26372241730E+01  0.95913388025E+01  0.00000000000E+00 0.  1.
</event>
<event>
 7    1  0.6055092E-013  0.5930195E+02  0.7816164E-02  0.1266605E+00
        -11   -1    0    0    0    0  0.00000000000E+00  0.00000000000E+00  0.45593999997E+02  0.45594000000E+02  0.51100000000E-03 0.  1.
         11   -1    0    0    0    0 -0.00000000000E+00 -0.00000000000E+00 -0.45593999997E+02  0.45594000000E+02  0.51100000000E-03 0. -1.
    9900012    2    1    2    0    0  0.86705386228E+00 -0.20306602738E+02 -0.24568487397E+02  0.59301945522E+02  0.50000002726E+02 0.  0.
        -12    1    1    2    0    0 -0.86705386228E+00  0.20306602738E+02  0.24568487397E+02  0.31886054478E+02  0.00000000000E+00 0.  1.
         11    1    3    3    0    0  0.44724422317E+01  0.75018295233E+01 -0.20161912899E+02  0.21972321628E+02  0.51100000000E-03 0. -1.
        -11    1    3    3    0    0  0.95215576711E+01 -0.99573423022E+01 -0.61821187913E+01  0.15100573473E+02  0.51100000000E-03 0.  1.
         12    1    3    3    0    0 -0.13126946041E+02 -0.17851089959E+02  0.17755442936E+01  0.22229050421E+02  0.00000000000E+00 0. -1.
</event>
<event>
 7    1  0.6055092E-013  0.5930191E+02  0.7816164E-02  0.1266605E+00
        -11   -1    0    0    0    0  0.00000000000E+00  0.00000000000E+00  0.45593999997E+02  0.45594000000E+02  0.51100000000E-03 0.  1.
         11   -1    0    0    0    0 -0.00000000000E+00 -0.00000000000E+00 -0.45593999997E+02  0.45594000000E+02  0.51100000000E-03 0. -1.
    9900012    2    1    2    0    0  0.28216471675E+02  0.14707706743E+02 -0.20584240397E+01  0.59301905523E+02  0.49999929777E+02 0.  0.
        -12    1    1    2    0    0 -0.28216471675E+02 -0.14707706743E+02  0.20584240397E+01  0.31886094477E+02  0.00000000000E+00 0.  1.
         11    1    3    3    0    0  0.10163634557E+02  0.14458648442E+02 -0.17026315574E+02  0.24540729501E+02  0.51100000000E-03 0. -1.
        -11    1    3    3    0    0  0.64065237373E+01 -0.11963485360E+02  0.10889835603E+02  0.17399915174E+02  0.51100000000E-03 0.  1.
        -12    1    3    3    0    0  0.11646313381E+02  0.12212543661E+02  0.40780559312E+01  0.17361260848E+02  0.00000000000E+00 0.  1.
</event>
<event>
 7    1  0.6055092E-013  0.5930194E+02  0.7816164E-02  0.1266605E+00
        -11   -1    0    0    0    0  0.00000000000E+00  0.00000000000E+00  0.45593999997E+02  0.45594000000E+02  0.51100000000E-03 0.  1.
         11   -1    0    0    0    0 -0.00000000000E+00 -0.00000000000E+00 -0.45593999997E+02  0.45594000000E+02  0.51100000000E-03 0. -1.
    9900012    2    1    2    0    0  0.23765510346E+02 -0.20680775921E+02 -0.49220806597E+01  0.59301939523E+02  0.49999991785E+02 0.  0.
        -12    1    1    2    0    0 -0.23765510346E+02  0.20680775921E+02  0.49220806597E+01  0.31886060477E+02  0.00000000000E+00 0.  1.
         11    1    3    3    0    0 -0.34466837687E+01 -0.19653863734E+02  0.27509310851E+01  0.20142532383E+02  0.51100000000E-03 0. -1.
        -11    1    3    3    0    0  0.27619803669E+02 -0.25214188194E+01 -0.15095729986E+02  0.31576766327E+02  0.51100000000E-03 0.  1.
        -12    1    3    3    0    0 -0.40760955515E+00  0.14945066325E+01  0.74227182412E+01  0.75826408139E+01  0.00000000000E+00 0.  1.
</event>
<event>
 7    1  0.6055092E-013  0.5930192E+02  0.7816164E-02  0.1266605E+00
        -11   -1    0    0    0    0  0.00000000000E+00  0.00000000000E+00  0.45593999997E+02  0.45594000000E+02  0.51100000000E-03 0.  1.
         11   -1    0    0    0    0 -0.00000000000E+00 -0.00000000000E+00 -0.45593999997E+02  0.45594000000E+02  0.51100000000E-03 0. -1.
    9900012    2    1    2    0    0 -0.14031538736E+02 -0.22680940649E+02 -0.17476071012E+02  0.59301918303E+02  0.49999953084E+02 0.  0.
        -12    1    1    2    0    0  0.14031538736E+02  0.22680940649E+02  0.17476071012E+02  0.31886081697E+02  0.00000000000E+00 0.  1.
         11    1    3    3    0    0 -0.22227746671E+02  0.17283972759E+01 -0.23923555547E+02  0.32701629768E+02  0.51100000000E-03 0. -1.
        -11    1    3    3    0    0  0.29153670965E+01 -0.11301841832E+02  0.26842886160E+01  0.11976493633E+02  0.51100000000E-03 0.  1.
         12    1    3    3    0    0  0.52808408392E+01 -0.13107496092E+02  0.37631959193E+01  0.14623794901E+02  0.00000000000E+00 0. -1.
</event>
<event>
 7    1  0.6055092E-013  0.5930191E+02  0.7816164E-02  0.1266605E+00
        -11   -1    0    0    0    0  0.00000000000E+00  0.00000000000E+00  0.45593999997E+02  0.45594000000E+02  0.51100000000E-03 0.  1.
         11   -1    0    0    0    0 -0.00000000000E+00 -0.00000000000E+00 -0.45593999997E+02  0.45594000000E+02  0.51100000000E-03 0. -1.
    9900012    2    1    2    0    0  0.28518837705E+02  0.14187665619E+02 -0.14521918861E+01  0.59301908659E+02  0.49999935495E+02 0.  0.
        -12    1    1    2    0    0 -0.28518837705E+02 -0.14187665619E+02  0.14521918861E+01  0.31886091341E+02  0.00000000000E+00 0.  1.
         11    1    3    3    0    0  0.78062285276E+01 -0.12964551741E+00 -0.78042398867E+01  0.11039029498E+02  0.51100000000E-03 0. -1.
        -11    1    3    3    0    0 -0.62079513687E+01 -0.92988700043E+01 -0.23149766999E+01  0.11417826454E+02  0.51100000000E-03 0.  1.
        -12    1    3    3    0    0  0.26920560546E+02  0.23616181141E+02  0.86670247006E+01  0.36845052707E+02  0.00000000000E+00 0.  1.
</event>
<event>
 7    1  0.6055092E-013  0.5930194E+02  0.7816164E-02  0.1266605E+00
        -11   -1    0    0    0    0  0.00000000000E+00  0.00000000000E+00  0.45593999997E+02  0.45594000000E+02  0.51100000000E-03 0.  1.
         11   -1    0    0    0    0 -0.00000000000E+00 -0.00000000000E+00 -0.45593999997E+02  0.45594000000E+02  0.51100000000E-03 0. -1.
    9900012    2    1    2    0    0 -0.10967745632E+02 -0.20129464259E+02 -0.22163807135E+02  0.59301935296E+02  0.49999984075E+02 0.  0.
        -12    1    1    2    0    0  0.10967745632E+02  0.20129464259E+02  0.22163807135E+02  0.31886064704E+02  0.00000000000E+00 0.  1.
         11    1    3    3    0    0 -0.25815544744E+01  0.71882031746E+01 -0.18087370036E+02  0.19633839244E+02  0.51100000000E-03 0. -1.
        -11    1    3    3    0    0 -0.17840071698E+02 -0.19664222534E+02  0.80136452734E+00  0.26562981599E+02  0.51100000000E-03 0.  1.
        -12    1    3    3    0    0  0.94538805410E+01 -0.76534448997E+01 -0.48778016260E+01  0.13105114453E+02  0.00000000000E+00 0.  1.
</event>
<event>
 7    1  0.6055092E-013  0.5930197E+02  0.7816164E-02  0.1266605E+00
        -11   -1    0    0    0    0  0.00000000000E+00  0.00000000000E+00  0.45593999997E+02  0.45594000000E+02  0.51100000000E-03 0.  1.
         11   -1    0    0    0    0 -0.00000000000E+00 -0.00000000000E+00 -0.45593999997E+02  0.45594000000E+02  0.51100000000E-03 0. -1.
    9900012    2    1    2    0    0 -0.31819429264E+02 -0.13339045866E+01  0.15694903040E+01  0.59301973595E+02  0.50000053923E+02 0.  0.
        -12    1    1    2    0    0  0.31819429264E+02  0.13339045866E+01 -0.15694903040E+01  0.31886026405E+02  0.00000000000E+00 0.  1.
         11    1    3    3    0    0 -0.16573881292E+02  0.14507533203E+02 -0.85013341654E+01  0.23610055984E+02  0.51100000000E-03 0. -1.
        -11    1    3    3    0    0  0.64428448414E+01 -0.86504492140E+01  0.64213922369E+01  0.12552880139E+02  0.51100000000E-03 0.  1.
        -12    1    3    3    0    0 -0.21688392813E+02 -0.71909885754E+01  0.36494322326E+01  0.23139037472E+02  0.00000000000E+00 0.  1.
</event>
<event>
 7    1  0.6055092E-013  0.5930194E+02  0.7816164E-02  0.1266605E+00
        -11   -1    0    0    0    0  0.00000000000E+00  0.00000000000E+00  0.45593999997E+02  0.45594000000E+02  0.51100000000E-03 0. -1.
         11   -1    0    0    0    0 -0.00000000000E+00 -0.00000000000E+00 -0.45593999997E+02  0.45594000000E+02  0.51100000000E-03 0.  1.
    9900012    2    1    2    0    0  0.29086362481E+02 -0.10882282638E+02  0.72305298025E+01  0.59301935348E+02  0.49999984170E+02 0.  0.
        -12    1    1    2    0    0 -0.29086362481E+02  0.10882282638E+02 -0.72305298025E+01  0.31886064652E+02  0.00000000000E+00 0.  1.
         11    1    3    3    0    0  0.23472879428E+02  0.82444290764E+01  0.10519215249E+02  0.27011119361E+02  0.51100000000E-03 0. -1.
        -11    1    3    3    0    0  0.74372079393E+01 -0.15512737214E+02 -0.13135211433E+02  0.21644649627E+02  0.51100000000E-03 0.  1.
         12    1    3    3    0    0 -0.18237248865E+01 -0.36139745003E+01  0.98465259871E+01  0.10646166360E+02  0.00000000000E+00 0. -1.
</event>
<event>
 7    1  0.6055092E-013  0.5930194E+02  0.7816164E-02  0.1266605E+00
        -11   -1    0    0    0    0  0.00000000000E+00  0.00000000000E+00  0.45593999997E+02  0.45594000000E+02  0.51100000000E-03 0. -1.
         11   -1    0    0    0    0 -0.00000000000E+00 -0.00000000000E+00 -0.45593999997E+02  0.45594000000E+02  0.51100000000E-03 0.  1.
    9900012    2    1    2    0    0  0.51140636795E+01 -0.82314999358E+01  0.30377776861E+02  0.59301944027E+02  0.49999999998E+02 0.  0.
        -12    1    1    2    0    0 -0.51140636795E+01  0.82314999358E+01 -0.30377776861E+02  0.31886055973E+02  0.00000000000E+00 0.  1.
         11    1    3    3    0    0  0.20198656709E+01 -0.23391808876E+02  0.62436450606E+01  0.24294848913E+02  0.51100000000E-03 0. -1.
        -11    1    3    3    0    0  0.90001934670E+01  0.16243711535E+02  0.21611455169E+02  0.28494151007E+02  0.51100000000E-03 0.  1.
         12    1    3    3    0    0 -0.59059954584E+01 -0.10834025946E+01  0.25226766319E+01  0.65129441058E+01  0.00000000000E+00 0. -1.
</event>
<event>
 7    1  0.6055092E-013  0.5930199E+02  0.7816164E-02  0.1266605E+00
        -11   -1    0    0    0    0  0.00000000000E+00  0.00000000000E+00  0.45593999997E+02  0.45594000000E+02  0.51100000000E-03 0.  1.
         11   -1    0    0    0    0 -0.00000000000E+00 -0.00000000000E+00 -0.45593999997E+02  0.45594000000E+02  0.51100000000E-03 0. -1.
    9900012    2    1    2    0    0  0.13414134937E+02  0.41067450110E+01 -0.28634129893E+02  0.59301987935E+02  0.50000080076E+02 0.  0.
        -12    1    1    2    0    0 -0.13414134937E+02 -0.41067450110E+01  0.28634129893E+02  0.31886012065E+02  0.00000000000E+00 0.  1.
         11    1    3    3    0    0 -0.12537487610E+02 -0.21460252267E+01 -0.61958802057E+01  0.14148602462E+02  0.51100000000E-03 0. -1.
        -11    1    3    3    0    0  0.10957873797E+02  0.12519919591E+02 -0.23583974834E+02  0.28862211522E+02  0.51100000000E-03 0.  1.
        -12    1    3    3    0    0  0.14993748749E+02 -0.62671493536E+01  0.11457251462E+01  0.16291173951E+02  0.00000000000E+00 0.  1.
</event>
<event>
 7    1  0.6055092E-013  0.5930194E+02  0.7816164E-02  0.1266605E+00
        -11   -1    0    0    0    0  0.00000000000E+00  0.00000000000E+00  0.45593999997E+02  0.45594000000E+02  0.51100000000E-03 0. -1.
         11   -1    0    0    0    0 -0.00000000000E+00 -0.00000000000E+00 -0.45593999997E+02  0.45594000000E+02  0.51100000000E-03 0.  1.
    9900012    2    1    2    0    0 -0.36083572093E+00 -0.10476195100E+02  0.30113785138E+02  0.59301938445E+02  0.49999989818E+02 0.  0.
        -12    1    1    2    0    0  0.36083572093E+00  0.10476195100E+02 -0.30113785138E+02  0.31886061555E+02  0.00000000000E+00 0.  1.
         11    1    3    3    0    0  0.23099257153E+01 -0.11225186344E+02  0.29896300015E+02  0.32017640764E+02  0.51100000000E-03 0. -1.
        -11    1    3    3    0    0 -0.12663895847E+02  0.52033708829E+01  0.59550010407E+01  0.14930216483E+02  0.51100000000E-03 0.  1.
        -12    1    3    3    0    0  0.99931344109E+01 -0.44543796397E+01 -0.57375159180E+01  0.12354081198E+02  0.00000000000E+00 0.  1.
</event>
<event>
 7    1  0.6055092E-013  0.5930195E+02  0.7816164E-02  0.1266605E+00
        -11   -1    0    0    0    0  0.00000000000E+00  0.00000000000E+00  0.45593999997E+02  0.45594000000E+02  0.51100000000E-03 0.  1.
         11   -1    0    0    0    0 -0.00000000000E+00 -0.00000000000E+00 -0.45593999997E+02  0.45594000000E+02  0.51100000000E-03 0. -1.
    9900012    2    1    2    0    0 -0.13326890624E+00  0.25632030472E+02 -0.18965799887E+02  0.59301948002E+02  0.50000007248E+02 0.  0.
        -12    1    1    2    0    0  0.13326890624E+00 -0.25632030472E+02  0.18965799887E+02  0.31886051998E+02  0.00000000000E+00 0.  1.
         11    1    3    3    0    0  0.65045687487E+01 -0.49353330140E+01 -0.32043024287E+01  0.87712302946E+01  0.51100000000E-03 0. -1.
        -11    1    3    3    0    0 -0.51566582188E+01  0.17905722744E+02  0.10464325521E+02  0.21370730915E+02  0.51100000000E-03 0.  1.
         12    1    3    3    0    0 -0.14811794362E+01  0.12661640741E+02 -0.26225822979E+02  0.29159986792E+02  0.00000000000E+00 0. -1.
</event>
<event>
 7    1  0.6055092E-013  0.5930193E+02  0.7816164E-02  0.1266605E+00
        -11   -1    0    0    0    0  0.00000000000E+00  0.00000000000E+00  0.45593999997E+02  0.45594000000E+02  0.51100000000E-03 0. -1.
         11   -1    0    0    0    0 -0.00000000000E+00 -0.00000000000E+00 -0.45593999997E+02  0.45594000000E+02  0.51100000000E-03 0.  1.
    9900012    2    1    2    0    0 -0.16411680866E+02 -0.16293468052E+02 -0.21952244611E+02  0.59301930730E+02  0.49999975748E+02 0.  0.
        -12    1    1    2    0    0  0.16411680866E+02  0.16293468052E+02  0.21952244611E+02  0.31886069270E+02  0.00000000000E+00 0.  1.
         11    1    3    3    0    0  0.11742308544E+02 -0.94184672077E+01 -0.19531512197E+02  0.24659061285E+02  0.51100000000E-03 0. -1.
        -11    1    3    3    0    0 -0.15058774579E+02 -0.86597713942E+01 -0.93420841389E+01  0.19723916162E+02  0.51100000000E-03 0.  1.
         12    1    3    3    0    0 -0.13095214831E+02  0.17847705499E+01  0.69213517241E+01  0.14918953284E+02  0.00000000000E+00 0. -1.
</event>
<event>
 7    1  0.6055092E-013  0.5930196E+02  0.7816164E-02  0.1266605E+00
        -11   -1    0    0    0    0  0.00000000000E+00  0.00000000000E+00  0.45593999997E+02  0.45594000000E+02  0.51100000000E-03 0.  1.
         11   -1    0    0    0    0 -0.00000000000E+00 -0.00000000000E+00 -0.45593999997E+02  0.45594000000E+02  0.51100000000E-03 0. -1.
    9900012    2    1    2    0    0  0.19045072343E+02 -0.25419703721E+02 -0.28006117479E+01  0.59301960046E+02  0.50000029213E+02 0.  0.
        -12    1    1    2    0    0 -0.19045072343E+02  0.25419703721E+02  0.28006117479E+01  0.31886039954E+02  0.00000000000E+00 0.  1.
         11    1    3    3    0    0 -0.33187426740E+01 -0.21893487614E+02 -0.19461240460E+01  0.22228950761E+02  0.51100000000E-03 0. -1.
        -11    1    3    3    0    0  0.42978236464E+01  0.23020224846E+01 -0.13440045457E+02  0.14297042273E+02  0.51100000000E-03 0.  1.
        -12    1    3    3    0    0  0.18065991371E+02 -0.58282385909E+01  0.12585557755E+02  0.22775967011E+02  0.00000000000E+00 0.  1.
</event>
<event>
 7    1  0.6055092E-013  0.5930195E+02  0.7816164E-02  0.1266605E+00
        -11   -1    0    0    0    0  0.00000000000E+00  0.00000000000E+00  0.45593999997E+02  0.45594000000E+02  0.51100000000E-03 0.  1.
         11   -1    0    0    0    0 -0.00000000000E+00 -0.00000000000E+00 -0.45593999997E+02  0.45594000000E+02  0.51100000000E-03 0. -1.
    9900012    2    1    2    0    0  0.15921780238E+02 -0.22352722438E+02 -0.16234931773E+02  0.59301948253E+02  0.50000007706E+02 0.  0.
        -12    1    1    2    0    0 -0.15921780238E+02  0.22352722438E+02  0.16234931773E+02  0.31886051747E+02  0.00000000000E+00 0.  1.
         11    1    3    3    0    0  0.82601218370E+01 -0.80907881591E+01 -0.11110112022E+02  0.16035119432E+02  0.51100000000E-03 0. -1.
        -11    1    3    3    0    0 -0.11412745891E+02 -0.13972460038E+02  0.83815057049E+01  0.19892964747E+02  0.51100000000E-03 0.  1.
        -12    1    3    3    0    0  0.19074404292E+02 -0.28947424110E+00 -0.13506325456E+02  0.23373864074E+02  0.00000000000E+00 0.  1.
</event>
<event>
 7    1  0.6055092E-013  0.5930191E+02  0.7816164E-02  0.1266605E+00
        -11   -1    0    0    0    0  0.00000000000E+00  0.00000000000E+00  0.45593999997E+02  0.45594000000E+02  0.51100000000E-03 0. -1.
         11   -1    0    0    0    0 -0.00000000000E+00 -0.00000000000E+00 -0.45593999997E+02  0.45594000000E+02  0.51100000000E-03 0.  1.
    9900012    2    1    2    0    0 -0.30466775839E+02 -0.85736611197E+01  0.38717530093E+01  0.59301912651E+02  0.49999942777E+02 0.  0.
        -12    1    1    2    0    0  0.30466775839E+02  0.85736611197E+01 -0.38717530093E+01  0.31886087349E+02  0.00000000000E+00 0.  1.
         11    1    3    3    0    0 -0.28200500535E+02 -0.23980395563E+01  0.57760308260E+01  0.28885660050E+02  0.51100000000E-03 0. -1.
        -11    1    3    3    0    0  0.84590113814E+01  0.86000255499E+01 -0.14798269619E+01  0.12153402861E+02  0.51100000000E-03 0.  1.
        -12    1    3    3    0    0 -0.10725286686E+02 -0.14775647113E+02 -0.42445085482E+00  0.18262849740E+02  0.00000000000E+00 0.  1.
</event>
<event>
 7    1  0.6055092E-013  0.5930189E+02  0.7816164E-02  0.1266605E+00
        -11   -1    0    0    0    0  0.00000000000E+00  0.00000000000E+00  0.45593999997E+02  0.45594000000E+02  0.51100000000E-03 0.  1.
         11   -1    0    0    0    0 -0.00000000000E+00 -0.00000000000E+00 -0.45593999997E+02  0.45594000000E+02  0.51100000000E-03 0. -1.
    9900012    2    1    2    0    0 -0.18357535521E+02  0.13489663262E+02 -0.22310402972E+02  0.59301886939E+02  0.49999895884E+02 0.  0.
        -12    1    1    2    0    0  0.18357535521E+02 -0.13489663262E+02  0.22310402972E+02  0.31886113061E+02  0.00000000000E+00 0.  1.
         11    1    3    3    0    0 -0.43801660198E+01 -0.85744702438E+01  0.81939142846E+01  0.12643086090E+02  0.51100000000E-03 0. -1.
        -11    1    3    3    0    0 -0.14981564237E+02  0.22932706588E+02 -0.15259269078E+02  0.31356045533E+02  0.51100000000E-03 0.  1.
         12    1    3    3    0    0  0.10041947353E+01 -0.86857308144E+00 -0.15245048179E+02  0.15302755316E+02  0.00000000000E+00 0. -1.
</event>
<event>
 7    1  0.6055092E-013  0.5930195E+02  0.7816164E-02  0.1266605E+00
        -11   -1    0    0    0    0  0.00000000000E+00  0.00000000000E+00  0.45593999997E+02  0.45594000000E+02  0.51100000000E-03 0.  1.
         11   -1    0    0    0    0 -0.00000000000E+00 -0.00000000000E+00 -0.45593999997E+02  0.45594000000E+02  0.51100000000E-03 0. -1.
    9900012    2    1    2    0    0  0.14353823599E+02  0.22556064189E+02  0.17375607057E+02  0.59301952829E+02  0.50000016052E+02 0.  0.
        -12    1    1    2    0    0 -0.14353823599E+02 -0.22556064189E+02 -0.17375607057E+02  0.31886047171E+02  0.00000000000E+00 0.  1.
         11    1    3    3    0    0  0.11288388693E+02  0.18092570224E+02  0.34113843760E+01  0.21596443231E+02  0.51100000000E-03 0. -1.
        -11    1    3    3    0    0 -0.75214078336E+01 -0.25206640615E+01 -0.86753924802E+01  0.11755328922E+02  0.51100000000E-03 0.  1.
        -12    1    3    3    0    0  0.10586842740E+02  0.69841580264E+01  0.22639615161E+02  0.25950180677E+02  0.00000000000E+00 0.  1.
</event>
<event>
 7    1  0.6055092E-013  0.5930195E+02  0.7816164E-02  0.1266605E+00
        -11   -1    0    0    0    0  0.00000000000E+00  0.00000000000E+00  0.45593999997E+02  0.45594000000E+02  0.51100000000E-03 0.  1.
         11   -1    0    0    0    0 -0.00000000000E+00 -0.00000000000E+00 -0.45593999997E+02  0.45594000000E+02  0.51100000000E-03 0. -1.
    9900012    2    1    2    0    0  0.30586554037E+01  0.47010221516E+01 -0.31388933350E+02  0.59301951029E+02  0.50000012769E+02 0.  0.
        -12    1    1    2    0    0 -0.30586554037E+01 -0.47010221516E+01  0.31388933350E+02  0.31886048971E+02  0.00000000000E+00 0.  1.
         11    1    3    3    0    0  0.21099305446E+01 -0.13927453607E+02 -0.22135250077E+02  0.26237283913E+02  0.51100000000E-03 0. -1.
        -11    1    3    3    0    0  0.51920757384E+01  0.24182001545E+02 -0.67111563600E+01  0.25627455378E+02  0.51100000000E-03 0.  1.
        -12    1    3    3    0    0 -0.42433508793E+01 -0.55535257863E+01 -0.25425269127E+01  0.74372117387E+01  0.00000000000E+00 0.  1.
</event>
<event>
 7    1  0.6055092E-013  0.5930190E+02  0.7816164E-02  0.1266605E+00
        -11   -1    0    0    0    0  0.00000000000E+00  0.00000000000E+00  0.45593999997E+02  0.45594000000E+02  0.51100000000E-03 0.  1.
         11   -1    0    0    0    0 -0.00000000000E+00 -0.00000000000E+00 -0.45593999997E+02  0.45594000000E+02  0.51100000000E-03 0. -1.
    9900012    2    1    2    0    0  0.23657466392E+02  0.21333148489E+02 -0.13944481652E+01  0.59301899168E+02  0.49999918187E+02 0.  0.
        -12    1    1    2    0    0 -0.23657466392E+02 -0.21333148489E+02  0.13944481652E+01  0.31886100832E+02  0.00000000000E+00 0.  1.
         11    1    3    3    0    0  0.13431421939E+02 -0.94172606742E+01  0.86509347126E+01  0.18545257226E+02  0.51100000000E-03 0.  1.
        -11    1    3    3    0    0  0.12493823342E+02  0.20955601499E+02  0.26740816115E+01  0.24543503592E+02  0.51100000000E-03 0. -1.
         12    1    3    3    0    0 -0.22677788879E+01  0.97948076646E+01 -0.12719464489E+02  0.16213138350E+02  0.00000000000E+00 0. -1.
</event>
<event>
 7    1  0.6055092E-013  0.5930195E+02  0.7816164E-02  0.1266605E+00
        -11   -1    0    0    0    0  0.00000000000E+00  0.00000000000E+00  0.45593999997E+02  0.45594000000E+02  0.51100000000E-03 0.  1.
         11   -1    0    0    0    0 -0.00000000000E+00 -0.00000000000E+00 -0.45593999997E+02  0.45594000000E+02  0.51100000000E-03 0. -1.
    9900012    2    1    2    0    0  0.25334407606E+02  0.10260933794E+02  0.16419537407E+02  0.59301950077E+02  0.50000011032E+02 0.  0.
        -12    1    1    2    0    0 -0.25334407606E+02 -0.10260933794E+02 -0.16419537407E+02  0.31886049923E+02  0.00000000000E+00 0.  1.
         11    1    3    3    0    0  0.43371621544E+01 -0.15713414316E+02 -0.62278739387E+01  0.17450179915E+02  0.51100000000E-03 0. -1.
        -11    1    3    3    0    0  0.44962725013E+01  0.10956653838E+02  0.32350224941E+01  0.12277218762E+02  0.51100000000E-03 0.  1.
         12    1    3    3    0    0  0.16500972950E+02  0.15017694272E+02  0.19412388851E+02  0.29574551399E+02  0.00000000000E+00 0. -1.
</event>
<event>
 7    1  0.6055092E-013  0.5930192E+02  0.7816164E-02  0.1266605E+00
        -11   -1    0    0    0    0  0.00000000000E+00  0.00000000000E+00  0.45593999997E+02  0.45594000000E+02  0.51100000000E-03 0. -1.
         11   -1    0    0    0    0 -0.00000000000E+00 -0.00000000000E+00 -0.45593999997E+02  0.45594000000E+02  0.51100000000E-03 0.  1.
    9900012    2    1    2    0    0  0.27360151949E+01 -0.25448775006E+02  0.19015675618E+02  0.59301923922E+02  0.49999963331E+02 0.  0.
        -12    1    1    2    0    0 -0.27360151949E+01  0.25448775006E+02 -0.19015675618E+02  0.31886076078E+02  0.00000000000E+00 0.  1.
         11    1    3    3    0    0  0.15587694819E+01 -0.19216124424E+02  0.52404131140E+01  0.19978766980E+02  0.51100000000E-03 0. -1.
        -11    1    3    3    0    0 -0.46577961695E+01  0.13444203411E+02 -0.64028704062E+00  0.14242599421E+02  0.51100000000E-03 0.  1.
        -12    1    3    3    0    0  0.58350418825E+01 -0.19676853994E+02  0.14415549545E+02  0.25080557520E+02  0.00000000000E+00 0.  1.
</event>
<event>
 7    1  0.6055092E-013  0.5930200E+02  0.7816164E-02  0.1266605E+00
        -11   -1    0    0    0    0  0.00000000000E+00  0.00000000000E+00  0.45593999997E+02  0.45594000000E+02  0.51100000000E-03 0. -1.
         11   -1    0    0    0    0 -0.00000000000E+00 -0.00000000000E+00 -0.45593999997E+02  0.45594000000E+02  0.51100000000E-03 0.  1.
    9900012    2    1    2    0    0 -0.20786583596E+02 -0.23603231497E+02  0.52461715229E+01  0.59302001344E+02  0.50000104530E+02 0.  0.
        -12    1    1    2    0    0  0.20786583596E+02  0.23603231497E+02 -0.52461715229E+01  0.31885998656E+02  0.00000000000E+00 0.  1.
         11    1    3    3    0    0 -0.20684591423E+02 -0.32868337895E+02  0.12389579560E+02  0.40763729469E+02  0.51100000000E-03 0. -1.
        -11    1    3    3    0    0  0.69582516584E+01  0.29190679782E+01 -0.23473868186E+01  0.79024331152E+01  0.51100000000E-03 0.  1.
         12    1    3    3    0    0 -0.70602438310E+01  0.63460384197E+01 -0.47960212188E+01  0.10635838759E+02  0.00000000000E+00 0. -1.
</event>
<event>
 7    1  0.6055092E-013  0.5930198E+02  0.7816164E-02  0.1266605E+00
        -11   -1    0    0    0    0  0.00000000000E+00  0.00000000000E+00  0.45593999997E+02  0.45594000000E+02  0.51100000000E-03 0.  1.
         11   -1    0    0    0    0 -0.00000000000E+00 -0.00000000000E+00 -0.45593999997E+02  0.45594000000E+02  0.51100000000E-03 0. -1.
    9900012    2    1    2    0    0  0.19110227634E+02 -0.25228653453E+02  0.38771626810E+01  0.59301981971E+02  0.50000069200E+02 0.  0.
        -12    1    1    2    0    0 -0.19110227634E+02  0.25228653453E+02 -0.38771626810E+01  0.31886018029E+02  0.00000000000E+00 0.  1.
         11    1    3    3    0    0  0.32040865973E+01 -0.32029960451E+02 -0.25288644193E+01  0.32289002662E+02  0.51100000000E-03 0.  1.
        -11    1    3    3    0    0  0.14873025493E+02  0.11429983914E+02 -0.34709107114E+00  0.18760913946E+02  0.51100000000E-03 0. -1.
        -12    1    3    3    0    0  0.10331155431E+01 -0.46286769165E+01  0.67531181714E+01  0.82520653633E+01  0.00000000000E+00 0.  1.
</event>
<event>
 7    1  0.6055092E-013  0.5930189E+02  0.7816164E-02  0.1266605E+00
        -11   -1    0    0    0    0  0.00000000000E+00  0.00000000000E+00  0.45593999997E+02  0.45594000000E+02  0.51100000000E-03 0.  1.
         11   -1    0    0    0    0 -0.00000000000E+00 -0.00000000000E+00 -0.45593999997E+02  0.45594000000E+02  0.51100000000E-03 0. -1.
    9900012    2    1    2    0    0 -0.46859083437E+01  0.12891420004E+01 -0.31513562204E+02  0.59301886614E+02  0.49999895291E+02 0.  0.
        -12    1    1    2    0    0  0.46859083437E+01 -0.12891420004E+01  0.31513562204E+02  0.31886113386E+02  0.00000000000E+00 0.  1.
         11    1    3    3    0    0  0.33109228680E+00 -0.85483206347E+01 -0.29108627334E+01  0.90364002728E+01  0.51100000000E-03 0. -1.
        -11    1    3    3    0    0  0.42349321401E+01  0.60472858039E+01 -0.36677901633E+02  0.37413537447E+02  0.51100000000E-03 0.  1.
        -12    1    3    3    0    0 -0.92519327706E+01  0.37901768312E+01  0.80752021626E+01  0.12851948894E+02  0.00000000000E+00 0.  1.
</event>
<event>
 7    1  0.6055092E-013  0.5930194E+02  0.7816164E-02  0.1266605E+00
        -11   -1    0    0    0    0  0.00000000000E+00  0.00000000000E+00  0.45593999997E+02  0.45594000000E+02  0.51100000000E-03 0.  1.
         11   -1    0    0    0    0 -0.00000000000E+00 -0.00000000000E+00 -0.45593999997E+02  0.45594000000E+02  0.51100000000E-03 0. -1.
    9900012    2    1    2    0    0 -0.83114297100E+01 -0.88727724324E+01 -0.29477364436E+02  0.59301937707E+02  0.49999988473E+02 0.  0.
        -12    1    1    2    0    0  0.83114297100E+01  0.88727724324E+01  0.29477364436E+02  0.31886062293E+02  0.00000000000E+00 0.  1.
         11    1    3    3    0    0 -0.47026491808E+01 -0.64618671273E+01 -0.29286621686E+02  0.30357484186E+02  0.51100000000E-03 0. -1.
        -11    1    3    3    0    0  0.77610132328E+00  0.10914148511E+02  0.71906391400E+01  0.13092985240E+02  0.51100000000E-03 0.  1.
        -12    1    3    3    0    0 -0.43848818525E+01 -0.13325053816E+02 -0.73813818899E+01  0.15851468281E+02  0.00000000000E+00 0.  1.
</event>
<event>
 7    1  0.6055092E-013  0.5930157E+02  0.7816164E-02  0.1266606E+00
        -11   -1    0    0    0    0  0.00000000000E+00  0.00000000000E+00  0.45593999997E+02  0.45594000000E+02  0.51100000000E-03 0.  1.
         11   -1    0    0    0    0 -0.00000000000E+00 -0.00000000000E+00 -0.45593999997E+02  0.45594000000E+02  0.51100000000E-03 0. -1.
    9900012    2    1    2    0    0 -0.15673146893E+02  0.20042426004E+02 -0.19219738185E+02  0.59301565430E+02  0.49999309525E+02 0.  0.
        -12    1    1    2    0    0  0.15673146893E+02 -0.20042426004E+02  0.19219738185E+02  0.31886434570E+02  0.00000000000E+00 0.  1.
         11    1    3    3    0    0 -0.21101645747E+02  0.19431937496E+02 -0.85875386960E+01  0.29943705001E+02  0.51100000000E-03 0.  1.
        -11    1    3    3    0    0  0.53437730486E+01 -0.12641621566E+02 -0.78689658844E+01  0.15820465561E+02  0.51100000000E-03 0. -1.
        -12    1    3    3    0    0  0.84725805030E-01  0.13252110074E+02 -0.27632336044E+01  0.13537394869E+02  0.00000000000E+00 0.  1.
</event>
<event>
 7    1  0.6055092E-013  0.5930191E+02  0.7816164E-02  0.1266605E+00
        -11   -1    0    0    0    0  0.00000000000E+00  0.00000000000E+00  0.45593999997E+02  0.45594000000E+02  0.51100000000E-03 0.  1.
         11   -1    0    0    0    0 -0.00000000000E+00 -0.00000000000E+00 -0.45593999997E+02  0.45594000000E+02  0.51100000000E-03 0. -1.
    9900012    2    1    2    0    0 -0.33041338019E+01 -0.30093408022E+02 -0.10009610506E+02  0.59301908847E+02  0.49999935839E+02 0.  0.
        -12    1    1    2    0    0  0.33041338019E+01  0.30093408022E+02  0.10009610506E+02  0.31886091153E+02  0.00000000000E+00 0.  1.
         11    1    3    3    0    0  0.13688825072E+01  0.72109595748E-01  0.12414825530E+02  0.12490273508E+02  0.51100000000E-03 0. -1.
        -11    1    3    3    0    0  0.23084578195E+01 -0.32610602615E+02 -0.13898308127E+02  0.35523841986E+02  0.51100000000E-03 0.  1.
         12    1    3    3    0    0 -0.69814741286E+01  0.24450849977E+01 -0.85261279090E+01  0.11287793353E+02  0.00000000000E+00 0. -1.
</event>
<event>
 7    1  0.6055092E-013  0.5930196E+02  0.7816164E-02  0.1266605E+00
        -11   -1    0    0    0    0  0.00000000000E+00  0.00000000000E+00  0.45593999997E+02  0.45594000000E+02  0.51100000000E-03 0. -1.
         11   -1    0    0    0    0 -0.00000000000E+00 -0.00000000000E+00 -0.45593999997E+02  0.45594000000E+02  0.51100000000E-03 0.  1.
    9900012    2    1    2    0    0  0.17462436997E+02 -0.19687340454E+02  0.18005319749E+02  0.59301958865E+02  0.50000027059E+02 0.  0.
        -12    1    1    2    0    0 -0.17462436997E+02  0.19687340454E+02 -0.18005319749E+02  0.31886041135E+02  0.00000000000E+00 0.  1.
         11    1    3    3    0    0  0.24136608417E+02 -0.58585960838E+01  0.21072930545E+02  0.32572494776E+02  0.51100000000E-03 0. -1.
        -11    1    3    3    0    0  0.15759198333E+01 -0.17047759536E+02 -0.46331937373E+01  0.17736293665E+02  0.51100000000E-03 0.  1.
        -12    1    3    3    0    0 -0.82500912531E+01  0.32190151656E+01  0.15655829412E+01  0.89931704236E+01  0.00000000000E+00 0.  1.
</event>
<event>
 7    1  0.6055092E-013  0.5930193E+02  0.7816164E-02  0.1266605E+00
        -11   -1    0    0    0    0  0.00000000000E+00  0.00000000000E+00  0.45593999997E+02  0.45594000000E+02  0.51100000000E-03 0. -1.
         11   -1    0    0    0    0 -0.00000000000E+00 -0.00000000000E+00 -0.45593999997E+02  0.45594000000E+02  0.51100000000E-03 0.  1.
    9900012    2    1    2    0    0  0.18159386328E+02  0.18804172472E+02  0.18258179337E+02  0.59301932088E+02  0.49999978225E+02 0.  0.
        -12    1    1    2    0    0 -0.18159386328E+02 -0.18804172472E+02 -0.18258179337E+02  0.31886067912E+02  0.00000000000E+00 0.  1.
         11    1    3    3    0    0  0.12217772693E+02  0.14422678828E+02  0.24379036682E+02  0.30848420770E+02  0.51100000000E-03 0. -1.
        -11    1    3    3    0    0  0.17125043809E+01  0.11348975378E+02 -0.13317209883E+02  0.17580670997E+02  0.51100000000E-03 0.  1.
        -12    1    3    3    0    0  0.42291092534E+01 -0.69674817345E+01  0.71963525385E+01  0.10872840321E+02  0.00000000000E+00 0.  1.
</event>
<event>
 7    1  0.6055092E-013  0.5930195E+02  0.7816164E-02  0.1266605E+00
        -11   -1    0    0    0    0  0.00000000000E+00  0.00000000000E+00  0.45593999997E+02  0.45594000000E+02  0.51100000000E-03 0. -1.
         11   -1    0    0    0    0 -0.00000000000E+00 -0.00000000000E+00 -0.45593999997E+02  0.45594000000E+02  0.51100000000E-03 0.  1.
    9900012    2    1    2    0    0 -0.17618512619E+02  0.23763372829E+02  0.11900023986E+02  0.59301945901E+02  0.50000003417E+02 0.  0.
        -12    1    1    2    0    0  0.17618512619E+02 -0.23763372829E+02 -0.11900023986E+02  0.31886054099E+02  0.00000000000E+00 0.  1.
         11    1    3    3    0    0 -0.22088076517E+01  0.90261477971E+01  0.14647879732E+02  0.17346773654E+02  0.51100000000E-03 0. -1.
        -11    1    3    3    0    0 -0.17423435005E+02  0.24861276250E+02 -0.63621602514E+01  0.31018320836E+02  0.51100000000E-03 0.  1.
        -12    1    3    3    0    0  0.20137300377E+01 -0.10124051218E+02  0.36143045044E+01  0.10936851411E+02  0.00000000000E+00 0.  1.
</event>
<event>
 7    1  0.6055092E-013  0.5930195E+02  0.7816164E-02  0.1266605E+00
        -11   -1    0    0    0    0  0.00000000000E+00  0.00000000000E+00  0.45593999997E+02  0.45594000000E+02  0.51100000000E-03 0. -1.
         11   -1    0    0    0    0 -0.00000000000E+00 -0.00000000000E+00 -0.45593999997E+02  0.45594000000E+02  0.51100000000E-03 0.  1.
    9900012    2    1    2    0    0  0.10794427353E+02  0.28833016145E+02  0.82980615610E+01  0.59301948072E+02  0.50000007376E+02 0.  0.
        -12    1    1    2    0    0 -0.10794427353E+02 -0.28833016145E+02 -0.82980615610E+01  0.31886051928E+02  0.00000000000E+00 0.  1.
         11    1    3    3    0    0 -0.14272283960E+02  0.16211984229E+02  0.29821433065E+01  0.21804121194E+02  0.51100000000E-03 0. -1.
        -11    1    3    3    0    0  0.11741480228E+02  0.10334459194E+02 -0.88037148457E+01  0.17949061260E+02  0.51100000000E-03 0.  1.
         12    1    3    3    0    0  0.13325231085E+02  0.22865727217E+01  0.14119633100E+02  0.19548765618E+02  0.00000000000E+00 0. -1.
</event>
<event>
 7    1  0.6055092E-013  0.5930195E+02  0.7816164E-02  0.1266605E+00
        -11   -1    0    0    0    0  0.00000000000E+00  0.00000000000E+00  0.45593999997E+02  0.45594000000E+02  0.51100000000E-03 0. -1.
         11   -1    0    0    0    0 -0.00000000000E+00 -0.00000000000E+00 -0.45593999997E+02  0.45594000000E+02  0.51100000000E-03 0.  1.
    9900012    2    1    2    0    0  0.15935537559E+02 -0.24017159148E+02  0.13636533868E+02  0.59301947457E+02  0.50000006254E+02 0.  0.
        -12    1    1    2    0    0 -0.15935537559E+02  0.24017159148E+02 -0.13636533868E+02  0.31886052543E+02  0.00000000000E+00 0.  1.
         11    1    3    3    0    0  0.14869714346E+01 -0.12879319236E+02 -0.13902494007E+02  0.19009663014E+02  0.51100000000E-03 0. -1.
        -11    1    3    3    0    0  0.20207190080E+02 -0.12095314336E+02  0.21407359565E+02  0.31826124546E+02  0.51100000000E-03 0.  1.
        -12    1    3    3    0    0 -0.57586239554E+01  0.95747442343E+00  0.61316683099E+01  0.84661598965E+01  0.00000000000E+00 0.  1.
</event>
<event>
 7    1  0.6055092E-013  0.5930211E+02  0.7816164E-02  0.1266604E+00
        -11   -1    0    0    0    0  0.00000000000E+00  0.00000000000E+00  0.45593999997E+02  0.45594000000E+02  0.51100000000E-03 0. -1.
         11   -1    0    0    0    0 -0.00000000000E+00 -0.00000000000E+00 -0.45593999997E+02  0.45594000000E+02  0.51100000000E-03 0.  1.
    9900012    2    1    2    0    0  0.65689999090E+01  0.27897357334E+02  0.13974814327E+02  0.59302113757E+02  0.50000309544E+02 0.  0.
        -12    1    1    2    0    0 -0.65689999090E+01 -0.27897357334E+02 -0.13974814327E+02  0.31885886243E+02  0.00000000000E+00 0.  1.
         11    1    3    3    0    0 -0.51144400414E+00  0.27848002778E+02  0.12317468442E+02  0.30454767489E+02  0.51100000000E-03 0. -1.
        -11    1    3    3    0    0  0.11267426728E+02  0.22542881984E+01 -0.10646580398E+02  0.15664813908E+02  0.51100000000E-03 0.  1.
        -12    1    3    3    0    0 -0.41869828149E+01 -0.22049336424E+01  0.12303926282E+02  0.13182532360E+02  0.00000000000E+00 0.  1.
</event>
<event>
 7    1  0.6055092E-013  0.5930195E+02  0.7816164E-02  0.1266605E+00
        -11   -1    0    0    0    0  0.00000000000E+00  0.00000000000E+00  0.45593999997E+02  0.45594000000E+02  0.51100000000E-03 0. -1.
         11   -1    0    0    0    0 -0.00000000000E+00 -0.00000000000E+00 -0.45593999997E+02  0.45594000000E+02  0.51100000000E-03 0.  1.
    9900012    2    1    2    0    0  0.98346420048E+01 -0.21439628377E+02  0.21455592408E+02  0.59301948287E+02  0.50000007768E+02 0.  0.
        -12    1    1    2    0    0 -0.98346420048E+01  0.21439628377E+02 -0.21455592408E+02  0.31886051713E+02  0.00000000000E+00 0.  1.
         11    1    3    3    0    0  0.12908311125E+02 -0.23373286843E+02  0.26100618883E+02  0.37338684234E+02  0.51100000000E-03 0. -1.
        -11    1    3    3    0    0 -0.79117058384E+01  0.90203606496E+01  0.40790751520E+00  0.12005348155E+02  0.51100000000E-03 0.  1.
         12    1    3    3    0    0  0.48380367179E+01 -0.70867021827E+01 -0.50529339908E+01  0.99579158977E+01  0.00000000000E+00 0. -1.
</event>
<event>
 7    1  0.6055092E-013  0.5930194E+02  0.7816164E-02  0.1266605E+00
        -11   -1    0    0    0    0  0.00000000000E+00  0.00000000000E+00  0.45593999997E+02  0.45594000000E+02  0.51100000000E-03 0. -1.
         11   -1    0    0    0    0 -0.00000000000E+00 -0.00000000000E+00 -0.45593999997E+02  0.45594000000E+02  0.51100000000E-03 0.  1.
    9900012    2    1    2    0    0  0.64571047374E+01 -0.28594818737E+02 -0.12544436304E+02  0.59301941253E+02  0.49999994940E+02 0.  0.
        -12    1    1    2    0    0 -0.64571047374E+01  0.28594818737E+02  0.12544436304E+02  0.31886058747E+02  0.00000000000E+00 0.  1.
         11    1    3    3    0    0  0.43552841430E+01  0.10388721046E+02  0.65656562911E+01  0.13038476434E+02  0.51100000000E-03 0. -1.
        -11    1    3    3    0    0 -0.32422074148E+01 -0.35387026548E+02 -0.17564012550E+02  0.39638971909E+02  0.51100000000E-03 0.  1.
         12    1    3    3    0    0  0.53440280092E+01 -0.35965132351E+01 -0.15460800446E+01  0.66244929102E+01  0.00000000000E+00 0. -1.
</event>
<event>
 7    1  0.6055092E-013  0.5930198E+02  0.7816164E-02  0.1266605E+00
        -11   -1    0    0    0    0  0.00000000000E+00  0.00000000000E+00  0.45593999997E+02  0.45594000000E+02  0.51100000000E-03 0.  1.
         11   -1    0    0    0    0 -0.00000000000E+00 -0.00000000000E+00 -0.45593999997E+02  0.45594000000E+02  0.51100000000E-03 0. -1.
    9900012    2    1    2    0    0  0.31285692471E+02 -0.60357005315E+01 -0.12223886327E+01  0.59301976913E+02  0.50000059976E+02 0.  0.
        -12    1    1    2    0    0 -0.31285692471E+02  0.60357005315E+01  0.12223886327E+01  0.31886023087E+02  0.00000000000E+00 0.  1.
         11    1    3    3    0    0  0.12400030558E+02 -0.17750432960E+02  0.58745644531E+01  0.22435443741E+02  0.51100000000E-03 0. -1.
        -11    1    3    3    0    0  0.44999684490E+01  0.16359713005E+02 -0.12214765770E+02  0.20906707745E+02  0.51100000000E-03 0.  1.
         12    1    3    3    0    0  0.14385693464E+02 -0.46449805772E+01  0.51178126839E+01  0.15959825427E+02  0.00000000000E+00 0. -1.
</event>
<event>
 7    1  0.6055092E-013  0.5930197E+02  0.7816164E-02  0.1266605E+00
        -11   -1    0    0    0    0  0.00000000000E+00  0.00000000000E+00  0.45593999997E+02  0.45594000000E+02  0.51100000000E-03 0.  1.
         11   -1    0    0    0    0 -0.00000000000E+00 -0.00000000000E+00 -0.45593999997E+02  0.45594000000E+02  0.51100000000E-03 0. -1.
    9900012    2    1    2    0    0  0.18256981614E+02  0.21097292086E+02  0.15437163520E+02  0.59301966560E+02  0.50000041093E+02 0.  0.
        -12    1    1    2    0    0 -0.18256981614E+02 -0.21097292086E+02 -0.15437163520E+02  0.31886033440E+02  0.00000000000E+00 0.  1.
         11    1    3    3    0    0  0.16569219902E+02  0.19786769116E+02 -0.93010341988E+01  0.27432909391E+02  0.51100000000E-03 0. -1.
        -11    1    3    3    0    0  0.57967319177E+01 -0.74301130262E+01  0.72457756749E+01  0.11887385999E+02  0.51100000000E-03 0.  1.
         12    1    3    3    0    0 -0.41089702053E+01  0.87406359960E+01  0.17492422044E+02  0.19981671170E+02  0.00000000000E+00 0. -1.
</event>
<event>
 7    1  0.6183496E-013  0.5930194E+02  0.7816164E-02  0.1266605E+00
        -11   -1    0    0    0    0  0.00000000000E+00  0.00000000000E+00  0.45593999997E+02  0.45594000000E+02  0.51100000000E-03 0. -1.
         11   -1    0    0    0    0 -0.00000000000E+00 -0.00000000000E+00 -0.45593999997E+02  0.45594000000E+02  0.51100000000E-03 0.  1.
    9900012    2    1    2    0    0  0.80446204325E+01 -0.55852851246E+01  0.30344840237E+02  0.59301942595E+02  0.49999997388E+02 0.  0.
        -12    1    1    2    0    0 -0.80446204325E+01  0.55852851246E+01 -0.30344840237E+02  0.31886057405E+02  0.00000000000E+00 0.  1.
         11    1    3    3    0    0  0.12516167122E+02  0.13202757169E+01  0.28294981757E+02  0.30967782618E+02  0.51100000000E-03 0. -1.
        -11    1    3    3    0    0  0.56113419193E+01 -0.11232829258E+02 -0.67621005159E+01  0.14261473098E+02  0.51100000000E-03 0.  1.
        -12    1    3    3    0    0 -0.10082888609E+02  0.43272684170E+01  0.88119589959E+01  0.14072686879E+02  0.00000000000E+00 0.  1.
</event>
<event>
 7    1  0.6055092E-013  0.5930192E+02  0.7816164E-02  0.1266605E+00
        -11   -1    0    0    0    0  0.00000000000E+00  0.00000000000E+00  0.45593999997E+02  0.45594000000E+02  0.51100000000E-03 0.  1.
         11   -1    0    0    0    0 -0.00000000000E+00 -0.00000000000E+00 -0.45593999997E+02  0.45594000000E+02  0.51100000000E-03 0. -1.
    9900012    2    1    2    0    0 -0.10578142601E+02  0.11752938767E+02 -0.27689224106E+02  0.59301924636E+02  0.49999964634E+02 0.  0.
        -12    1    1    2    0    0  0.10578142601E+02 -0.11752938767E+02  0.27689224106E+02  0.31886075364E+02  0.00000000000E+00 0.  1.
         11    1    3    3    0    0 -0.68631272704E+01 -0.17443491983E+02 -0.12689373644E+02  0.22636212851E+02  0.51100000000E-03 0. -1.
        -11    1    3    3    0    0  0.60198674859E+01  0.14131854617E+02 -0.51384205279E+01  0.16197267833E+02  0.51100000000E-03 0.  1.
        -12    1    3    3    0    0 -0.97348828161E+01  0.15064576132E+02 -0.98614299343E+01  0.20468443953E+02  0.00000000000E+00 0.  1.
</event>
<event>
 7    1  0.6055092E-013  0.5930195E+02  0.7816164E-02  0.1266605E+00
        -11   -1    0    0    0    0  0.00000000000E+00  0.00000000000E+00  0.45593999997E+02  0.45594000000E+02  0.51100000000E-03 0. -1.
         11   -1    0    0    0    0 -0.00000000000E+00 -0.00000000000E+00 -0.45593999997E+02  0.45594000000E+02  0.51100000000E-03 0.  1.
    9900012    2    1    2    0    0 -0.24817140915E+02  0.13805024717E+02  0.14500028268E+02  0.59301952732E+02  0.50000015875E+02 0.  0.
        -12    1    1    2    0    0  0.24817140915E+02 -0.13805024717E+02 -0.14500028268E+02  0.31886047268E+02  0.00000000000E+00 0.  1.
         11    1    3    3    0    0  0.12756025853E+02  0.34224283467E+01  0.32218575553E+01  0.13594468645E+02  0.51100000000E-03 0. -1.
        -11    1    3    3    0    0 -0.36068099895E+02  0.25403085949E+01  0.10670072647E+02  0.37698958187E+02  0.51100000000E-03 0.  1.
        -12    1    3    3    0    0 -0.15050668731E+01  0.78422877755E+01  0.60809806495E+00  0.80085259007E+01  0.00000000000E+00 0.  1.
</event>
<event>
 7    1  0.6055092E-013  0.5930195E+02  0.7816164E-02  0.1266605E+00
        -11   -1    0    0    0    0  0.00000000000E+00  0.00000000000E+00  0.45593999997E+02  0.45594000000E+02  0.51100000000E-03 0.  1.
         11   -1    0    0    0    0 -0.00000000000E+00 -0.00000000000E+00 -0.45593999997E+02  0.45594000000E+02  0.51100000000E-03 0. -1.
    9900012    2    1    2    0    0 -0.43643804410E+01 -0.30562530679E+02 -0.79752068383E+01  0.59301952546E+02  0.50000015535E+02 0.  0.
        -12    1    1    2    0    0  0.43643804410E+01  0.30562530679E+02  0.79752068383E+01  0.31886047454E+02  0.00000000000E+00 0.  1.
         11    1    3    3    0    0 -0.20977137259E+01 -0.11850502827E+02 -0.69677707658E+01  0.13906280949E+02  0.51100000000E-03 0. -1.
        -11    1    3    3    0    0  0.18244191747E+02 -0.49075428723E+01  0.57802821272E+01  0.19757180246E+02  0.51100000000E-03 0.  1.
        -12    1    3    3    0    0 -0.20510858462E+02 -0.13804484980E+02 -0.67877181997E+01  0.25638491351E+02  0.00000000000E+00 0.  1.
</event>
<event>
 7    1  0.6055092E-013  0.5930191E+02  0.7816164E-02  0.1266605E+00
        -11   -1    0    0    0    0  0.00000000000E+00  0.00000000000E+00  0.45593999997E+02  0.45594000000E+02  0.51100000000E-03 0. -1.
         11   -1    0    0    0    0 -0.00000000000E+00 -0.00000000000E+00 -0.45593999997E+02  0.45594000000E+02  0.51100000000E-03 0.  1.
    9900012    2    1    2    0    0 -0.10892143435E+02  0.12884872907E+02  0.27056675975E+02  0.59301914426E+02  0.49999946013E+02 0.  0.
        -12    1    1    2    0    0  0.10892143435E+02 -0.12884872907E+02 -0.27056675975E+02  0.31886085574E+02  0.00000000000E+00 0.  1.
         11    1    3    3    0    0  0.36122911697E+01  0.13975231882E+02  0.28112147737E+02  0.31601401935E+02  0.51100000000E-03 0. -1.
        -11    1    3    3    0    0 -0.14626390245E+02  0.90006035807E+01  0.16485635440E+01  0.17252823492E+02  0.51100000000E-03 0.  1.
         12    1    3    3    0    0  0.12195563974E+00 -0.10090962556E+02 -0.27040353055E+01  0.10447688999E+02  0.00000000000E+00 0. -1.
</event>
<event>
 7    1  0.6055092E-013  0.5930194E+02  0.7816164E-02  0.1266605E+00
        -11   -1    0    0    0    0  0.00000000000E+00  0.00000000000E+00  0.45593999997E+02  0.45594000000E+02  0.51100000000E-03 0. -1.
         11   -1    0    0    0    0 -0.00000000000E+00 -0.00000000000E+00 -0.45593999997E+02  0.45594000000E+02  0.51100000000E-03 0.  1.
    9900012    2    1    2    0    0 -0.19151131045E+02 -0.19112380844E+01  0.25422473483E+02  0.59301940204E+02  0.49999993027E+02 0.  0.
        -12    1    1    2    0    0  0.19151131045E+02  0.19112380844E+01 -0.25422473483E+02  0.31886059796E+02  0.00000000000E+00 0.  1.
         11    1    3    3    0    0  0.15052822480E+01 -0.16709367008E+02  0.14208511694E+02  0.21985236530E+02  0.51100000000E-03 0. -1.
        -11    1    3    3    0    0 -0.23520610323E+02  0.78501367751E+01  0.12381903528E+01  0.24826938453E+02  0.51100000000E-03 0.  1.
        -12    1    3    3    0    0  0.28641970299E+01  0.69479921488E+01  0.99757714361E+01  0.12489765221E+02  0.00000000000E+00 0.  1.
</event>
<event>
 7    1  0.6055092E-013  0.5930194E+02  0.7816164E-02  0.1266605E+00
        -11   -1    0    0    0    0  0.00000000000E+00  0.00000000000E+00  0.45593999997E+02  0.45594000000E+02  0.51100000000E-03 0. -1.
         11   -1    0    0    0    0 -0.00000000000E+00 -0.00000000000E+00 -0.45593999997E+02  0.45594000000E+02  0.51100000000E-03 0.  1.
    9900012    2    1    2    0    0 -0.12129691533E+02 -0.34886776177E+01  0.29281742475E+02  0.59301941438E+02  0.49999995278E+02 0.  0.
        -12    1    1    2    0    0  0.12129691533E+02  0.34886776177E+01 -0.29281742475E+02  0.31886058562E+02  0.00000000000E+00 0.  1.
         11    1    3    3    0    0 -0.12876298190E+02 -0.20080425795E+02  0.25988846236E+01  0.23995348648E+02  0.51100000000E-03 0. -1.
        -11    1    3    3    0    0  0.64205003439E+01  0.11169525876E+02  0.83184985680E+01  0.15335532323E+02  0.51100000000E-03 0.  1.
         12    1    3    3    0    0 -0.56738936865E+01  0.54222223018E+01  0.18364359284E+02  0.19971060467E+02  0.00000000000E+00 0. -1.
</event>
<event>
 7    1  0.6055092E-013  0.5930196E+02  0.7816164E-02  0.1266605E+00
        -11   -1    0    0    0    0  0.00000000000E+00  0.00000000000E+00  0.45593999997E+02  0.45594000000E+02  0.51100000000E-03 0.  1.
         11   -1    0    0    0    0 -0.00000000000E+00 -0.00000000000E+00 -0.45593999997E+02  0.45594000000E+02  0.51100000000E-03 0. -1.
    9900012    2    1    2    0    0  0.22716597361E+02 -0.16262260046E+02 -0.15369280519E+02  0.59301957895E+02  0.50000025290E+02 0.  0.
        -12    1    1    2    0    0 -0.22716597361E+02  0.16262260046E+02  0.15369280519E+02  0.31886042105E+02  0.00000000000E+00 0.  1.
         11    1    3    3    0    0  0.21413080553E+02  0.56735779504E+01 -0.20674888866E+02  0.30301163929E+02  0.51100000000E-03 0. -1.
        -11    1    3    3    0    0  0.92002108004E+01 -0.12884785976E+02  0.60909213242E+01  0.16963517066E+02  0.51100000000E-03 0.  1.
         12    1    3    3    0    0 -0.78966939927E+01 -0.90510520205E+01 -0.78531297683E+00  0.12037276900E+02  0.00000000000E+00 0. -1.
</event>
<event>
 7    1  0.6055092E-013  0.5930193E+02  0.7816164E-02  0.1266605E+00
        -11   -1    0    0    0    0  0.00000000000E+00  0.00000000000E+00  0.45593999997E+02  0.45594000000E+02  0.51100000000E-03 0.  1.
         11   -1    0    0    0    0 -0.00000000000E+00 -0.00000000000E+00 -0.45593999997E+02  0.45594000000E+02  0.51100000000E-03 0. -1.
    9900012    2    1    2    0    0 -0.12349899233E+02 -0.36859759686E+01 -0.29165307492E+02  0.59301927946E+02  0.49999970672E+02 0.  0.
        -12    1    1    2    0    0  0.12349899233E+02  0.36859759686E+01  0.29165307492E+02  0.31886072054E+02  0.00000000000E+00 0.  1.
         11    1    3    3    0    0  0.11134310831E+02  0.76421149388E+01 -0.59889173203E+01  0.14773013550E+02  0.51100000000E-03 0. -1.
        -11    1    3    3    0    0 -0.25612638984E+02 -0.17750679570E+02 -0.17807589635E+02  0.35891560983E+02  0.51100000000E-03 0.  1.
        -12    1    3    3    0    0  0.21284289205E+01  0.64225886621E+01 -0.53688005368E+01  0.86373534138E+01  0.00000000000E+00 0.  1.
</event>
<event>
 7    1  0.6055092E-013  0.5930195E+02  0.7816164E-02  0.1266605E+00
        -11   -1    0    0    0    0  0.00000000000E+00  0.00000000000E+00  0.45593999997E+02  0.45594000000E+02  0.51100000000E-03 0.  1.
         11   -1    0    0    0    0 -0.00000000000E+00 -0.00000000000E+00 -0.45593999997E+02  0.45594000000E+02  0.51100000000E-03 0. -1.
    9900012    2    1    2    0    0  0.10957795757E+02 -0.99641882305E+01 -0.28237601680E+02  0.59301945312E+02  0.50000002341E+02 0.  0.
        -12    1    1    2    0    0 -0.10957795757E+02  0.99641882305E+01  0.28237601680E+02  0.31886054688E+02  0.00000000000E+00 0.  1.
         11    1    3    3    0    0  0.17975140943E+02 -0.11870111509E+02 -0.35307914171E+02  0.41360053705E+02  0.51100000000E-03 0. -1.
        -11    1    3    3    0    0 -0.11458229854E+02  0.24983655466E+00  0.34225694768E+01  0.11961079875E+02  0.51100000000E-03 0.  1.
         12    1    3    3    0    0  0.44408846676E+01  0.16560867238E+01  0.36477430137E+01  0.59808117310E+01  0.00000000000E+00 0. -1.
</event>
<event>
 7    1  0.6055092E-013  0.5930196E+02  0.7816164E-02  0.1266605E+00
        -11   -1    0    0    0    0  0.00000000000E+00  0.00000000000E+00  0.45593999997E+02  0.45594000000E+02  0.51100000000E-03 0. -1.
         11   -1    0    0    0    0 -0.00000000000E+00 -0.00000000000E+00 -0.45593999997E+02  0.45594000000E+02  0.51100000000E-03 0.  1.
    9900012    2    1    2    0    0  0.24928513867E+02 -0.97577433231E+01 -0.17322672523E+02  0.59301963217E+02  0.50000034997E+02 0.  0.
        -12    1    1    2    0    0 -0.24928513867E+02  0.97577433231E+01  0.17322672523E+02  0.31886036783E+02  0.00000000000E+00 0.  1.
         11    1    3    3    0    0  0.31912887125E+02 -0.18509072468E+02 -0.11048471995E+02  0.38510866803E+02  0.51100000000E-03 0. -1.
        -11    1    3    3    0    0 -0.34793956813E+01  0.12617515675E+02 -0.79456773828E+01  0.15311488675E+02  0.51100000000E-03 0.  1.
        -12    1    3    3    0    0 -0.35049775763E+01 -0.38661865297E+01  0.16714768544E+01  0.54796077384E+01  0.00000000000E+00 0.  1.
</event>
<event>
 7    1  0.6055092E-013  0.5930196E+02  0.7816164E-02  0.1266605E+00
        -11   -1    0    0    0    0  0.00000000000E+00  0.00000000000E+00  0.45593999997E+02  0.45594000000E+02  0.51100000000E-03 0. -1.
         11   -1    0    0    0    0 -0.00000000000E+00 -0.00000000000E+00 -0.45593999997E+02  0.45594000000E+02  0.51100000000E-03 0.  1.
    9900012    2    1    2    0    0  0.31619358487E+02  0.40034641521E+01 -0.95296244243E+00  0.59301957697E+02  0.50000024929E+02 0.  0.
        -12    1    1    2    0    0 -0.31619358487E+02 -0.40034641521E+01  0.95296244243E+00  0.31886042303E+02  0.00000000000E+00 0.  1.
         11    1    3    3    0    0  0.23422500401E+02  0.14470371383E+02  0.88525748432E+01  0.28920118510E+02  0.51100000000E-03 0. -1.
        -11    1    3    3    0    0 -0.10126793535E+01 -0.12715946162E+02  0.42346696589E+01  0.13440730398E+02  0.51100000000E-03 0.  1.
        -12    1    3    3    0    0  0.92095374392E+01  0.22490389310E+01 -0.14040206944E+02  0.16941108789E+02  0.00000000000E+00 0.  1.
</event>
<event>
 7    1  0.6055092E-013  0.5930195E+02  0.7816164E-02  0.1266605E+00
        -11   -1    0    0    0    0  0.00000000000E+00  0.00000000000E+00  0.45593999997E+02  0.45594000000E+02  0.51100000000E-03 0. -1.
         11   -1    0    0    0    0 -0.00000000000E+00 -0.00000000000E+00 -0.45593999997E+02  0.45594000000E+02  0.51100000000E-03 0.  1.
    9900012    2    1    2    0    0  0.16844084697E+01 -0.27525290751E+02  0.16007543908E+02  0.59301947802E+02  0.50000006884E+02 0.  0.
        -12    1    1    2    0    0 -0.16844084697E+01  0.27525290751E+02 -0.16007543908E+02  0.31886052198E+02  0.00000000000E+00 0.  1.
         11    1    3    3    0    0  0.10775232172E+01 -0.33518269830E+02  0.15803451271E+02  0.37072692659E+02  0.51100000000E-03 0. -1.
        -11    1    3    3    0    0  0.83084874588E+01  0.74850283829E+01 -0.55654800530E+01  0.12491244223E+02  0.51100000000E-03 0.  1.
         12    1    3    3    0    0 -0.77016022063E+01 -0.14920493040E+01  0.57695726899E+01  0.97380109208E+01  0.00000000000E+00 0. -1.
</event>
<event>
 7    1  0.6055092E-013  0.5930193E+02  0.7816164E-02  0.1266605E+00
        -11   -1    0    0    0    0  0.00000000000E+00  0.00000000000E+00  0.45593999997E+02  0.45594000000E+02  0.51100000000E-03 0. -1.
         11   -1    0    0    0    0 -0.00000000000E+00 -0.00000000000E+00 -0.45593999997E+02  0.45594000000E+02  0.51100000000E-03 0.  1.
    9900012    2    1    2    0    0 -0.11778119164E+02 -0.29333113116E+02 -0.41911306803E+01  0.59301934195E+02  0.49999982068E+02 0.  0.
        -12    1    1    2    0    0  0.11778119164E+02  0.29333113116E+02  0.41911306803E+01  0.31886065805E+02  0.00000000000E+00 0.  1.
         11    1    3    3    0    0 -0.42323516998E+00  0.10700993917E+02  0.53664969632E+01  0.11978718160E+02  0.51100000000E-03 0. -1.
        -11    1    3    3    0    0  0.22274168837E+01 -0.15186941047E+02 -0.11133822047E+02  0.18962240320E+02  0.51100000000E-03 0.  1.
         12    1    3    3    0    0 -0.13582300878E+02 -0.24847165987E+02  0.15761944035E+01  0.28360975715E+02  0.00000000000E+00 0. -1.
</event>
<event>
 7    1  0.6055092E-013  0.5930191E+02  0.7816164E-02  0.1266605E+00
        -11   -1    0    0    0    0  0.00000000000E+00  0.00000000000E+00  0.45593999997E+02  0.45594000000E+02  0.51100000000E-03 0.  1.
         11   -1    0    0    0    0 -0.00000000000E+00 -0.00000000000E+00 -0.45593999997E+02  0.45594000000E+02  0.51100000000E-03 0. -1.
    9900012    2    1    2    0    0  0.15358224870E+02 -0.32083481867E+01 -0.27758861127E+02  0.59301906788E+02  0.49999932084E+02 0.  0.
        -12    1    1    2    0    0 -0.15358224870E+02  0.32083481867E+01  0.27758861127E+02  0.31886093212E+02  0.00000000000E+00 0.  1.
         11    1    3    3    0    0  0.11864630497E+02 -0.15637539648E+02 -0.47118102838E+01  0.20186709972E+02  0.51100000000E-03 0. -1.
        -11    1    3    3    0    0  0.11685515200E+02  0.15347846651E+02 -0.23504641388E+02  0.30406838529E+02  0.51100000000E-03 0.  1.
        -12    1    3    3    0    0 -0.81919208267E+01 -0.29186551901E+01  0.45759054534E+00  0.87083582871E+01  0.00000000000E+00 0.  1.
</event>
<event>
 7    1  0.6055092E-013  0.5930198E+02  0.7816164E-02  0.1266605E+00
        -11   -1    0    0    0    0  0.00000000000E+00  0.00000000000E+00  0.45593999997E+02  0.45594000000E+02  0.51100000000E-03 0. -1.
         11   -1    0    0    0    0 -0.00000000000E+00 -0.00000000000E+00 -0.45593999997E+02  0.45594000000E+02  0.51100000000E-03 0.  1.
    9900012    2    1    2    0    0  0.23403460481E+02  0.17857363008E+02 -0.12251979999E+02  0.59301978141E+02  0.50000062214E+02 0.  0.
        -12    1    1    2    0    0 -0.23403460481E+02 -0.17857363008E+02  0.12251979999E+02  0.31886021859E+02  0.00000000000E+00 0.  1.
         11    1    3    3    0    0  0.30140586685E+02  0.18993532707E+02 -0.19955052866E+02  0.40833973424E+02  0.51100000000E-03 0. -1.
        -11    1    3    3    0    0 -0.11279337636E+02  0.16962206714E+01  0.47620818669E+01  0.12360341664E+02  0.51100000000E-03 0.  1.
        -12    1    3    3    0    0  0.45422114328E+01 -0.28323903706E+01  0.29409909996E+01  0.61076630532E+01  0.00000000000E+00 0.  1.
</event>
<event>
 7    1  0.6055092E-013  0.5930194E+02  0.7816164E-02  0.1266605E+00
        -11   -1    0    0    0    0  0.00000000000E+00  0.00000000000E+00  0.45593999997E+02  0.45594000000E+02  0.51100000000E-03 0. -1.
         11   -1    0    0    0    0 -0.00000000000E+00 -0.00000000000E+00 -0.45593999997E+02  0.45594000000E+02  0.51100000000E-03 0.  1.
    9900012    2    1    2    0    0 -0.25923957706E+02  0.12036760972E+02  0.14134551496E+02  0.59301941231E+02  0.49999994900E+02 0.  0.
        -12    1    1    2    0    0  0.25923957706E+02 -0.12036760972E+02 -0.14134551496E+02  0.31886058769E+02  0.00000000000E+00 0.  1.
         11    1    3    3    0    0 -0.27853391173E+02  0.17792613300E+02  0.95576599701E+01  0.34405484334E+02  0.51100000000E-03 0. -1.
        -11    1    3    3    0    0 -0.12267479211E+01 -0.10789685895E+02 -0.62624277136E+01  0.12535558755E+02  0.51100000000E-03 0.  1.
         12    1    3    3    0    0  0.31561813880E+01  0.50338335661E+01  0.10839319239E+02  0.12360898142E+02  0.00000000000E+00 0. -1.
</event>
<event>
 7    1  0.6055092E-013  0.5930196E+02  0.7816164E-02  0.1266605E+00
        -11   -1    0    0    0    0  0.00000000000E+00  0.00000000000E+00  0.45593999997E+02  0.45594000000E+02  0.51100000000E-03 0. -1.
         11   -1    0    0    0    0 -0.00000000000E+00 -0.00000000000E+00 -0.45593999997E+02  0.45594000000E+02  0.51100000000E-03 0.  1.
    9900012    2    1    2    0    0  0.27120284104E+02  0.13102088449E+02  0.10466363842E+02  0.59301963814E+02  0.50000036085E+02 0.  0.
        -12    1    1    2    0    0 -0.27120284104E+02 -0.13102088449E+02 -0.10466363842E+02  0.31886036186E+02  0.00000000000E+00 0.  1.
         11    1    3    3    0    0  0.23570268603E+02 -0.27903147834E+01 -0.63386766902E+01  0.24566689664E+02  0.51100000000E-03 0. -1.
        -11    1    3    3    0    0  0.98089703097E+01  0.19476206044E+02  0.77146289452E+01  0.23131234304E+02  0.51100000000E-03 0.  1.
         12    1    3    3    0    0 -0.62589548094E+01 -0.35838028121E+01  0.90904115873E+01  0.11604039845E+02  0.00000000000E+00 0. -1.
</event>
<event>
 7    1  0.6055092E-013  0.5930195E+02  0.7816164E-02  0.1266605E+00
        -11   -1    0    0    0    0  0.00000000000E+00  0.00000000000E+00  0.45593999997E+02  0.45594000000E+02  0.51100000000E-03 0. -1.
         11   -1    0    0    0    0 -0.00000000000E+00 -0.00000000000E+00 -0.45593999997E+02  0.45594000000E+02  0.51100000000E-03 0.  1.
    9900012    2    1    2    0    0 -0.25152333564E+02  0.63424205960E+01  0.18543303128E+02  0.59301948603E+02  0.50000008345E+02 0.  0.
        -12    1    1    2    0    0  0.25152333564E+02 -0.63424205960E+01 -0.18543303128E+02  0.31886051397E+02  0.00000000000E+00 0.  1.
         11    1    3    3    0    0 -0.85420433887E+01 -0.98719918769E+01  0.18825223798E+02  0.22908770813E+02  0.51100000000E-03 0. -1.
        -11    1    3    3    0    0 -0.24363152436E+02  0.97972586077E+01 -0.12042386381E+01  0.26286872462E+02  0.51100000000E-03 0.  1.
         12    1    3    3    0    0  0.77528622605E+01  0.64171538652E+01  0.92231796855E+00  0.10106305329E+02  0.00000000000E+00 0. -1.
</event>
<event>
 7    1  0.6055092E-013  0.5930197E+02  0.7816164E-02  0.1266605E+00
        -11   -1    0    0    0    0  0.00000000000E+00  0.00000000000E+00  0.45593999997E+02  0.45594000000E+02  0.51100000000E-03 0.  1.
         11   -1    0    0    0    0 -0.00000000000E+00 -0.00000000000E+00 -0.45593999997E+02  0.45594000000E+02  0.51100000000E-03 0. -1.
    9900012    2    1    2    0    0  0.17878147764E+02  0.24928286868E+02 -0.86989321840E+01  0.59301967403E+02  0.50000042631E+02 0.  0.
        -12    1    1    2    0    0 -0.17878147764E+02 -0.24928286868E+02  0.86989321840E+01  0.31886032597E+02  0.00000000000E+00 0.  1.
         11    1    3    3    0    0  0.17528990620E+02  0.20756812049E+02 -0.10424269739E+02  0.29099418524E+02  0.51100000000E-03 0. -1.
        -11    1    3    3    0    0 -0.13543096831E+02  0.47934379356E+01 -0.43741498414E+01  0.15017513313E+02  0.51100000000E-03 0.  1.
         12    1    3    3    0    0  0.13892253975E+02 -0.62196311683E+00  0.60994873964E+01  0.15185035565E+02  0.00000000000E+00 0. -1.
</event>
<event>
 7    1  0.6055092E-013  0.5930195E+02  0.7816164E-02  0.1266605E+00
        -11   -1    0    0    0    0  0.00000000000E+00  0.00000000000E+00  0.45593999997E+02  0.45594000000E+02  0.51100000000E-03 0. -1.
         11   -1    0    0    0    0 -0.00000000000E+00 -0.00000000000E+00 -0.45593999997E+02  0.45594000000E+02  0.51100000000E-03 0.  1.
    9900012    2    1    2    0    0  0.14605455549E+02 -0.22794228667E+02  0.16847073231E+02  0.59301951817E+02  0.50000014205E+02 0.  0.
        -12    1    1    2    0    0 -0.14605455549E+02  0.22794228667E+02 -0.16847073231E+02  0.31886048183E+02  0.00000000000E+00 0.  1.
         11    1    3    3    0    0  0.16711057309E+02 -0.14516148331E+02  0.24716664543E+02  0.33179685127E+02  0.51100000000E-03 0. -1.
        -11    1    3    3    0    0 -0.37903609165E+01 -0.15563374607E+02 -0.92808596075E+01  0.18512693493E+02  0.51100000000E-03 0.  1.
        -12    1    3    3    0    0  0.16847591565E+01  0.72852942714E+01  0.14112682958E+01  0.76095731969E+01  0.00000000000E+00 0.  1.
</event>
<event>
 7    1  0.6055092E-013  0.5930195E+02  0.7816164E-02  0.1266605E+00
        -11   -1    0    0    0    0  0.00000000000E+00  0.00000000000E+00  0.45593999997E+02  0.45594000000E+02  0.51100000000E-03 0. -1.
         11   -1    0    0    0    0 -0.00000000000E+00 -0.00000000000E+00 -0.45593999997E+02  0.45594000000E+02  0.51100000000E-03 0.  1.
    9900012    2    1    2    0    0 -0.30378128429E+02 -0.90278427428E+01  0.35196338404E+01  0.59301945779E+02  0.50000003194E+02 0.  0.
        -12    1    1    2    0    0  0.30378128429E+02  0.90278427428E+01 -0.35196338404E+01  0.31886054221E+02  0.00000000000E+00 0.  1.
         11    1    3    3    0    0 -0.14101186221E+02 -0.21021354417E+02  0.18643874261E+02  0.31437793213E+02  0.51100000000E-03 0. -1.
        -11    1    3    3    0    0 -0.53780577570E+01  0.57051018522E+01  0.43645865480E+00  0.78525275421E+01  0.51100000000E-03 0.  1.
         12    1    3    3    0    0 -0.10898884450E+02  0.62884098224E+01 -0.15560699076E+02  0.20011625024E+02  0.00000000000E+00 0. -1.
</event>
<event>
 7    1  0.6055092E-013  0.5930189E+02  0.7816164E-02  0.1266605E+00
        -11   -1    0    0    0    0  0.00000000000E+00  0.00000000000E+00  0.45593999997E+02  0.45594000000E+02  0.51100000000E-03 0.  1.
         11   -1    0    0    0    0 -0.00000000000E+00 -0.00000000000E+00 -0.45593999997E+02  0.45594000000E+02  0.51100000000E-03 0. -1.
    9900012    2    1    2    0    0  0.78840255459E+01 -0.49129484288E+01 -0.30502936480E+02  0.59301889310E+02  0.49999900207E+02 0.  0.
        -12    1    1    2    0    0 -0.78840255459E+01  0.49129484288E+01  0.30502936480E+02  0.31886110690E+02  0.00000000000E+00 0.  1.
         11    1    3    3    0    0 -0.12491950089E+00  0.55560167220E+01 -0.17989303258E+02  0.18828169286E+02  0.51100000000E-03 0. -1.
        -11    1    3    3    0    0 -0.11457764621E+02  0.21070686737E+01  0.36613974227E+01  0.12211713223E+02  0.51100000000E-03 0.  1.
        -12    1    3    3    0    0  0.19466709667E+02 -0.12576033825E+02 -0.16175030644E+02  0.28262006800E+02  0.00000000000E+00 0.  1.
</event>
<event>
 7    1  0.6055092E-013  0.5930194E+02  0.7816164E-02  0.1266605E+00
        -11   -1    0    0    0    0  0.00000000000E+00  0.00000000000E+00  0.45593999997E+02  0.45594000000E+02  0.51100000000E-03 0. -1.
         11   -1    0    0    0    0 -0.00000000000E+00 -0.00000000000E+00 -0.45593999997E+02  0.45594000000E+02  0.51100000000E-03 0.  1.
    9900012    2    1    2    0    0 -0.11547496776E+02 -0.29549162506E+02 -0.31974026368E+01  0.59301936113E+02  0.49999985565E+02 0.  0.
        -12    1    1    2    0    0  0.11547496776E+02  0.29549162506E+02  0.31974026368E+01  0.31886063887E+02  0.00000000000E+00 0.  1.
         11    1    3    3    0    0 -0.23948817382E+02 -0.13330835692E+02 -0.35328898662E+01  0.27635816350E+02  0.51100000000E-03 0. -1.
        -11    1    3    3    0    0  0.69920662552E+01 -0.87203815538E+00 -0.10115154324E+02  0.12327440461E+02  0.51100000000E-03 0.  1.
         12    1    3    3    0    0  0.54092543511E+01 -0.15346288659E+02  0.10450641554E+02  0.19338679302E+02  0.00000000000E+00 0. -1.
</event>
<event>
 7    1  0.6055092E-013  0.5930176E+02  0.7816164E-02  0.1266605E+00
        -11   -1    0    0    0    0  0.00000000000E+00  0.00000000000E+00  0.45593999997E+02  0.45594000000E+02  0.51100000000E-03 0.  1.
         11   -1    0    0    0    0 -0.00000000000E+00 -0.00000000000E+00 -0.45593999997E+02  0.45594000000E+02  0.51100000000E-03 0. -1.
    9900012    2    1    2    0    0  0.17741852853E+02 -0.24277176658E+02 -0.10610254552E+02  0.59301762361E+02  0.49999668682E+02 0.  0.
        -12    1    1    2    0    0 -0.17741852853E+02  0.24277176658E+02  0.10610254552E+02  0.31886237639E+02  0.00000000000E+00 0.  1.
         11    1    3    3    0    0 -0.13478099476E+02 -0.15965942125E+02 -0.26454498351E+01  0.21061074961E+02  0.51100000000E-03 0. -1.
        -11    1    3    3    0    0  0.27267063155E+02 -0.82152852743E+01  0.94443057843E+00  0.28493430728E+02  0.51100000000E-03 0.  1.
         12    1    3    3    0    0  0.39528891740E+01 -0.95949258257E-01 -0.89092352954E+01  0.97472566720E+01  0.00000000000E+00 0. -1.
</event>
<event>
 7    1  0.6055092E-013  0.5930196E+02  0.7816164E-02  0.1266605E+00
        -11   -1    0    0    0    0  0.00000000000E+00  0.00000000000E+00  0.45593999997E+02  0.45594000000E+02  0.51100000000E-03 0. -1.
         11   -1    0    0    0    0 -0.00000000000E+00 -0.00000000000E+00 -0.45593999997E+02  0.45594000000E+02  0.51100000000E-03 0.  1.
    9900012    2    1    2    0    0  0.65245018487E+00 -0.17272598220E+02  0.26794609798E+02  0.59301961445E+02  0.50000031764E+02 0.  0.
        -12    1    1    2    0    0 -0.65245018487E+00  0.17272598220E+02 -0.26794609798E+02  0.31886038555E+02  0.00000000000E+00 0.  1.
         11    1    3    3    0    0 -0.12165822039E+02  0.55060084304E+01  0.13843572143E+02  0.19234548205E+02  0.51100000000E-03 0. -1.
        -11    1    3    3    0    0  0.19870531759E+02 -0.87037916376E+01  0.10619225637E+02  0.24152887501E+02  0.51100000000E-03 0.  1.
        -12    1    3    3    0    0 -0.70522595353E+01 -0.14074815012E+02  0.23318120178E+01  0.15914525738E+02  0.00000000000E+00 0.  1.
</event>
<event>
 7    1  0.6055092E-013  0.5930193E+02  0.7816164E-02  0.1266605E+00
        -11   -1    0    0    0    0  0.00000000000E+00  0.00000000000E+00  0.45593999997E+02  0.45594000000E+02  0.51100000000E-03 0. -1.
         11   -1    0    0    0    0 -0.00000000000E+00 -0.00000000000E+00 -0.45593999997E+02  0.45594000000E+02  0.51100000000E-03 0.  1.
    9900012    2    1    2    0    0 -0.25697699688E+02 -0.97148042031E+01  0.16185553496E+02  0.59301932009E+02  0.49999978081E+02 0.  0.
        -12    1    1    2    0    0  0.25697699688E+02  0.97148042031E+01 -0.16185553496E+02  0.31886067991E+02  0.00000000000E+00 0.  1.
         11    1    3    3    0    0 -0.21638943802E+02 -0.10166634016E+02  0.10483171261E+02  0.26105578255E+02  0.51100000000E-03 0. -1.
        -11    1    3    3    0    0  0.13897131617E+02 -0.21763157179E+01 -0.33711125381E+00  0.14070545887E+02  0.51100000000E-03 0.  1.
        -12    1    3    3    0    0 -0.17955887503E+02  0.26281455313E+01  0.60394934896E+01  0.19125807867E+02  0.00000000000E+00 0.  1.
</event>
<event>
 7    1  0.6055092E-013  0.5930193E+02  0.7816164E-02  0.1266605E+00
        -11   -1    0    0    0    0  0.00000000000E+00  0.00000000000E+00  0.45593999997E+02  0.45594000000E+02  0.51100000000E-03 0.  1.
         11   -1    0    0    0    0 -0.00000000000E+00 -0.00000000000E+00 -0.45593999997E+02  0.45594000000E+02  0.51100000000E-03 0. -1.
    9900012    2    1    2    0    0 -0.13700442677E+02 -0.24285242155E+02 -0.15467590906E+02  0.59301929616E+02  0.49999973717E+02 0.  0.
        -12    1    1    2    0    0  0.13700442677E+02  0.24285242155E+02  0.15467590906E+02  0.31886070384E+02  0.00000000000E+00 0.  1.
         11    1    3    3    0    0 -0.29144889012E+02 -0.27192736899E+02 -0.62652237843E+01  0.40350000309E+02  0.51100000000E-03 0. -1.
        -11    1    3    3    0    0  0.10594748126E+02 -0.37782628291E+00 -0.69478120012E+01  0.12675311926E+02  0.51100000000E-03 0.  1.
         12    1    3    3    0    0  0.48496982092E+01  0.32853210272E+01 -0.22545551206E+01  0.62766173823E+01  0.00000000000E+00 0. -1.
</event>
<event>
 7    1  0.6055092E-013  0.5930194E+02  0.7816164E-02  0.1266605E+00
        -11   -1    0    0    0    0  0.00000000000E+00  0.00000000000E+00  0.45593999997E+02  0.45594000000E+02  0.51100000000E-03 0.  1.
         11   -1    0    0    0    0 -0.00000000000E+00 -0.00000000000E+00 -0.45593999997E+02  0.45594000000E+02  0.51100000000E-03 0. -1.
    9900012    2    1    2    0    0  0.27308128684E+02 -0.11411605680E+02 -0.11864317608E+02  0.59301942409E+02  0.49999997047E+02 0.  0.
        -12    1    1    2    0    0 -0.27308128684E+02  0.11411605680E+02  0.11864317608E+02  0.31886057591E+02  0.00000000000E+00 0.  1.
         11    1    3    3    0    0  0.76132586812E+01  0.75512180838E-01 -0.14660352425E+02  0.16519483749E+02  0.51100000000E-03 0. -1.
        -11    1    3    3    0    0  0.10600476008E+02 -0.20970165583E+02  0.12342356257E+02  0.26541508895E+02  0.51100000000E-03 0.  1.
        -12    1    3    3    0    0  0.90943939947E+01  0.94830477224E+01 -0.95463214401E+01  0.16240949765E+02  0.00000000000E+00 0.  1.
</event>
<event>
 7    1  0.6055092E-013  0.5930195E+02  0.7816164E-02  0.1266605E+00
        -11   -1    0    0    0    0  0.00000000000E+00  0.00000000000E+00  0.45593999997E+02  0.45594000000E+02  0.51100000000E-03 0.  1.
         11   -1    0    0    0    0 -0.00000000000E+00 -0.00000000000E+00 -0.45593999997E+02  0.45594000000E+02  0.51100000000E-03 0. -1.
    9900012    2    1    2    0    0  0.21408674195E+02  0.17877564401E+02 -0.15452551829E+02  0.59301952930E+02  0.50000016237E+02 0.  0.
        -12    1    1    2    0    0 -0.21408674195E+02 -0.17877564401E+02  0.15452551829E+02  0.31886047070E+02  0.00000000000E+00 0.  1.
         11    1    3    3    0    0 -0.12963402555E+01  0.15706836123E+02 -0.79261420884E+01  0.17641114696E+02  0.51100000000E-03 0.  1.
        -11    1    3    3    0    0  0.28564726409E+02 -0.22939690125E+01 -0.13963718926E+02  0.31877756119E+02  0.51100000000E-03 0. -1.
         12    1    3    3    0    0 -0.58597119590E+01  0.44646972900E+01  0.64373091850E+01  0.97830821154E+01  0.00000000000E+00 0. -1.
</event>
<event>
 7    1  0.6055092E-013  0.5930196E+02  0.7816164E-02  0.1266605E+00
        -11   -1    0    0    0    0  0.00000000000E+00  0.00000000000E+00  0.45593999997E+02  0.45594000000E+02  0.51100000000E-03 0. -1.
         11   -1    0    0    0    0 -0.00000000000E+00 -0.00000000000E+00 -0.45593999997E+02  0.45594000000E+02  0.51100000000E-03 0.  1.
    9900012    2    1    2    0    0 -0.14914350932E+02  0.12218858877E+02  0.25396485578E+02  0.59301955158E+02  0.50000020298E+02 0.  0.
        -12    1    1    2    0    0  0.14914350932E+02 -0.12218858877E+02 -0.25396485578E+02  0.31886044842E+02  0.00000000000E+00 0.  1.
         11    1    3    3    0    0  0.37089237441E+00 -0.78364965561E+01 -0.80218892992E+01  0.11220470027E+02  0.51100000000E-03 0.  1.
        -11    1    3    3    0    0 -0.18813454113E+02  0.17028465823E+02  0.34946881325E+02  0.43187952239E+02  0.51100000000E-03 0. -1.
         12    1    3    3    0    0  0.35282108069E+01  0.30268896095E+01 -0.15285064479E+01  0.48935328922E+01  0.00000000000E+00 0. -1.
</event>
<event>
 7    1  0.6055092E-013  0.5930193E+02  0.7816164E-02  0.1266605E+00
        -11   -1    0    0    0    0  0.00000000000E+00  0.00000000000E+00  0.45593999997E+02  0.45594000000E+02  0.51100000000E-03 0. -1.
         11   -1    0    0    0    0 -0.00000000000E+00 -0.00000000000E+00 -0.45593999997E+02  0.45594000000E+02  0.51100000000E-03 0.  1.
    9900012    2    1    2    0    0 -0.21536840745E+02 -0.23510689774E+02  0.36515080835E+00  0.59301931286E+02  0.49999976763E+02 0.  0.
        -12    1    1    2    0    0  0.21536840745E+02  0.23510689774E+02 -0.36515080835E+00  0.31886068714E+02  0.00000000000E+00 0.  1.
         11    1    3    3    0    0 -0.16548376240E+02 -0.77764717739E+01 -0.17356932769E+02  0.25210818805E+02  0.51100000000E-03 0. -1.
        -11    1    3    3    0    0  0.76908890981E+01 -0.11486569446E+02  0.28923794379E+01  0.14122921505E+02  0.51100000000E-03 0.  1.
         12    1    3    3    0    0 -0.12679353603E+02 -0.42476485539E+01  0.14829704139E+02  0.19968190977E+02  0.00000000000E+00 0. -1.
</event>
<event>
 7    1  0.6055092E-013  0.5930195E+02  0.7816164E-02  0.1266605E+00
        -11   -1    0    0    0    0  0.00000000000E+00  0.00000000000E+00  0.45593999997E+02  0.45594000000E+02  0.51100000000E-03 0. -1.
         11   -1    0    0    0    0 -0.00000000000E+00 -0.00000000000E+00 -0.45593999997E+02  0.45594000000E+02  0.51100000000E-03 0.  1.
    9900012    2    1    2    0    0  0.22958160937E+02 -0.25635528881E+01  0.21978882681E+02  0.59301949117E+02  0.50000009281E+02 0.  0.
        -12    1    1    2    0    0 -0.22958160937E+02  0.25635528881E+01 -0.21978882681E+02  0.31886050883E+02  0.00000000000E+00 0.  1.
         11    1    3    3    0    0  0.12691879763E+02  0.14597482144E+02 -0.96218503196E+01  0.21604404660E+02  0.51100000000E-03 0. -1.
        -11    1    3    3    0    0  0.78068141459E+01 -0.13489689482E+02  0.20518653526E+02  0.25766901487E+02  0.51100000000E-03 0.  1.
         12    1    3    3    0    0  0.24594670279E+01 -0.36713455495E+01  0.11082079474E+02  0.11930642970E+02  0.00000000000E+00 0. -1.
</event>
<event>
 7    1  0.6055092E-013  0.5930185E+02  0.7816164E-02  0.1266605E+00
        -11   -1    0    0    0    0  0.00000000000E+00  0.00000000000E+00  0.45593999997E+02  0.45594000000E+02  0.51100000000E-03 0. -1.
         11   -1    0    0    0    0 -0.00000000000E+00 -0.00000000000E+00 -0.45593999997E+02  0.45594000000E+02  0.51100000000E-03 0.  1.
    9900012    2    1    2    0    0 -0.15614088096E+02 -0.27486089681E+02  0.41763493179E+01  0.59301846788E+02  0.49999822658E+02 0.  0.
        -12    1    1    2    0    0  0.15614088096E+02  0.27486089681E+02 -0.41763493179E+01  0.31886153212E+02  0.00000000000E+00 0.  1.
         11    1    3    3    0    0 -0.20032830065E+02 -0.30573689532E+02  0.17312764477E+02  0.40444982212E+02  0.51100000000E-03 0. -1.
        -11    1    3    3    0    0  0.71694662780E+01  0.58493219632E+01 -0.70642938411E+01  0.11641308426E+02  0.51100000000E-03 0.  1.
         12    1    3    3    0    0 -0.27507243091E+01 -0.27617221127E+01 -0.60721213182E+01  0.72155561501E+01  0.00000000000E+00 0. -1.
</event>
<event>
 7    1  0.6055092E-013  0.5930197E+02  0.7816164E-02  0.1266605E+00
        -11   -1    0    0    0    0  0.00000000000E+00  0.00000000000E+00  0.45593999997E+02  0.45594000000E+02  0.51100000000E-03 0. -1.
         11   -1    0    0    0    0 -0.00000000000E+00 -0.00000000000E+00 -0.45593999997E+02  0.45594000000E+02  0.51100000000E-03 0.  1.
    9900012    2    1    2    0    0  0.11642954465E+02 -0.27950126704E+02  0.99975361745E+01  0.59301973264E+02  0.50000053321E+02 0.  0.
        -12    1    1    2    0    0 -0.11642954465E+02  0.27950126704E+02 -0.99975361745E+01  0.31886026736E+02  0.00000000000E+00 0.  1.
         11    1    3    3    0    0 -0.48698980287E+01  0.40693128159E+01 -0.47385419498E+01  0.79201637404E+01  0.51100000000E-03 0.  1.
        -11    1    3    3    0    0  0.21901739408E+02 -0.32253276033E+02  0.20023913385E+02  0.43828268405E+02  0.51100000000E-03 0. -1.
         12    1    3    3    0    0 -0.53888869142E+01  0.23383651284E+00 -0.52878352605E+01  0.75535411186E+01  0.00000000000E+00 0. -1.
</event>
<event>
 7    1  0.6055092E-013  0.5930194E+02  0.7816164E-02  0.1266605E+00
        -11   -1    0    0    0    0  0.00000000000E+00  0.00000000000E+00  0.45593999997E+02  0.45594000000E+02  0.51100000000E-03 0.  1.
         11   -1    0    0    0    0 -0.00000000000E+00 -0.00000000000E+00 -0.45593999997E+02  0.45594000000E+02  0.51100000000E-03 0. -1.
    9900012    2    1    2    0    0 -0.10659607173E+01  0.26041417760E+02 -0.18369245928E+02  0.59301938669E+02  0.49999990228E+02 0.  0.
        -12    1    1    2    0    0  0.10659607173E+01 -0.26041417760E+02  0.18369245928E+02  0.31886061331E+02  0.00000000000E+00 0.  1.
         11    1    3    3    0    0  0.71123986640E+01  0.13362401062E+02 -0.92210843942E+01  0.17724795473E+02  0.51100000000E-03 0. -1.
        -11    1    3    3    0    0 -0.53427724571E+01 -0.61030128541E+01 -0.18650547263E+02  0.20338016052E+02  0.51100000000E-03 0.  1.
        -12    1    3    3    0    0 -0.28355869242E+01  0.18782029552E+02  0.95023857297E+01  0.21239127144E+02  0.00000000000E+00 0.  1.
</event>
<event>
 7    1  0.6055092E-013  0.5930210E+02  0.7816164E-02  0.1266604E+00
        -11   -1    0    0    0    0  0.00000000000E+00  0.00000000000E+00  0.45593999997E+02  0.45594000000E+02  0.51100000000E-03 0. -1.
         11   -1    0    0    0    0 -0.00000000000E+00 -0.00000000000E+00 -0.45593999997E+02  0.45594000000E+02  0.51100000000E-03 0.  1.
    9900012    2    1    2    0    0  0.18685461887E+02 -0.42232383437E+01  0.25489764817E+02  0.59302104396E+02  0.50000292473E+02 0.  0.
        -12    1    1    2    0    0 -0.18685461887E+02  0.42232383437E+01 -0.25489764817E+02  0.31885895604E+02  0.00000000000E+00 0.  1.
         11    1    3    3    0    0 -0.25248987437E+01  0.11735992056E+02  0.88972647673E+01  0.14942220177E+02  0.51100000000E-03 0. -1.
        -11    1    3    3    0    0  0.52609808223E+01 -0.36212344912E+01 -0.94607465954E+01  0.11414770469E+02  0.51100000000E-03 0.  1.
         12    1    3    3    0    0  0.15949379808E+02 -0.12337995909E+02  0.26053246645E+02  0.32945113751E+02  0.00000000000E+00 0. -1.
</event>
<event>
 7    1  0.6055092E-013  0.5930196E+02  0.7816164E-02  0.1266605E+00
        -11   -1    0    0    0    0  0.00000000000E+00  0.00000000000E+00  0.45593999997E+02  0.45594000000E+02  0.51100000000E-03 0. -1.
         11   -1    0    0    0    0 -0.00000000000E+00 -0.00000000000E+00 -0.45593999997E+02  0.45594000000E+02  0.51100000000E-03 0.  1.
    9900012    2    1    2    0    0 -0.17045497602E+02 -0.21976377249E+02  0.15595181984E+02  0.59301955300E+02  0.50000020558E+02 0.  0.
        -12    1    1    2    0    0  0.17045497602E+02  0.21976377249E+02 -0.15595181984E+02  0.31886044700E+02  0.00000000000E+00 0.  1.
         11    1    3    3    0    0  0.55704192786E+01 -0.23324400419E+02 -0.89725643824E+00  0.23997130979E+02  0.51100000000E-03 0. -1.
        -11    1    3    3    0    0 -0.83541689361E+01  0.70782187986E+01 -0.21341833228E+01  0.11155629014E+02  0.51100000000E-03 0.  1.
         12    1    3    3    0    0 -0.14261747945E+02 -0.57301956292E+01  0.18626621745E+02  0.24149195308E+02  0.00000000000E+00 0. -1.
</event>
<event>
 7    1  0.6055092E-013  0.5930193E+02  0.7816164E-02  0.1266605E+00
        -11   -1    0    0    0    0  0.00000000000E+00  0.00000000000E+00  0.45593999997E+02  0.45594000000E+02  0.51100000000E-03 0.  1.
         11   -1    0    0    0    0 -0.00000000000E+00 -0.00000000000E+00 -0.45593999997E+02  0.45594000000E+02  0.51100000000E-03 0. -1.
    9900012    2    1    2    0    0 -0.83319583801E+01 -0.15736839531E+02 -0.26450928908E+02  0.59301932683E+02  0.49999979309E+02 0.  0.
        -12    1    1    2    0    0  0.83319583801E+01  0.15736839531E+02  0.26450928908E+02  0.31886067317E+02  0.00000000000E+00 0.  1.
         11    1    3    3    0    0 -0.14331159038E+01 -0.32475853465E+01 -0.11369604810E+01  0.37273732270E+01  0.51100000000E-03 0. -1.
        -11    1    3    3    0    0  0.11986839914E+02  0.82964477777E+01  0.38593863416E+01  0.15080127322E+02  0.51100000000E-03 0.  1.
        -12    1    3    3    0    0 -0.18885682390E+02 -0.20785701963E+02 -0.29173354768E+02  0.40494432134E+02  0.00000000000E+00 0.  1.
</event>
<event>
 7    1  0.6055092E-013  0.5930195E+02  0.7816164E-02  0.1266605E+00
        -11   -1    0    0    0    0  0.00000000000E+00  0.00000000000E+00  0.45593999997E+02  0.45594000000E+02  0.51100000000E-03 0. -1.
         11   -1    0    0    0    0 -0.00000000000E+00 -0.00000000000E+00 -0.45593999997E+02  0.45594000000E+02  0.51100000000E-03 0.  1.
    9900012    2    1    2    0    0  0.13957439983E+02  0.82077341316E+00  0.28657226689E+02  0.59301945973E+02  0.50000003548E+02 0.  0.
        -12    1    1    2    0    0 -0.13957439983E+02 -0.82077341316E+00 -0.28657226689E+02  0.31886054027E+02  0.00000000000E+00 0.  1.
         11    1    3    3    0    0  0.14097206938E+02  0.17914447731E+02  0.26423879204E+02  0.34898138538E+02  0.51100000000E-03 0. -1.
        -11    1    3    3    0    0  0.58049509858E+01 -0.58403672994E+01 -0.51284993329E+01  0.97009716940E+01  0.51100000000E-03 0.  1.
         12    1    3    3    0    0 -0.59447179410E+01 -0.11253307019E+02  0.73618468179E+01  0.14702835741E+02  0.00000000000E+00 0. -1.
</event>
<event>
 7    1  0.6055092E-013  0.5930197E+02  0.7816164E-02  0.1266605E+00
        -11   -1    0    0    0    0  0.00000000000E+00  0.00000000000E+00  0.45593999997E+02  0.45594000000E+02  0.51100000000E-03 0.  1.
         11   -1    0    0    0    0 -0.00000000000E+00 -0.00000000000E+00 -0.45593999997E+02  0.45594000000E+02  0.51100000000E-03 0. -1.
    9900012    2    1    2    0    0 -0.30536889206E+02 -0.88425120137E+01 -0.24550871868E+01  0.59301967412E+02  0.50000042648E+02 0.  0.
        -12    1    1    2    0    0  0.30536889206E+02  0.88425120137E+01  0.24550871868E+01  0.31886032588E+02  0.00000000000E+00 0.  1.
         11    1    3    3    0    0 -0.70029854240E+01 -0.11765779618E+02 -0.18837456852E+02  0.23287875725E+02  0.51100000000E-03 0. -1.
        -11    1    3    3    0    0 -0.45527853043E+01 -0.79546437299E+01  0.92044089214E+01  0.12989432426E+02  0.51100000000E-03 0.  1.
         12    1    3    3    0    0 -0.18981118478E+02  0.10877911334E+02  0.71779607438E+01  0.23024659261E+02  0.00000000000E+00 0. -1.
</event>
<event>
 7    1  0.6055092E-013  0.5930194E+02  0.7816164E-02  0.1266605E+00
        -11   -1    0    0    0    0  0.00000000000E+00  0.00000000000E+00  0.45593999997E+02  0.45594000000E+02  0.51100000000E-03 0. -1.
         11   -1    0    0    0    0 -0.00000000000E+00 -0.00000000000E+00 -0.45593999997E+02  0.45594000000E+02  0.51100000000E-03 0.  1.
    9900012    2    1    2    0    0 -0.56464412282E+01 -0.29620498252E+02  0.10366515547E+02  0.59301939411E+02  0.49999991581E+02 0.  0.
        -12    1    1    2    0    0  0.56464412282E+01  0.29620498252E+02 -0.10366515547E+02  0.31886060589E+02  0.00000000000E+00 0.  1.
         11    1    3    3    0    0  0.56638396025E+01 -0.32339391646E+02  0.55188010113E+01  0.33292228762E+02  0.51100000000E-03 0. -1.
        -11    1    3    3    0    0 -0.71682786831E+01 -0.35321176334E+01 -0.78891373602E+01  0.11229361638E+02  0.51100000000E-03 0.  1.
         12    1    3    3    0    0 -0.41420021475E+01  0.62510110274E+01  0.12736851896E+02  0.14780349011E+02  0.00000000000E+00 0. -1.
</event>
<event>
 7    1  0.6055092E-013  0.5930189E+02  0.7816164E-02  0.1266605E+00
        -11   -1    0    0    0    0  0.00000000000E+00  0.00000000000E+00  0.45593999997E+02  0.45594000000E+02  0.51100000000E-03 0.  1.
         11   -1    0    0    0    0 -0.00000000000E+00 -0.00000000000E+00 -0.45593999997E+02  0.45594000000E+02  0.51100000000E-03 0. -1.
    9900012    2    1    2    0    0  0.25855886002E+02 -0.10142829420E+02 -0.15662693769E+02  0.59301893219E+02  0.49999907336E+02 0.  0.
        -12    1    1    2    0    0 -0.25855886002E+02  0.10142829420E+02  0.15662693769E+02  0.31886106781E+02  0.00000000000E+00 0.  1.
         11    1    3    3    0    0  0.35746362253E+01  0.11533905494E+02  0.36908609711E+01  0.12626616928E+02  0.51100000000E-03 0. -1.
        -11    1    3    3    0    0  0.20133044043E+02 -0.28708703586E+02 -0.15071248397E+02  0.38166368082E+02  0.51100000000E-03 0.  1.
        -12    1    3    3    0    0  0.21482057338E+01  0.70319686729E+01 -0.42823063428E+01  0.85089082087E+01  0.00000000000E+00 0.  1.
</event>
<event>
 7    1  0.6055092E-013  0.5930184E+02  0.7816164E-02  0.1266605E+00
        -11   -1    0    0    0    0  0.00000000000E+00  0.00000000000E+00  0.45593999997E+02  0.45594000000E+02  0.51100000000E-03 0.  1.
         11   -1    0    0    0    0 -0.00000000000E+00 -0.00000000000E+00 -0.45593999997E+02  0.45594000000E+02  0.51100000000E-03 0. -1.
    9900012    2    1    2    0    0 -0.14377928452E+02 -0.22999739781E+02 -0.16763489963E+02  0.59301836037E+02  0.49999803050E+02 0.  0.
        -12    1    1    2    0    0  0.14377928452E+02  0.22999739781E+02  0.16763489963E+02  0.31886163963E+02  0.00000000000E+00 0.  1.
         11    1    3    3    0    0  0.76587756523E+01 -0.13143001851E+02 -0.23278692475E+02  0.27808143875E+02  0.51100000000E-03 0.  1.
        -11    1    3    3    0    0 -0.15745706327E+02  0.14776779430E+00 -0.33505151398E+01  0.16098914716E+02  0.51100000000E-03 0. -1.
         12    1    3    3    0    0 -0.62909977765E+01 -0.10004505724E+02  0.98657176520E+01  0.15394777446E+02  0.00000000000E+00 0. -1.
</event>
<event>
 7    1  0.6055092E-013  0.5930200E+02  0.7816164E-02  0.1266605E+00
        -11   -1    0    0    0    0  0.00000000000E+00  0.00000000000E+00  0.45593999997E+02  0.45594000000E+02  0.51100000000E-03 0.  1.
         11   -1    0    0    0    0 -0.00000000000E+00 -0.00000000000E+00 -0.45593999997E+02  0.45594000000E+02  0.51100000000E-03 0. -1.
    9900012    2    1    2    0    0  0.26666477633E+02  0.81745603913E+00 -0.17462760680E+02  0.59301995636E+02  0.50000094121E+02 0.  0.
        -12    1    1    2    0    0 -0.26666477633E+02 -0.81745603913E+00  0.17462760680E+02  0.31886004364E+02  0.00000000000E+00 0.  1.
         11    1    3    3    0    0  0.79979355313E+01 -0.22749801124E+02 -0.11465424330E+02  0.26701617541E+02  0.51100000000E-03 0. -1.
        -11    1    3    3    0    0  0.50979974955E+01  0.12963852776E+02 -0.64980399785E+01  0.15371258279E+02  0.51100000000E-03 0.  1.
         12    1    3    3    0    0  0.13570544606E+02  0.10603404387E+02  0.50070362852E+00  0.17229119816E+02  0.00000000000E+00 0. -1.
</event>
<event>
 7    1  0.6055092E-013  0.5930198E+02  0.7816164E-02  0.1266605E+00
        -11   -1    0    0    0    0  0.00000000000E+00  0.00000000000E+00  0.45593999997E+02  0.45594000000E+02  0.51100000000E-03 0.  1.
         11   -1    0    0    0    0 -0.00000000000E+00 -0.00000000000E+00 -0.45593999997E+02  0.45594000000E+02  0.51100000000E-03 0. -1.
    9900012    2    1    2    0    0 -0.15106636796E+02 -0.12023956802E+02 -0.25375820178E+02  0.59301980145E+02  0.50000065869E+02 0.  0.
        -12    1    1    2    0    0  0.15106636796E+02  0.12023956802E+02  0.25375820178E+02  0.31886019855E+02  0.00000000000E+00 0.  1.
         11    1    3    3    0    0  0.74000128669E+01 -0.21807431985E+02 -0.17459867050E+02  0.28899329367E+02  0.51100000000E-03 0. -1.
        -11    1    3    3    0    0 -0.10861192261E+02  0.89712567041E+01  0.30193299405E+01  0.14407126630E+02  0.51100000000E-03 0.  1.
        -12    1    3    3    0    0 -0.11645457402E+02  0.81221847884E+00 -0.10935283069E+02  0.15995524148E+02  0.00000000000E+00 0.  1.
</event>
<event>
 7    1  0.6055092E-013  0.5930189E+02  0.7816164E-02  0.1266605E+00
        -11   -1    0    0    0    0  0.00000000000E+00  0.00000000000E+00  0.45593999997E+02  0.45594000000E+02  0.51100000000E-03 0.  1.
         11   -1    0    0    0    0 -0.00000000000E+00 -0.00000000000E+00 -0.45593999997E+02  0.45594000000E+02  0.51100000000E-03 0. -1.
    9900012    2    1    2    0    0  0.81332479069E+01  0.29877558754E+02 -0.76095759928E+01  0.59301891968E+02  0.49999905056E+02 0.  0.
        -12    1    1    2    0    0 -0.81332479069E+01 -0.29877558754E+02  0.76095759928E+01  0.31886108032E+02  0.00000000000E+00 0.  1.
         11    1    3    3    0    0  0.59350392210E+01 -0.78110923924E+01 -0.12165758980E+02  0.15628293149E+02  0.51100000000E-03 0. -1.
        -11    1    3    3    0    0  0.16449908663E+01  0.36547657667E+02 -0.23422794735E+01  0.36659562863E+02  0.51100000000E-03 0.  1.
        -12    1    3    3    0    0  0.55321781968E+00  0.11409934793E+01  0.68984624611E+01  0.70140359568E+01  0.00000000000E+00 0.  1.
</event>
<event>
 7    1  0.6055092E-013  0.5930192E+02  0.7816164E-02  0.1266605E+00
        -11   -1    0    0    0    0  0.00000000000E+00  0.00000000000E+00  0.45593999997E+02  0.45594000000E+02  0.51100000000E-03 0.  1.
         11   -1    0    0    0    0 -0.00000000000E+00 -0.00000000000E+00 -0.45593999997E+02  0.45594000000E+02  0.51100000000E-03 0. -1.
    9900012    2    1    2    0    0  0.15534852770E+02 -0.24449793768E+02 -0.13326587398E+02  0.59301921571E+02  0.49999959045E+02 0.  0.
        -12    1    1    2    0    0 -0.15534852770E+02  0.24449793768E+02  0.13326587398E+02  0.31886078429E+02  0.00000000000E+00 0.  1.
         11    1    3    3    0    0  0.17468378614E+02 -0.22961784221E+02 -0.45836820736E+00  0.28854772356E+02  0.51100000000E-03 0. -1.
        -11    1    3    3    0    0  0.80095248271E+01  0.97217394988E+01 -0.63582928582E+01  0.14110017547E+02  0.51100000000E-03 0.  1.
         12    1    3    3    0    0 -0.99430506713E+01 -0.11209749045E+02 -0.65099263324E+01  0.16337131669E+02  0.00000000000E+00 0. -1.
</event>
<event>
 7    1  0.6055092E-013  0.5930194E+02  0.7816164E-02  0.1266605E+00
        -11   -1    0    0    0    0  0.00000000000E+00  0.00000000000E+00  0.45593999997E+02  0.45594000000E+02  0.51100000000E-03 0. -1.
         11   -1    0    0    0    0 -0.00000000000E+00 -0.00000000000E+00 -0.45593999997E+02  0.45594000000E+02  0.51100000000E-03 0.  1.
    9900012    2    1    2    0    0  0.99470348272E+01  0.26856928129E+02 -0.14017238836E+02  0.59301936038E+02  0.49999985429E+02 0.  0.
        -12    1    1    2    0    0 -0.99470348272E+01 -0.26856928129E+02  0.14017238836E+02  0.31886063962E+02  0.00000000000E+00 0.  1.
         11    1    3    3    0    0  0.98965539158E+01  0.23287711509E+01  0.11786760670E+02  0.15565753494E+02  0.51100000000E-03 0. -1.
        -11    1    3    3    0    0  0.18833643848E+01  0.26944220343E+02 -0.11917291398E+02  0.29522193446E+02  0.51100000000E-03 0.  1.
         12    1    3    3    0    0 -0.18328834733E+01 -0.24160633650E+01 -0.13886708108E+02  0.14213989099E+02  0.00000000000E+00 0. -1.
</event>
<event>
 7    1  0.6055092E-013  0.5930196E+02  0.7816164E-02  0.1266605E+00
        -11   -1    0    0    0    0  0.00000000000E+00  0.00000000000E+00  0.45593999997E+02  0.45594000000E+02  0.51100000000E-03 0.  1.
         11   -1    0    0    0    0 -0.00000000000E+00 -0.00000000000E+00 -0.45593999997E+02  0.45594000000E+02  0.51100000000E-03 0. -1.
    9900012    2    1    2    0    0 -0.25506589064E+02 -0.12040564345E+01 -0.19096691568E+02  0.59301961262E+02  0.50000031431E+02 0.  0.
        -12    1    1    2    0    0  0.25506589064E+02  0.12040564345E+01  0.19096691568E+02  0.31886038738E+02  0.00000000000E+00 0.  1.
         11    1    3    3    0    0 -0.10392042255E+01 -0.17138366851E+02  0.81304032243E+01  0.18997553016E+02  0.51100000000E-03 0.  1.
        -11    1    3    3    0    0 -0.21858633538E+02  0.13104714992E+02 -0.21187471299E+02  0.33142757210E+02  0.51100000000E-03 0. -1.
        -12    1    3    3    0    0 -0.26087512999E+01  0.28295954244E+01 -0.60396234933E+01  0.71616510353E+01  0.00000000000E+00 0.  1.
</event>
<event>
 7    1  0.6055092E-013  0.5930190E+02  0.7816164E-02  0.1266605E+00
        -11   -1    0    0    0    0  0.00000000000E+00  0.00000000000E+00  0.45593999997E+02  0.45594000000E+02  0.51100000000E-03 0. -1.
         11   -1    0    0    0    0 -0.00000000000E+00 -0.00000000000E+00 -0.45593999997E+02  0.45594000000E+02  0.51100000000E-03 0.  1.
    9900012    2    1    2    0    0 -0.31129908715E+02 -0.44151500045E+00  0.68889124311E+01  0.59301901672E+02  0.49999922753E+02 0.  0.
        -12    1    1    2    0    0  0.31129908715E+02  0.44151500045E+00 -0.68889124311E+01  0.31886098328E+02  0.00000000000E+00 0.  1.
         11    1    3    3    0    0 -0.90773436702E+01  0.55967296035E+01  0.96583923257E+00  0.10707679302E+02  0.51100000000E-03 0. -1.
        -11    1    3    3    0    0  0.28909618835E+01 -0.18838740287E+02  0.75747871971E+01  0.20509344152E+02  0.51100000000E-03 0.  1.
        -12    1    3    3    0    0 -0.24943526929E+02  0.12800495683E+02 -0.16517139986E+01  0.28084878217E+02  0.00000000000E+00 0.  1.
</event>
<event>
 7    1  0.6055092E-013  0.5930195E+02  0.7816164E-02  0.1266605E+00
        -11   -1    0    0    0    0  0.00000000000E+00  0.00000000000E+00  0.45593999997E+02  0.45594000000E+02  0.51100000000E-03 0.  1.
         11   -1    0    0    0    0 -0.00000000000E+00 -0.00000000000E+00 -0.45593999997E+02  0.45594000000E+02  0.51100000000E-03 0. -1.
    9900012    2    1    2    0    0 -0.23911392402E+02  0.16632613612E+02  0.12973887694E+02  0.59301948440E+02  0.50000008048E+02 0.  0.
        -12    1    1    2    0    0  0.23911392402E+02 -0.16632613612E+02 -0.12973887694E+02  0.31886051560E+02  0.00000000000E+00 0.  1.
         11    1    3    3    0    0 -0.93519879449E+00  0.12946949420E+02  0.23192065676E+02  0.26577622291E+02  0.51100000000E-03 0. -1.
        -11    1    3    3    0    0 -0.24072775954E+02 -0.29045792954E+01 -0.93485064733E+01  0.25987106352E+02  0.51100000000E-03 0.  1.
         12    1    3    3    0    0  0.10965823468E+01  0.65902434872E+01 -0.86967150846E+00  0.67372197973E+01  0.00000000000E+00 0. -1.
</event>
<event>
 7    1  0.6055092E-013  0.5930192E+02  0.7816164E-02  0.1266605E+00
        -11   -1    0    0    0    0  0.00000000000E+00  0.00000000000E+00  0.45593999997E+02  0.45594000000E+02  0.51100000000E-03 0.  1.
         11   -1    0    0    0    0 -0.00000000000E+00 -0.00000000000E+00 -0.45593999997E+02  0.45594000000E+02  0.51100000000E-03 0. -1.
    9900012    2    1    2    0    0  0.24534452797E+02 -0.20262853242E+02  0.20492025477E+01  0.59301924252E+02  0.49999963933E+02 0.  0.
        -12    1    1    2    0    0 -0.24534452797E+02  0.20262853242E+02 -0.20492025477E+01  0.31886075748E+02  0.00000000000E+00 0.  1.
         11    1    3    3    0    0  0.47393746641E+01 -0.20048373304E+02  0.11602344390E+02  0.23643462943E+02  0.51100000000E-03 0. -1.
        -11    1    3    3    0    0  0.26579648661E+02  0.29157305482E+01 -0.87943527472E+01  0.28148176638E+02  0.51100000000E-03 0.  1.
        -12    1    3    3    0    0 -0.67845705280E+01 -0.31302104859E+01 -0.75878909494E+00  0.75102846701E+01  0.00000000000E+00 0.  1.
</event>
<event>
 7    1  0.6055092E-013  0.5930219E+02  0.7816164E-02  0.1266604E+00
        -11   -1    0    0    0    0  0.00000000000E+00  0.00000000000E+00  0.45593999997E+02  0.45594000000E+02  0.51100000000E-03 0.  1.
         11   -1    0    0    0    0 -0.00000000000E+00 -0.00000000000E+00 -0.45593999997E+02  0.45594000000E+02  0.51100000000E-03 0. -1.
    9900012    2    1    2    0    0 -0.19299732549E+02 -0.21886530177E+02 -0.12853218653E+02  0.59302186393E+02  0.50000442014E+02 0.  0.
        -12    1    1    2    0    0  0.19299732549E+02  0.21886530177E+02  0.12853218653E+02  0.31885813607E+02  0.00000000000E+00 0.  1.
         11    1    3    3    0    0  0.78508725377E+01 -0.23963782515E+01 -0.52359642576E+01  0.97362287511E+01  0.51100000000E-03 0. -1.
        -11    1    3    3    0    0 -0.28265365000E+02 -0.13341851034E+01 -0.12188462873E+02  0.30810218045E+02  0.51100000000E-03 0.  1.
         12    1    3    3    0    0  0.11147599138E+01 -0.18155966822E+02  0.45712084770E+01  0.18755739597E+02  0.00000000000E+00 0. -1.
</event>
<event>
 7    1  0.6055092E-013  0.5930187E+02  0.7816164E-02  0.1266605E+00
        -11   -1    0    0    0    0  0.00000000000E+00  0.00000000000E+00  0.45593999997E+02  0.45594000000E+02  0.51100000000E-03 0.  1.
         11   -1    0    0    0    0 -0.00000000000E+00 -0.00000000000E+00 -0.45593999997E+02  0.45594000000E+02  0.51100000000E-03 0. -1.
    9900012    2    1    2    0    0  0.13095448986E+02  0.28261524815E-02 -0.29072920604E+02  0.59301866579E+02  0.49999858751E+02 0.  0.
        -12    1    1    2    0    0 -0.13095448986E+02 -0.28261524815E-02  0.29072920604E+02  0.31886133421E+02  0.00000000000E+00 0.  1.
         11    1    3    3    0    0  0.27368407698E-01  0.19546310177E+02 -0.56118048984E+01  0.20335961867E+02  0.51100000000E-03 0. -1.
        -11    1    3    3    0    0  0.17174201568E+02 -0.18951179962E+02 -0.15277982615E+02  0.29791226469E+02  0.51100000000E-03 0.  1.
        -12    1    3    3    0    0 -0.41061209901E+01 -0.59230406188E+00 -0.81831330904E+01  0.91746782430E+01  0.00000000000E+00 0.  1.
</event>
<event>
 7    1  0.6055092E-013  0.5930194E+02  0.7816164E-02  0.1266605E+00
        -11   -1    0    0    0    0  0.00000000000E+00  0.00000000000E+00  0.45593999997E+02  0.45594000000E+02  0.51100000000E-03 0.  1.
         11   -1    0    0    0    0 -0.00000000000E+00 -0.00000000000E+00 -0.45593999997E+02  0.45594000000E+02  0.51100000000E-03 0. -1.
    9900012    2    1    2    0    0  0.12235191420E+02 -0.23494827350E+02 -0.17748633581E+02  0.59301940111E+02  0.49999992857E+02 0.  0.
        -12    1    1    2    0    0 -0.12235191420E+02  0.23494827350E+02  0.17748633581E+02  0.31886059889E+02  0.00000000000E+00 0.  1.
         11    1    3    3    0    0  0.78319581617E+01 -0.25470723353E+02 -0.15073546098E+02  0.30615504389E+02  0.51100000000E-03 0. -1.
        -11    1    3    3    0    0 -0.66021588220E+00  0.71677861376E+01 -0.13708267418E+02  0.15483205062E+02  0.51100000000E-03 0.  1.
        -12    1    3    3    0    0  0.50634491404E+01 -0.51918901346E+01  0.11033179936E+02  0.13203230660E+02  0.00000000000E+00 0.  1.
</event>
<event>
 7    1  0.6055092E-013  0.5930196E+02  0.7816164E-02  0.1266605E+00
        -11   -1    0    0    0    0  0.00000000000E+00  0.00000000000E+00  0.45593999997E+02  0.45594000000E+02  0.51100000000E-03 0.  1.
         11   -1    0    0    0    0 -0.00000000000E+00 -0.00000000000E+00 -0.45593999997E+02  0.45594000000E+02  0.51100000000E-03 0. -1.
    9900012    2    1    2    0    0 -0.21682230226E+02 -0.22413569918E+01 -0.23271796398E+02  0.59301963929E+02  0.50000036295E+02 0.  0.
        -12    1    1    2    0    0  0.21682230226E+02  0.22413569918E+01  0.23271796398E+02  0.31886036071E+02  0.00000000000E+00 0.  1.
         11    1    3    3    0    0 -0.32335236413E+01  0.72127481794E+01 -0.27642301594E+02  0.28750239114E+02  0.51100000000E-03 0. -1.
        -11    1    3    3    0    0 -0.22760150716E+02 -0.66496811102E+01  0.70697649312E+01  0.24743166651E+02  0.51100000000E-03 0.  1.
        -12    1    3    3    0    0  0.43114441318E+01 -0.28044240610E+01 -0.26992597360E+01  0.58085581634E+01  0.00000000000E+00 0.  1.
</event>
<event>
 7    1  0.6055092E-013  0.5930194E+02  0.7816164E-02  0.1266605E+00
        -11   -1    0    0    0    0  0.00000000000E+00  0.00000000000E+00  0.45593999997E+02  0.45594000000E+02  0.51100000000E-03 0. -1.
         11   -1    0    0    0    0 -0.00000000000E+00 -0.00000000000E+00 -0.45593999997E+02  0.45594000000E+02  0.51100000000E-03 0.  1.
    9900012    2    1    2    0    0 -0.23829309659E+02  0.20283142092E+02 -0.61220101303E+01  0.59301939409E+02  0.49999991577E+02 0.  0.
        -12    1    1    2    0    0  0.23829309659E+02 -0.20283142092E+02  0.61220101303E+01  0.31886060591E+02  0.00000000000E+00 0.  1.
         11    1    3    3    0    0 -0.24974190707E+02  0.33804017360E+00  0.10587445748E+02  0.27127817464E+02  0.51100000000E-03 0. -1.
        -11    1    3    3    0    0  0.71662527662E+01  0.51427516826E+01 -0.13097618989E+02  0.15790842188E+02  0.51100000000E-03 0.  1.
         12    1    3    3    0    0 -0.60213717181E+01  0.14802350236E+02 -0.36118368895E+01  0.16383279757E+02  0.00000000000E+00 0. -1.
</event>
<event>
 7    1  0.6055092E-013  0.5930202E+02  0.7816164E-02  0.1266604E+00
        -11   -1    0    0    0    0  0.00000000000E+00  0.00000000000E+00  0.45593999997E+02  0.45594000000E+02  0.51100000000E-03 0.  1.
         11   -1    0    0    0    0 -0.00000000000E+00 -0.00000000000E+00 -0.45593999997E+02  0.45594000000E+02  0.51100000000E-03 0. -1.
    9900012    2    1    2    0    0  0.59330626626E+01 -0.52958938991E-01 -0.31329087557E+02  0.59302019313E+02  0.50000137303E+02 0.  0.
        -12    1    1    2    0    0 -0.59330626626E+01  0.52958938991E-01  0.31329087557E+02  0.31885980687E+02  0.00000000000E+00 0.  1.
         11    1    3    3    0    0 -0.11379583031E+01 -0.85148516199E+01  0.98707547099E+01  0.13085466977E+02  0.51100000000E-03 0. -1.
        -11    1    3    3    0    0 -0.48935109118E+01 -0.13769105301E+01 -0.14282641560E+02  0.15160349002E+02  0.51100000000E-03 0.  1.
         12    1    3    3    0    0  0.11964531878E+02  0.98388032110E+01 -0.26917200707E+02  0.31056203335E+02  0.00000000000E+00 0. -1.
</event>
<event>
 7    1  0.6055092E-013  0.5930193E+02  0.7816164E-02  0.1266605E+00
        -11   -1    0    0    0    0  0.00000000000E+00  0.00000000000E+00  0.45593999997E+02  0.45594000000E+02  0.51100000000E-03 0. -1.
         11   -1    0    0    0    0 -0.00000000000E+00 -0.00000000000E+00 -0.45593999997E+02  0.45594000000E+02  0.51100000000E-03 0.  1.
    9900012    2    1    2    0    0 -0.27551779385E+02 -0.15912978810E+02  0.20971048182E+01  0.59301932659E+02  0.49999979266E+02 0.  0.
        -12    1    1    2    0    0  0.27551779385E+02  0.15912978810E+02 -0.20971048182E+01  0.31886067341E+02  0.00000000000E+00 0.  1.
         11    1    3    3    0    0 -0.94463489306E+01  0.15920160404E+01  0.30898792599E+01  0.10065553998E+02  0.51100000000E-03 0. -1.
        -11    1    3    3    0    0 -0.65858182372E+01 -0.21740248235E+01 -0.20644665662E+02  0.21778466575E+02  0.51100000000E-03 0.  1.
        -12    1    3    3    0    0 -0.11519612217E+02 -0.15330970027E+02  0.19651891220E+02  0.27457912086E+02  0.00000000000E+00 0.  1.
</event>
<event>
 7    1  0.6055092E-013  0.5930193E+02  0.7816164E-02  0.1266605E+00
        -11   -1    0    0    0    0  0.00000000000E+00  0.00000000000E+00  0.45593999997E+02  0.45594000000E+02  0.51100000000E-03 0. -1.
         11   -1    0    0    0    0 -0.00000000000E+00 -0.00000000000E+00 -0.45593999997E+02  0.45594000000E+02  0.51100000000E-03 0.  1.
    9900012    2    1    2    0    0  0.25134300672E+02  0.33329123450E+01  0.19335980487E+02  0.59301929117E+02  0.49999972807E+02 0.  0.
        -12    1    1    2    0    0 -0.25134300672E+02 -0.33329123450E+01 -0.19335980487E+02  0.31886070883E+02  0.00000000000E+00 0.  1.
         11    1    3    3    0    0 -0.13110904857E+01 -0.67244574596E+01  0.33722584390E+01  0.76360600854E+01  0.51100000000E-03 0. -1.
        -11    1    3    3    0    0  0.32638497279E+02  0.12358345251E+01  0.21935021033E+02  0.39343918712E+02  0.51100000000E-03 0.  1.
        -12    1    3    3    0    0 -0.61931061216E+01  0.88215352795E+01 -0.59712989855E+01  0.12321950320E+02  0.00000000000E+00 0.  1.
</event>
<event>
 7    1  0.6055092E-013  0.5930192E+02  0.7816164E-02  0.1266605E+00
        -11   -1    0    0    0    0  0.00000000000E+00  0.00000000000E+00  0.45593999997E+02  0.45594000000E+02  0.51100000000E-03 0.  1.
         11   -1    0    0    0    0 -0.00000000000E+00 -0.00000000000E+00 -0.45593999997E+02  0.45594000000E+02  0.51100000000E-03 0. -1.
    9900012    2    1    2    0    0 -0.20685293847E+02 -0.17470476840E+02 -0.16841124429E+02  0.59301915032E+02  0.49999947118E+02 0.  0.
        -12    1    1    2    0    0  0.20685293847E+02  0.17470476840E+02  0.16841124429E+02  0.31886084968E+02  0.00000000000E+00 0.  1.
         11    1    3    3    0    0  0.12536232497E+02 -0.90186085360E+01 -0.15386460785E+01  0.15519660343E+02  0.51100000000E-03 0. -1.
        -11    1    3    3    0    0 -0.10249106105E+02  0.77702726240E+01 -0.56652355379E+01  0.14054045914E+02  0.51100000000E-03 0.  1.
         12    1    3    3    0    0 -0.22972420239E+02 -0.16222140928E+02 -0.96372428131E+01  0.29728208775E+02  0.00000000000E+00 0. -1.
</event>
<event>
 7    1  0.6055092E-013  0.5930194E+02  0.7816164E-02  0.1266605E+00
        -11   -1    0    0    0    0  0.00000000000E+00  0.00000000000E+00  0.45593999997E+02  0.45594000000E+02  0.51100000000E-03 0. -1.
         11   -1    0    0    0    0 -0.00000000000E+00 -0.00000000000E+00 -0.45593999997E+02  0.45594000000E+02  0.51100000000E-03 0.  1.
    9900012    2    1    2    0    0  0.47108507260E+01 -0.11490168092E+02  0.29368426913E+02  0.59301943852E+02  0.49999999679E+02 0.  0.
        -12    1    1    2    0    0 -0.47108507260E+01  0.11490168092E+02 -0.29368426913E+02  0.31886056148E+02  0.00000000000E+00 0.  1.
         11    1    3    3    0    0 -0.10494648090E+02  0.13324046233E+02  0.14609748385E+02  0.22385544324E+02  0.51100000000E-03 0. -1.
        -11    1    3    3    0    0 -0.22654787506E+01 -0.85423109455E+01 -0.19916905696E-01  0.88376392325E+01  0.51100000000E-03 0.  1.
         12    1    3    3    0    0  0.17470977567E+02 -0.16271903379E+02  0.14778595434E+02  0.28078760295E+02  0.00000000000E+00 0. -1.
</event>
<event>
 7    1  0.6055092E-013  0.5930196E+02  0.7816164E-02  0.1266605E+00
        -11   -1    0    0    0    0  0.00000000000E+00  0.00000000000E+00  0.45593999997E+02  0.45594000000E+02  0.51100000000E-03 0.  1.
         11   -1    0    0    0    0 -0.00000000000E+00 -0.00000000000E+00 -0.45593999997E+02  0.45594000000E+02  0.51100000000E-03 0. -1.
    9900012    2    1    2    0    0  0.15122410607E+02  0.14906798237E+02 -0.23786964268E+02  0.59301959084E+02  0.50000027459E+02 0.  0.
        -12    1    1    2    0    0 -0.15122410607E+02 -0.14906798237E+02  0.23786964268E+02  0.31886040916E+02  0.00000000000E+00 0.  1.
         11    1    3    3    0    0  0.19302761146E+02  0.14460957559E+02 -0.20295284401E+02  0.31521650505E+02  0.51100000000E-03 0. -1.
        -11    1    3    3    0    0 -0.11029844285E+02 -0.28635605354E+01 -0.11876265288E+02  0.16459134891E+02  0.51100000000E-03 0.  1.
        -12    1    3    3    0    0  0.68494937467E+01  0.33094012128E+01  0.83845854222E+01  0.11321173688E+02  0.00000000000E+00 0.  1.
</event>
<event>
 7    1  0.6055092E-013  0.5930195E+02  0.7816164E-02  0.1266605E+00
        -11   -1    0    0    0    0  0.00000000000E+00  0.00000000000E+00  0.45593999997E+02  0.45594000000E+02  0.51100000000E-03 0.  1.
         11   -1    0    0    0    0 -0.00000000000E+00 -0.00000000000E+00 -0.45593999997E+02  0.45594000000E+02  0.51100000000E-03 0. -1.
    9900012    2    1    2    0    0 -0.24377553302E+01 -0.27076932524E+02 -0.16661852706E+02  0.59301948794E+02  0.50000008692E+02 0.  0.
        -12    1    1    2    0    0  0.24377553302E+01  0.27076932524E+02  0.16661852706E+02  0.31886051206E+02  0.00000000000E+00 0.  1.
         11    1    3    3    0    0  0.19498145650E+02 -0.16056339353E+02 -0.17952630439E+02  0.30988395524E+02  0.51100000000E-03 0. -1.
        -11    1    3    3    0    0 -0.23957104972E+02 -0.10684464583E+02  0.13122964003E+01  0.26264477611E+02  0.51100000000E-03 0.  1.
        -12    1    3    3    0    0  0.20212039914E+01 -0.33612858774E+00 -0.21518667598E-01  0.20490756588E+01  0.00000000000E+00 0.  1.
</event>
<event>
 7    1  0.6055092E-013  0.5930199E+02  0.7816164E-02  0.1266605E+00
        -11   -1    0    0    0    0  0.00000000000E+00  0.00000000000E+00  0.45593999997E+02  0.45594000000E+02  0.51100000000E-03 0. -1.
         11   -1    0    0    0    0 -0.00000000000E+00 -0.00000000000E+00 -0.45593999997E+02  0.45594000000E+02  0.51100000000E-03 0.  1.
    9900012    2    1    2    0    0 -0.13873306491E+02 -0.18114699102E+02  0.22273455647E+02  0.59301987659E+02  0.50000079573E+02 0.  0.
        -12    1    1    2    0    0  0.13873306491E+02  0.18114699102E+02 -0.22273455647E+02  0.31886012341E+02  0.00000000000E+00 0.  1.
         11    1    3    3    0    0 -0.28871282311E+02 -0.72199974535E+01  0.23641201006E+02  0.38007705676E+02  0.51100000000E-03 0. -1.
        -11    1    3    3    0    0  0.32803282129E+00  0.36736527998E+00 -0.27070529635E+01  0.27514902851E+01  0.51100000000E-03 0.  1.
         12    1    3    3    0    0  0.14669942999E+02 -0.11262066928E+02  0.13393076050E+01  0.18542791698E+02  0.00000000000E+00 0. -1.
</event>
<event>
 7    1  0.6055092E-013  0.5930194E+02  0.7816164E-02  0.1266605E+00
        -11   -1    0    0    0    0  0.00000000000E+00  0.00000000000E+00  0.45593999997E+02  0.45594000000E+02  0.51100000000E-03 0.  1.
         11   -1    0    0    0    0 -0.00000000000E+00 -0.00000000000E+00 -0.45593999997E+02  0.45594000000E+02  0.51100000000E-03 0. -1.
    9900012    2    1    2    0    0  0.18278143623E+02  0.41663512585E+01 -0.25792861707E+02  0.59301941414E+02  0.49999995234E+02 0.  0.
        -12    1    1    2    0    0 -0.18278143623E+02 -0.41663512585E+01  0.25792861707E+02  0.31886058586E+02  0.00000000000E+00 0.  1.
         11    1    3    3    0    0  0.33053948037E+02  0.63423443397E+01 -0.11145161420E+02  0.35454244257E+02  0.51100000000E-03 0. -1.
        -11    1    3    3    0    0 -0.13312800638E+02 -0.38139698793E+01 -0.16083381276E+02  0.21223858758E+02  0.51100000000E-03 0.  1.
        -12    1    3    3    0    0 -0.14630037763E+01  0.16379767981E+01  0.14356809890E+01  0.26238383987E+01  0.00000000000E+00 0.  1.
</event>
<event>
 7    1  0.6055092E-013  0.5930196E+02  0.7816164E-02  0.1266605E+00
        -11   -1    0    0    0    0  0.00000000000E+00  0.00000000000E+00  0.45593999997E+02  0.45594000000E+02  0.51100000000E-03 0.  1.
         11   -1    0    0    0    0 -0.00000000000E+00 -0.00000000000E+00 -0.45593999997E+02  0.45594000000E+02  0.51100000000E-03 0. -1.
    9900012    2    1    2    0    0 -0.40141599808E+01 -0.25383380066E+01 -0.31530353153E+02  0.59301955872E+02  0.50000021601E+02 0.  0.
        -12    1    1    2    0    0  0.40141599808E+01  0.25383380066E+01  0.31530353153E+02  0.31886044128E+02  0.00000000000E+00 0.  1.
         11    1    3    3    0    0  0.50665354901E+01 -0.11374526647E+02 -0.13215663957E+02  0.18157736984E+02  0.51100000000E-03 0. -1.
        -11    1    3    3    0    0 -0.84624270220E+01 -0.32213746082E+01  0.80695490126E+01  0.12128790005E+02  0.51100000000E-03 0.  1.
        -12    1    3    3    0    0 -0.61826844895E+00  0.12057563249E+02 -0.26384238209E+02  0.29015428882E+02  0.00000000000E+00 0.  1.
</event>
<event>
 7    1  0.6055092E-013  0.5930196E+02  0.7816164E-02  0.1266605E+00
        -11   -1    0    0    0    0  0.00000000000E+00  0.00000000000E+00  0.45593999997E+02  0.45594000000E+02  0.51100000000E-03 0.  1.
         11   -1    0    0    0    0 -0.00000000000E+00 -0.00000000000E+00 -0.45593999997E+02  0.45594000000E+02  0.51100000000E-03 0. -1.
    9900012    2    1    2    0    0  0.21647938432E+02 -0.94827901045E+01 -0.21404736444E+02  0.59301964048E+02  0.50000036512E+02 0.  0.
        -12    1    1    2    0    0 -0.21647938432E+02  0.94827901045E+01  0.21404736444E+02  0.31886035952E+02  0.00000000000E+00 0.  1.
         11    1    3    3    0    0  0.29418300913E+02 -0.46973808973E+00 -0.27745018780E+02  0.40440612630E+02  0.51100000000E-03 0. -1.
        -11    1    3    3    0    0 -0.83598216982E+01 -0.10840284491E+02  0.83876137037E+01  0.16054608391E+02  0.51100000000E-03 0.  1.
        -12    1    3    3    0    0  0.58945921650E+00  0.18272324764E+01 -0.20473313675E+01  0.28067430269E+01  0.00000000000E+00 0.  1.
</event>
<event>
 7    1  0.6055092E-013  0.5930193E+02  0.7816164E-02  0.1266605E+00
        -11   -1    0    0    0    0  0.00000000000E+00  0.00000000000E+00  0.45593999997E+02  0.45594000000E+02  0.51100000000E-03 0.  1.
         11   -1    0    0    0    0 -0.00000000000E+00 -0.00000000000E+00 -0.45593999997E+02  0.45594000000E+02  0.51100000000E-03 0. -1.
    9900012    2    1    2    0    0 -0.66467660524E+01 -0.17472317054E+02 -0.25831374377E+02  0.59301933068E+02  0.49999980011E+02 0.  0.
        -12    1    1    2    0    0  0.66467660524E+01  0.17472317054E+02  0.25831374377E+02  0.31886066932E+02  0.00000000000E+00 0.  1.
         11    1    3    3    0    0  0.12116262814E+01  0.73953287847E+00  0.23084217730E+00  0.14381361188E+01  0.51100000000E-03 0. -1.
        -11    1    3    3    0    0 -0.11893803071E+02 -0.23694359413E+01 -0.36503728018E+02  0.38465555211E+02  0.51100000000E-03 0.  1.
        -12    1    3    3    0    0  0.40354107374E+01 -0.15842413991E+02  0.10441511464E+02  0.19398241738E+02  0.00000000000E+00 0.  1.
</event>
<event>
 7    1  0.6055092E-013  0.5930196E+02  0.7816164E-02  0.1266605E+00
        -11   -1    0    0    0    0  0.00000000000E+00  0.00000000000E+00  0.45593999997E+02  0.45594000000E+02  0.51100000000E-03 0.  1.
         11   -1    0    0    0    0 -0.00000000000E+00 -0.00000000000E+00 -0.45593999997E+02  0.45594000000E+02  0.51100000000E-03 0. -1.
    9900012    2    1    2    0    0  0.20988237340E+02 -0.17408354193E+02  0.16527636184E+02  0.59301958223E+02  0.50000025890E+02 0.  0.
        -12    1    1    2    0    0 -0.20988237340E+02  0.17408354193E+02 -0.16527636184E+02  0.31886041777E+02  0.00000000000E+00 0.  1.
         11    1    3    3    0    0  0.13934347735E+02 -0.19516062330E+01 -0.90994901752E+01  0.16756358059E+02  0.51100000000E-03 0. -1.
        -11    1    3    3    0    0 -0.98243964977E+01  0.41703409796E+00  0.12537718238E+02  0.15933833903E+02  0.51100000000E-03 0.  1.
        -12    1    3    3    0    0  0.16878286103E+02 -0.15873782058E+02  0.13089408122E+02  0.26611766262E+02  0.00000000000E+00 0.  1.
</event>
<event>
 7    1  0.6055092E-013  0.5930195E+02  0.7816164E-02  0.1266605E+00
        -11   -1    0    0    0    0  0.00000000000E+00  0.00000000000E+00  0.45593999997E+02  0.45594000000E+02  0.51100000000E-03 0. -1.
         11   -1    0    0    0    0 -0.00000000000E+00 -0.00000000000E+00 -0.45593999997E+02  0.45594000000E+02  0.51100000000E-03 0.  1.
    9900012    2    1    2    0    0 -0.15161611124E+02 -0.44998207920E+01  0.27687493830E+02  0.59301950486E+02  0.50000011778E+02 0.  0.
        -12    1    1    2    0    0  0.15161611124E+02  0.44998207920E+01 -0.27687493830E+02  0.31886049514E+02  0.00000000000E+00 0.  1.
         11    1    3    3    0    0  0.10893983503E+01 -0.14544752567E+02  0.50934460260E+01  0.15449265636E+02  0.51100000000E-03 0. -1.
        -11    1    3    3    0    0 -0.16272100713E+02  0.14142560986E+02  0.69153181979E+00  0.21570153207E+02  0.51100000000E-03 0.  1.
        -12    1    3    3    0    0  0.21091239088E-01 -0.40976292105E+01  0.21902515984E+02  0.22282531643E+02  0.00000000000E+00 0.  1.
</event>
<event>
 7    1  0.6055092E-013  0.5930194E+02  0.7816164E-02  0.1266605E+00
        -11   -1    0    0    0    0  0.00000000000E+00  0.00000000000E+00  0.45593999997E+02  0.45594000000E+02  0.51100000000E-03 0. -1.
         11   -1    0    0    0    0 -0.00000000000E+00 -0.00000000000E+00 -0.45593999997E+02  0.45594000000E+02  0.51100000000E-03 0.  1.
    9900012    2    1    2    0    0  0.11607819207E+02 -0.16256964497E+02  0.24853382654E+02  0.59301937359E+02  0.49999987838E+02 0.  0.
        -12    1    1    2    0    0 -0.11607819207E+02  0.16256964497E+02 -0.24853382654E+02  0.31886062641E+02  0.00000000000E+00 0.  1.
         11    1    3    3    0    0  0.16641660475E+02 -0.17783214296E+02 -0.78498418599E+01  0.25589208498E+02  0.51100000000E-03 0.  1.
        -11    1    3    3    0    0 -0.11632192885E+01  0.14504851123E+01  0.25210457685E+02  0.25278927255E+02  0.51100000000E-03 0. -1.
        -12    1    3    3    0    0 -0.38706219795E+01  0.75764686411E-01  0.74927668282E+01  0.84338016064E+01  0.00000000000E+00 0.  1.
</event>
<event>
 7    1  0.6055092E-013  0.5930192E+02  0.7816164E-02  0.1266605E+00
        -11   -1    0    0    0    0  0.00000000000E+00  0.00000000000E+00  0.45593999997E+02  0.45594000000E+02  0.51100000000E-03 0.  1.
         11   -1    0    0    0    0 -0.00000000000E+00 -0.00000000000E+00 -0.45593999997E+02  0.45594000000E+02  0.51100000000E-03 0. -1.
    9900012    2    1    2    0    0 -0.80532852559E+01 -0.52531514638E+01 -0.30401823525E+02  0.59301923456E+02  0.49999962483E+02 0.  0.
        -12    1    1    2    0    0  0.80532852559E+01  0.52531514638E+01  0.30401823525E+02  0.31886076544E+02  0.00000000000E+00 0.  1.
         11    1    3    3    0    0 -0.11137868438E+02  0.50508616336E+01 -0.24027366611E+02  0.26960668818E+02  0.51100000000E-03 0. -1.
        -11    1    3    3    0    0  0.60069002811E+01 -0.91006459496E+01  0.10521195902E+02  0.15152563188E+02  0.51100000000E-03 0.  1.
        -12    1    3    3    0    0 -0.29223170987E+01 -0.12033671477E+01 -0.16895652816E+02  0.17188691451E+02  0.00000000000E+00 0.  1.
</event>
<event>
 7    1  0.6055092E-013  0.5930208E+02  0.7816164E-02  0.1266604E+00
        -11   -1    0    0    0    0  0.00000000000E+00  0.00000000000E+00  0.45593999997E+02  0.45594000000E+02  0.51100000000E-03 0.  1.
         11   -1    0    0    0    0 -0.00000000000E+00 -0.00000000000E+00 -0.45593999997E+02  0.45594000000E+02  0.51100000000E-03 0. -1.
    9900012    2    1    2    0    0  0.12131366308E+02  0.28744395436E+02  0.65803845794E+01  0.59302081812E+02  0.50000251285E+02 0.  0.
        -12    1    1    2    0    0 -0.12131366308E+02 -0.28744395436E+02 -0.65803845794E+01  0.31885918188E+02  0.00000000000E+00 0.  1.
         11    1    3    3    0    0  0.58458581243E+01  0.76709348575E+01  0.91448640810E+00  0.96878059667E+01  0.51100000000E-03 0. -1.
        -11    1    3    3    0    0 -0.44667398141E+01  0.29254046696E+02 -0.77325277874E+01  0.30586647396E+02  0.51100000000E-03 0.  1.
        -12    1    3    3    0    0  0.10752247998E+02 -0.81805861182E+01  0.13398425959E+02  0.19027628450E+02  0.00000000000E+00 0.  1.
</event>
<event>
 7    1  0.6055092E-013  0.5930193E+02  0.7816164E-02  0.1266605E+00
        -11   -1    0    0    0    0  0.00000000000E+00  0.00000000000E+00  0.45593999997E+02  0.45594000000E+02  0.51100000000E-03 0.  1.
         11   -1    0    0    0    0 -0.00000000000E+00 -0.00000000000E+00 -0.45593999997E+02  0.45594000000E+02  0.51100000000E-03 0. -1.
    9900012    2    1    2    0    0 -0.11676589648E+02  0.19391035826E+02 -0.22458107941E+02  0.59301927358E+02  0.49999969599E+02 0.  0.
        -12    1    1    2    0    0  0.11676589648E+02 -0.19391035826E+02  0.22458107941E+02  0.31886072642E+02  0.00000000000E+00 0.  1.
         11    1    3    3    0    0 -0.53260829009E+01 -0.13869520362E+01 -0.11703554245E+01  0.56267687974E+01  0.51100000000E-03 0. -1.
        -11    1    3    3    0    0  0.12000572099E+01  0.18337767698E+02  0.10326945021E+02  0.21079840018E+02  0.51100000000E-03 0.  1.
        -12    1    3    3    0    0 -0.75505639571E+01  0.24402201638E+01 -0.31614697538E+02  0.32595318543E+02  0.00000000000E+00 0.  1.
</event>
<event>
 7    1  0.6055092E-013  0.5930195E+02  0.7816164E-02  0.1266605E+00
        -11   -1    0    0    0    0  0.00000000000E+00  0.00000000000E+00  0.45593999997E+02  0.45594000000E+02  0.51100000000E-03 0. -1.
         11   -1    0    0    0    0 -0.00000000000E+00 -0.00000000000E+00 -0.45593999997E+02  0.45594000000E+02  0.51100000000E-03 0.  1.
    9900012    2    1    2    0    0 -0.48156094034E+01  0.24258256944E+02  0.20126279450E+02  0.59301949000E+02  0.50000009068E+02 0.  0.
        -12    1    1    2    0    0  0.48156094034E+01 -0.24258256944E+02 -0.20126279450E+02  0.31886051000E+02  0.00000000000E+00 0.  1.
         11    1    3    3    0    0  0.12416578114E+02 -0.39780017573E+01  0.77829923644E+01  0.15184560594E+02  0.51100000000E-03 0. -1.
        -11    1    3    3    0    0 -0.13408677557E+01  0.21155824213E+02 -0.23729516142E+01  0.21330675659E+02  0.51100000000E-03 0.  1.
         12    1    3    3    0    0 -0.15891319762E+02  0.70804344886E+01  0.14716238700E+02  0.22786712746E+02  0.00000000000E+00 0. -1.
</event>
<event>
 7    1  0.6055092E-013  0.5930211E+02  0.7816164E-02  0.1266604E+00
        -11   -1    0    0    0    0  0.00000000000E+00  0.00000000000E+00  0.45593999997E+02  0.45594000000E+02  0.51100000000E-03 0.  1.
         11   -1    0    0    0    0 -0.00000000000E+00 -0.00000000000E+00 -0.45593999997E+02  0.45594000000E+02  0.51100000000E-03 0. -1.
    9900012    2    1    2    0    0  0.18899049767E+02  0.55791594196E+01 -0.25068087732E+02  0.59302107752E+02  0.50000298592E+02 0.  0.
        -12    1    1    2    0    0 -0.18899049767E+02 -0.55791594196E+01  0.25068087732E+02  0.31885892248E+02  0.00000000000E+00 0.  1.
         11    1    3    3    0    0  0.19689685757E+02  0.14215267504E+01 -0.39401736871E+01  0.20130311285E+02  0.51100000000E-03 0. -1.
        -11    1    3    3    0    0 -0.98544835821E+01  0.94177121234E+01 -0.24606652508E+02  0.28129903950E+02  0.51100000000E-03 0.  1.
        -12    1    3    3    0    0  0.90638475926E+01 -0.52600794542E+01  0.34787384633E+01  0.11041892516E+02  0.00000000000E+00 0.  1.
</event>
<event>
 7    1  0.6055092E-013  0.5930198E+02  0.7816164E-02  0.1266605E+00
        -11   -1    0    0    0    0  0.00000000000E+00  0.00000000000E+00  0.45593999997E+02  0.45594000000E+02  0.51100000000E-03 0.  1.
         11   -1    0    0    0    0 -0.00000000000E+00 -0.00000000000E+00 -0.45593999997E+02  0.45594000000E+02  0.51100000000E-03 0. -1.
    9900012    2    1    2    0    0  0.30023991757E+02 -0.56196038098E+01 -0.91486898909E+01  0.59301975557E+02  0.50000057503E+02 0.  0.
        -12    1    1    2    0    0 -0.30023991757E+02  0.56196038098E+01  0.91486898909E+01  0.31886024443E+02  0.00000000000E+00 0.  1.
         11    1    3    3    0    0 -0.37609608619E+01 -0.13029616121E+02 -0.17354061143E+02  0.22024512736E+02  0.51100000000E-03 0. -1.
        -11    1    3    3    0    0  0.29309514787E+02  0.61097098574E+01  0.10937884592E+02  0.31874967156E+02  0.51100000000E-03 0.  1.
        -12    1    3    3    0    0  0.44754378325E+01  0.13003024537E+01 -0.27325133394E+01  0.54024956654E+01  0.00000000000E+00 0.  1.
</event>
<event>
 7    1  0.6055092E-013  0.5930194E+02  0.7816164E-02  0.1266605E+00
        -11   -1    0    0    0    0  0.00000000000E+00  0.00000000000E+00  0.45593999997E+02  0.45594000000E+02  0.51100000000E-03 0.  1.
         11   -1    0    0    0    0 -0.00000000000E+00 -0.00000000000E+00 -0.45593999997E+02  0.45594000000E+02  0.51100000000E-03 0. -1.
    9900012    2    1    2    0    0  0.93455910229E+01  0.29659019738E+02 -0.70514939082E+01  0.59301935807E+02  0.49999985007E+02 0.  0.
        -12    1    1    2    0    0 -0.93455910229E+01 -0.29659019738E+02  0.70514939082E+01  0.31886064193E+02  0.00000000000E+00 0.  1.
         11    1    3    3    0    0  0.20351209605E+02  0.15852497698E+02 -0.13165310225E+02  0.28962023570E+02  0.51100000000E-03 0. -1.
        -11    1    3    3    0    0 -0.15186985196E+02  0.18159557173E+02  0.45784820568E+01  0.24111750958E+02  0.51100000000E-03 0.  1.
         12    1    3    3    0    0  0.41813666135E+01 -0.43530351330E+01  0.15353342599E+01  0.62281612789E+01  0.00000000000E+00 0. -1.
</event>
<event>
 7    1  0.6055092E-013  0.5930195E+02  0.7816164E-02  0.1266605E+00
        -11   -1    0    0    0    0  0.00000000000E+00  0.00000000000E+00  0.45593999997E+02  0.45594000000E+02  0.51100000000E-03 0. -1.
         11   -1    0    0    0    0 -0.00000000000E+00 -0.00000000000E+00 -0.45593999997E+02  0.45594000000E+02  0.51100000000E-03 0.  1.
    9900012    2    1    2    0    0 -0.19753137925E+02 -0.12125647675E+01  0.25001269775E+02  0.59301948793E+02  0.50000008692E+02 0.  0.
        -12    1    1    2    0    0  0.19753137925E+02  0.12125647675E+01 -0.25001269775E+02  0.31886051207E+02  0.00000000000E+00 0.  1.
         11    1    3    3    0    0  0.83128559504E+01 -0.49734000099E+01  0.10053996251E+02  0.13961415494E+02  0.51100000000E-03 0. -1.
        -11    1    3    3    0    0 -0.20625281086E+02  0.17574056147E+02  0.88125534145E+01  0.28494047927E+02  0.51100000000E-03 0.  1.
        -12    1    3    3    0    0 -0.74407127893E+01 -0.13813220905E+02  0.61347201093E+01  0.16846485372E+02  0.00000000000E+00 0.  1.
</event>
<event>
 7    1  0.6055092E-013  0.5930196E+02  0.7816164E-02  0.1266605E+00
        -11   -1    0    0    0    0  0.00000000000E+00  0.00000000000E+00  0.45593999997E+02  0.45594000000E+02  0.51100000000E-03 0. -1.
         11   -1    0    0    0    0 -0.00000000000E+00 -0.00000000000E+00 -0.45593999997E+02  0.45594000000E+02  0.51100000000E-03 0.  1.
    9900012    2    1    2    0    0 -0.19828831051E+02  0.15780209250E+02  0.19352577575E+02  0.59301955974E+02  0.50000021787E+02 0.  0.
        -12    1    1    2    0    0  0.19828831051E+02 -0.15780209250E+02 -0.19352577575E+02  0.31886044026E+02  0.00000000000E+00 0.  1.
         11    1    3    3    0    0 -0.23325592299E+02  0.37331622442E+01  0.17348581703E+02  0.29308583108E+02  0.51100000000E-03 0. -1.
        -11    1    3    3    0    0  0.14508275480E+02  0.18892854821E+01  0.31585983212E+01  0.14967838877E+02  0.51100000000E-03 0.  1.
         12    1    3    3    0    0 -0.11011514232E+02  0.10157761524E+02 -0.11546024494E+01  0.15025533990E+02  0.00000000000E+00 0. -1.
</event>
<event>
 7    1  0.6055092E-013  0.5930210E+02  0.7816164E-02  0.1266604E+00
        -11   -1    0    0    0    0  0.00000000000E+00  0.00000000000E+00  0.45593999997E+02  0.45594000000E+02  0.51100000000E-03 0. -1.
         11   -1    0    0    0    0 -0.00000000000E+00 -0.00000000000E+00 -0.45593999997E+02  0.45594000000E+02  0.51100000000E-03 0.  1.
    9900012    2    1    2    0    0  0.50351091032E-01 -0.19868306779E+02  0.24939090371E+02  0.59302103776E+02  0.50000291341E+02 0.  0.
        -12    1    1    2    0    0 -0.50351091032E-01  0.19868306779E+02 -0.24939090371E+02  0.31885896224E+02  0.00000000000E+00 0.  1.
         11    1    3    3    0    0  0.25789946503E+01 -0.12807217847E+02  0.10958956095E+02  0.17052118969E+02  0.51100000000E-03 0. -1.
        -11    1    3    3    0    0 -0.11987291560E+01  0.59644604431E+01 -0.11833406530E+02  0.13305684888E+02  0.51100000000E-03 0.  1.
        -12    1    3    3    0    0 -0.13299144033E+01 -0.13025549375E+02  0.25813540807E+02  0.28944299919E+02  0.00000000000E+00 0.  1.
</event>
<event>
 7    1  0.6055092E-013  0.5930164E+02  0.7816164E-02  0.1266606E+00
        -11   -1    0    0    0    0  0.00000000000E+00  0.00000000000E+00  0.45593999997E+02  0.45594000000E+02  0.51100000000E-03 0.  1.
         11   -1    0    0    0    0 -0.00000000000E+00 -0.00000000000E+00 -0.45593999997E+02  0.45594000000E+02  0.51100000000E-03 0. -1.
    9900012    2    1    2    0    0  0.22438396911E+02 -0.34339137231E+01 -0.22393446777E+02  0.59301641194E+02  0.49999447700E+02 0.  0.
        -12    1    1    2    0    0 -0.22438396911E+02  0.34339137231E+01  0.22393446777E+02  0.31886358806E+02  0.00000000000E+00 0.  1.
         11    1    3    3    0    0  0.14553979218E+02  0.15446633455E+02 -0.24901188783E+02  0.32718282339E+02  0.51100000000E-03 0. -1.
        -11    1    3    3    0    0  0.10366314659E+02 -0.39325716151E+01  0.27719356572E+01  0.11428439380E+02  0.51100000000E-03 0.  1.
         12    1    3    3    0    0 -0.24818969666E+01 -0.14947975563E+02 -0.26419365121E+00  0.15154919474E+02  0.00000000000E+00 0. -1.
</event>
<event>
 7    1  0.6055092E-013  0.5930197E+02  0.7816164E-02  0.1266605E+00
        -11   -1    0    0    0    0  0.00000000000E+00  0.00000000000E+00  0.45593999997E+02  0.45594000000E+02  0.51100000000E-03 0.  1.
         11   -1    0    0    0    0 -0.00000000000E+00 -0.00000000000E+00 -0.45593999997E+02  0.45594000000E+02  0.51100000000E-03 0. -1.
    9900012    2    1    2    0    0  0.17097639935E+02 -0.10903769482E+02 -0.24606856152E+02  0.59301970928E+02  0.50000049060E+02 0.  0.
        -12    1    1    2    0    0 -0.17097639935E+02  0.10903769482E+02  0.24606856152E+02  0.31886029072E+02  0.00000000000E+00 0.  1.
         11    1    3    3    0    0 -0.96107391813E+01 -0.14732724309E+02 -0.16084833557E+02  0.23835715722E+02  0.51100000000E-03 0. -1.
        -11    1    3    3    0    0  0.25510368281E+02 -0.29826212474E+01 -0.16821779354E+01  0.25739165530E+02  0.51100000000E-03 0.  1.
         12    1    3    3    0    0  0.11980108354E+01  0.68115760744E+01 -0.68398446602E+01  0.97270896755E+01  0.00000000000E+00 0. -1.
</event>
<event>
 7    1  0.6055092E-013  0.5930201E+02  0.7816164E-02  0.1266605E+00
        -11   -1    0    0    0    0  0.00000000000E+00  0.00000000000E+00  0.45593999997E+02  0.45594000000E+02  0.51100000000E-03 0. -1.
         11   -1    0    0    0    0 -0.00000000000E+00 -0.00000000000E+00 -0.45593999997E+02  0.45594000000E+02  0.51100000000E-03 0.  1.
    9900012    2    1    2    0    0  0.18229662205E+02 -0.25928471529E+02  0.34799993729E+01  0.59302005965E+02  0.50000112959E+02 0.  0.
        -12    1    1    2    0    0 -0.18229662205E+02  0.25928471529E+02 -0.34799993729E+01  0.31885994035E+02  0.00000000000E+00 0.  1.
         11    1    3    3    0    0  0.31850420757E+02 -0.90802644104E+01  0.88943262224E+01  0.34292995544E+02  0.51100000000E-03 0. -1.
        -11    1    3    3    0    0 -0.39203721353E+01 -0.11720103285E+02 -0.65343149272E+01  0.13979535419E+02  0.51100000000E-03 0.  1.
         12    1    3    3    0    0 -0.97003864159E+01 -0.51281038333E+01  0.11199880777E+01  0.11029475003E+02  0.00000000000E+00 0. -1.
</event>
<event>
 7    1  0.6055092E-013  0.5930195E+02  0.7816164E-02  0.1266605E+00
        -11   -1    0    0    0    0  0.00000000000E+00  0.00000000000E+00  0.45593999997E+02  0.45594000000E+02  0.51100000000E-03 0.  1.
         11   -1    0    0    0    0 -0.00000000000E+00 -0.00000000000E+00 -0.45593999997E+02  0.45594000000E+02  0.51100000000E-03 0. -1.
    9900012    2    1    2    0    0 -0.10016587395E+02  0.26079383472E+02 -0.15370559757E+02  0.59301947053E+02  0.50000005517E+02 0.  0.
        -12    1    1    2    0    0  0.10016587395E+02 -0.26079383472E+02  0.15370559757E+02  0.31886052947E+02  0.00000000000E+00 0.  1.
         11    1    3    3    0    0 -0.15885462086E+02  0.36292640233E+02 -0.12748953651E+02  0.41617778175E+02  0.51100000000E-03 0. -1.
        -11    1    3    3    0    0 -0.16150186556E+01 -0.96116955140E+01 -0.29069732459E+01  0.10170716279E+02  0.51100000000E-03 0.  1.
        -12    1    3    3    0    0  0.74838933460E+01 -0.60156124745E+00  0.28536714026E+00  0.75134525987E+01  0.00000000000E+00 0.  1.
</event>
<event>
 7    1  0.6055092E-013  0.5930193E+02  0.7816164E-02  0.1266605E+00
        -11   -1    0    0    0    0  0.00000000000E+00  0.00000000000E+00  0.45593999997E+02  0.45594000000E+02  0.51100000000E-03 0.  1.
         11   -1    0    0    0    0 -0.00000000000E+00 -0.00000000000E+00 -0.45593999997E+02  0.45594000000E+02  0.51100000000E-03 0. -1.
    9900012    2    1    2    0    0 -0.54736323050E+01 -0.29724358685E+02 -0.10159895382E+02  0.59301927429E+02  0.49999969728E+02 0.  0.
        -12    1    1    2    0    0  0.54736323050E+01  0.29724358685E+02  0.10159895382E+02  0.31886072571E+02  0.00000000000E+00 0.  1.
         11    1    3    3    0    0  0.23447948898E+01 -0.31398311676E+02 -0.19880077376E+02  0.37236668970E+02  0.51100000000E-03 0. -1.
        -11    1    3    3    0    0 -0.63787623434E+00 -0.21623635808E+01  0.13069191139E+02  0.13262219257E+02  0.51100000000E-03 0.  1.
         12    1    3    3    0    0 -0.71805509605E+01  0.38363165727E+01 -0.33490091446E+01  0.88030392020E+01  0.00000000000E+00 0. -1.
</event>
<event>
 7    1  0.6055092E-013  0.5930193E+02  0.7816164E-02  0.1266605E+00
        -11   -1    0    0    0    0  0.00000000000E+00  0.00000000000E+00  0.45593999997E+02  0.45594000000E+02  0.51100000000E-03 0. -1.
         11   -1    0    0    0    0 -0.00000000000E+00 -0.00000000000E+00 -0.45593999997E+02  0.45594000000E+02  0.51100000000E-03 0.  1.
    9900012    2    1    2    0    0 -0.11124964712E+02  0.13407755493E+02  0.26705590886E+02  0.59301932011E+02  0.49999978085E+02 0.  0.
        -12    1    1    2    0    0  0.11124964712E+02 -0.13407755493E+02 -0.26705590886E+02  0.31886067989E+02  0.00000000000E+00 0.  1.
         11    1    3    3    0    0 -0.42484824385E+01 -0.10471791350E+02 -0.43687670848E+01  0.12115863288E+02  0.51100000000E-03 0.  1.
        -11    1    3    3    0    0 -0.86846426097E+01  0.18913116952E+02  0.61412773956E+01  0.21698946943E+02  0.51100000000E-03 0. -1.
         12    1    3    3    0    0  0.18081603362E+01  0.49664298912E+01  0.24933080575E+02  0.25487121780E+02  0.00000000000E+00 0. -1.
</event>
<event>
 7    1  0.6055092E-013  0.5930199E+02  0.7816164E-02  0.1266605E+00
        -11   -1    0    0    0    0  0.00000000000E+00  0.00000000000E+00  0.45593999997E+02  0.45594000000E+02  0.51100000000E-03 0.  1.
         11   -1    0    0    0    0 -0.00000000000E+00 -0.00000000000E+00 -0.45593999997E+02  0.45594000000E+02  0.51100000000E-03 0. -1.
    9900012    2    1    2    0    0 -0.21385459339E+02 -0.23792609813E+01 -0.23531231696E+02  0.59301990229E+02  0.50000084261E+02 0.  0.
        -12    1    1    2    0    0  0.21385459339E+02  0.23792609813E+01  0.23531231696E+02  0.31886009771E+02  0.00000000000E+00 0.  1.
         11    1    3    3    0    0 -0.11278524829E+02 -0.10776833695E+02 -0.34054501328E+02  0.37457366802E+02  0.51100000000E-03 0. -1.
        -11    1    3    3    0    0 -0.99780724410E+01  0.24258709623E+00  0.92148450564E+01  0.13584334647E+02  0.51100000000E-03 0.  1.
         12    1    3    3    0    0 -0.12886206892E+00  0.81549856175E+01  0.13084245756E+01  0.82602887797E+01  0.00000000000E+00 0. -1.
</event>
<event>
 7    1  0.7392062E-013  0.5930194E+02  0.7816164E-02  0.1266605E+00
        -11   -1    0    0    0    0  0.00000000000E+00  0.00000000000E+00  0.45593999997E+02  0.45594000000E+02  0.51100000000E-03 0. -1.
         11   -1    0    0    0    0 -0.00000000000E+00 -0.00000000000E+00 -0.45593999997E+02  0.45594000000E+02  0.51100000000E-03 0.  1.
    9900012    2    1    2    0    0 -0.18716685782E+02 -0.16080257842E+02  0.20194839328E+02  0.59301944201E+02  0.50000000317E+02 0.  0.
        -12    1    1    2    0    0  0.18716685782E+02  0.16080257842E+02 -0.20194839328E+02  0.31886055799E+02  0.00000000000E+00 0.  1.
         11    1    3    3    0    0 -0.67270950297E+01 -0.33300684499E+00  0.24204021040E+02  0.25123680778E+02  0.51100000000E-03 0. -1.
        -11    1    3    3    0    0 -0.20288283301E+02 -0.85436227342E+01 -0.64138337564E+01  0.22929134140E+02  0.51100000000E-03 0.  1.
        -12    1    3    3    0    0  0.82986925487E+01 -0.72036282624E+01  0.24046520446E+01  0.11249129283E+02  0.00000000000E+00 0.  1.
</event>
<event>
 7    1  0.6055092E-013  0.5930195E+02  0.7816164E-02  0.1266605E+00
        -11   -1    0    0    0    0  0.00000000000E+00  0.00000000000E+00  0.45593999997E+02  0.45594000000E+02  0.51100000000E-03 0. -1.
         11   -1    0    0    0    0 -0.00000000000E+00 -0.00000000000E+00 -0.45593999997E+02  0.45594000000E+02  0.51100000000E-03 0.  1.
    9900012    2    1    2    0    0  0.13498886976E+02 -0.13782728829E+02  0.25387723976E+02  0.59301951448E+02  0.50000013533E+02 0.  0.
        -12    1    1    2    0    0 -0.13498886976E+02  0.13782728829E+02 -0.25387723976E+02  0.31886048552E+02  0.00000000000E+00 0.  1.
         11    1    3    3    0    0  0.19952594996E+02  0.12862079472E+01  0.28892450629E+02  0.35135937180E+02  0.51100000000E-03 0. -1.
        -11    1    3    3    0    0  0.14267124874E+01 -0.15892698715E+02 -0.17651871533E+01  0.16053948639E+02  0.51100000000E-03 0.  1.
         12    1    3    3    0    0 -0.78804205068E+01  0.82376193924E+00 -0.17395394990E+01  0.81120656288E+01  0.00000000000E+00 0. -1.
</event>
<event>
 7    1  0.6055092E-013  0.5930195E+02  0.7816164E-02  0.1266605E+00
        -11   -1    0    0    0    0  0.00000000000E+00  0.00000000000E+00  0.45593999997E+02  0.45594000000E+02  0.51100000000E-03 0. -1.
         11   -1    0    0    0    0 -0.00000000000E+00 -0.00000000000E+00 -0.45593999997E+02  0.45594000000E+02  0.51100000000E-03 0.  1.
    9900012    2    1    2    0    0 -0.79798712769E+01 -0.21159814221E+02 -0.22478966751E+02  0.59301952429E+02  0.50000015323E+02 0.  0.
        -12    1    1    2    0    0  0.79798712769E+01  0.21159814221E+02  0.22478966751E+02  0.31886047571E+02  0.00000000000E+00 0.  1.
         11    1    3    3    0    0 -0.11273402692E+02 -0.10673861967E+02  0.93002311555E+01  0.18097382058E+02  0.51100000000E-03 0. -1.
        -11    1    3    3    0    0  0.38108533493E+01 -0.10792533792E+02 -0.35570132423E+02  0.37366237565E+02  0.51100000000E-03 0.  1.
         12    1    3    3    0    0 -0.51732193418E+00  0.30658153789E+00  0.37909345165E+01  0.38383328062E+01  0.00000000000E+00 0. -1.
</event>
<event>
 7    1  0.6055092E-013  0.5930195E+02  0.7816164E-02  0.1266605E+00
        -11   -1    0    0    0    0  0.00000000000E+00  0.00000000000E+00  0.45593999997E+02  0.45594000000E+02  0.51100000000E-03 0.  1.
         11   -1    0    0    0    0 -0.00000000000E+00 -0.00000000000E+00 -0.45593999997E+02  0.45594000000E+02  0.51100000000E-03 0. -1.
    9900012    2    1    2    0    0  0.14019478676E+02  0.20928238482E+02 -0.19549502402E+02  0.59301953013E+02  0.50000016387E+02 0.  0.
        -12    1    1    2    0    0 -0.14019478676E+02 -0.20928238482E+02  0.19549502402E+02  0.31886046987E+02  0.00000000000E+00 0.  1.
         11    1    3    3    0    0 -0.78190265247E+01 -0.30401230365E+01 -0.73473853865E+01  0.11151842724E+02  0.51100000000E-03 0.  1.
        -11    1    3    3    0    0  0.28293601897E+02  0.11595072090E+02 -0.14773628948E+02  0.33959295011E+02  0.51100000000E-03 0. -1.
        -12    1    3    3    0    0 -0.64550966958E+01  0.12373289428E+02  0.25715119331E+01  0.14190815278E+02  0.00000000000E+00 0.  1.
</event>
<event>
 7    1  0.6055092E-013  0.5930194E+02  0.7816164E-02  0.1266605E+00
        -11   -1    0    0    0    0  0.00000000000E+00  0.00000000000E+00  0.45593999997E+02  0.45594000000E+02  0.51100000000E-03 0. -1.
         11   -1    0    0    0    0 -0.00000000000E+00 -0.00000000000E+00 -0.45593999997E+02  0.45594000000E+02  0.51100000000E-03 0.  1.
    9900012    2    1    2    0    0 -0.83706816288E+01  0.23711224275E+02  0.19606890698E+02  0.59301943009E+02  0.49999998143E+02 0.  0.
        -12    1    1    2    0    0  0.83706816288E+01 -0.23711224275E+02 -0.19606890698E+02  0.31886056991E+02  0.00000000000E+00 0.  1.
         11    1    3    3    0    0  0.11669163361E+02  0.19913103147E+02  0.11404205117E+02  0.25744066212E+02  0.51100000000E-03 0. -1.
        -11    1    3    3    0    0 -0.20677404774E+02  0.85218655477E+01  0.13742677813E+02  0.26249541983E+02  0.51100000000E-03 0.  1.
         12    1    3    3    0    0  0.63755978388E+00 -0.47237444201E+01 -0.55399922321E+01  0.73083348142E+01  0.00000000000E+00 0. -1.
</event>
<event>
 7    1  0.6055092E-013  0.5930196E+02  0.7816164E-02  0.1266605E+00
        -11   -1    0    0    0    0  0.00000000000E+00  0.00000000000E+00  0.45593999997E+02  0.45594000000E+02  0.51100000000E-03 0. -1.
         11   -1    0    0    0    0 -0.00000000000E+00 -0.00000000000E+00 -0.45593999997E+02  0.45594000000E+02  0.51100000000E-03 0.  1.
    9900012    2    1    2    0    0  0.57807490965E+01  0.14247032761E+02  0.27934285706E+02  0.59301963549E+02  0.50000035603E+02 0.  0.
        -12    1    1    2    0    0 -0.57807490965E+01 -0.14247032761E+02 -0.27934285706E+02  0.31886036451E+02  0.00000000000E+00 0.  1.
         11    1    3    3    0    0 -0.13863720063E+01  0.22384384678E+02  0.18811267653E+02  0.29271940417E+02  0.51100000000E-03 0. -1.
        -11    1    3    3    0    0  0.12867611100E+02 -0.50036465529E+01  0.15612595817E+02  0.20841426119E+02  0.51100000000E-03 0.  1.
         12    1    3    3    0    0 -0.57004899973E+01 -0.31337053645E+01 -0.64895777642E+01  0.91885970136E+01  0.00000000000E+00 0. -1.
</event>
<event>
 7    1  0.6055092E-013  0.5930195E+02  0.7816164E-02  0.1266605E+00
        -11   -1    0    0    0    0  0.00000000000E+00  0.00000000000E+00  0.45593999997E+02  0.45594000000E+02  0.51100000000E-03 0.  1.
         11   -1    0    0    0    0 -0.00000000000E+00 -0.00000000000E+00 -0.45593999997E+02  0.45594000000E+02  0.51100000000E-03 0. -1.
    9900012    2    1    2    0    0 -0.12986631580E+02  0.27309076385E+02  0.10113445244E+02  0.59301952464E+02  0.50000015385E+02 0.  0.
        -12    1    1    2    0    0  0.12986631580E+02 -0.27309076385E+02 -0.10113445244E+02  0.31886047536E+02  0.00000000000E+00 0.  1.
         11    1    3    3    0    0 -0.13737812217E+02 -0.10989443318E+02  0.17274604004E+01  0.17677088806E+02  0.51100000000E-03 0. -1.
        -11    1    3    3    0    0  0.70941346850E+01  0.18703105253E+02  0.60395758344E+01  0.20895199677E+02  0.51100000000E-03 0.  1.
         12    1    3    3    0    0 -0.63429540474E+01  0.19595414450E+02  0.23464090095E+01  0.20729663980E+02  0.00000000000E+00 0. -1.
</event>
<event>
 7    1  0.6055092E-013  0.5930194E+02  0.7816164E-02  0.1266605E+00
        -11   -1    0    0    0    0  0.00000000000E+00  0.00000000000E+00  0.45593999997E+02  0.45594000000E+02  0.51100000000E-03 0.  1.
         11   -1    0    0    0    0 -0.00000000000E+00 -0.00000000000E+00 -0.45593999997E+02  0.45594000000E+02  0.51100000000E-03 0. -1.
    9900012    2    1    2    0    0 -0.14288659542E+02 -0.22432966405E+02 -0.17587420694E+02  0.59301935020E+02  0.49999983572E+02 0.  0.
        -12    1    1    2    0    0  0.14288659542E+02  0.22432966405E+02  0.17587420694E+02  0.31886064980E+02  0.00000000000E+00 0.  1.
         11    1    3    3    0    0  0.62232046716E+00 -0.25413484129E+02 -0.70793593327E+01  0.26388440408E+02  0.51100000000E-03 0. -1.
        -11    1    3    3    0    0 -0.72518498573E+01  0.13571281286E+02  0.11085107175E+01  0.15427177265E+02  0.51100000000E-03 0.  1.
         12    1    3    3    0    0 -0.76591301519E+01 -0.10590763562E+02 -0.11616572079E+02  0.17486317348E+02  0.00000000000E+00 0. -1.
</event>
<event>
 7    1  0.6055092E-013  0.5930194E+02  0.7816164E-02  0.1266605E+00
        -11   -1    0    0    0    0  0.00000000000E+00  0.00000000000E+00  0.45593999997E+02  0.45594000000E+02  0.51100000000E-03 0. -1.
         11   -1    0    0    0    0 -0.00000000000E+00 -0.00000000000E+00 -0.45593999997E+02  0.45594000000E+02  0.51100000000E-03 0.  1.
    9900012    2    1    2    0    0  0.28398631478E+02 -0.20481249080E+01  0.14354216745E+02  0.59301943112E+02  0.49999998330E+02 0.  0.
        -12    1    1    2    0    0 -0.28398631478E+02  0.20481249080E+01 -0.14354216745E+02  0.31886056888E+02  0.00000000000E+00 0.  1.
         11    1    3    3    0    0  0.58649543638E+01 -0.10738005489E+02  0.40739912744E+01  0.12895730175E+02  0.51100000000E-03 0. -1.
        -11    1    3    3    0    0  0.22289011995E+02  0.18979142289E+02 -0.31967151384E+01  0.29448716197E+02  0.51100000000E-03 0.  1.
        -12    1    3    3    0    0  0.24466511994E+00 -0.10289261707E+02  0.13476940609E+02  0.16957496740E+02  0.00000000000E+00 0.  1.
</event>
<event>
 7    1  0.6055092E-013  0.5930194E+02  0.7816164E-02  0.1266605E+00
        -11   -1    0    0    0    0  0.00000000000E+00  0.00000000000E+00  0.45593999997E+02  0.45594000000E+02  0.51100000000E-03 0. -1.
         11   -1    0    0    0    0 -0.00000000000E+00 -0.00000000000E+00 -0.45593999997E+02  0.45594000000E+02  0.51100000000E-03 0.  1.
    9900012    2    1    2    0    0 -0.15518778285E+02  0.14225572453E+02  0.23948303238E+02  0.59301943187E+02  0.49999998467E+02 0.  0.
        -12    1    1    2    0    0  0.15518778285E+02 -0.14225572453E+02 -0.23948303238E+02  0.31886056813E+02  0.00000000000E+00 0.  1.
         11    1    3    3    0    0 -0.10371162310E+01  0.21324053206E+02  0.33684621500E+00  0.21351916093E+02  0.51100000000E-03 0. -1.
        -11    1    3    3    0    0  0.95947965339E-01  0.94789268921E+00  0.21087451415E+02  0.21108962884E+02  0.51100000000E-03 0.  1.
        -12    1    3    3    0    0 -0.14577610020E+02 -0.80463734418E+01  0.25240056073E+01  0.16841064211E+02  0.00000000000E+00 0.  1.
</event>
<event>
 7    1  0.6055092E-013  0.5930195E+02  0.7816164E-02  0.1266605E+00
        -11   -1    0    0    0    0  0.00000000000E+00  0.00000000000E+00  0.45593999997E+02  0.45594000000E+02  0.51100000000E-03 0.  1.
         11   -1    0    0    0    0 -0.00000000000E+00 -0.00000000000E+00 -0.45593999997E+02  0.45594000000E+02  0.51100000000E-03 0. -1.
    9900012    2    1    2    0    0  0.17740381367E+02  0.82228992770E+01 -0.25186965268E+02  0.59301946262E+02  0.50000004075E+02 0.  0.
        -12    1    1    2    0    0 -0.17740381367E+02 -0.82228992770E+01  0.25186965268E+02  0.31886053738E+02  0.00000000000E+00 0.  1.
         11    1    3    3    0    0  0.17872021290E+02  0.42598151313E+00 -0.22460058519E+02  0.28706181114E+02  0.51100000000E-03 0. -1.
        -11    1    3    3    0    0  0.87569152930E+01  0.11566531197E+02  0.76675352896E+01  0.16409122678E+02  0.51100000000E-03 0.  1.
         12    1    3    3    0    0 -0.88885552161E+01 -0.37696134331E+01 -0.10394442039E+02  0.14186642470E+02  0.00000000000E+00 0. -1.
</event>
<event>
 7    1  0.6055092E-013  0.5930193E+02  0.7816164E-02  0.1266605E+00
        -11   -1    0    0    0    0  0.00000000000E+00  0.00000000000E+00  0.45593999997E+02  0.45594000000E+02  0.51100000000E-03 0.  1.
         11   -1    0    0    0    0 -0.00000000000E+00 -0.00000000000E+00 -0.45593999997E+02  0.45594000000E+02  0.51100000000E-03 0. -1.
    9900012    2    1    2    0    0 -0.11799185629E+01  0.53045708871E+01 -0.31419589308E+02  0.59301932943E+02  0.49999979783E+02 0.  0.
        -12    1    1    2    0    0  0.11799185629E+01 -0.53045708871E+01  0.31419589308E+02  0.31886067057E+02  0.00000000000E+00 0.  1.
         11    1    3    3    0    0  0.51655862112E+01 -0.15261632864E+02 -0.21132277998E+02  0.26573932570E+02  0.51100000000E-03 0. -1.
        -11    1    3    3    0    0 -0.13533741677E+02  0.19274442853E+02 -0.94509140841E+01  0.25376880982E+02  0.51100000000E-03 0.  1.
         12    1    3    3    0    0  0.71882369029E+01  0.12917608979E+01 -0.83639722580E+00  0.73511193915E+01  0.00000000000E+00 0. -1.
</event>
<event>
 7    1  0.6055092E-013  0.5930199E+02  0.7816164E-02  0.1266605E+00
        -11   -1    0    0    0    0  0.00000000000E+00  0.00000000000E+00  0.45593999997E+02  0.45594000000E+02  0.51100000000E-03 0.  1.
         11   -1    0    0    0    0 -0.00000000000E+00 -0.00000000000E+00 -0.45593999997E+02  0.45594000000E+02  0.51100000000E-03 0. -1.
    9900012    2    1    2    0    0 -0.85113397351E-01  0.86708737483E+01 -0.30684305749E+02  0.59301985587E+02  0.50000075794E+02 0.  0.
        -12    1    1    2    0    0  0.85113397351E-01 -0.86708737483E+01  0.30684305749E+02  0.31886014413E+02  0.00000000000E+00 0.  1.
         11    1    3    3    0    0  0.10533177606E+02 -0.82931258164E+01 -0.16367589630E+02  0.21157073448E+02  0.51100000000E-03 0. -1.
        -11    1    3    3    0    0 -0.19627438763E+02  0.60606831481E+01 -0.47931665194E+01  0.21093664408E+02  0.51100000000E-03 0.  1.
         12    1    3    3    0    0  0.90091477593E+01  0.10903316417E+02 -0.95235495991E+01  0.17051247731E+02  0.00000000000E+00 0. -1.
</event>
<event>
 7    1  0.6055092E-013  0.5930188E+02  0.7816164E-02  0.1266605E+00
        -11   -1    0    0    0    0  0.00000000000E+00  0.00000000000E+00  0.45593999997E+02  0.45594000000E+02  0.51100000000E-03 0.  1.
         11   -1    0    0    0    0 -0.00000000000E+00 -0.00000000000E+00 -0.45593999997E+02  0.45594000000E+02  0.51100000000E-03 0. -1.
    9900012    2    1    2    0    0  0.97723741559E+01  0.18769778259E+02 -0.23852054575E+02  0.59301884213E+02  0.49999890912E+02 0.  0.
        -12    1    1    2    0    0 -0.97723741559E+01 -0.18769778259E+02  0.23852054575E+02  0.31886115787E+02  0.00000000000E+00 0.  1.
         11    1    3    3    0    0  0.13337553473E+01  0.12875911617E+02 -0.94855180675E+01  0.16048148073E+02  0.51100000000E-03 0. -1.
        -11    1    3    3    0    0  0.15577354520E+02  0.30506804959E+01  0.92821317345E+01  0.18388001390E+02  0.51100000000E-03 0.  1.
        -12    1    3    3    0    0 -0.71387357114E+01  0.28431861459E+01 -0.23648668242E+02  0.24865734750E+02  0.00000000000E+00 0.  1.
</event>
<event>
 7    1  0.6055092E-013  0.5930223E+02  0.7816164E-02  0.1266604E+00
        -11   -1    0    0    0    0  0.00000000000E+00  0.00000000000E+00  0.45593999997E+02  0.45594000000E+02  0.51100000000E-03 0.  1.
         11   -1    0    0    0    0 -0.00000000000E+00 -0.00000000000E+00 -0.45593999997E+02  0.45594000000E+02  0.51100000000E-03 0. -1.
    9900012    2    1    2    0    0  0.13691395650E+01 -0.16933973814E+02 -0.26982740570E+02  0.59302230432E+02  0.50000522329E+02 0.  0.
        -12    1    1    2    0    0 -0.13691395650E+01  0.16933973814E+02  0.26982740570E+02  0.31885769568E+02  0.00000000000E+00 0.  1.
         11    1    3    3    0    0  0.19822624309E+02 -0.20709842542E+02 -0.24335988111E+02  0.37604179691E+02  0.51100000000E-03 0. -1.
        -11    1    3    3    0    0 -0.26769090293E+01  0.21874382118E+01  0.32846764815E+01  0.47686295443E+01  0.51100000000E-03 0.  1.
         12    1    3    3    0    0 -0.15776575714E+02  0.15884305164E+01 -0.59314289405E+01  0.16929421197E+02  0.00000000000E+00 0. -1.
</event>
<event>
 7    1  0.6055092E-013  0.5930196E+02  0.7816164E-02  0.1266605E+00
        -11   -1    0    0    0    0  0.00000000000E+00  0.00000000000E+00  0.45593999997E+02  0.45594000000E+02  0.51100000000E-03 0.  1.
         11   -1    0    0    0    0 -0.00000000000E+00 -0.00000000000E+00 -0.45593999997E+02  0.45594000000E+02  0.51100000000E-03 0. -1.
    9900012    2    1    2    0    0 -0.22349933356E+02  0.15871002308E+02 -0.16288379822E+02  0.59301959912E+02  0.50000028969E+02 0.  0.
        -12    1    1    2    0    0  0.22349933356E+02 -0.15871002308E+02  0.16288379822E+02  0.31886040088E+02  0.00000000000E+00 0.  1.
         11    1    3    3    0    0  0.17530511018E+01 -0.69568804467E+01 -0.22892540164E+02  0.23990409941E+02  0.51100000000E-03 0. -1.
        -11    1    3    3    0    0 -0.99539833186E+01  0.50640392523E+01  0.58067075012E+01  0.12587459224E+02  0.51100000000E-03 0.  1.
         12    1    3    3    0    0 -0.14149001139E+02  0.17763843502E+02  0.79745284055E+00  0.22724090746E+02  0.00000000000E+00 0. -1.
</event>
<event>
 7    1  0.6055092E-013  0.5930209E+02  0.7816164E-02  0.1266604E+00
        -11   -1    0    0    0    0  0.00000000000E+00  0.00000000000E+00  0.45593999997E+02  0.45594000000E+02  0.51100000000E-03 0. -1.
         11   -1    0    0    0    0 -0.00000000000E+00 -0.00000000000E+00 -0.45593999997E+02  0.45594000000E+02  0.51100000000E-03 0.  1.
    9900012    2    1    2    0    0 -0.17579406677E+02  0.43728677348E+01  0.26240310770E+02  0.59302087427E+02  0.50000261525E+02 0.  0.
        -12    1    1    2    0    0  0.17579406677E+02 -0.43728677348E+01 -0.26240310770E+02  0.31885912573E+02  0.00000000000E+00 0.  1.
         11    1    3    3    0    0 -0.46618932814E+01 -0.20775128138E+02  0.20907444539E+02  0.29840583699E+02  0.51100000000E-03 0. -1.
        -11    1    3    3    0    0 -0.21964751643E+01  0.16077117521E+01 -0.87711728969E+00  0.28598208381E+01  0.51100000000E-03 0.  1.
         12    1    3    3    0    0 -0.10721038231E+02  0.23540284120E+02  0.62099835202E+01  0.26601682889E+02  0.00000000000E+00 0. -1.
</event>
<event>
 7    1  0.6055092E-013  0.5930195E+02  0.7816164E-02  0.1266605E+00
        -11   -1    0    0    0    0  0.00000000000E+00  0.00000000000E+00  0.45593999997E+02  0.45594000000E+02  0.51100000000E-03 0.  1.
         11   -1    0    0    0    0 -0.00000000000E+00 -0.00000000000E+00 -0.45593999997E+02  0.45594000000E+02  0.51100000000E-03 0. -1.
    9900012    2    1    2    0    0 -0.14925714117E+02  0.16715214055E+02 -0.22683581014E+02  0.59301950222E+02  0.50000011297E+02 0.  0.
        -12    1    1    2    0    0  0.14925714117E+02 -0.16715214055E+02  0.22683581014E+02  0.31886049778E+02  0.00000000000E+00 0.  1.
         11    1    3    3    0    0 -0.31702622689E+01  0.27415880029E+01  0.25347757833E+01  0.48981584462E+01  0.51100000000E-03 0. -1.
        -11    1    3    3    0    0 -0.29805910417E+01  0.26535875699E+02 -0.28152378360E+02  0.38801971982E+02  0.51100000000E-03 0.  1.
        -12    1    3    3    0    0 -0.87748608061E+01 -0.12562249647E+02  0.29340215624E+01  0.15601819794E+02  0.00000000000E+00 0.  1.
</event>
<event>
 7    1  0.6055092E-013  0.5930191E+02  0.7816164E-02  0.1266605E+00
        -11   -1    0    0    0    0  0.00000000000E+00  0.00000000000E+00  0.45593999997E+02  0.45594000000E+02  0.51100000000E-03 0.  1.
         11   -1    0    0    0    0 -0.00000000000E+00 -0.00000000000E+00 -0.45593999997E+02  0.45594000000E+02  0.51100000000E-03 0. -1.
    9900012    2    1    2    0    0 -0.22161199550E+02  0.10911818730E+02 -0.20162740930E+02  0.59301910944E+02  0.49999939663E+02 0.  0.
        -12    1    1    2    0    0  0.22161199550E+02 -0.10911818730E+02  0.20162740930E+02  0.31886089056E+02  0.00000000000E+00 0.  1.
         11    1    3    3    0    0 -0.30493496607E+02 -0.88137025867E+01 -0.99664908910E+01  0.33269590162E+02  0.51100000000E-03 0. -1.
        -11    1    3    3    0    0  0.96280832260E+01  0.91904639098E+01 -0.50500175866E+01  0.14236126277E+02  0.51100000000E-03 0.  1.
         12    1    3    3    0    0 -0.12957861692E+01  0.10535057407E+02 -0.51462324521E+01  0.11796194506E+02  0.00000000000E+00 0. -1.
</event>
<event>
 7    1  0.6055092E-013  0.5930192E+02  0.7816164E-02  0.1266605E+00
        -11   -1    0    0    0    0  0.00000000000E+00  0.00000000000E+00  0.45593999997E+02  0.45594000000E+02  0.51100000000E-03 0.  1.
         11   -1    0    0    0    0 -0.00000000000E+00 -0.00000000000E+00 -0.45593999997E+02  0.45594000000E+02  0.51100000000E-03 0. -1.
    9900012    2    1    2    0    0  0.32543746800E+00  0.15230027862E+02 -0.28011821458E+02  0.59301924675E+02  0.49999964706E+02 0.  0.
        -12    1    1    2    0    0 -0.32543746800E+00 -0.15230027862E+02  0.28011821458E+02  0.31886075325E+02  0.00000000000E+00 0.  1.
         11    1    3    3    0    0  0.36502147995E+01  0.88259892043E+01 -0.33909148289E+02  0.35228574928E+02  0.51100000000E-03 0. -1.
        -11    1    3    3    0    0  0.21633616914E+00  0.74663592834E+01  0.13607404255E+02  0.15522717968E+02  0.51100000000E-03 0.  1.
        -12    1    3    3    0    0 -0.35411135006E+01 -0.10623206261E+01 -0.77100774242E+01  0.85506317792E+01  0.00000000000E+00 0.  1.
</event>
<event>
 7    1  0.6055092E-013  0.5930197E+02  0.7816164E-02  0.1266605E+00
        -11   -1    0    0    0    0  0.00000000000E+00  0.00000000000E+00  0.45593999997E+02  0.45594000000E+02  0.51100000000E-03 0.  1.
         11   -1    0    0    0    0 -0.00000000000E+00 -0.00000000000E+00 -0.45593999997E+02  0.45594000000E+02  0.51100000000E-03 0. -1.
    9900012    2    1    2    0    0 -0.97907914781E+01 -0.28321365785E+02 -0.10897691818E+02  0.59301967875E+02  0.50000043492E+02 0.  0.
        -12    1    1    2    0    0  0.97907914781E+01  0.28321365785E+02  0.10897691818E+02  0.31886032125E+02  0.00000000000E+00 0.  1.
         11    1    3    3    0    0  0.80219251042E+01  0.76253321125E+01  0.52688004468E+01  0.12257945611E+02  0.51100000000E-03 0.  1.
        -11    1    3    3    0    0 -0.81639963390E+01 -0.93138586024E+01  0.31231100231E+01  0.12773120792E+02  0.51100000000E-03 0. -1.
         12    1    3    3    0    0 -0.96487202433E+01 -0.26632839295E+02 -0.19289602288E+02  0.34270901472E+02  0.00000000000E+00 0. -1.
</event>
<event>
 7    1  0.6055092E-013  0.5930198E+02  0.7816164E-02  0.1266605E+00
        -11   -1    0    0    0    0  0.00000000000E+00  0.00000000000E+00  0.45593999997E+02  0.45594000000E+02  0.51100000000E-03 0. -1.
         11   -1    0    0    0    0 -0.00000000000E+00 -0.00000000000E+00 -0.45593999997E+02  0.45594000000E+02  0.51100000000E-03 0.  1.
    9900012    2    1    2    0    0 -0.29564352461E+02  0.11200713517E+02  0.41486630743E+01  0.59301979159E+02  0.50000064072E+02 0.  0.
        -12    1    1    2    0    0  0.29564352461E+02 -0.11200713517E+02 -0.41486630743E+01  0.31886020841E+02  0.00000000000E+00 0.  1.
         11    1    3    3    0    0 -0.88986117757E+00  0.16406678922E+02  0.95369778404E+01  0.18998023917E+02  0.51100000000E-03 0. -1.
        -11    1    3    3    0    0 -0.29702084354E+02  0.12717872137E+01  0.27448235623E+01  0.29855741731E+02  0.51100000000E-03 0.  1.
        -12    1    3    3    0    0  0.10275930697E+01 -0.64777526188E+01 -0.81331383284E+01  0.10448213511E+02  0.00000000000E+00 0.  1.
</event>
<event>
 7    1  0.6055092E-013  0.5930199E+02  0.7816164E-02  0.1266605E+00
        -11   -1    0    0    0    0  0.00000000000E+00  0.00000000000E+00  0.45593999997E+02  0.45594000000E+02  0.51100000000E-03 0.  1.
         11   -1    0    0    0    0 -0.00000000000E+00 -0.00000000000E+00 -0.45593999997E+02  0.45594000000E+02  0.51100000000E-03 0. -1.
    9900012    2    1    2    0    0 -0.30901308993E+02 -0.55188828813E+01 -0.56007951994E+01  0.59301986254E+02  0.50000077011E+02 0.  0.
        -12    1    1    2    0    0  0.30901308993E+02  0.55188828813E+01  0.56007951994E+01  0.31886013746E+02  0.00000000000E+00 0.  1.
         11    1    3    3    0    0 -0.21933839269E+02  0.63342555165E+01  0.40383088525E+01  0.23184564621E+02  0.51100000000E-03 0. -1.
        -11    1    3    3    0    0  0.10159746758E+02 -0.15126721647E+01  0.33323601891E+01  0.10798761779E+02  0.51100000000E-03 0.  1.
         12    1    3    3    0    0 -0.19127216482E+02 -0.10340466233E+02 -0.12971464241E+02  0.25318659854E+02  0.00000000000E+00 0. -1.
</event>
<event>
 7    1  0.6055092E-013  0.5930198E+02  0.7816164E-02  0.1266605E+00
        -11   -1    0    0    0    0  0.00000000000E+00  0.00000000000E+00  0.45593999997E+02  0.45594000000E+02  0.51100000000E-03 0.  1.
         11   -1    0    0    0    0 -0.00000000000E+00 -0.00000000000E+00 -0.45593999997E+02  0.45594000000E+02  0.51100000000E-03 0. -1.
    9900012    2    1    2    0    0  0.15195580712E+02  0.27991231832E+02 -0.15177830962E+01  0.59301978013E+02  0.50000061980E+02 0.  0.
        -12    1    1    2    0    0 -0.15195580712E+02 -0.27991231832E+02  0.15177830962E+01  0.31886021987E+02  0.00000000000E+00 0.  1.
         11    1    3    3    0    0 -0.54169655365E+01  0.19842054411E+02  0.45165115813E+01  0.21058241047E+02  0.51100000000E-03 0. -1.
        -11    1    3    3    0    0  0.13465437737E+02  0.15868308363E+01  0.11778183412E+02  0.17960001400E+02  0.51100000000E-03 0.  1.
         12    1    3    3    0    0  0.71471085112E+01  0.65623465855E+01 -0.17812478090E+02  0.20283735565E+02  0.00000000000E+00 0. -1.
</event>
<event>
 7    1  0.6055092E-013  0.5930193E+02  0.7816164E-02  0.1266605E+00
        -11   -1    0    0    0    0  0.00000000000E+00  0.00000000000E+00  0.45593999997E+02  0.45594000000E+02  0.51100000000E-03 0.  1.
         11   -1    0    0    0    0 -0.00000000000E+00 -0.00000000000E+00 -0.45593999997E+02  0.45594000000E+02  0.51100000000E-03 0. -1.
    9900012    2    1    2    0    0 -0.18965451868E+02 -0.24051833248E+02  0.88624076756E+01  0.59301932244E+02  0.49999978508E+02 0.  0.
        -12    1    1    2    0    0  0.18965451868E+02  0.24051833248E+02 -0.88624076756E+01  0.31886067756E+02  0.00000000000E+00 0.  1.
         11    1    3    3    0    0 -0.22624024764E+02 -0.21756843772E+02 -0.11918035662E+02  0.33574489151E+02  0.51100000000E-03 0. -1.
        -11    1    3    3    0    0 -0.17347781466E+01 -0.72023336565E+00  0.19961317086E+02  0.20049498033E+02  0.51100000000E-03 0.  1.
         12    1    3    3    0    0  0.53933510429E+01 -0.15747561107E+01  0.81912625174E+00  0.56779450593E+01  0.00000000000E+00 0. -1.
</event>
<event>
 7    1  0.6055092E-013  0.5930195E+02  0.7816164E-02  0.1266605E+00
        -11   -1    0    0    0    0  0.00000000000E+00  0.00000000000E+00  0.45593999997E+02  0.45594000000E+02  0.51100000000E-03 0.  1.
         11   -1    0    0    0    0 -0.00000000000E+00 -0.00000000000E+00 -0.45593999997E+02  0.45594000000E+02  0.51100000000E-03 0. -1.
    9900012    2    1    2    0    0 -0.39439854060E+01  0.86108197773E+01 -0.30446988250E+02  0.59301947695E+02  0.50000006688E+02 0.  0.
        -12    1    1    2    0    0  0.39439854060E+01 -0.86108197773E+01  0.30446988250E+02  0.31886052305E+02  0.00000000000E+00 0.  1.
         11    1    3    3    0    0 -0.12355819011E+02  0.66929849089E+01 -0.34416137634E+02  0.37174357295E+02  0.51100000000E-03 0. -1.
        -11    1    3    3    0    0  0.13556582396E+02 -0.18178643529E+01 -0.14750315783E+01  0.13757226301E+02  0.51100000000E-03 0.  1.
        -12    1    3    3    0    0 -0.51447487912E+01  0.37356992214E+01  0.54441809623E+01  0.83703640989E+01  0.00000000000E+00 0.  1.
</event>
<event>
 7    1  0.6055092E-013  0.5930196E+02  0.7816164E-02  0.1266605E+00
        -11   -1    0    0    0    0  0.00000000000E+00  0.00000000000E+00  0.45593999997E+02  0.45594000000E+02  0.51100000000E-03 0.  1.
         11   -1    0    0    0    0 -0.00000000000E+00 -0.00000000000E+00 -0.45593999997E+02  0.45594000000E+02  0.51100000000E-03 0. -1.
    9900012    2    1    2    0    0  0.72169368070E+01  0.10884395987E+02 -0.29088921037E+02  0.59301959481E+02  0.50000028183E+02 0.  0.
        -12    1    1    2    0    0 -0.72169368070E+01 -0.10884395987E+02  0.29088921037E+02  0.31886040519E+02  0.00000000000E+00 0.  1.
         11    1    3    3    0    0  0.23677370642E+02  0.96684755406E+01 -0.12712752743E+02  0.28560661449E+02  0.51100000000E-03 0. -1.
        -11    1    3    3    0    0 -0.15219730518E+02  0.34153206134E+00 -0.20964272239E+02  0.25908638559E+02  0.51100000000E-03 0.  1.
         12    1    3    3    0    0 -0.12407033171E+01  0.87438838492E+00  0.45881039454E+01  0.48326594731E+01  0.00000000000E+00 0. -1.
</event>
<event>
 7    1  0.6055092E-013  0.5930200E+02  0.7816164E-02  0.1266605E+00
        -11   -1    0    0    0    0  0.00000000000E+00  0.00000000000E+00  0.45593999997E+02  0.45594000000E+02  0.51100000000E-03 0.  1.
         11   -1    0    0    0    0 -0.00000000000E+00 -0.00000000000E+00 -0.45593999997E+02  0.45594000000E+02  0.51100000000E-03 0. -1.
    9900012    2    1    2    0    0  0.18517523193E+02  0.15539785829E+02  0.20792627012E+02  0.59302000770E+02  0.50000103484E+02 0.  0.
        -12    1    1    2    0    0 -0.18517523193E+02 -0.15539785829E+02 -0.20792627012E+02  0.31885999230E+02  0.00000000000E+00 0.  1.
         11    1    3    3    0    0 -0.12724228531E+02  0.24020617511E+01 -0.66666198440E+01  0.14564330152E+02  0.51100000000E-03 0. -1.
        -11    1    3    3    0    0  0.15233293539E+02  0.99873222469E+01  0.19144659287E+02  0.26425703722E+02  0.51100000000E-03 0.  1.
         12    1    3    3    0    0  0.16008458186E+02  0.31504018310E+01  0.83145875688E+01  0.18311966896E+02  0.00000000000E+00 0. -1.
</event>
<event>
 7    1  0.6055092E-013  0.5930194E+02  0.7816164E-02  0.1266605E+00
        -11   -1    0    0    0    0  0.00000000000E+00  0.00000000000E+00  0.45593999997E+02  0.45594000000E+02  0.51100000000E-03 0. -1.
         11   -1    0    0    0    0 -0.00000000000E+00 -0.00000000000E+00 -0.45593999997E+02  0.45594000000E+02  0.51100000000E-03 0.  1.
    9900012    2    1    2    0    0 -0.15811932328E+02 -0.66017360179E+01  0.26890900505E+02  0.59301942665E+02  0.49999997515E+02 0.  0.
        -12    1    1    2    0    0  0.15811932328E+02  0.66017360179E+01 -0.26890900505E+02  0.31886057335E+02  0.00000000000E+00 0.  1.
         11    1    3    3    0    0 -0.14759717234E+02  0.80690945603E+01  0.31965131850E+01  0.17122419124E+02  0.51100000000E-03 0. -1.
        -11    1    3    3    0    0 -0.36121254956E+01 -0.18516094194E+02  0.29341992927E+02  0.34883316127E+02  0.51100000000E-03 0.  1.
        -12    1    3    3    0    0  0.25599104018E+01  0.38452636161E+01 -0.56476056068E+01  0.72962074143E+01  0.00000000000E+00 0.  1.
</event>
<event>
 7    1  0.6055092E-013  0.5930196E+02  0.7816164E-02  0.1266605E+00
        -11   -1    0    0    0    0  0.00000000000E+00  0.00000000000E+00  0.45593999997E+02  0.45594000000E+02  0.51100000000E-03 0. -1.
         11   -1    0    0    0    0 -0.00000000000E+00 -0.00000000000E+00 -0.45593999997E+02  0.45594000000E+02  0.51100000000E-03 0.  1.
    9900012    2    1    2    0    0 -0.97302718908E+01 -0.29892691654E+02  0.53355670601E+01  0.59301961029E+02  0.50000031006E+02 0.  0.
        -12    1    1    2    0    0  0.97302718908E+01  0.29892691654E+02 -0.53355670601E+01  0.31886038971E+02  0.00000000000E+00 0.  1.
         11    1    3    3    0    0 -0.61712634585E+01 -0.32625523574E+02  0.15793733636E+02  0.36768890432E+02  0.51100000000E-03 0. -1.
        -11    1    3    3    0    0  0.61292997265E+01  0.68293263538E+01 -0.30603397860E+01  0.96733496500E+01  0.51100000000E-03 0.  1.
         12    1    3    3    0    0 -0.96883081587E+01 -0.40964944344E+01 -0.73978267899E+01  0.12859720947E+02  0.00000000000E+00 0. -1.
</event>
<event>
 7    1  0.6055092E-013  0.5930200E+02  0.7816164E-02  0.1266605E+00
        -11   -1    0    0    0    0  0.00000000000E+00  0.00000000000E+00  0.45593999997E+02  0.45594000000E+02  0.51100000000E-03 0.  1.
         11   -1    0    0    0    0 -0.00000000000E+00 -0.00000000000E+00 -0.45593999997E+02  0.45594000000E+02  0.51100000000E-03 0. -1.
    9900012    2    1    2    0    0 -0.26194272696E+02  0.66115814286E+01 -0.16937052626E+02  0.59302004913E+02  0.50000111039E+02 0.  0.
        -12    1    1    2    0    0  0.26194272696E+02 -0.66115814286E+01  0.16937052626E+02  0.31885995087E+02  0.00000000000E+00 0.  1.
         11    1    3    3    0    0 -0.82683410078E+01 -0.62254996718E+01 -0.29309430418E+02  0.31083195152E+02  0.51100000000E-03 0. -1.
        -11    1    3    3    0    0 -0.68893770531E+01 -0.16954287107E+01  0.29812806171E+01  0.76958449225E+01  0.51100000000E-03 0.  1.
         12    1    3    3    0    0 -0.11036554635E+02  0.14532509811E+02  0.93910971741E+01  0.20522964838E+02  0.00000000000E+00 0. -1.
</event>
<event>
 7    1  0.6055092E-013  0.5930195E+02  0.7816164E-02  0.1266605E+00
        -11   -1    0    0    0    0  0.00000000000E+00  0.00000000000E+00  0.45593999997E+02  0.45594000000E+02  0.51100000000E-03 0. -1.
         11   -1    0    0    0    0 -0.00000000000E+00 -0.00000000000E+00 -0.45593999997E+02  0.45594000000E+02  0.51100000000E-03 0.  1.
    9900012    2    1    2    0    0  0.15096940917E+02  0.21650583989E+02  0.17890075259E+02  0.59301949682E+02  0.50000010313E+02 0.  0.
        -12    1    1    2    0    0 -0.15096940917E+02 -0.21650583989E+02 -0.17890075259E+02  0.31886050318E+02  0.00000000000E+00 0.  1.
         11    1    3    3    0    0  0.19382595725E+02  0.11887440698E+02  0.16647596750E+02  0.28180467370E+02  0.51100000000E-03 0. -1.
        -11    1    3    3    0    0 -0.15035341968E+02  0.46592554513E+01  0.77645117718E+01  0.17551575791E+02  0.51100000000E-03 0.  1.
         12    1    3    3    0    0  0.10749687160E+02  0.51038878393E+01 -0.65220332630E+01  0.13569906521E+02  0.00000000000E+00 0. -1.
</event>
<event>
 7    1  0.6055092E-013  0.5930192E+02  0.7816164E-02  0.1266605E+00
        -11   -1    0    0    0    0  0.00000000000E+00  0.00000000000E+00  0.45593999997E+02  0.45594000000E+02  0.51100000000E-03 0. -1.
         11   -1    0    0    0    0 -0.00000000000E+00 -0.00000000000E+00 -0.45593999997E+02  0.45594000000E+02  0.51100000000E-03 0.  1.
    9900012    2    1    2    0    0 -0.22215415177E+02 -0.18194398111E+02  0.13862231982E+02  0.59301917305E+02  0.49999951265E+02 0.  0.
        -12    1    1    2    0    0  0.22215415177E+02  0.18194398111E+02 -0.13862231982E+02  0.31886082695E+02  0.00000000000E+00 0.  1.
         11    1    3    3    0    0  0.10494345349E+02  0.79459704673E+01  0.79654223213E+01  0.15385632388E+02  0.51100000000E-03 0. -1.
        -11    1    3    3    0    0 -0.30195689462E+02 -0.18935057904E+02  0.66189103539E+01  0.36250876602E+02  0.51100000000E-03 0.  1.
         12    1    3    3    0    0 -0.25140710634E+01 -0.72053106743E+01 -0.72210069368E+00  0.76654083151E+01  0.00000000000E+00 0. -1.
</event>
<event>
 7    1  0.6055092E-013  0.5930195E+02  0.7816164E-02  0.1266605E+00
        -11   -1    0    0    0    0  0.00000000000E+00  0.00000000000E+00  0.45593999997E+02  0.45594000000E+02  0.51100000000E-03 0. -1.
         11   -1    0    0    0    0 -0.00000000000E+00 -0.00000000000E+00 -0.45593999997E+02  0.45594000000E+02  0.51100000000E-03 0.  1.
    9900012    2    1    2    0    0 -0.14562048409E+02  0.28306716209E+02  0.18430225762E+01  0.59301950250E+02  0.50000011349E+02 0.  0.
        -12    1    1    2    0    0  0.14562048409E+02 -0.28306716209E+02 -0.18430225762E+01  0.31886049750E+02  0.00000000000E+00 0.  1.
         11    1    3    3    0    0 -0.24383869944E+01 -0.47079014523E+01  0.16614594118E+02  0.17440034552E+02  0.51100000000E-03 0. -1.
        -11    1    3    3    0    0 -0.55208921299E+01  0.32016736942E+02 -0.12416570472E+02  0.34781071244E+02  0.51100000000E-03 0.  1.
        -12    1    3    3    0    0 -0.66027692850E+01  0.99788071978E+00 -0.23550010691E+01  0.70808444551E+01  0.00000000000E+00 0.  1.
</event>
<event>
 7    1  0.6055092E-013  0.5930193E+02  0.7816164E-02  0.1266605E+00
        -11   -1    0    0    0    0  0.00000000000E+00  0.00000000000E+00  0.45593999997E+02  0.45594000000E+02  0.51100000000E-03 0. -1.
         11   -1    0    0    0    0 -0.00000000000E+00 -0.00000000000E+00 -0.45593999997E+02  0.45594000000E+02  0.51100000000E-03 0.  1.
    9900012    2    1    2    0    0 -0.31563128222E+02  0.36890034276E+01 -0.26233457712E+01  0.59301925415E+02  0.49999966054E+02 0.  0.
        -12    1    1    2    0    0  0.31563128222E+02 -0.36890034276E+01  0.26233457712E+01  0.31886074585E+02  0.00000000000E+00 0.  1.
         11    1    3    3    0    0 -0.99840440639E+01 -0.18849545694E+01  0.17771854025E+02  0.20471272197E+02  0.51100000000E-03 0. -1.
        -11    1    3    3    0    0 -0.19822224714E+02  0.11985660734E+02 -0.22048746548E+02  0.31980054416E+02  0.51100000000E-03 0.  1.
        -12    1    3    3    0    0 -0.17568594441E+01 -0.64117027369E+01  0.16535467516E+01  0.68505988025E+01  0.00000000000E+00 0.  1.
</event>
<event>
 7    1  0.6055092E-013  0.5930194E+02  0.7816164E-02  0.1266605E+00
        -11   -1    0    0    0    0  0.00000000000E+00  0.00000000000E+00  0.45593999997E+02  0.45594000000E+02  0.51100000000E-03 0. -1.
         11   -1    0    0    0    0 -0.00000000000E+00 -0.00000000000E+00 -0.45593999997E+02  0.45594000000E+02  0.51100000000E-03 0.  1.
    9900012    2    1    2    0    0 -0.18562663538E+01 -0.23168563682E+02  0.21828716041E+02  0.59301938596E+02  0.49999990093E+02 0.  0.
        -12    1    1    2    0    0  0.18562663538E+01  0.23168563682E+02 -0.21828716041E+02  0.31886061404E+02  0.00000000000E+00 0.  1.
         11    1    3    3    0    0  0.15098765502E+02 -0.53001810464E+01  0.29417384279E+02  0.33488014824E+02  0.51100000000E-03 0. -1.
        -11    1    3    3    0    0 -0.64108957053E+01 -0.66372471050E+01 -0.35603562908E+01  0.98908427374E+01  0.51100000000E-03 0.  1.
         12    1    3    3    0    0 -0.10544136150E+02 -0.11231135531E+02 -0.40283119469E+01  0.15923081034E+02  0.00000000000E+00 0. -1.
</event>
<event>
 7    1  0.6055092E-013  0.5930196E+02  0.7816164E-02  0.1266605E+00
        -11   -1    0    0    0    0  0.00000000000E+00  0.00000000000E+00  0.45593999997E+02  0.45594000000E+02  0.51100000000E-03 0.  1.
         11   -1    0    0    0    0 -0.00000000000E+00 -0.00000000000E+00 -0.45593999997E+02  0.45594000000E+02  0.51100000000E-03 0. -1.
    9900012    2    1    2    0    0  0.70568156959E+01  0.30922539859E+02  0.32737395408E+01  0.59301960897E+02  0.50000030766E+02 0.  0.
        -12    1    1    2    0    0 -0.70568156959E+01 -0.30922539859E+02 -0.32737395408E+01  0.31886039103E+02  0.00000000000E+00 0.  1.
         11    1    3    3    0    0 -0.15434934350E+02  0.45971574261E+01  0.14671116615E+01  0.16171687348E+02  0.51100000000E-03 0.  1.
        -11    1    3    3    0    0  0.13266900363E+02  0.29383652631E+02 -0.28270190701E+01  0.32363586394E+02  0.51100000000E-03 0. -1.
         12    1    3    3    0    0  0.92248496823E+01 -0.30582701981E+01  0.46336469494E+01  0.10766687156E+02  0.00000000000E+00 0. -1.
</event>
<event>
 7    1  0.6055092E-013  0.5930193E+02  0.7816164E-02  0.1266605E+00
        -11   -1    0    0    0    0  0.00000000000E+00  0.00000000000E+00  0.45593999997E+02  0.45594000000E+02  0.51100000000E-03 0.  1.
         11   -1    0    0    0    0 -0.00000000000E+00 -0.00000000000E+00 -0.45593999997E+02  0.45594000000E+02  0.51100000000E-03 0. -1.
    9900012    2    1    2    0    0  0.17117322491E+02  0.12819721101E+02 -0.23651072952E+02  0.59301933605E+02  0.49999980992E+02 0.  0.
        -12    1    1    2    0    0 -0.17117322491E+02 -0.12819721101E+02  0.23651072952E+02  0.31886066395E+02  0.00000000000E+00 0.  1.
         11    1    3    3    0    0  0.48601242952E+01  0.24606351045E+02 -0.10893020652E+02  0.27345040119E+02  0.51100000000E-03 0. -1.
        -11    1    3    3    0    0 -0.23773714122E+01 -0.10475538878E+02  0.22268463836E+01  0.10970307867E+02  0.51100000000E-03 0.  1.
        -12    1    3    3    0    0  0.14634569608E+02 -0.13110910660E+01 -0.14984898684E+02  0.20986585619E+02  0.00000000000E+00 0.  1.
</event>
<event>
 7    1  0.6055092E-013  0.5930196E+02  0.7816164E-02  0.1266605E+00
        -11   -1    0    0    0    0  0.00000000000E+00  0.00000000000E+00  0.45593999997E+02  0.45594000000E+02  0.51100000000E-03 0.  1.
         11   -1    0    0    0    0 -0.00000000000E+00 -0.00000000000E+00 -0.45593999997E+02  0.45594000000E+02  0.51100000000E-03 0. -1.
    9900012    2    1    2    0    0  0.30399784998E+02 -0.61464766489E+01  0.74022590098E+01  0.59301960083E+02  0.50000029281E+02 0.  0.
        -12    1    1    2    0    0 -0.30399784998E+02  0.61464766489E+01 -0.74022590098E+01  0.31886039917E+02  0.00000000000E+00 0.  1.
         11    1    3    3    0    0 -0.15861084256E+01 -0.38202939283E+01 -0.16448649766E+02  0.16960791993E+02  0.51100000000E-03 0. -1.
        -11    1    3    3    0    0  0.24893655235E+02  0.43188520732E+01  0.17204533778E+02  0.30567017143E+02  0.51100000000E-03 0.  1.
         12    1    3    3    0    0  0.70922381885E+01 -0.66450347939E+01  0.66463749975E+01  0.11774150948E+02  0.00000000000E+00 0. -1.
</event>
<event>
 7    1  0.6055092E-013  0.5930224E+02  0.7816164E-02  0.1266604E+00
        -11   -1    0    0    0    0  0.00000000000E+00  0.00000000000E+00  0.45593999997E+02  0.45594000000E+02  0.51100000000E-03 0.  1.
         11   -1    0    0    0    0 -0.00000000000E+00 -0.00000000000E+00 -0.45593999997E+02  0.45594000000E+02  0.51100000000E-03 0. -1.
    9900012    2    1    2    0    0  0.24696301238E+01  0.31057686209E+02  0.67839930463E+01  0.59302242878E+02  0.50000545028E+02 0.  0.
        -12    1    1    2    0    0 -0.24696301238E+01 -0.31057686209E+02 -0.67839930463E+01  0.31885757122E+02  0.00000000000E+00 0.  1.
         11    1    3    3    0    0  0.16377922438E+02  0.12766498078E+02 -0.89348132495E+01  0.22606430604E+02  0.51100000000E-03 0. -1.
        -11    1    3    3    0    0 -0.10988871434E+02  0.89336579385E+01  0.21177136250E+02  0.25476197510E+02  0.51100000000E-03 0.  1.
         12    1    3    3    0    0 -0.29194208806E+01  0.93575301922E+01 -0.54583299541E+01  0.11219614765E+02  0.00000000000E+00 0. -1.
</event>
<event>
 7    1  0.6055092E-013  0.5930194E+02  0.7816164E-02  0.1266605E+00
        -11   -1    0    0    0    0  0.00000000000E+00  0.00000000000E+00  0.45593999997E+02  0.45594000000E+02  0.51100000000E-03 0. -1.
         11   -1    0    0    0    0 -0.00000000000E+00 -0.00000000000E+00 -0.45593999997E+02  0.45594000000E+02  0.51100000000E-03 0.  1.
    9900012    2    1    2    0    0 -0.23377480571E+01  0.31549414764E+02 -0.39862544018E+01  0.59301939377E+02  0.49999991518E+02 0.  0.
        -12    1    1    2    0    0  0.23377480571E+01 -0.31549414764E+02  0.39862544018E+01  0.31886060623E+02  0.00000000000E+00 0.  1.
         11    1    3    3    0    0  0.86933750973E+01  0.30552776865E+02 -0.95997593354E+01  0.33184368674E+02  0.51100000000E-03 0.  1.
        -11    1    3    3    0    0 -0.37958477690E+01 -0.37952612565E+01  0.13414458738E+02  0.14448535281E+02  0.51100000000E-03 0. -1.
        -12    1    3    3    0    0 -0.72352753854E+01  0.47918991549E+01 -0.78009538039E+01  0.11669035421E+02  0.00000000000E+00 0.  1.
</event>
<event>
 7    1  0.6055092E-013  0.5930199E+02  0.7816164E-02  0.1266605E+00
        -11   -1    0    0    0    0  0.00000000000E+00  0.00000000000E+00  0.45593999997E+02  0.45594000000E+02  0.51100000000E-03 0. -1.
         11   -1    0    0    0    0 -0.00000000000E+00 -0.00000000000E+00 -0.45593999997E+02  0.45594000000E+02  0.51100000000E-03 0.  1.
    9900012    2    1    2    0    0 -0.54556406126E+01 -0.13385066432E+02  0.28421706247E+02  0.59301993604E+02  0.50000090416E+02 0.  0.
        -12    1    1    2    0    0  0.54556406126E+01  0.13385066432E+02 -0.28421706247E+02  0.31886006396E+02  0.00000000000E+00 0.  1.
         11    1    3    3    0    0 -0.50829500908E+01 -0.22756027042E+02  0.24345215289E+02  0.33709978583E+02  0.51100000000E-03 0. -1.
        -11    1    3    3    0    0 -0.38283833347E+01 -0.74753507141E+00 -0.83394497472E+01  0.92066144693E+01  0.51100000000E-03 0.  1.
        -12    1    3    3    0    0  0.34556928129E+01  0.10118495681E+02  0.12415940705E+02  0.16385400552E+02  0.00000000000E+00 0.  1.
</event>
<event>
 7    1  0.6055092E-013  0.5930195E+02  0.7816164E-02  0.1266605E+00
        -11   -1    0    0    0    0  0.00000000000E+00  0.00000000000E+00  0.45593999997E+02  0.45594000000E+02  0.51100000000E-03 0. -1.
         11   -1    0    0    0    0 -0.00000000000E+00 -0.00000000000E+00 -0.45593999997E+02  0.45594000000E+02  0.51100000000E-03 0.  1.
    9900012    2    1    2    0    0  0.36363149338E+01  0.31630720488E+02 -0.17304954345E+01  0.59301954787E+02  0.50000019623E+02 0.  0.
        -12    1    1    2    0    0 -0.36363149338E+01 -0.31630720488E+02  0.17304954345E+01  0.31886045213E+02  0.00000000000E+00 0.  1.
         11    1    3    3    0    0  0.41514762923E+01  0.21746232420E+02  0.16511143443E+02  0.27617951371E+02  0.51100000000E-03 0. -1.
        -11    1    3    3    0    0  0.10999985072E+02  0.11497377138E+01 -0.10669075179E+02  0.15367196681E+02  0.51100000000E-03 0.  1.
         12    1    3    3    0    0 -0.11515146430E+02  0.87347503540E+01 -0.75725636989E+01  0.16316806735E+02  0.00000000000E+00 0. -1.
</event>
<event>
 7    1  0.6055092E-013  0.5930196E+02  0.7816164E-02  0.1266605E+00
        -11   -1    0    0    0    0  0.00000000000E+00  0.00000000000E+00  0.45593999997E+02  0.45594000000E+02  0.51100000000E-03 0. -1.
         11   -1    0    0    0    0 -0.00000000000E+00 -0.00000000000E+00 -0.45593999997E+02  0.45594000000E+02  0.51100000000E-03 0.  1.
    9900012    2    1    2    0    0 -0.99808580230E+01  0.30106138918E+02  0.32745000592E+01  0.59301961079E+02  0.50000031097E+02 0.  0.
        -12    1    1    2    0    0  0.99808580230E+01 -0.30106138918E+02 -0.32745000592E+01  0.31886038921E+02  0.00000000000E+00 0.  1.
         11    1    3    3    0    0 -0.22790289084E+02  0.26935063841E+02  0.11290338121E+02  0.37045467682E+02  0.51100000000E-03 0. -1.
        -11    1    3    3    0    0  0.96517882115E+01  0.10397052125E+01 -0.12848066292E+02  0.16103130451E+02  0.51100000000E-03 0.  1.
        -12    1    3    3    0    0  0.31576428496E+01  0.21313698652E+01  0.48322282307E+01  0.61533629457E+01  0.00000000000E+00 0.  1.
</event>
<event>
 7    1  0.6055092E-013  0.5930202E+02  0.7816164E-02  0.1266604E+00
        -11   -1    0    0    0    0  0.00000000000E+00  0.00000000000E+00  0.45593999997E+02  0.45594000000E+02  0.51100000000E-03 0.  1.
         11   -1    0    0    0    0 -0.00000000000E+00 -0.00000000000E+00 -0.45593999997E+02  0.45594000000E+02  0.51100000000E-03 0. -1.
    9900012    2    1    2    0    0 -0.11038446427E+02  0.66816233907E+01 -0.29158606686E+02  0.59302019781E+02  0.50000138156E+02 0.  0.
        -12    1    1    2    0    0  0.11038446427E+02 -0.66816233907E+01  0.29158606686E+02  0.31885980219E+02  0.00000000000E+00 0.  1.
         11    1    3    3    0    0 -0.16531013217E+02  0.15396415316E+02 -0.34900699897E+02  0.41573824170E+02  0.51100000000E-03 0. -1.
        -11    1    3    3    0    0  0.94078090305E+00 -0.11212294171E+02  0.55167460257E+01  0.12531364501E+02  0.51100000000E-03 0.  1.
        -12    1    3    3    0    0  0.45517858875E+01  0.24975022459E+01  0.22534718591E+00  0.51968311103E+01  0.00000000000E+00 0.  1.
</event>
<event>
 7    1  0.6055092E-013  0.5930197E+02  0.7816164E-02  0.1266605E+00
        -11   -1    0    0    0    0  0.00000000000E+00  0.00000000000E+00  0.45593999997E+02  0.45594000000E+02  0.51100000000E-03 0.  1.
         11   -1    0    0    0    0 -0.00000000000E+00 -0.00000000000E+00 -0.45593999997E+02  0.45594000000E+02  0.51100000000E-03 0. -1.
    9900012    2    1    2    0    0  0.25920186296E+02 -0.15437731978E+02 -0.10321799563E+02  0.59301965871E+02  0.50000039837E+02 0.  0.
        -12    1    1    2    0    0 -0.25920186296E+02  0.15437731978E+02  0.10321799563E+02  0.31886034129E+02  0.00000000000E+00 0.  1.
         11    1    3    3    0    0  0.12338819587E+02 -0.23931648004E+02  0.58793005126E+01  0.27559688311E+02  0.51100000000E-03 0. -1.
        -11    1    3    3    0    0  0.19163471783E+02  0.95841302770E+01 -0.11243479631E+02  0.24197314694E+02  0.51100000000E-03 0.  1.
         12    1    3    3    0    0 -0.55821050745E+01 -0.10902142508E+01 -0.49576204450E+01  0.75449628662E+01  0.00000000000E+00 0. -1.
</event>
<event>
 7    1  0.6055092E-013  0.5930193E+02  0.7816164E-02  0.1266605E+00
        -11   -1    0    0    0    0  0.00000000000E+00  0.00000000000E+00  0.45593999997E+02  0.45594000000E+02  0.51100000000E-03 0.  1.
         11   -1    0    0    0    0 -0.00000000000E+00 -0.00000000000E+00 -0.45593999997E+02  0.45594000000E+02  0.51100000000E-03 0. -1.
    9900012    2    1    2    0    0  0.93590617333E+01 -0.30460331271E+02  0.11390807242E+01  0.59301932156E+02  0.49999978349E+02 0.  0.
        -12    1    1    2    0    0 -0.93590617333E+01  0.30460331271E+02 -0.11390807242E+01  0.31886067844E+02  0.00000000000E+00 0.  1.
         11    1    3    3    0    0 -0.39207477249E+01 -0.23976098358E+02 -0.24904088774E+01  0.24421869130E+02  0.51100000000E-03 0. -1.
        -11    1    3    3    0    0  0.17038588461E+02  0.14797508173E+01  0.13399618490E+02  0.21726779218E+02  0.51100000000E-03 0.  1.
        -12    1    3    3    0    0 -0.37587790032E+01 -0.79639837301E+01 -0.97701288880E+01  0.13153283808E+02  0.00000000000E+00 0.  1.
</event>
<event>
 7    1  0.8736765E-013  0.5930197E+02  0.7816164E-02  0.1266605E+00
        -11   -1    0    0    0    0  0.00000000000E+00  0.00000000000E+00  0.45593999997E+02  0.45594000000E+02  0.51100000000E-03 0. -1.
         11   -1    0    0    0    0 -0.00000000000E+00 -0.00000000000E+00 -0.45593999997E+02  0.45594000000E+02  0.51100000000E-03 0.  1.
    9900012    2    1    2    0    0 -0.21355464504E+02  0.10262265693E+02  0.21338902649E+02  0.59301972847E+02  0.50000052560E+02 0.  0.
        -12    1    1    2    0    0  0.21355464504E+02 -0.10262265693E+02 -0.21338902649E+02  0.31886027153E+02  0.00000000000E+00 0.  1.
         11    1    3    3    0    0 -0.34716425213E+01  0.23087926229E+02  0.53086063991E+01  0.23943390351E+02  0.51100000000E-03 0. -1.
        -11    1    3    3    0    0 -0.56451198736E+01 -0.10780129855E+02 -0.30990942021E+01  0.12557187711E+02  0.51100000000E-03 0.  1.
         12    1    3    3    0    0 -0.12238702109E+02 -0.20455306809E+01  0.19129390452E+02  0.22801394785E+02  0.00000000000E+00 0. -1.
</event>
<event>
 7    1  0.6055092E-013  0.5930193E+02  0.7816164E-02  0.1266605E+00
        -11   -1    0    0    0    0  0.00000000000E+00  0.00000000000E+00  0.45593999997E+02  0.45594000000E+02  0.51100000000E-03 0. -1.
         11   -1    0    0    0    0 -0.00000000000E+00 -0.00000000000E+00 -0.45593999997E+02  0.45594000000E+02  0.51100000000E-03 0.  1.
    9900012    2    1    2    0    0 -0.66202260945E+01 -0.25032143012E+02  0.18608751163E+02  0.59301934122E+02  0.49999981935E+02 0.  0.
        -12    1    1    2    0    0  0.66202260945E+01  0.25032143012E+02 -0.18608751163E+02  0.31886065878E+02  0.00000000000E+00 0.  1.
         11    1    3    3    0    0 -0.10911497220E+02 -0.93461299063E+01  0.19108141333E+02  0.23906735061E+02  0.51100000000E-03 0. -1.
        -11    1    3    3    0    0  0.60038542674E+01  0.83747417896E+01  0.36249932150E+01  0.10923513271E+02  0.51100000000E-03 0.  1.
        -12    1    3    3    0    0 -0.17125831417E+01 -0.24060754895E+02 -0.41243833848E+01  0.24471685791E+02  0.00000000000E+00 0.  1.
</event>
<event>
 7    1  0.6055092E-013  0.5930193E+02  0.7816164E-02  0.1266605E+00
        -11   -1    0    0    0    0  0.00000000000E+00  0.00000000000E+00  0.45593999997E+02  0.45594000000E+02  0.51100000000E-03 0. -1.
         11   -1    0    0    0    0 -0.00000000000E+00 -0.00000000000E+00 -0.45593999997E+02  0.45594000000E+02  0.51100000000E-03 0.  1.
    9900012    2    1    2    0    0  0.18566963028E+02 -0.10507304283E+02  0.23697802378E+02  0.59301930990E+02  0.49999976222E+02 0.  0.
        -12    1    1    2    0    0 -0.18566963028E+02  0.10507304283E+02 -0.23697802378E+02  0.31886069010E+02  0.00000000000E+00 0.  1.
         11    1    3    3    0    0  0.48730189665E+01 -0.14234110742E+02 -0.15496851755E+01  0.15124739563E+02  0.51100000000E-03 0.  1.
        -11    1    3    3    0    0  0.20620063090E+02  0.83832282103E+01  0.27646303288E+02  0.35493430418E+02  0.51100000000E-03 0. -1.
        -12    1    3    3    0    0 -0.69261190287E+01 -0.46564217511E+01 -0.23988157344E+01  0.86837610085E+01  0.00000000000E+00 0.  1.
</event>
<event>
 7    1  0.6055092E-013  0.5930195E+02  0.7816164E-02  0.1266605E+00
        -11   -1    0    0    0    0  0.00000000000E+00  0.00000000000E+00  0.45593999997E+02  0.45594000000E+02  0.51100000000E-03 0.  1.
         11   -1    0    0    0    0 -0.00000000000E+00 -0.00000000000E+00 -0.45593999997E+02  0.45594000000E+02  0.51100000000E-03 0. -1.
    9900012    2    1    2    0    0 -0.26670796048E+02 -0.53003574387E+01 -0.16652187129E+02  0.59301945259E+02  0.50000002245E+02 0.  0.
        -12    1    1    2    0    0  0.26670796048E+02  0.53003574387E+01  0.16652187129E+02  0.31886054741E+02  0.00000000000E+00 0.  1.
         11    1    3    3    0    0 -0.13649140712E+02 -0.96545699038E+01  0.11021301897E+02  0.20024456496E+02  0.51100000000E-03 0. -1.
        -11    1    3    3    0    0 -0.41251884534E+01  0.11849737144E+02 -0.44674132276E+01  0.13318829955E+02  0.51100000000E-03 0.  1.
         12    1    3    3    0    0 -0.88964668823E+01 -0.74955246786E+01 -0.23206075798E+02  0.25958658808E+02  0.00000000000E+00 0. -1.
</event>
<event>
 7    1  0.6055092E-013  0.5930195E+02  0.7816164E-02  0.1266605E+00
        -11   -1    0    0    0    0  0.00000000000E+00  0.00000000000E+00  0.45593999997E+02  0.45594000000E+02  0.51100000000E-03 0.  1.
         11   -1    0    0    0    0 -0.00000000000E+00 -0.00000000000E+00 -0.45593999997E+02  0.45594000000E+02  0.51100000000E-03 0. -1.
    9900012    2    1    2    0    0  0.25636575185E+02 -0.11964226520E+02  0.14708612789E+02  0.59301952995E+02  0.50000016354E+02 0.  0.
        -12    1    1    2    0    0 -0.25636575185E+02  0.11964226520E+02 -0.14708612789E+02  0.31886047005E+02  0.00000000000E+00 0.  1.
         11    1    3    3    0    0  0.65029474671E+01  0.85186895960E+01 -0.11339072102E+02  0.15602274020E+02  0.51100000000E-03 0. -1.
        -11    1    3    3    0    0  0.22816420914E+02 -0.17792339578E+02  0.16976320040E+02  0.33546264372E+02  0.51100000000E-03 0.  1.
        -12    1    3    3    0    0 -0.36827931961E+01 -0.26905765373E+01  0.90713648514E+01  0.10153414603E+02  0.00000000000E+00 0.  1.
</event>
<event>
 7    1  0.6055092E-013  0.5930195E+02  0.7816164E-02  0.1266605E+00
        -11   -1    0    0    0    0  0.00000000000E+00  0.00000000000E+00  0.45593999997E+02  0.45594000000E+02  0.51100000000E-03 0. -1.
         11   -1    0    0    0    0 -0.00000000000E+00 -0.00000000000E+00 -0.45593999997E+02  0.45594000000E+02  0.51100000000E-03 0.  1.
    9900012    2    1    2    0    0  0.30259225181E+02  0.54460380666E+01  0.84522249560E+01  0.59301950607E+02  0.50000012000E+02 0.  0.
        -12    1    1    2    0    0 -0.30259225181E+02 -0.54460380666E+01 -0.84522249560E+01  0.31886049393E+02  0.00000000000E+00 0.  1.
         11    1    3    3    0    0  0.21104425368E+02 -0.88765384181E+01  0.20146505742E+02  0.30497071962E+02  0.51100000000E-03 0. -1.
        -11    1    3    3    0    0 -0.18241655572E+01  0.14936152922E+02 -0.88110962252E+01  0.17437077193E+02  0.51100000000E-03 0.  1.
         12    1    3    3    0    0  0.10978965370E+02 -0.61357643720E+00 -0.28831845610E+01  0.11367801452E+02  0.00000000000E+00 0. -1.
</event>
<event>
 7    1  0.6055092E-013  0.5930194E+02  0.7816164E-02  0.1266605E+00
        -11   -1    0    0    0    0  0.00000000000E+00  0.00000000000E+00  0.45593999997E+02  0.45594000000E+02  0.51100000000E-03 0.  1.
         11   -1    0    0    0    0 -0.00000000000E+00 -0.00000000000E+00 -0.45593999997E+02  0.45594000000E+02  0.51100000000E-03 0. -1.
    9900012    2    1    2    0    0 -0.97164896301E+01  0.26280061700E+02 -0.15220669428E+02  0.59301943619E+02  0.49999999254E+02 0.  0.
        -12    1    1    2    0    0  0.97164896301E+01 -0.26280061700E+02  0.15220669428E+02  0.31886056381E+02  0.00000000000E+00 0.  1.
         11    1    3    3    0    0  0.26896832432E+01  0.61299509916E+01 -0.32717830882E+01  0.74508563230E+01  0.51100000000E-03 0. -1.
        -11    1    3    3    0    0 -0.27647551755E+02  0.40655122934E+01 -0.96908843051E+01  0.29577504072E+02  0.51100000000E-03 0.  1.
        -12    1    3    3    0    0  0.15241378882E+02  0.16084598415E+02 -0.22580020348E+01  0.22273583223E+02  0.00000000000E+00 0.  1.
</event>
<event>
 7    1  0.6055092E-013  0.5930197E+02  0.7816164E-02  0.1266605E+00
        -11   -1    0    0    0    0  0.00000000000E+00  0.00000000000E+00  0.45593999997E+02  0.45594000000E+02  0.51100000000E-03 0.  1.
         11   -1    0    0    0    0 -0.00000000000E+00 -0.00000000000E+00 -0.45593999997E+02  0.45594000000E+02  0.51100000000E-03 0. -1.
    9900012    2    1    2    0    0  0.24531976150E+02  0.53463071556E+01 -0.19654980454E+02  0.59301966840E+02  0.50000041604E+02 0.  0.
        -12    1    1    2    0    0 -0.24531976150E+02 -0.53463071556E+01  0.19654980454E+02  0.31886033160E+02  0.00000000000E+00 0.  1.
         11    1    3    3    0    0  0.12039645066E+02  0.16952306090E+02 -0.26888953482E+02  0.33990433282E+02  0.51100000000E-03 0. -1.
        -11    1    3    3    0    0 -0.14563842985E+01 -0.72671230482E+01 -0.24258841708E+01  0.77985285083E+01  0.51100000000E-03 0.  1.
         12    1    3    3    0    0  0.13948715382E+02 -0.43388758857E+01  0.96598571989E+01  0.17513005050E+02  0.00000000000E+00 0. -1.
</event>
<event>
 7    1  0.6055092E-013  0.5930194E+02  0.7816164E-02  0.1266605E+00
        -11   -1    0    0    0    0  0.00000000000E+00  0.00000000000E+00  0.45593999997E+02  0.45594000000E+02  0.51100000000E-03 0. -1.
         11   -1    0    0    0    0 -0.00000000000E+00 -0.00000000000E+00 -0.45593999997E+02  0.45594000000E+02  0.51100000000E-03 0.  1.
    9900012    2    1    2    0    0 -0.21724419460E+02 -0.98063317833E+01  0.21180321668E+02  0.59301943958E+02  0.49999999873E+02 0.  0.
        -12    1    1    2    0    0  0.21724419460E+02  0.98063317833E+01 -0.21180321668E+02  0.31886056042E+02  0.00000000000E+00 0.  1.
         11    1    3    3    0    0 -0.90949728867E+01 -0.28566193777E+02  0.47633842017E+01  0.30355160814E+02  0.51100000000E-03 0. -1.
        -11    1    3    3    0    0  0.79017363991E+00  0.22417574261E+01  0.66169106624E+00  0.24673236648E+01  0.51100000000E-03 0.  1.
         12    1    3    3    0    0 -0.13419620213E+02  0.16518104568E+02  0.15755246400E+02  0.26479459479E+02  0.00000000000E+00 0. -1.
</event>
<event>
 7    1  0.6055092E-013  0.5930191E+02  0.7816164E-02  0.1266605E+00
        -11   -1    0    0    0    0  0.00000000000E+00  0.00000000000E+00  0.45593999997E+02  0.45594000000E+02  0.51100000000E-03 0.  1.
         11   -1    0    0    0    0 -0.00000000000E+00 -0.00000000000E+00 -0.45593999997E+02  0.45594000000E+02  0.51100000000E-03 0. -1.
    9900012    2    1    2    0    0 -0.24506175360E+02 -0.69224114326E+00 -0.20388498357E+02  0.59301910654E+02  0.49999939134E+02 0.  0.
        -12    1    1    2    0    0  0.24506175360E+02  0.69224114326E+00  0.20388498357E+02  0.31886089346E+02  0.00000000000E+00 0.  1.
         11    1    3    3    0    0 -0.11087375051E+02 -0.15137117457E+02 -0.81917681157E+01  0.20473575055E+02  0.51100000000E-03 0. -1.
        -11    1    3    3    0    0 -0.11480095239E+02  0.15995963773E+02  0.59061985404E+01  0.20555938927E+02  0.51100000000E-03 0.  1.
        -12    1    3    3    0    0 -0.19387050703E+01 -0.15510874596E+01 -0.18102928781E+02  0.18272396672E+02  0.00000000000E+00 0.  1.
</event>
<event>
 7    1  0.6055092E-013  0.5930195E+02  0.7816164E-02  0.1266605E+00
        -11   -1    0    0    0    0  0.00000000000E+00  0.00000000000E+00  0.45593999997E+02  0.45594000000E+02  0.51100000000E-03 0. -1.
         11   -1    0    0    0    0 -0.00000000000E+00 -0.00000000000E+00 -0.45593999997E+02  0.45594000000E+02  0.51100000000E-03 0.  1.
    9900012    2    1    2    0    0  0.27458778089E+02  0.83006627868E+01  0.13922446467E+02  0.59301952699E+02  0.50000015815E+02 0.  0.
        -12    1    1    2    0    0 -0.27458778089E+02 -0.83006627868E+01 -0.13922446467E+02  0.31886047301E+02  0.00000000000E+00 0.  1.
         11    1    3    3    0    0  0.28310634265E+01 -0.10806633513E+02 -0.10602215499E+02  0.15401468169E+02  0.51100000000E-03 0.  1.
        -11    1    3    3    0    0  0.13599080034E+02  0.18426229322E+02  0.84834695120E+01  0.24421919662E+02  0.51100000000E-03 0. -1.
        -12    1    3    3    0    0  0.11028634629E+02  0.68106697788E+00  0.16041192453E+02  0.19478564868E+02  0.00000000000E+00 0.  1.
</event>
<event>
 7    1  0.6055092E-013  0.5930195E+02  0.7816164E-02  0.1266605E+00
        -11   -1    0    0    0    0  0.00000000000E+00  0.00000000000E+00  0.45593999997E+02  0.45594000000E+02  0.51100000000E-03 0. -1.
         11   -1    0    0    0    0 -0.00000000000E+00 -0.00000000000E+00 -0.45593999997E+02  0.45594000000E+02  0.51100000000E-03 0.  1.
    9900012    2    1    2    0    0 -0.28740653414E+02 -0.13793262486E+02 -0.66395524807E+00  0.59301951558E+02  0.50000013733E+02 0.  0.
        -12    1    1    2    0    0  0.28740653414E+02  0.13793262486E+02  0.66395524807E+00  0.31886048442E+02  0.00000000000E+00 0.  1.
         11    1    3    3    0    0 -0.18094516477E+02  0.61812765256E+00  0.35607363268E+01  0.18451895614E+02  0.51100000000E-03 0. -1.
        -11    1    3    3    0    0  0.31148302432E+01  0.83292312073E+01 -0.10276368424E+02  0.13589775870E+02  0.51100000000E-03 0.  1.
        -12    1    3    3    0    0 -0.13760967181E+02 -0.22740621346E+02  0.60516768496E+01  0.27260280073E+02  0.00000000000E+00 0.  1.
</event>
<event>
 7    1  0.6055092E-013  0.5930182E+02  0.7816164E-02  0.1266605E+00
        -11   -1    0    0    0    0  0.00000000000E+00  0.00000000000E+00  0.45593999997E+02  0.45594000000E+02  0.51100000000E-03 0.  1.
         11   -1    0    0    0    0 -0.00000000000E+00 -0.00000000000E+00 -0.45593999997E+02  0.45594000000E+02  0.51100000000E-03 0. -1.
    9900012    2    1    2    0    0 -0.89274918737E+01 -0.28594121149E+02  0.10927239397E+02  0.59301820607E+02  0.49999774911E+02 0.  0.
        -12    1    1    2    0    0  0.89274918737E+01  0.28594121149E+02 -0.10927239397E+02  0.31886179393E+02  0.00000000000E+00 0.  1.
         11    1    3    3    0    0  0.14037701040E+02 -0.52401549032E+01  0.10880557231E+02  0.18517634833E+02  0.51100000000E-03 0.  1.
        -11    1    3    3    0    0 -0.78598928708E+01 -0.18121873258E+01 -0.97993984273E+01  0.12692129398E+02  0.51100000000E-03 0. -1.
        -12    1    3    3    0    0 -0.15105300043E+02 -0.21541778920E+02  0.98460805932E+01  0.28092056377E+02  0.00000000000E+00 0.  1.
</event>
<event>
 7    1  0.6055092E-013  0.5930194E+02  0.7816164E-02  0.1266605E+00
        -11   -1    0    0    0    0  0.00000000000E+00  0.00000000000E+00  0.45593999997E+02  0.45594000000E+02  0.51100000000E-03 0.  1.
         11   -1    0    0    0    0 -0.00000000000E+00 -0.00000000000E+00 -0.45593999997E+02  0.45594000000E+02  0.51100000000E-03 0. -1.
    9900012    2    1    2    0    0 -0.26315393560E+01  0.11120033790E+02 -0.29768113447E+02  0.59301941462E+02  0.49999995322E+02 0.  0.
        -12    1    1    2    0    0  0.26315393560E+01 -0.11120033790E+02  0.29768113447E+02  0.31886058538E+02  0.00000000000E+00 0.  1.
         11    1    3    3    0    0  0.89418252429E+01  0.16452968128E+01 -0.22568920555E+02  0.24331449106E+02  0.51100000000E-03 0. -1.
        -11    1    3    3    0    0 -0.21616986746E+02  0.57072151465E+01 -0.57914603306E+00  0.22365192400E+02  0.51100000000E-03 0.  1.
        -12    1    3    3    0    0  0.10043622147E+02  0.37675218307E+01 -0.66200468585E+01  0.12605299957E+02  0.00000000000E+00 0.  1.
</event>
<event>
 7    1  0.6055092E-013  0.5930194E+02  0.7816164E-02  0.1266605E+00
        -11   -1    0    0    0    0  0.00000000000E+00  0.00000000000E+00  0.45593999997E+02  0.45594000000E+02  0.51100000000E-03 0. -1.
         11   -1    0    0    0    0 -0.00000000000E+00 -0.00000000000E+00 -0.45593999997E+02  0.45594000000E+02  0.51100000000E-03 0.  1.
    9900012    2    1    2    0    0  0.13023623950E+02 -0.50347487380E+01  0.28666307195E+02  0.59301942799E+02  0.49999997758E+02 0.  0.
        -12    1    1    2    0    0 -0.13023623950E+02  0.50347487380E+01 -0.28666307195E+02  0.31886057201E+02  0.00000000000E+00 0.  1.
         11    1    3    3    0    0 -0.42945998502E+01 -0.24288699965E+02  0.20099574528E+02  0.31817879098E+02  0.51100000000E-03 0. -1.
        -11    1    3    3    0    0  0.15706936643E+02  0.15678844073E+02  0.73272633386E+01  0.23371409852E+02  0.51100000000E-03 0.  1.
         12    1    3    3    0    0  0.16112871580E+01  0.35751071531E+01  0.12394693289E+01  0.41126538487E+01  0.00000000000E+00 0. -1.
</event>
<event>
 7    1  0.6055092E-013  0.5930195E+02  0.7816164E-02  0.1266605E+00
        -11   -1    0    0    0    0  0.00000000000E+00  0.00000000000E+00  0.45593999997E+02  0.45594000000E+02  0.51100000000E-03 0.  1.
         11   -1    0    0    0    0 -0.00000000000E+00 -0.00000000000E+00 -0.45593999997E+02  0.45594000000E+02  0.51100000000E-03 0. -1.
    9900012    2    1    2    0    0 -0.13508490367E+02  0.19799583524E+02  0.21028969618E+02  0.59301946891E+02  0.50000005221E+02 0.  0.
        -12    1    1    2    0    0  0.13508490367E+02 -0.19799583524E+02 -0.21028969618E+02  0.31886053109E+02  0.00000000000E+00 0.  1.
         11    1    3    3    0    0 -0.72493349608E+01 -0.90727005211E+01 -0.25578824893E+01  0.11891573286E+02  0.51100000000E-03 0. -1.
        -11    1    3    3    0    0  0.99244495471E+01  0.13116174943E+02  0.27417904611E+01  0.16674716163E+02  0.51100000000E-03 0.  1.
         12    1    3    3    0    0 -0.16183604953E+02  0.15756109103E+02  0.20845061646E+02  0.30735657441E+02  0.00000000000E+00 0. -1.
</event>
<event>
 7    1  0.6055092E-013  0.5930208E+02  0.7816164E-02  0.1266604E+00
        -11   -1    0    0    0    0  0.00000000000E+00  0.00000000000E+00  0.45593999997E+02  0.45594000000E+02  0.51100000000E-03 0. -1.
         11   -1    0    0    0    0 -0.00000000000E+00 -0.00000000000E+00 -0.45593999997E+02  0.45594000000E+02  0.51100000000E-03 0.  1.
    9900012    2    1    2    0    0  0.11788219948E+02  0.10214867703E+02  0.27810176955E+02  0.59302084708E+02  0.50000256566E+02 0.  0.
        -12    1    1    2    0    0 -0.11788219948E+02 -0.10214867703E+02 -0.27810176955E+02  0.31885915292E+02  0.00000000000E+00 0.  1.
         11    1    3    3    0    0  0.19233050841E+02 -0.86798563731E+01  0.19423425134E+01  0.21190159179E+02  0.51100000000E-03 0. -1.
        -11    1    3    3    0    0  0.10910665297E+00  0.16200211631E+02  0.70726833132E+01  0.17677149393E+02  0.51100000000E-03 0.  1.
         12    1    3    3    0    0 -0.75539375464E+01  0.26945124460E+01  0.18795151129E+02  0.20434776136E+02  0.00000000000E+00 0. -1.
</event>
<event>
 7    1  0.6055092E-013  0.5930198E+02  0.7816164E-02  0.1266605E+00
        -11   -1    0    0    0    0  0.00000000000E+00  0.00000000000E+00  0.45593999997E+02  0.45594000000E+02  0.51100000000E-03 0. -1.
         11   -1    0    0    0    0 -0.00000000000E+00 -0.00000000000E+00 -0.45593999997E+02  0.45594000000E+02  0.51100000000E-03 0.  1.
    9900012    2    1    2    0    0 -0.26026508381E+02  0.13090784102E+02  0.12960346417E+02  0.59301978828E+02  0.50000063468E+02 0.  0.
        -12    1    1    2    0    0  0.26026508381E+02 -0.13090784102E+02 -0.12960346417E+02  0.31886021172E+02  0.00000000000E+00 0.  1.
         11    1    3    3    0    0 -0.93675033039E+01  0.14090367145E+02  0.11370363801E+02  0.20385625761E+02  0.51100000000E-03 0. -1.
        -11    1    3    3    0    0  0.23150740534E+01  0.41867343351E+01 -0.13372280703E+02  0.14202330926E+02  0.51100000000E-03 0.  1.
        -12    1    3    3    0    0 -0.18974079131E+02 -0.51863173780E+01  0.14962263318E+02  0.24714022142E+02  0.00000000000E+00 0.  1.
</event>
<event>
 7    1  0.6055092E-013  0.5930195E+02  0.7816164E-02  0.1266605E+00
        -11   -1    0    0    0    0  0.00000000000E+00  0.00000000000E+00  0.45593999997E+02  0.45594000000E+02  0.51100000000E-03 0. -1.
         11   -1    0    0    0    0 -0.00000000000E+00 -0.00000000000E+00 -0.45593999997E+02  0.45594000000E+02  0.51100000000E-03 0.  1.
    9900012    2    1    2    0    0  0.42508278915E+01 -0.15192353286E+02  0.27709982292E+02  0.59301948900E+02  0.50000008886E+02 0.  0.
        -12    1    1    2    0    0 -0.42508278915E+01  0.15192353286E+02 -0.27709982292E+02  0.31886051100E+02  0.00000000000E+00 0.  1.
         11    1    3    3    0    0  0.31758181454E+01  0.11155661491E+01  0.12593681280E+02  0.13035763007E+02  0.51100000000E-03 0. -1.
        -11    1    3    3    0    0  0.19095437824E+02 -0.16577929895E+02  0.56590411835E+01  0.25913090373E+02  0.51100000000E-03 0.  1.
        -12    1    3    3    0    0 -0.18020428078E+02  0.27001045961E+00  0.94572598281E+01  0.20353095520E+02  0.00000000000E+00 0.  1.
</event>
<event>
 7    1  0.6055092E-013  0.5930194E+02  0.7816164E-02  0.1266605E+00
        -11   -1    0    0    0    0  0.00000000000E+00  0.00000000000E+00  0.45593999997E+02  0.45594000000E+02  0.51100000000E-03 0. -1.
         11   -1    0    0    0    0 -0.00000000000E+00 -0.00000000000E+00 -0.45593999997E+02  0.45594000000E+02  0.51100000000E-03 0.  1.
    9900012    2    1    2    0    0 -0.16735535549E+02 -0.17119035592E+02  0.21061367240E+02  0.59301941608E+02  0.49999995587E+02 0.  0.
        -12    1    1    2    0    0  0.16735535549E+02  0.17119035592E+02 -0.21061367240E+02  0.31886058392E+02  0.00000000000E+00 0.  1.
         11    1    3    3    0    0 -0.32471890824E+02 -0.10355355170E+02  0.21444975090E+02  0.40268399909E+02  0.51100000000E-03 0. -1.
        -11    1    3    3    0    0  0.95589181552E+01 -0.82344924814E+01  0.47530836245E+00  0.12625597056E+02  0.51100000000E-03 0.  1.
         12    1    3    3    0    0  0.61774371200E+01  0.14708120590E+01 -0.85891621167E+00  0.64079446426E+01  0.00000000000E+00 0. -1.
</event>
<event>
 7    1  0.6055092E-013  0.5930194E+02  0.7816164E-02  0.1266605E+00
        -11   -1    0    0    0    0  0.00000000000E+00  0.00000000000E+00  0.45593999997E+02  0.45594000000E+02  0.51100000000E-03 0.  1.
         11   -1    0    0    0    0 -0.00000000000E+00 -0.00000000000E+00 -0.45593999997E+02  0.45594000000E+02  0.51100000000E-03 0. -1.
    9900012    2    1    2    0    0  0.29316236633E+02 -0.11459236226E+02  0.50956121187E+01  0.59301935833E+02  0.49999985055E+02 0.  0.
        -12    1    1    2    0    0 -0.29316236633E+02  0.11459236226E+02 -0.50956121187E+01  0.31886064167E+02  0.00000000000E+00 0.  1.
         11    1    3    3    0    0  0.12550258869E+02 -0.58631471278E+01  0.16788606338E+02  0.21765633346E+02  0.51100000000E-03 0. -1.
        -11    1    3    3    0    0 -0.48241517947E+01 -0.10679364148E+02  0.13648058263E+01  0.11797624945E+02  0.51100000000E-03 0.  1.
         12    1    3    3    0    0  0.21590129559E+02  0.50832750495E+01 -0.13057800045E+02  0.25738677542E+02  0.00000000000E+00 0. -1.
</event>
<event>
 7    1  0.6055092E-013  0.5930188E+02  0.7816164E-02  0.1266605E+00
        -11   -1    0    0    0    0  0.00000000000E+00  0.00000000000E+00  0.45593999997E+02  0.45594000000E+02  0.51100000000E-03 0.  1.
         11   -1    0    0    0    0 -0.00000000000E+00 -0.00000000000E+00 -0.45593999997E+02  0.45594000000E+02  0.51100000000E-03 0. -1.
    9900012    2    1    2    0    0 -0.13088178139E+02 -0.26391555869E+02  0.12202860909E+02  0.59301883232E+02  0.49999889124E+02 0.  0.
        -12    1    1    2    0    0  0.13088178139E+02  0.26391555869E+02 -0.12202860909E+02  0.31886116768E+02  0.00000000000E+00 0.  1.
         11    1    3    3    0    0 -0.15619106042E+02 -0.17683610392E+02  0.24228321539E+02  0.33818310350E+02  0.51100000000E-03 0. -1.
        -11    1    3    3    0    0  0.10846698577E+02 -0.36008575143E+01 -0.22063063666E+01  0.11639795226E+02  0.51100000000E-03 0.  1.
         12    1    3    3    0    0 -0.83157706735E+01 -0.51070879625E+01 -0.98191542635E+01  0.13843777656E+02  0.00000000000E+00 0. -1.
</event>
<event>
 7    1  0.6055092E-013  0.5930194E+02  0.7816164E-02  0.1266605E+00
        -11   -1    0    0    0    0  0.00000000000E+00  0.00000000000E+00  0.45593999997E+02  0.45594000000E+02  0.51100000000E-03 0.  1.
         11   -1    0    0    0    0 -0.00000000000E+00 -0.00000000000E+00 -0.45593999997E+02  0.45594000000E+02  0.51100000000E-03 0. -1.
    9900012    2    1    2    0    0 -0.12834289662E+02  0.12450930812E+02 -0.26400301734E+02  0.59301943473E+02  0.49999998988E+02 0.  0.
        -12    1    1    2    0    0  0.12834289662E+02 -0.12450930812E+02  0.26400301734E+02  0.31886056527E+02  0.00000000000E+00 0.  1.
         11    1    3    3    0    0  0.35074473861E+00  0.11786369993E+02 -0.20830881948E+02  0.23936732912E+02  0.51100000000E-03 0. -1.
        -11    1    3    3    0    0 -0.10425393892E+02 -0.15009862098E+02  0.62704003807E+00  0.18286004962E+02  0.51100000000E-03 0.  1.
        -12    1    3    3    0    0 -0.27596405085E+01  0.15674422918E+02 -0.61964598240E+01  0.17079205599E+02  0.00000000000E+00 0.  1.
</event>
<event>
 7    1  0.6055092E-013  0.5930195E+02  0.7816164E-02  0.1266605E+00
        -11   -1    0    0    0    0  0.00000000000E+00  0.00000000000E+00  0.45593999997E+02  0.45594000000E+02  0.51100000000E-03 0.  1.
         11   -1    0    0    0    0 -0.00000000000E+00 -0.00000000000E+00 -0.45593999997E+02  0.45594000000E+02  0.51100000000E-03 0. -1.
    9900012    2    1    2    0    0  0.23985383315E+02  0.83766738999E+01 -0.19267926805E+02  0.59301948477E+02  0.50000008114E+02 0.  0.
        -12    1    1    2    0    0 -0.23985383315E+02 -0.83766738999E+01  0.19267926805E+02  0.31886051523E+02  0.00000000000E+00 0.  1.
         11    1    3    3    0    0  0.19616627470E+02  0.93205789202E+01 -0.23093687601E+02  0.31701792883E+02  0.51100000000E-03 0. -1.
        -11    1    3    3    0    0 -0.73966671026E+01 -0.10032921579E+02  0.15914243261E+01  0.12565939332E+02  0.51100000000E-03 0.  1.
        -12    1    3    3    0    0  0.11765422948E+02  0.90890165589E+01  0.22343364701E+01  0.15034216262E+02  0.00000000000E+00 0.  1.
</event>
<event>
 7    1  0.6055092E-013  0.5930221E+02  0.7816164E-02  0.1266604E+00
        -11   -1    0    0    0    0  0.00000000000E+00  0.00000000000E+00  0.45593999997E+02  0.45594000000E+02  0.51100000000E-03 0.  1.
         11   -1    0    0    0    0 -0.00000000000E+00 -0.00000000000E+00 -0.45593999997E+02  0.45594000000E+02  0.51100000000E-03 0. -1.
    9900012    2    1    2    0    0  0.35724797401E+01 -0.21060301101E+02 -0.23672867639E+02  0.59302210748E+02  0.50000486431E+02 0.  0.
        -12    1    1    2    0    0 -0.35724797401E+01  0.21060301101E+02  0.23672867639E+02  0.31885789252E+02  0.00000000000E+00 0.  1.
         11    1    3    3    0    0 -0.15418706949E+02  0.27622605142E+01 -0.10051225120E+00  0.15664504783E+02  0.51100000000E-03 0.  1.
        -11    1    3    3    0    0  0.63166975624E+01 -0.14151170704E+02 -0.22937801837E+02  0.27682107105E+02  0.51100000000E-03 0. -1.
        -12    1    3    3    0    0  0.12674489126E+02 -0.96713909117E+01 -0.63455355070E+00  0.15955598860E+02  0.00000000000E+00 0.  1.
</event>
<event>
 7    1  0.6055092E-013  0.5930196E+02  0.7816164E-02  0.1266605E+00
        -11   -1    0    0    0    0  0.00000000000E+00  0.00000000000E+00  0.45593999997E+02  0.45594000000E+02  0.51100000000E-03 0.  1.
         11   -1    0    0    0    0 -0.00000000000E+00 -0.00000000000E+00 -0.45593999997E+02  0.45594000000E+02  0.51100000000E-03 0. -1.
    9900012    2    1    2    0    0  0.39753910097E+01 -0.12003075890E+02 -0.29271868695E+02  0.59301955068E+02  0.50000020134E+02 0.  0.
        -12    1    1    2    0    0 -0.39753910097E+01  0.12003075890E+02  0.29271868695E+02  0.31886044932E+02  0.00000000000E+00 0.  1.
         11    1    3    3    0    0  0.12659832477E+02 -0.11958936905E+02 -0.83493213672E+01  0.19313174203E+02  0.51100000000E-03 0. -1.
        -11    1    3    3    0    0  0.38193049945E+01  0.10516345067E+02 -0.20803936461E+02  0.23621692927E+02  0.51100000000E-03 0.  1.
        -12    1    3    3    0    0 -0.12503746462E+02 -0.10560484053E+02 -0.11861086669E+00  0.16367087938E+02  0.00000000000E+00 0.  1.
</event>
<event>
 7    1  0.6055092E-013  0.5930182E+02  0.7816164E-02  0.1266605E+00
        -11   -1    0    0    0    0  0.00000000000E+00  0.00000000000E+00  0.45593999997E+02  0.45594000000E+02  0.51100000000E-03 0.  1.
         11   -1    0    0    0    0 -0.00000000000E+00 -0.00000000000E+00 -0.45593999997E+02  0.45594000000E+02  0.51100000000E-03 0. -1.
    9900012    2    1    2    0    0 -0.15947453236E+02  0.27541740025E+02 -0.19646642055E+01  0.59301817824E+02  0.49999769834E+02 0.  0.
        -12    1    1    2    0    0  0.15947453236E+02 -0.27541740025E+02  0.19646642055E+01  0.31886182176E+02  0.00000000000E+00 0.  1.
         11    1    3    3    0    0 -0.13376012770E+02  0.52003406306E+01  0.11377072452E+02  0.18313902864E+02  0.51100000000E-03 0. -1.
        -11    1    3    3    0    0 -0.10681124954E+02  0.27173896308E+02 -0.11434183947E+02  0.31356779708E+02  0.51100000000E-03 0.  1.
        -12    1    3    3    0    0  0.81096844874E+01 -0.48324969136E+01 -0.19075527102E+01  0.96311352523E+01  0.00000000000E+00 0.  1.
</event>
<event>
 7    1  0.6055092E-013  0.5930190E+02  0.7816164E-02  0.1266605E+00
        -11   -1    0    0    0    0  0.00000000000E+00  0.00000000000E+00  0.45593999997E+02  0.45594000000E+02  0.51100000000E-03 0.  1.
         11   -1    0    0    0    0 -0.00000000000E+00 -0.00000000000E+00 -0.45593999997E+02  0.45594000000E+02  0.51100000000E-03 0. -1.
    9900012    2    1    2    0    0  0.10400857335E+02  0.78287395185E+01 -0.29107669351E+02  0.59301899410E+02  0.49999918629E+02 0.  0.
        -12    1    1    2    0    0 -0.10400857335E+02 -0.78287395185E+01  0.29107669351E+02  0.31886100590E+02  0.00000000000E+00 0.  1.
         11    1    3    3    0    0  0.59488624685E+01 -0.18575005324E+02 -0.65865418810E+01  0.20586459668E+02  0.51100000000E-03 0. -1.
        -11    1    3    3    0    0 -0.52679215235E+01  0.75157508750E+01 -0.24704285972E+01  0.95047633378E+01  0.51100000000E-03 0.  1.
         12    1    3    3    0    0  0.97199163902E+01  0.18887993967E+02 -0.20050698873E+02  0.29210676405E+02  0.00000000000E+00 0. -1.
</event>
<event>
 7    1  0.6055092E-013  0.5930199E+02  0.7816164E-02  0.1266605E+00
        -11   -1    0    0    0    0  0.00000000000E+00  0.00000000000E+00  0.45593999997E+02  0.45594000000E+02  0.51100000000E-03 0.  1.
         11   -1    0    0    0    0 -0.00000000000E+00 -0.00000000000E+00 -0.45593999997E+02  0.45594000000E+02  0.51100000000E-03 0. -1.
    9900012    2    1    2    0    0  0.85233137055E+01 -0.30444688007E+02 -0.41462761985E+01  0.59301991929E+02  0.50000087361E+02 0.  0.
        -12    1    1    2    0    0 -0.85233137055E+01  0.30444688007E+02  0.41462761985E+01  0.31886008071E+02  0.00000000000E+00 0.  1.
         11    1    3    3    0    0  0.18525343987E+02 -0.57971730010E+01 -0.11919758993E+02  0.22778855094E+02  0.51100000000E-03 0. -1.
        -11    1    3    3    0    0 -0.62245398313E+01 -0.21046344559E+02  0.15733758979E+02  0.27004530865E+02  0.51100000000E-03 0.  1.
        -12    1    3    3    0    0 -0.37774904505E+01 -0.36011704472E+01 -0.79602761839E+01  0.95186059703E+01  0.00000000000E+00 0.  1.
</event>
<event>
 7    1  0.6055092E-013  0.5930194E+02  0.7816164E-02  0.1266605E+00
        -11   -1    0    0    0    0  0.00000000000E+00  0.00000000000E+00  0.45593999997E+02  0.45594000000E+02  0.51100000000E-03 0. -1.
         11   -1    0    0    0    0 -0.00000000000E+00 -0.00000000000E+00 -0.45593999997E+02  0.45594000000E+02  0.51100000000E-03 0.  1.
    9900012    2    1    2    0    0 -0.26241016340E+02 -0.15342349327E+02  0.96302791957E+01  0.59301938800E+02  0.49999990466E+02 0.  0.
        -12    1    1    2    0    0  0.26241016340E+02  0.15342349327E+02 -0.96302791957E+01  0.31886061200E+02  0.00000000000E+00 0.  1.
         11    1    3    3    0    0 -0.42795218881E+00  0.23095589622E+01  0.36701154684E+01  0.43574021490E+01  0.51100000000E-03 0. -1.
        -11    1    3    3    0    0  0.35163823069E+01 -0.22945866768E+02 -0.39277633232E+01  0.23543684317E+02  0.51100000000E-03 0.  1.
        -12    1    3    3    0    0 -0.29329446458E+02  0.52939584788E+01  0.98879270506E+01  0.31400852334E+02  0.00000000000E+00 0.  1.
</event>
<event>
 7    1  0.6055092E-013  0.5930196E+02  0.7816164E-02  0.1266605E+00
        -11   -1    0    0    0    0  0.00000000000E+00  0.00000000000E+00  0.45593999997E+02  0.45594000000E+02  0.51100000000E-03 0.  1.
         11   -1    0    0    0    0 -0.00000000000E+00 -0.00000000000E+00 -0.45593999997E+02  0.45594000000E+02  0.51100000000E-03 0. -1.
    9900012    2    1    2    0    0  0.20831935184E+02 -0.21843421556E+01 -0.24041193035E+02  0.59301955455E+02  0.50000020841E+02 0.  0.
        -12    1    1    2    0    0 -0.20831935184E+02  0.21843421556E+01  0.24041193035E+02  0.31886044545E+02  0.00000000000E+00 0.  1.
         11    1    3    3    0    0  0.12937770029E+02 -0.45637008026E+01 -0.43831920154E+01  0.14402278669E+02  0.51100000000E-03 0. -1.
        -11    1    3    3    0    0 -0.12711859045E+02 -0.95795037018E+01 -0.11794047583E+02  0.19810547953E+02  0.51100000000E-03 0.  1.
        -12    1    3    3    0    0  0.20606024199E+02  0.11958862349E+02 -0.78639534368E+01  0.25089128834E+02  0.00000000000E+00 0.  1.
</event>
<event>
 7    1  0.6055092E-013  0.5930195E+02  0.7816164E-02  0.1266605E+00
        -11   -1    0    0    0    0  0.00000000000E+00  0.00000000000E+00  0.45593999997E+02  0.45594000000E+02  0.51100000000E-03 0. -1.
         11   -1    0    0    0    0 -0.00000000000E+00 -0.00000000000E+00 -0.45593999997E+02  0.45594000000E+02  0.51100000000E-03 0.  1.
    9900012    2    1    2    0    0 -0.24196573652E+02 -0.95956778208E+01  0.18416543414E+02  0.59301948494E+02  0.50000008145E+02 0.  0.
        -12    1    1    2    0    0  0.24196573652E+02  0.95956778208E+01 -0.18416543414E+02  0.31886051506E+02  0.00000000000E+00 0.  1.
         11    1    3    3    0    0 -0.86023481983E+00 -0.44030633542E+01  0.28381720192E+02  0.28734108864E+02  0.51100000000E-03 0. -1.
        -11    1    3    3    0    0 -0.11124580367E+02  0.12875834958E+01 -0.12203493971E+02  0.16563194890E+02  0.51100000000E-03 0.  1.
        -12    1    3    3    0    0 -0.12211758465E+02 -0.64801979624E+01  0.22383171924E+01  0.14004644740E+02  0.00000000000E+00 0.  1.
</event>
<event>
 7    1  0.6055092E-013  0.5930198E+02  0.7816164E-02  0.1266605E+00
        -11   -1    0    0    0    0  0.00000000000E+00  0.00000000000E+00  0.45593999997E+02  0.45594000000E+02  0.51100000000E-03 0.  1.
         11   -1    0    0    0    0 -0.00000000000E+00 -0.00000000000E+00 -0.45593999997E+02  0.45594000000E+02  0.51100000000E-03 0. -1.
    9900012    2    1    2    0    0  0.17127049369E+02 -0.15840529823E+02 -0.21736146434E+02  0.59301980070E+02  0.50000065733E+02 0.  0.
        -12    1    1    2    0    0 -0.17127049369E+02  0.15840529823E+02  0.21736146434E+02  0.31886019930E+02  0.00000000000E+00 0.  1.
         11    1    3    3    0    0 -0.16390046299E+01 -0.92798130005E+01 -0.24299297797E+02  0.26062562023E+02  0.51100000000E-03 0. -1.
        -11    1    3    3    0    0  0.16707451240E+02  0.61669594809E+01 -0.47297753600E+01  0.18426640806E+02  0.51100000000E-03 0.  1.
         12    1    3    3    0    0  0.20586027585E+01 -0.12727676303E+02  0.72929267233E+01  0.14812777241E+02  0.00000000000E+00 0. -1.
</event>
<event>
 7    1  0.6055092E-013  0.5930194E+02  0.7816164E-02  0.1266605E+00
        -11   -1    0    0    0    0  0.00000000000E+00  0.00000000000E+00  0.45593999997E+02  0.45594000000E+02  0.51100000000E-03 0.  1.
         11   -1    0    0    0    0 -0.00000000000E+00 -0.00000000000E+00 -0.45593999997E+02  0.45594000000E+02  0.51100000000E-03 0. -1.
    9900012    2    1    2    0    0  0.51067422051E+01  0.22004517347E+02 -0.22504296022E+02  0.59301938169E+02  0.49999989316E+02 0.  0.
        -12    1    1    2    0    0 -0.51067422051E+01 -0.22004517347E+02  0.22504296022E+02  0.31886061831E+02  0.00000000000E+00 0.  1.
         11    1    3    3    0    0  0.22579619189E+02  0.99422238514E+00 -0.19893001687E+02  0.30109121496E+02  0.51100000000E-03 0. -1.
        -11    1    3    3    0    0 -0.89591622466E+01  0.39763337997E+01  0.84624692500E+00  0.98383917774E+01  0.51100000000E-03 0.  1.
         12    1    3    3    0    0 -0.85137147376E+01  0.17033961162E+02 -0.34575412606E+01  0.19354424896E+02  0.00000000000E+00 0. -1.
</event>
<event>
 7    1  0.6055092E-013  0.5930193E+02  0.7816164E-02  0.1266605E+00
        -11   -1    0    0    0    0  0.00000000000E+00  0.00000000000E+00  0.45593999997E+02  0.45594000000E+02  0.51100000000E-03 0. -1.
         11   -1    0    0    0    0 -0.00000000000E+00 -0.00000000000E+00 -0.45593999997E+02  0.45594000000E+02  0.51100000000E-03 0.  1.
    9900012    2    1    2    0    0  0.16148779738E+02  0.27213793886E+02  0.39176304852E+01  0.59301929478E+02  0.49999973465E+02 0.  0.
        -12    1    1    2    0    0 -0.16148779738E+02 -0.27213793886E+02 -0.39176304852E+01  0.31886070522E+02  0.00000000000E+00 0.  1.
         11    1    3    3    0    0  0.94495583988E+01 -0.13223970649E+02  0.32405819150E+00  0.16256462335E+02  0.51100000000E-03 0. -1.
        -11    1    3    3    0    0  0.23070467920E+01  0.36902805690E+02  0.47842964972E+01  0.37283093031E+02  0.51100000000E-03 0.  1.
         12    1    3    3    0    0  0.43921745471E+01  0.35349588448E+01 -0.11907242035E+01  0.57623741127E+01  0.00000000000E+00 0. -1.
</event>
<event>
 7    1  0.6055092E-013  0.5930194E+02  0.7816164E-02  0.1266605E+00
        -11   -1    0    0    0    0  0.00000000000E+00  0.00000000000E+00  0.45593999997E+02  0.45594000000E+02  0.51100000000E-03 0.  1.
         11   -1    0    0    0    0 -0.00000000000E+00 -0.00000000000E+00 -0.45593999997E+02  0.45594000000E+02  0.51100000000E-03 0. -1.
    9900012    2    1    2    0    0  0.75827762412E+01  0.23360094012E+02 -0.20335394969E+02  0.59301940721E+02  0.49999993970E+02 0.  0.
        -12    1    1    2    0    0 -0.75827762412E+01 -0.23360094012E+02  0.20335394969E+02  0.31886059279E+02  0.00000000000E+00 0.  1.
         11    1    3    3    0    0 -0.51164311764E+01  0.20876631444E+02 -0.68284127615E+01  0.22553022625E+02  0.51100000000E-03 0. -1.
        -11    1    3    3    0    0  0.23379443828E+02  0.23165480200E+01 -0.94275416139E+01  0.25314883559E+02  0.51100000000E-03 0.  1.
        -12    1    3    3    0    0 -0.10680236410E+02  0.16691454814E+00 -0.40794405939E+01  0.11434034538E+02  0.00000000000E+00 0.  1.
</event>
<event>
 7    1  0.6055092E-013  0.5930195E+02  0.7816164E-02  0.1266605E+00
        -11   -1    0    0    0    0  0.00000000000E+00  0.00000000000E+00  0.45593999997E+02  0.45594000000E+02  0.51100000000E-03 0.  1.
         11   -1    0    0    0    0 -0.00000000000E+00 -0.00000000000E+00 -0.45593999997E+02  0.45594000000E+02  0.51100000000E-03 0. -1.
    9900012    2    1    2    0    0  0.88231871481E+01  0.30353295653E+02  0.41891362198E+01  0.59301952100E+02  0.50000014722E+02 0.  0.
        -12    1    1    2    0    0 -0.88231871481E+01 -0.30353295653E+02 -0.41891362198E+01  0.31886047900E+02  0.00000000000E+00 0.  1.
         11    1    3    3    0    0 -0.10686602941E+02 -0.73693949790E+01 -0.65125019591E+01  0.14523227837E+02  0.51100000000E-03 0. -1.
        -11    1    3    3    0    0  0.47854706442E+01  0.32535847962E+01  0.29812275622E+01  0.65095515477E+01  0.51100000000E-03 0.  1.
         12    1    3    3    0    0  0.14724319445E+02  0.34469105835E+02  0.77204106167E+01  0.38269172715E+02  0.00000000000E+00 0. -1.
</event>
<event>
 7    1  0.6055092E-013  0.5930196E+02  0.7816164E-02  0.1266605E+00
        -11   -1    0    0    0    0  0.00000000000E+00  0.00000000000E+00  0.45593999997E+02  0.45594000000E+02  0.51100000000E-03 0.  1.
         11   -1    0    0    0    0 -0.00000000000E+00 -0.00000000000E+00 -0.45593999997E+02  0.45594000000E+02  0.51100000000E-03 0. -1.
    9900012    2    1    2    0    0 -0.24385809540E+02 -0.20335351322E+02 -0.29197930545E+01  0.59301962118E+02  0.50000032993E+02 0.  0.
        -12    1    1    2    0    0  0.24385809540E+02  0.20335351322E+02  0.29197930545E+01  0.31886037882E+02  0.00000000000E+00 0.  1.
         11    1    3    3    0    0 -0.18979661596E+02 -0.18102705768E+02 -0.79693658475E+01  0.27412520911E+02  0.51100000000E-03 0. -1.
        -11    1    3    3    0    0 -0.78616527204E+01 -0.30069423534E+01  0.17370500641E+02  0.19302372356E+02  0.51100000000E-03 0.  1.
        -12    1    3    3    0    0  0.24555047759E+01  0.77429679988E+00 -0.12320927848E+02  0.12587068851E+02  0.00000000000E+00 0.  1.
</event>
<event>
 7    1  0.6055092E-013  0.5930195E+02  0.7816164E-02  0.1266605E+00
        -11   -1    0    0    0    0  0.00000000000E+00  0.00000000000E+00  0.45593999997E+02  0.45594000000E+02  0.51100000000E-03 0.  1.
         11   -1    0    0    0    0 -0.00000000000E+00 -0.00000000000E+00 -0.45593999997E+02  0.45594000000E+02  0.51100000000E-03 0. -1.
    9900012    2    1    2    0    0 -0.23899156261E+02  0.20438507684E+02 -0.52742429844E+01  0.59301954378E+02  0.50000018877E+02 0.  0.
        -12    1    1    2    0    0  0.23899156261E+02 -0.20438507684E+02  0.52742429844E+01  0.31886045622E+02  0.00000000000E+00 0.  1.
         11    1    3    3    0    0 -0.37464467481E+02  0.22117066889E+02 -0.18916980188E+00  0.43506169182E+02  0.51100000000E-03 0. -1.
        -11    1    3    3    0    0  0.84122040562E+01  0.16342019085E+01 -0.43955310996E+01  0.96310169178E+01  0.51100000000E-03 0.  1.
         12    1    3    3    0    0  0.51531071646E+01 -0.33127611130E+01 -0.68954208299E+00  0.61647682784E+01  0.00000000000E+00 0. -1.
</event>
<event>
 7    1  0.6055092E-013  0.5930198E+02  0.7816164E-02  0.1266605E+00
        -11   -1    0    0    0    0  0.00000000000E+00  0.00000000000E+00  0.45593999997E+02  0.45594000000E+02  0.51100000000E-03 0.  1.
         11   -1    0    0    0    0 -0.00000000000E+00 -0.00000000000E+00 -0.45593999997E+02  0.45594000000E+02  0.51100000000E-03 0. -1.
    9900012    2    1    2    0    0  0.13425608986E+02 -0.28901262040E+02 -0.10901811434E+01  0.59301977685E+02  0.50000061383E+02 0.  0.
        -12    1    1    2    0    0 -0.13425608986E+02  0.28901262040E+02  0.10901811434E+01  0.31886022315E+02  0.00000000000E+00 0.  1.
         11    1    3    3    0    0 -0.97044872504E+01 -0.32712881180E+02 -0.36850514858E+01  0.34320391498E+02  0.51100000000E-03 0. -1.
        -11    1    3    3    0    0  0.30050562508E+01 -0.11445671561E+00  0.33004563105E+01  0.44650280547E+01  0.51100000000E-03 0.  1.
         12    1    3    3    0    0  0.20125039986E+02  0.39260758555E+01 -0.70558596808E+00  0.20516558133E+02  0.00000000000E+00 0. -1.
</event>
<event>
 7    1  0.6055092E-013  0.5930196E+02  0.7816164E-02  0.1266605E+00
        -11   -1    0    0    0    0  0.00000000000E+00  0.00000000000E+00  0.45593999997E+02  0.45594000000E+02  0.51100000000E-03 0.  1.
         11   -1    0    0    0    0 -0.00000000000E+00 -0.00000000000E+00 -0.45593999997E+02  0.45594000000E+02  0.51100000000E-03 0. -1.
    9900012    2    1    2    0    0 -0.19938339723E+02  0.22628963435E+02 -0.10349490627E+02  0.59301963349E+02  0.50000035238E+02 0.  0.
        -12    1    1    2    0    0  0.19938339723E+02 -0.22628963435E+02  0.10349490627E+02  0.31886036651E+02  0.00000000000E+00 0.  1.
         11    1    3    3    0    0 -0.14752810316E+02  0.13781137791E+02  0.10973002530E+02  0.22977640345E+02  0.51100000000E-03 0. -1.
        -11    1    3    3    0    0  0.76905728020E+01 -0.56663573370E+01 -0.10135921778E+02  0.13928008689E+02  0.51100000000E-03 0.  1.
        -12    1    3    3    0    0 -0.12876102209E+02  0.14514182981E+02 -0.11186571379E+02  0.22396314316E+02  0.00000000000E+00 0.  1.
</event>
<event>
 7    1  0.6055092E-013  0.5930195E+02  0.7816164E-02  0.1266605E+00
        -11   -1    0    0    0    0  0.00000000000E+00  0.00000000000E+00  0.45593999997E+02  0.45594000000E+02  0.51100000000E-03 0.  1.
         11   -1    0    0    0    0 -0.00000000000E+00 -0.00000000000E+00 -0.45593999997E+02  0.45594000000E+02  0.51100000000E-03 0. -1.
    9900012    2    1    2    0    0 -0.17997013254E+02 -0.36865803752E+01 -0.26062170915E+02  0.59301951111E+02  0.50000012918E+02 0.  0.
        -12    1    1    2    0    0  0.17997013254E+02  0.36865803752E+01  0.26062170915E+02  0.31886048889E+02  0.00000000000E+00 0.  1.
         11    1    3    3    0    0 -0.30923872495E+02  0.82542943338E+00 -0.24532465230E+02  0.39481756221E+02  0.51100000000E-03 0. -1.
        -11    1    3    3    0    0  0.66875823337E+01  0.18673140639E+00  0.59886144463E+01  0.89789826449E+01  0.51100000000E-03 0.  1.
         12    1    3    3    0    0  0.62392769070E+01 -0.46987412149E+01 -0.75183201321E+01  0.10841212245E+02  0.00000000000E+00 0. -1.
</event>
<event>
 7    1  0.6055092E-013  0.5930195E+02  0.7816164E-02  0.1266605E+00
        -11   -1    0    0    0    0  0.00000000000E+00  0.00000000000E+00  0.45593999997E+02  0.45594000000E+02  0.51100000000E-03 0.  1.
         11   -1    0    0    0    0 -0.00000000000E+00 -0.00000000000E+00 -0.45593999997E+02  0.45594000000E+02  0.51100000000E-03 0. -1.
    9900012    2    1    2    0    0 -0.20282987441E+02 -0.13448067752E+02 -0.20602671995E+02  0.59301949772E+02  0.50000010477E+02 0.  0.
        -12    1    1    2    0    0  0.20282987441E+02  0.13448067752E+02  0.20602671995E+02  0.31886050228E+02  0.00000000000E+00 0.  1.
         11    1    3    3    0    0 -0.49089216019E+01 -0.10705170041E+02 -0.31074660593E+02  0.33231501743E+02  0.51100000000E-03 0. -1.
        -11    1    3    3    0    0 -0.17327457913E+02 -0.60057243664E+01  0.12060493645E+02  0.21949146455E+02  0.51100000000E-03 0.  1.
        -12    1    3    3    0    0  0.19533920736E+01  0.32628266556E+01 -0.15885050479E+01  0.41213015742E+01  0.00000000000E+00 0.  1.
</event>
<event>
 7    1  0.6055092E-013  0.5930193E+02  0.7816164E-02  0.1266605E+00
        -11   -1    0    0    0    0  0.00000000000E+00  0.00000000000E+00  0.45593999997E+02  0.45594000000E+02  0.51100000000E-03 0. -1.
         11   -1    0    0    0    0 -0.00000000000E+00 -0.00000000000E+00 -0.45593999997E+02  0.45594000000E+02  0.51100000000E-03 0.  1.
    9900012    2    1    2    0    0 -0.37300623393E+01  0.24162024482E+02 -0.20469608981E+02  0.59301926489E+02  0.49999968013E+02 0.  0.
        -12    1    1    2    0    0  0.37300623393E+01 -0.24162024482E+02  0.20469608981E+02  0.31886073511E+02  0.00000000000E+00 0.  1.
         11    1    3    3    0    0 -0.13242223512E+02  0.29721046398E+02 -0.29685304466E+01  0.32672760149E+02  0.51100000000E-03 0. -1.
        -11    1    3    3    0    0  0.17551653474E+01  0.45458394024E+01 -0.11615780597E+02  0.12596492385E+02  0.51100000000E-03 0.  1.
         12    1    3    3    0    0  0.77569958249E+01 -0.10104861318E+02 -0.58852979371E+01  0.14032673954E+02  0.00000000000E+00 0. -1.
</event>
<event>
 7    1  0.6055092E-013  0.5930194E+02  0.7816164E-02  0.1266605E+00
        -11   -1    0    0    0    0  0.00000000000E+00  0.00000000000E+00  0.45593999997E+02  0.45594000000E+02  0.51100000000E-03 0.  1.
         11   -1    0    0    0    0 -0.00000000000E+00 -0.00000000000E+00 -0.45593999997E+02  0.45594000000E+02  0.51100000000E-03 0. -1.
    9900012    2    1    2    0    0 -0.11637866874E+02 -0.19246204115E+02  0.22602312901E+02  0.59301939305E+02  0.49999991386E+02 0.  0.
        -12    1    1    2    0    0  0.11637866874E+02  0.19246204115E+02 -0.22602312901E+02  0.31886060695E+02  0.00000000000E+00 0.  1.
         11    1    3    3    0    0 -0.12402320416E+02 -0.13553613270E+02 -0.10057095357E+02  0.20944286850E+02  0.51100000000E-03 0. -1.
        -11    1    3    3    0    0  0.50926883650E+01 -0.10551028054E+02  0.28007005858E+02  0.30358722720E+02  0.51100000000E-03 0.  1.
        -12    1    3    3    0    0 -0.43282348227E+01  0.48584372100E+01  0.46524023996E+01  0.79989297342E+01  0.00000000000E+00 0.  1.
</event>
<event>
 7    1  0.6055092E-013  0.5930195E+02  0.7816164E-02  0.1266605E+00
        -11   -1    0    0    0    0  0.00000000000E+00  0.00000000000E+00  0.45593999997E+02  0.45594000000E+02  0.51100000000E-03 0.  1.
         11   -1    0    0    0    0 -0.00000000000E+00 -0.00000000000E+00 -0.45593999997E+02  0.45594000000E+02  0.51100000000E-03 0. -1.
    9900012    2    1    2    0    0  0.28330046115E+02 -0.20492274394E+01 -0.14488944221E+02  0.59301947397E+02  0.50000006144E+02 0.  0.
        -12    1    1    2    0    0 -0.28330046115E+02  0.20492274394E+01  0.14488944221E+02  0.31886052603E+02  0.00000000000E+00 0.  1.
         11    1    3    3    0    0  0.70752720981E+01  0.43324642006E+01 -0.29248749003E+02  0.30402615674E+02  0.51100000000E-03 0. -1.
        -11    1    3    3    0    0  0.16232702346E+02  0.60205492261E+00  0.96146969333E+01  0.18876056076E+02  0.51100000000E-03 0.  1.
        -12    1    3    3    0    0  0.50220716708E+01 -0.69837465626E+01  0.51451078488E+01  0.10023275647E+02  0.00000000000E+00 0.  1.
</event>
<event>
 7    1  0.6055092E-013  0.5930194E+02  0.7816164E-02  0.1266605E+00
        -11   -1    0    0    0    0  0.00000000000E+00  0.00000000000E+00  0.45593999997E+02  0.45594000000E+02  0.51100000000E-03 0. -1.
         11   -1    0    0    0    0 -0.00000000000E+00 -0.00000000000E+00 -0.45593999997E+02  0.45594000000E+02  0.51100000000E-03 0.  1.
    9900012    2    1    2    0    0  0.18175224087E+02  0.17361648160E+02  0.19620276733E+02  0.59301939464E+02  0.49999991676E+02 0.  0.
        -12    1    1    2    0    0 -0.18175224087E+02 -0.17361648160E+02 -0.19620276733E+02  0.31886060536E+02  0.00000000000E+00 0.  1.
         11    1    3    3    0    0 -0.21703888029E+00  0.11053045616E+02  0.23893735694E+02  0.26327315263E+02  0.51100000000E-03 0. -1.
        -11    1    3    3    0    0 -0.30495888929E+01  0.67231954425E+01 -0.83491260036E+01  0.11144920577E+02  0.51100000000E-03 0.  1.
         12    1    3    3    0    0  0.21441851861E+02 -0.41459289848E+00  0.40756670423E+01  0.21829703624E+02  0.00000000000E+00 0. -1.
</event>
<event>
 7    1  0.6055092E-013  0.5930196E+02  0.7816164E-02  0.1266605E+00
        -11   -1    0    0    0    0  0.00000000000E+00  0.00000000000E+00  0.45593999997E+02  0.45594000000E+02  0.51100000000E-03 0.  1.
         11   -1    0    0    0    0 -0.00000000000E+00 -0.00000000000E+00 -0.45593999997E+02  0.45594000000E+02  0.51100000000E-03 0. -1.
    9900012    2    1    2    0    0 -0.19153758558E+02  0.20584405759E+02 -0.15037803812E+02  0.59301956488E+02  0.50000022725E+02 0.  0.
        -12    1    1    2    0    0  0.19153758558E+02 -0.20584405759E+02  0.15037803812E+02  0.31886043512E+02  0.00000000000E+00 0.  1.
         11    1    3    3    0    0 -0.26310648101E+02 -0.62495249549E+01  0.80865513679E+00  0.27054772020E+02  0.51100000000E-03 0. -1.
        -11    1    3    3    0    0  0.64813979831E+01  0.17096780333E+02 -0.11148192309E+02  0.21414728801E+02  0.51100000000E-03 0.  1.
         12    1    3    3    0    0  0.67549156020E+00  0.97371503804E+01 -0.46982666397E+01  0.10832455668E+02  0.00000000000E+00 0. -1.
</event>
<event>
 7    1  0.6055092E-013  0.5930221E+02  0.7816164E-02  0.1266604E+00
        -11   -1    0    0    0    0  0.00000000000E+00  0.00000000000E+00  0.45593999997E+02  0.45594000000E+02  0.51100000000E-03 0.  1.
         11   -1    0    0    0    0 -0.00000000000E+00 -0.00000000000E+00 -0.45593999997E+02  0.45594000000E+02  0.51100000000E-03 0. -1.
    9900012    2    1    2    0    0  0.52941048119E+01 -0.29684706913E+02  0.10367953892E+02  0.59302206327E+02  0.50000478368E+02 0.  0.
        -12    1    1    2    0    0 -0.52941048119E+01  0.29684706913E+02 -0.10367953892E+02  0.31885793673E+02  0.00000000000E+00 0.  1.
         11    1    3    3    0    0  0.61071379826E+01  0.10539655829E+02 -0.63209265041E+01  0.13723541506E+02  0.51100000000E-03 0. -1.
        -11    1    3    3    0    0  0.31214506800E+01 -0.25962891074E+02  0.47718455599E+01  0.26581679360E+02  0.51100000000E-03 0.  1.
         12    1    3    3    0    0 -0.39344838508E+01 -0.14261471668E+02  0.11917034837E+02  0.18996985461E+02  0.00000000000E+00 0. -1.
</event>
<event>
 7    1  0.6055092E-013  0.5930193E+02  0.7816164E-02  0.1266605E+00
        -11   -1    0    0    0    0  0.00000000000E+00  0.00000000000E+00  0.45593999997E+02  0.45594000000E+02  0.51100000000E-03 0. -1.
         11   -1    0    0    0    0 -0.00000000000E+00 -0.00000000000E+00 -0.45593999997E+02  0.45594000000E+02  0.51100000000E-03 0.  1.
    9900012    2    1    2    0    0 -0.11148829599E+02 -0.77146436997E+01  0.28860171610E+02  0.59301927269E+02  0.49999969436E+02 0.  0.
        -12    1    1    2    0    0  0.11148829599E+02  0.77146436997E+01 -0.28860171610E+02  0.31886072731E+02  0.00000000000E+00 0.  1.
         11    1    3    3    0    0  0.12334375533E+02  0.88291009153E+01  0.19373053833E+02  0.24604980346E+02  0.51100000000E-03 0. -1.
        -11    1    3    3    0    0  0.58464877080E+00 -0.63269967874E+01 -0.11720209858E+01  0.64611404555E+01  0.51100000000E-03 0.  1.
         12    1    3    3    0    0 -0.24067853903E+02 -0.10216747828E+02  0.10659138763E+02  0.28235806467E+02  0.00000000000E+00 0. -1.
</event>
<event>
 7    1  0.6055092E-013  0.5930193E+02  0.7816164E-02  0.1266605E+00
        -11   -1    0    0    0    0  0.00000000000E+00  0.00000000000E+00  0.45593999997E+02  0.45594000000E+02  0.51100000000E-03 0.  1.
         11   -1    0    0    0    0 -0.00000000000E+00 -0.00000000000E+00 -0.45593999997E+02  0.45594000000E+02  0.51100000000E-03 0. -1.
    9900012    2    1    2    0    0  0.30280021076E+02 -0.88894265657E+01  0.45628960324E+01  0.59301927786E+02  0.49999970379E+02 0.  0.
        -12    1    1    2    0    0 -0.30280021076E+02  0.88894265657E+01 -0.45628960324E+01  0.31886072214E+02  0.00000000000E+00 0.  1.
         11    1    3    3    0    0  0.39351784176E+01  0.11099436648E+02  0.22865687190E+00  0.11778599548E+02  0.51100000000E-03 0. -1.
        -11    1    3    3    0    0  0.89962654489E+01 -0.12968707711E+02  0.18303987815E+02  0.24169322330E+02  0.51100000000E-03 0.  1.
        -12    1    3    3    0    0  0.17348577209E+02 -0.70201555032E+01 -0.13969748654E+02  0.23354005908E+02  0.00000000000E+00 0.  1.
</event>
<event>
 7    1  0.6055092E-013  0.5930203E+02  0.7816164E-02  0.1266604E+00
        -11   -1    0    0    0    0  0.00000000000E+00  0.00000000000E+00  0.45593999997E+02  0.45594000000E+02  0.51100000000E-03 0.  1.
         11   -1    0    0    0    0 -0.00000000000E+00 -0.00000000000E+00 -0.45593999997E+02  0.45594000000E+02  0.51100000000E-03 0. -1.
    9900012    2    1    2    0    0 -0.15600636819E+02 -0.10343163489E+02 -0.25813836340E+02  0.59302030567E+02  0.50000157826E+02 0.  0.
        -12    1    1    2    0    0  0.15600636819E+02  0.10343163489E+02  0.25813836340E+02  0.31885969433E+02  0.00000000000E+00 0.  1.
         11    1    3    3    0    0 -0.18085317138E+02 -0.12872065877E+02 -0.28667546922E+02  0.36257371977E+02  0.51100000000E-03 0. -1.
        -11    1    3    3    0    0  0.59813854978E+01  0.96382503047E+00 -0.88526864890E+01  0.10727347738E+02  0.51100000000E-03 0.  1.
         12    1    3    3    0    0 -0.34967051786E+01  0.15650773573E+01  0.11706397071E+02  0.12317310852E+02  0.00000000000E+00 0. -1.
</event>
<event>
 7    1  0.6055092E-013  0.5930196E+02  0.7816164E-02  0.1266605E+00
        -11   -1    0    0    0    0  0.00000000000E+00  0.00000000000E+00  0.45593999997E+02  0.45594000000E+02  0.51100000000E-03 0.  1.
         11   -1    0    0    0    0 -0.00000000000E+00 -0.00000000000E+00 -0.45593999997E+02  0.45594000000E+02  0.51100000000E-03 0. -1.
    9900012    2    1    2    0    0  0.19958212276E+02 -0.21301342368E+02 -0.12831303574E+02  0.59301956418E+02  0.50000022596E+02 0.  0.
        -12    1    1    2    0    0 -0.19958212276E+02  0.21301342368E+02  0.12831303574E+02  0.31886043582E+02  0.00000000000E+00 0.  1.
         11    1    3    3    0    0 -0.66143389002E+01 -0.10996156141E+02 -0.20612951012E+02  0.24280829447E+02  0.51100000000E-03 0. -1.
        -11    1    3    3    0    0  0.16785729327E+02 -0.15667971333E+02  0.58506536430E+01  0.23695488665E+02  0.51100000000E-03 0.  1.
        -12    1    3    3    0    0  0.97868218487E+01  0.53627851059E+01  0.19309937949E+01  0.11325638305E+02  0.00000000000E+00 0.  1.
</event>
<event>
 7    1  0.6055092E-013  0.5930195E+02  0.7816164E-02  0.1266605E+00
        -11   -1    0    0    0    0  0.00000000000E+00  0.00000000000E+00  0.45593999997E+02  0.45594000000E+02  0.51100000000E-03 0.  1.
         11   -1    0    0    0    0 -0.00000000000E+00 -0.00000000000E+00 -0.45593999997E+02  0.45594000000E+02  0.51100000000E-03 0. -1.
    9900012    2    1    2    0    0  0.18697116509E+02 -0.91301675826E+01 -0.24161504807E+02  0.59301945990E+02  0.50000003578E+02 0.  0.
        -12    1    1    2    0    0 -0.18697116509E+02  0.91301675826E+01  0.24161504807E+02  0.31886054010E+02  0.00000000000E+00 0.  1.
         11    1    3    3    0    0 -0.29313849081E-02 -0.15834803472E+01 -0.16117648389E+01  0.22594700175E+01  0.51100000000E-03 0. -1.
        -11    1    3    3    0    0  0.25679881778E+02  0.30680935306E+01  0.53288295375E+01  0.26405793883E+02  0.51100000000E-03 0.  1.
        -12    1    3    3    0    0 -0.69798338850E+01 -0.10614780766E+02 -0.27878569506E+02  0.30636682089E+02  0.00000000000E+00 0.  1.
</event>
<event>
 7    1  0.6055092E-013  0.5930188E+02  0.7816164E-02  0.1266605E+00
        -11   -1    0    0    0    0  0.00000000000E+00  0.00000000000E+00  0.45593999997E+02  0.45594000000E+02  0.51100000000E-03 0. -1.
         11   -1    0    0    0    0 -0.00000000000E+00 -0.00000000000E+00 -0.45593999997E+02  0.45594000000E+02  0.51100000000E-03 0.  1.
    9900012    2    1    2    0    0 -0.26990331211E+02 -0.91787294228E+01  0.14282766613E+02  0.59301882726E+02  0.49999888200E+02 0.  0.
        -12    1    1    2    0    0  0.26990331211E+02  0.91787294228E+01 -0.14282766613E+02  0.31886117274E+02  0.00000000000E+00 0.  1.
         11    1    3    3    0    0 -0.16625543940E+02  0.53944183479E+01 -0.74631017305E+01  0.19005429443E+02  0.51100000000E-03 0. -1.
        -11    1    3    3    0    0 -0.29893215903E+01 -0.17104945014E+02  0.26112740642E+02  0.31359056293E+02  0.51100000000E-03 0.  1.
        -12    1    3    3    0    0 -0.73754656812E+01  0.25317972430E+01 -0.43668722983E+01  0.89373969904E+01  0.00000000000E+00 0.  1.
</event>
<event>
 7    1  0.6055092E-013  0.5930195E+02  0.7816164E-02  0.1266605E+00
        -11   -1    0    0    0    0  0.00000000000E+00  0.00000000000E+00  0.45593999997E+02  0.45594000000E+02  0.51100000000E-03 0.  1.
         11   -1    0    0    0    0 -0.00000000000E+00 -0.00000000000E+00 -0.45593999997E+02  0.45594000000E+02  0.51100000000E-03 0. -1.
    9900012    2    1    2    0    0 -0.12457114887E+02  0.23034137543E+02 -0.18192553480E+02  0.59301949668E+02  0.50000010287E+02 0.  0.
        -12    1    1    2    0    0  0.12457114887E+02 -0.23034137543E+02  0.18192553480E+02  0.31886050332E+02  0.00000000000E+00 0.  1.
         11    1    3    3    0    0  0.84558170230E+01  0.14554498059E+02 -0.42037315388E+01  0.17349513376E+02  0.51100000000E-03 0. -1.
        -11    1    3    3    0    0 -0.12557596747E+02 -0.99488919399E+01 -0.14647301074E+02  0.21707535925E+02  0.51100000000E-03 0.  1.
         12    1    3    3    0    0 -0.83553351631E+01  0.18428531423E+02  0.65847913303E+00  0.20244900367E+02  0.00000000000E+00 0. -1.
</event>
<event>
 7    1  0.6055092E-013  0.5930195E+02  0.7816164E-02  0.1266605E+00
        -11   -1    0    0    0    0  0.00000000000E+00  0.00000000000E+00  0.45593999997E+02  0.45594000000E+02  0.51100000000E-03 0.  1.
         11   -1    0    0    0    0 -0.00000000000E+00 -0.00000000000E+00 -0.45593999997E+02  0.45594000000E+02  0.51100000000E-03 0. -1.
    9900012    2    1    2    0    0 -0.16194542756E+02 -0.94356276870E+01 -0.25795852968E+02  0.59301947951E+02  0.50000007155E+02 0.  0.
        -12    1    1    2    0    0  0.16194542756E+02  0.94356276870E+01  0.25795852968E+02  0.31886052049E+02  0.00000000000E+00 0.  1.
         11    1    3    3    0    0 -0.24015022369E+02 -0.78278120149E+01 -0.11862218505E+02  0.27905343009E+02  0.51100000000E-03 0. -1.
        -11    1    3    3    0    0  0.50943106100E+01 -0.44124979485E+01  0.72244581626E+01  0.98800270617E+01  0.51100000000E-03 0.  1.
         12    1    3    3    0    0  0.27261690027E+01  0.28046822763E+01 -0.21158092626E+02  0.21516577880E+02  0.00000000000E+00 0. -1.
</event>
<event>
 7    1  0.6055092E-013  0.5930194E+02  0.7816164E-02  0.1266605E+00
        -11   -1    0    0    0    0  0.00000000000E+00  0.00000000000E+00  0.45593999997E+02  0.45594000000E+02  0.51100000000E-03 0.  1.
         11   -1    0    0    0    0 -0.00000000000E+00 -0.00000000000E+00 -0.45593999997E+02  0.45594000000E+02  0.51100000000E-03 0. -1.
    9900012    2    1    2    0    0  0.15606434932E+02  0.12423235971E+02 -0.24876154600E+02  0.59301942373E+02  0.49999996983E+02 0.  0.
        -12    1    1    2    0    0 -0.15606434932E+02 -0.12423235971E+02  0.24876154600E+02  0.31886057627E+02  0.00000000000E+00 0.  1.
         11    1    3    3    0    0 -0.42946295763E+01  0.35755771127E+01  0.11389309577E+02  0.12686408782E+02  0.51100000000E-03 0.  1.
        -11    1    3    3    0    0  0.21821135190E+02  0.32923552764E+01 -0.21883140653E+02  0.31078503654E+02  0.51100000000E-03 0. -1.
        -12    1    3    3    0    0 -0.19200706821E+01  0.55553035819E+01 -0.14382323524E+02  0.15537029937E+02  0.00000000000E+00 0.  1.
</event>
<event>
 7    1  0.6055092E-013  0.5930198E+02  0.7816164E-02  0.1266605E+00
        -11   -1    0    0    0    0  0.00000000000E+00  0.00000000000E+00  0.45593999997E+02  0.45594000000E+02  0.51100000000E-03 0. -1.
         11   -1    0    0    0    0 -0.00000000000E+00 -0.00000000000E+00 -0.45593999997E+02  0.45594000000E+02  0.51100000000E-03 0.  1.
    9900012    2    1    2    0    0 -0.26546185919E+02 -0.10038239893E+02  0.14534507382E+02  0.59301981875E+02  0.50000069025E+02 0.  0.
        -12    1    1    2    0    0  0.26546185919E+02  0.10038239893E+02 -0.14534507382E+02  0.31886018125E+02  0.00000000000E+00 0.  1.
         11    1    3    3    0    0 -0.27543919829E+02 -0.67773032767E+01  0.36333036986E+01  0.28597207124E+02  0.51100000000E-03 0. -1.
        -11    1    3    3    0    0  0.80715774351E+01 -0.13026682276E+02  0.14679389318E+01  0.15394793223E+02  0.51100000000E-03 0.  1.
        -12    1    3    3    0    0 -0.70738435249E+01  0.97657456598E+01  0.94332647517E+01  0.15309981528E+02  0.00000000000E+00 0.  1.
</event>
<event>
 7    1  0.6055092E-013  0.5930194E+02  0.7816164E-02  0.1266605E+00
        -11   -1    0    0    0    0  0.00000000000E+00  0.00000000000E+00  0.45593999997E+02  0.45594000000E+02  0.51100000000E-03 0. -1.
         11   -1    0    0    0    0 -0.00000000000E+00 -0.00000000000E+00 -0.45593999997E+02  0.45594000000E+02  0.51100000000E-03 0.  1.
    9900012    2    1    2    0    0 -0.23454006862E+02  0.21486898180E+02  0.22233668387E+01  0.59301943621E+02  0.49999999259E+02 0.  0.
        -12    1    1    2    0    0  0.23454006862E+02 -0.21486898180E+02 -0.22233668387E+01  0.31886056379E+02  0.00000000000E+00 0.  1.
         11    1    3    3    0    0 -0.20804231615E+02 -0.51465533028E+01 -0.23643724654E+01  0.21561384960E+02  0.51100000000E-03 0. -1.
        -11    1    3    3    0    0 -0.38218015528E-01  0.22227441384E+02 -0.84137313851E+01  0.23766604452E+02  0.51100000000E-03 0.  1.
         12    1    3    3    0    0 -0.26115572314E+01  0.44060100990E+01  0.13001470689E+02  0.13973954209E+02  0.00000000000E+00 0. -1.
</event>
<event>
 7    1  0.6055092E-013  0.5930196E+02  0.7816164E-02  0.1266605E+00
        -11   -1    0    0    0    0  0.00000000000E+00  0.00000000000E+00  0.45593999997E+02  0.45594000000E+02  0.51100000000E-03 0. -1.
         11   -1    0    0    0    0 -0.00000000000E+00 -0.00000000000E+00 -0.45593999997E+02  0.45594000000E+02  0.51100000000E-03 0.  1.
    9900012    2    1    2    0    0  0.22486970481E+02 -0.17366400753E+02  0.14472860231E+02  0.59301962307E+02  0.50000033337E+02 0.  0.
        -12    1    1    2    0    0 -0.22486970481E+02  0.17366400753E+02 -0.14472860231E+02  0.31886037693E+02  0.00000000000E+00 0.  1.
         11    1    3    3    0    0  0.16543765732E+02 -0.80300811026E+01  0.26969353274E+02  0.32642371290E+02  0.51100000000E-03 0. -1.
        -11    1    3    3    0    0  0.24247480304E+01  0.66784786325E+01 -0.45659559178E+01  0.84456754354E+01  0.51100000000E-03 0.  1.
         12    1    3    3    0    0  0.35184567184E+01 -0.16014798283E+02 -0.79305371262E+01  0.18213915582E+02  0.00000000000E+00 0. -1.
</event>
<event>
 7    1  0.6055092E-013  0.5930194E+02  0.7816164E-02  0.1266605E+00
        -11   -1    0    0    0    0  0.00000000000E+00  0.00000000000E+00  0.45593999997E+02  0.45594000000E+02  0.51100000000E-03 0.  1.
         11   -1    0    0    0    0 -0.00000000000E+00 -0.00000000000E+00 -0.45593999997E+02  0.45594000000E+02  0.51100000000E-03 0. -1.
    9900012    2    1    2    0    0 -0.22967530748E+02  0.15458642942E+02 -0.15819095189E+02  0.59301939051E+02  0.49999990923E+02 0.  0.
        -12    1    1    2    0    0  0.22967530748E+02 -0.15458642942E+02  0.15819095189E+02  0.31886060949E+02  0.00000000000E+00 0.  1.
         11    1    3    3    0    0 -0.11139147109E+02 -0.10977579464E+01 -0.26124715208E+02  0.28421583625E+02  0.51100000000E-03 0. -1.
        -11    1    3    3    0    0 -0.11161026962E+02  0.19054342463E+02  0.19899182802E+01  0.22171970245E+02  0.51100000000E-03 0.  1.
        -12    1    3    3    0    0 -0.66735667688E+00 -0.24979415738E+01  0.83157017384E+01  0.87083851800E+01  0.00000000000E+00 0.  1.
</event>
<event>
 7    1  0.6055092E-013  0.5930194E+02  0.7816164E-02  0.1266605E+00
        -11   -1    0    0    0    0  0.00000000000E+00  0.00000000000E+00  0.45593999997E+02  0.45594000000E+02  0.51100000000E-03 0.  1.
         11   -1    0    0    0    0 -0.00000000000E+00 -0.00000000000E+00 -0.45593999997E+02  0.45594000000E+02  0.51100000000E-03 0. -1.
    9900012    2    1    2    0    0  0.29873438284E+02  0.10428724230E+02 -0.39421163269E+01  0.59301939015E+02  0.49999990858E+02 0.  0.
        -12    1    1    2    0    0 -0.29873438284E+02 -0.10428724230E+02  0.39421163269E+01  0.31886060985E+02  0.00000000000E+00 0.  1.
         11    1    3    3    0    0  0.22802899696E+02  0.12300556019E+02  0.15652892380E+02  0.30270265163E+02  0.51100000000E-03 0. -1.
        -11    1    3    3    0    0  0.94110832800E+01 -0.83944336126E+01 -0.64332163305E+01  0.14157022173E+02  0.51100000000E-03 0.  1.
         12    1    3    3    0    0 -0.23405446920E+01  0.65226018237E+01 -0.13161792377E+02  0.14874651679E+02  0.00000000000E+00 0. -1.
</event>
<event>
 7    1  0.6055092E-013  0.5930220E+02  0.7816164E-02  0.1266604E+00
        -11   -1    0    0    0    0  0.00000000000E+00  0.00000000000E+00  0.45593999997E+02  0.45594000000E+02  0.51100000000E-03 0.  1.
         11   -1    0    0    0    0 -0.00000000000E+00 -0.00000000000E+00 -0.45593999997E+02  0.45594000000E+02  0.51100000000E-03 0. -1.
    9900012    2    1    2    0    0 -0.12549964147E+02  0.57543768134E+01 -0.28741780628E+02  0.59302197419E+02  0.50000462122E+02 0.  0.
        -12    1    1    2    0    0  0.12549964147E+02 -0.57543768134E+01  0.28741780628E+02  0.31885802581E+02  0.00000000000E+00 0.  1.
         11    1    3    3    0    0  0.14543248146E+01 -0.47811256774E+01 -0.29168550824E+02  0.29593556407E+02  0.51100000000E-03 0.  1.
        -11    1    3    3    0    0 -0.73545453532E+01  0.16237924318E+02  0.65822577598E+01  0.19002253577E+02  0.51100000000E-03 0. -1.
        -12    1    3    3    0    0 -0.66497436083E+01 -0.57024218273E+01 -0.61554875641E+01  0.10706387435E+02  0.00000000000E+00 0.  1.
</event>
<event>
 7    1  0.6055092E-013  0.5930192E+02  0.7816164E-02  0.1266605E+00
        -11   -1    0    0    0    0  0.00000000000E+00  0.00000000000E+00  0.45593999997E+02  0.45594000000E+02  0.51100000000E-03 0.  1.
         11   -1    0    0    0    0 -0.00000000000E+00 -0.00000000000E+00 -0.45593999997E+02  0.45594000000E+02  0.51100000000E-03 0. -1.
    9900012    2    1    2    0    0  0.24419731159E+02  0.11186836259E+02 -0.17182936128E+02  0.59301923581E+02  0.49999962711E+02 0.  0.
        -12    1    1    2    0    0 -0.24419731159E+02 -0.11186836259E+02  0.17182936128E+02  0.31886076419E+02  0.00000000000E+00 0.  1.
         11    1    3    3    0    0  0.14444575973E+02  0.15202263688E+02 -0.11569327703E+02  0.23950030063E+02  0.51100000000E-03 0.  1.
        -11    1    3    3    0    0 -0.35270015082E+01 -0.11734170197E+02 -0.13231773958E+02  0.18033588999E+02  0.51100000000E-03 0. -1.
        -12    1    3    3    0    0  0.13502156695E+02  0.77187427673E+01  0.76181655330E+01  0.17318304519E+02  0.00000000000E+00 0.  1.
</event>
<event>
 7    1  0.6055092E-013  0.5930193E+02  0.7816164E-02  0.1266605E+00
        -11   -1    0    0    0    0  0.00000000000E+00  0.00000000000E+00  0.45593999997E+02  0.45594000000E+02  0.51100000000E-03 0.  1.
         11   -1    0    0    0    0 -0.00000000000E+00 -0.00000000000E+00 -0.45593999997E+02  0.45594000000E+02  0.51100000000E-03 0. -1.
    9900012    2    1    2    0    0  0.21230109706E+02  0.20976073282E+01  0.23698181408E+02  0.59301932248E+02  0.49999978516E+02 0.  0.
        -12    1    1    2    0    0 -0.21230109706E+02 -0.20976073282E+01 -0.23698181408E+02  0.31886067752E+02  0.00000000000E+00 0.  1.
         11    1    3    3    0    0 -0.10382359199E+02 -0.21120199508E+01 -0.40888277504E+01  0.11356607039E+02  0.51100000000E-03 0. -1.
        -11    1    3    3    0    0  0.13349132440E+02 -0.64379579732E+01  0.21076032350E+02  0.25765204825E+02  0.51100000000E-03 0.  1.
         12    1    3    3    0    0  0.18263336465E+02  0.10647585252E+02  0.67109768088E+01  0.22180120384E+02  0.00000000000E+00 0. -1.
</event>
<event>
 7    1  0.6055092E-013  0.5930193E+02  0.7816164E-02  0.1266605E+00
        -11   -1    0    0    0    0  0.00000000000E+00  0.00000000000E+00  0.45593999997E+02  0.45594000000E+02  0.51100000000E-03 0.  1.
         11   -1    0    0    0    0 -0.00000000000E+00 -0.00000000000E+00 -0.45593999997E+02  0.45594000000E+02  0.51100000000E-03 0. -1.
    9900012    2    1    2    0    0  0.87864482678E+01  0.11572496576E+02 -0.28383046314E+02  0.59301926735E+02  0.49999968463E+02 0.  0.
        -12    1    1    2    0    0 -0.87864482678E+01 -0.11572496576E+02  0.28383046314E+02  0.31886073265E+02  0.00000000000E+00 0.  1.
         11    1    3    3    0    0 -0.39649271410E+01  0.16481457042E+02 -0.72556873964E+01  0.18439199368E+02  0.51100000000E-03 0. -1.
        -11    1    3    3    0    0  0.19531816147E+02 -0.13712317347E+02 -0.14301318617E+02  0.27821703820E+02  0.51100000000E-03 0.  1.
        -12    1    3    3    0    0 -0.67804407383E+01  0.88033568807E+01 -0.68260403003E+01  0.13041023547E+02  0.00000000000E+00 0.  1.
</event>
<event>
 7    1  0.6055092E-013  0.5930200E+02  0.7816164E-02  0.1266605E+00
        -11   -1    0    0    0    0  0.00000000000E+00  0.00000000000E+00  0.45593999997E+02  0.45594000000E+02  0.51100000000E-03 0.  1.
         11   -1    0    0    0    0 -0.00000000000E+00 -0.00000000000E+00 -0.45593999997E+02  0.45594000000E+02  0.51100000000E-03 0. -1.
    9900012    2    1    2    0    0 -0.15892218695E+02  0.12660810789E+02 -0.24573527840E+02  0.59301999696E+02  0.50000101526E+02 0.  0.
        -12    1    1    2    0    0  0.15892218695E+02 -0.12660810789E+02  0.24573527840E+02  0.31886000304E+02  0.00000000000E+00 0.  1.
         11    1    3    3    0    0 -0.43183416976E+00 -0.16619450328E+00 -0.20983098785E+02  0.20988199928E+02  0.51100000000E-03 0. -1.
        -11    1    3    3    0    0 -0.18048920763E+02  0.23753002263E+01  0.10161074246E+02  0.20848333794E+02  0.51100000000E-03 0.  1.
        -12    1    3    3    0    0  0.25885362378E+01  0.10451705066E+02 -0.13751503301E+02  0.17465465974E+02  0.00000000000E+00 0.  1.
</event>
<event>
 7    1  0.6055092E-013  0.5930196E+02  0.7816164E-02  0.1266605E+00
        -11   -1    0    0    0    0  0.00000000000E+00  0.00000000000E+00  0.45593999997E+02  0.45594000000E+02  0.51100000000E-03 0.  1.
         11   -1    0    0    0    0 -0.00000000000E+00 -0.00000000000E+00 -0.45593999997E+02  0.45594000000E+02  0.51100000000E-03 0. -1.
    9900012    2    1    2    0    0  0.30000096964E+02 -0.10125340690E+01  0.10755866367E+02  0.59301957530E+02  0.50000024625E+02 0.  0.
        -12    1    1    2    0    0 -0.30000096964E+02  0.10125340690E+01 -0.10755866367E+02  0.31886042470E+02  0.00000000000E+00 0.  1.
         11    1    3    3    0    0  0.22440584383E+02 -0.12393972618E+02 -0.55996885772E+01  0.26240177155E+02  0.51100000000E-03 0. -1.
        -11    1    3    3    0    0 -0.91669374457E+01  0.40420709948E+01  0.30801767215E+01  0.10481343853E+02  0.51100000000E-03 0.  1.
         12    1    3    3    0    0  0.16726450027E+02  0.73393675544E+01  0.13275378223E+02  0.22580436522E+02  0.00000000000E+00 0. -1.
</event>
<event>
 7    1  0.6055092E-013  0.5930194E+02  0.7816164E-02  0.1266605E+00
        -11   -1    0    0    0    0  0.00000000000E+00  0.00000000000E+00  0.45593999997E+02  0.45594000000E+02  0.51100000000E-03 0.  1.
         11   -1    0    0    0    0 -0.00000000000E+00 -0.00000000000E+00 -0.45593999997E+02  0.45594000000E+02  0.51100000000E-03 0. -1.
    9900012    2    1    2    0    0  0.23144614540E+02 -0.14215126977E+02 -0.16702635658E+02  0.59301936350E+02  0.49999985997E+02 0.  0.
        -12    1    1    2    0    0 -0.23144614540E+02  0.14215126977E+02  0.16702635658E+02  0.31886063650E+02  0.00000000000E+00 0.  1.
         11    1    3    3    0    0 -0.14388259334E+02 -0.10733370430E+01  0.10166128527E+01  0.14464009161E+02  0.51100000000E-03 0.  1.
        -11    1    3    3    0    0  0.29680755401E+02 -0.13317486122E+02 -0.17590448440E+02  0.36982787271E+02  0.51100000000E-03 0. -1.
         12    1    3    3    0    0  0.78521184731E+01  0.17569618768E+00 -0.12880007098E+00  0.78551399176E+01  0.00000000000E+00 0. -1.
</event>
<event>
 7    1  0.6055092E-013  0.5930194E+02  0.7816164E-02  0.1266605E+00
        -11   -1    0    0    0    0  0.00000000000E+00  0.00000000000E+00  0.45593999997E+02  0.45594000000E+02  0.51100000000E-03 0.  1.
         11   -1    0    0    0    0 -0.00000000000E+00 -0.00000000000E+00 -0.45593999997E+02  0.45594000000E+02  0.51100000000E-03 0. -1.
    9900012    2    1    2    0    0  0.28685735634E+02  0.47028228236E+01  0.13104685756E+02  0.59301940976E+02  0.49999994434E+02 0.  0.
        -12    1    1    2    0    0 -0.28685735634E+02 -0.47028228236E+01 -0.13104685756E+02  0.31886059024E+02  0.00000000000E+00 0.  1.
         11    1    3    3    0    0  0.28304456262E+01  0.11568817503E+02  0.25299322495E+01  0.12175775881E+02  0.51100000000E-03 0. -1.
        -11    1    3    3    0    0  0.33574785810E+02 -0.58465056447E+01  0.10730493484E+00  0.34080190507E+02  0.51100000000E-03 0.  1.
        -12    1    3    3    0    0 -0.77194958021E+01 -0.10194890349E+01  0.10467448571E+02  0.13045974587E+02  0.00000000000E+00 0.  1.
</event>
<event>
 7    1  0.6055092E-013  0.5930196E+02  0.7816164E-02  0.1266605E+00
        -11   -1    0    0    0    0  0.00000000000E+00  0.00000000000E+00  0.45593999997E+02  0.45594000000E+02  0.51100000000E-03 0.  1.
         11   -1    0    0    0    0 -0.00000000000E+00 -0.00000000000E+00 -0.45593999997E+02  0.45594000000E+02  0.51100000000E-03 0. -1.
    9900012    2    1    2    0    0  0.28437563338E+02  0.50759232337E+01 -0.13500353006E+02  0.59301960162E+02  0.50000029424E+02 0.  0.
        -12    1    1    2    0    0 -0.28437563338E+02 -0.50759232337E+01  0.13500353006E+02  0.31886039838E+02  0.00000000000E+00 0.  1.
         11    1    3    3    0    0 -0.36880149921E+01  0.34934929117E+00 -0.40085492830E+01  0.54582018215E+01  0.51100000000E-03 0. -1.
        -11    1    3    3    0    0  0.90412534176E+01  0.13789173295E+02  0.12504999766E+02  0.20694457783E+02  0.51100000000E-03 0.  1.
        -12    1    3    3    0    0  0.23084324913E+02 -0.90625993524E+01 -0.21996803489E+02  0.33149300557E+02  0.00000000000E+00 0.  1.
</event>
<event>
 7    1  0.6055092E-013  0.5930201E+02  0.7816164E-02  0.1266605E+00
        -11   -1    0    0    0    0  0.00000000000E+00  0.00000000000E+00  0.45593999997E+02  0.45594000000E+02  0.51100000000E-03 0.  1.
         11   -1    0    0    0    0 -0.00000000000E+00 -0.00000000000E+00 -0.45593999997E+02  0.45594000000E+02  0.51100000000E-03 0. -1.
    9900012    2    1    2    0    0 -0.25631628453E+02  0.17143524565E+02 -0.81139097072E+01  0.59302010249E+02  0.50000120772E+02 0.  0.
        -12    1    1    2    0    0  0.25631628453E+02 -0.17143524565E+02  0.81139097072E+01  0.31885989751E+02  0.00000000000E+00 0.  1.
         11    1    3    3    0    0 -0.32366268838E+02  0.28455174873E+02 -0.91459406359E+01  0.44055880038E+02  0.51100000000E-03 0. -1.
        -11    1    3    3    0    0  0.20208508372E+01 -0.65740001922E+00  0.27438987325E+01  0.34705897779E+01  0.51100000000E-03 0.  1.
         12    1    3    3    0    0  0.47137895479E+01 -0.10654250289E+02 -0.17118678037E+01  0.11775540434E+02  0.00000000000E+00 0. -1.
</event>
<event>
 7    1  0.6055092E-013  0.5930195E+02  0.7816164E-02  0.1266605E+00
        -11   -1    0    0    0    0  0.00000000000E+00  0.00000000000E+00  0.45593999997E+02  0.45594000000E+02  0.51100000000E-03 0.  1.
         11   -1    0    0    0    0 -0.00000000000E+00 -0.00000000000E+00 -0.45593999997E+02  0.45594000000E+02  0.51100000000E-03 0. -1.
    9900012    2    1    2    0    0  0.22908174164E+02 -0.18904703507E+02 -0.11599468833E+02  0.59301953908E+02  0.50000018018E+02 0.  0.
        -12    1    1    2    0    0 -0.22908174164E+02  0.18904703507E+02  0.11599468833E+02  0.31886046092E+02  0.00000000000E+00 0.  1.
         11    1    3    3    0    0 -0.76382416771E+01  0.10535416924E+02 -0.94022905674E+01  0.16054308264E+02  0.51100000000E-03 0. -1.
        -11    1    3    3    0    0  0.16350279552E+02 -0.13103094369E+02  0.24972796775E+01  0.21101164175E+02  0.51100000000E-03 0.  1.
         12    1    3    3    0    0  0.14196136289E+02 -0.16337026061E+02 -0.46944579427E+01  0.22146481468E+02  0.00000000000E+00 0. -1.
</event>
<event>
 7    1  0.6055092E-013  0.5930193E+02  0.7816164E-02  0.1266605E+00
        -11   -1    0    0    0    0  0.00000000000E+00  0.00000000000E+00  0.45593999997E+02  0.45594000000E+02  0.51100000000E-03 0.  1.
         11   -1    0    0    0    0 -0.00000000000E+00 -0.00000000000E+00 -0.45593999997E+02  0.45594000000E+02  0.51100000000E-03 0. -1.
    9900012    2    1    2    0    0  0.19988044944E+02  0.62272641816E+00 -0.24835698760E+02  0.59301926836E+02  0.49999968647E+02 0.  0.
        -12    1    1    2    0    0 -0.19988044944E+02 -0.62272641816E+00  0.24835698760E+02  0.31886073164E+02  0.00000000000E+00 0.  1.
         11    1    3    3    0    0 -0.63720855250E-01  0.81940838110E+01 -0.13505545597E+02  0.15797051370E+02  0.51100000000E-03 0. -1.
        -11    1    3    3    0    0 -0.27969350437E+01 -0.12277125476E+02  0.64742252377E+01  0.14158610393E+02  0.51100000000E-03 0.  1.
        -12    1    3    3    0    0  0.22848700843E+02  0.47057680829E+01 -0.17804378401E+02  0.29346265073E+02  0.00000000000E+00 0.  1.
</event>
<event>
 7    1  0.6055092E-013  0.5930174E+02  0.7816164E-02  0.1266605E+00
        -11   -1    0    0    0    0  0.00000000000E+00  0.00000000000E+00  0.45593999997E+02  0.45594000000E+02  0.51100000000E-03 0.  1.
         11   -1    0    0    0    0 -0.00000000000E+00 -0.00000000000E+00 -0.45593999997E+02  0.45594000000E+02  0.51100000000E-03 0. -1.
    9900012    2    1    2    0    0  0.84734248397E+00  0.58707486662E+00 -0.31869591802E+02  0.59301740768E+02  0.49999629302E+02 0.  0.
        -12    1    1    2    0    0 -0.84734248397E+00 -0.58707486662E+00  0.31869591802E+02  0.31886259232E+02  0.00000000000E+00 0.  1.
         11    1    3    3    0    0  0.64913074939E+01  0.13419167504E+02 -0.29341848395E+02  0.32911323234E+02  0.51100000000E-03 0. -1.
        -11    1    3    3    0    0 -0.10722659861E+01  0.16782651492E+01  0.77688374207E+01  0.80200475925E+01  0.51100000000E-03 0.  1.
        -12    1    3    3    0    0 -0.45716990239E+01 -0.14510357787E+02 -0.10296580827E+02  0.18370369942E+02  0.00000000000E+00 0.  1.
</event>
<event>
 7    1  0.6055092E-013  0.5930194E+02  0.7816164E-02  0.1266605E+00
        -11   -1    0    0    0    0  0.00000000000E+00  0.00000000000E+00  0.45593999997E+02  0.45594000000E+02  0.51100000000E-03 0. -1.
         11   -1    0    0    0    0 -0.00000000000E+00 -0.00000000000E+00 -0.45593999997E+02  0.45594000000E+02  0.51100000000E-03 0.  1.
    9900012    2    1    2    0    0 -0.13261285550E+02  0.16237829997E+02  0.24024819363E+02  0.59301940933E+02  0.49999994355E+02 0.  0.
        -12    1    1    2    0    0  0.13261285550E+02 -0.16237829997E+02 -0.24024819363E+02  0.31886059067E+02  0.00000000000E+00 0.  1.
         11    1    3    3    0    0 -0.24915207299E+01 -0.22363116382E+01  0.14715860202E+02  0.15091895409E+02  0.51100000000E-03 0. -1.
        -11    1    3    3    0    0 -0.54569916110E+01 -0.56502619133E+01 -0.10099769276E+02  0.12794903549E+02  0.51100000000E-03 0.  1.
        -12    1    3    3    0    0 -0.53127732091E+01  0.24124403548E+02  0.19408728437E+02  0.31415141975E+02  0.00000000000E+00 0.  1.
</event>
<event>
 7    1  0.6055092E-013  0.5930194E+02  0.7816164E-02  0.1266605E+00
        -11   -1    0    0    0    0  0.00000000000E+00  0.00000000000E+00  0.45593999997E+02  0.45594000000E+02  0.51100000000E-03 0. -1.
         11   -1    0    0    0    0 -0.00000000000E+00 -0.00000000000E+00 -0.45593999997E+02  0.45594000000E+02  0.51100000000E-03 0.  1.
    9900012    2    1    2    0    0  0.29012930267E+02  0.58411347352E+01  0.11868098485E+02  0.59301941302E+02  0.49999995028E+02 0.  0.
        -12    1    1    2    0    0 -0.29012930267E+02 -0.58411347352E+01 -0.11868098485E+02  0.31886058698E+02  0.00000000000E+00 0.  1.
         11    1    3    3    0    0 -0.51586080253E+01 -0.58824928778E+01  0.15984190611E+02  0.17796328525E+02  0.51100000000E-03 0. -1.
        -11    1    3    3    0    0  0.86049601929E+01  0.93248966526E+01 -0.87486082433E+01  0.15412241367E+02  0.51100000000E-03 0.  1.
         12    1    3    3    0    0  0.25566578099E+02  0.23987309603E+01  0.46325161170E+01  0.26093371409E+02  0.00000000000E+00 0. -1.
</event>
<event>
 7    1  0.6055092E-013  0.5930194E+02  0.7816164E-02  0.1266605E+00
        -11   -1    0    0    0    0  0.00000000000E+00  0.00000000000E+00  0.45593999997E+02  0.45594000000E+02  0.51100000000E-03 0.  1.
         11   -1    0    0    0    0 -0.00000000000E+00 -0.00000000000E+00 -0.45593999997E+02  0.45594000000E+02  0.51100000000E-03 0. -1.
    9900012    2    1    2    0    0 -0.61258118751E+01 -0.30129104404E+02 -0.84517768117E+01  0.59301936672E+02  0.49999986584E+02 0.  0.
        -12    1    1    2    0    0  0.61258118751E+01  0.30129104404E+02  0.84517768117E+01  0.31886063328E+02  0.00000000000E+00 0.  1.
         11    1    3    3    0    0  0.50493680288E+01 -0.63456940587E+01 -0.12547083424E+02  0.14939653720E+02  0.51100000000E-03 0. -1.
        -11    1    3    3    0    0 -0.36971606416E+01 -0.29323903130E+02  0.12244372393E+02  0.31991951287E+02  0.51100000000E-03 0.  1.
        -12    1    3    3    0    0 -0.74780192623E+01  0.55404927847E+01 -0.81490657811E+01  0.12370331664E+02  0.00000000000E+00 0.  1.
</event>
<event>
 7    1  0.6416478E-013  0.5930201E+02  0.7816164E-02  0.1266605E+00
        -11   -1    0    0    0    0  0.00000000000E+00  0.00000000000E+00  0.45593999997E+02  0.45594000000E+02  0.51100000000E-03 0. -1.
         11   -1    0    0    0    0 -0.00000000000E+00 -0.00000000000E+00 -0.45593999997E+02  0.45594000000E+02  0.51100000000E-03 0.  1.
    9900012    2    1    2    0    0 -0.18519960778E+02 -0.18866181774E+02  0.17826790294E+02  0.59302012260E+02  0.50000124439E+02 0.  0.
        -12    1    1    2    0    0  0.18519960778E+02  0.18866181774E+02 -0.17826790294E+02  0.31885987740E+02  0.00000000000E+00 0.  1.
         11    1    3    3    0    0 -0.11503813719E+02  0.31035983044E+01  0.22494483875E+02  0.25455291348E+02  0.51100000000E-03 0. -1.
        -11    1    3    3    0    0 -0.13476263736E+01 -0.29340870311E+01 -0.12188367041E+02  0.12608776901E+02  0.51100000000E-03 0.  1.
        -12    1    3    3    0    0 -0.56685206852E+01 -0.19035693047E+02  0.75206734598E+01  0.21237944012E+02  0.00000000000E+00 0.  1.
</event>
<event>
 7    1  0.6055092E-013  0.5930175E+02  0.7816164E-02  0.1266605E+00
        -11   -1    0    0    0    0  0.00000000000E+00  0.00000000000E+00  0.45593999997E+02  0.45594000000E+02  0.51100000000E-03 0.  1.
         11   -1    0    0    0    0 -0.00000000000E+00 -0.00000000000E+00 -0.45593999997E+02  0.45594000000E+02  0.51100000000E-03 0. -1.
    9900012    2    1    2    0    0  0.16474008817E+02 -0.27211400203E+02  0.22090489184E+01  0.59301746463E+02  0.49999639688E+02 0.  0.
        -12    1    1    2    0    0 -0.16474008817E+02  0.27211400203E+02 -0.22090489184E+01  0.31886253537E+02  0.00000000000E+00 0.  1.
         11    1    3    3    0    0  0.12404648474E+02 -0.26884416371E+02 -0.82580043923E+01  0.30738278810E+02  0.51100000000E-03 0. -1.
        -11    1    3    3    0    0  0.12326059242E+02  0.36444770494E-02  0.14777603683E+02  0.19243422787E+02  0.51100000000E-03 0.  1.
        -12    1    3    3    0    0 -0.82566988989E+01 -0.33062830904E+00 -0.43105503721E+01  0.93200448656E+01  0.00000000000E+00 0.  1.
</event>
<event>
 7    1  0.6055092E-013  0.5930206E+02  0.7816164E-02  0.1266604E+00
        -11   -1    0    0    0    0  0.00000000000E+00  0.00000000000E+00  0.45593999997E+02  0.45594000000E+02  0.51100000000E-03 0.  1.
         11   -1    0    0    0    0 -0.00000000000E+00 -0.00000000000E+00 -0.45593999997E+02  0.45594000000E+02  0.51100000000E-03 0. -1.
    9900012    2    1    2    0    0 -0.13003691391E+02  0.26302333446E+02  0.12482168205E+02  0.59302058621E+02  0.50000208991E+02 0.  0.
        -12    1    1    2    0    0  0.13003691391E+02 -0.26302333446E+02 -0.12482168205E+02  0.31885941379E+02  0.00000000000E+00 0.  1.
         11    1    3    3    0    0 -0.20751044261E+02  0.11327638681E+02  0.19399317478E+02  0.30581935107E+02  0.51100000000E-03 0. -1.
        -11    1    3    3    0    0  0.88099716234E+01  0.14289388327E+02  0.43827818918E+01  0.17349668473E+02  0.51100000000E-03 0.  1.
         12    1    3    3    0    0 -0.10626187534E+01  0.68530643741E+00 -0.11299931164E+02  0.11370455041E+02  0.00000000000E+00 0. -1.
</event>
<event>
 7    1  0.6055092E-013  0.5930198E+02  0.7816164E-02  0.1266605E+00
        -11   -1    0    0    0    0  0.00000000000E+00  0.00000000000E+00  0.45593999997E+02  0.45594000000E+02  0.51100000000E-03 0.  1.
         11   -1    0    0    0    0 -0.00000000000E+00 -0.00000000000E+00 -0.45593999997E+02  0.45594000000E+02  0.51100000000E-03 0. -1.
    9900012    2    1    2    0    0  0.17176724656E+02  0.24453732715E+02 -0.11121765251E+02  0.59301975226E+02  0.50000056897E+02 0.  0.
        -12    1    1    2    0    0 -0.17176724656E+02 -0.24453732715E+02  0.11121765251E+02  0.31886024774E+02  0.00000000000E+00 0.  1.
         11    1    3    3    0    0  0.18492177473E+02  0.32888746054E+02  0.43874946105E+01  0.37985264958E+02  0.51100000000E-03 0. -1.
        -11    1    3    3    0    0  0.71665846213E+00 -0.71481416351E+01 -0.17021568853E+02  0.18475479281E+02  0.51100000000E-03 0.  1.
         12    1    3    3    0    0 -0.20321112791E+01 -0.12868717044E+01  0.15123089909E+01  0.28412309864E+01  0.00000000000E+00 0. -1.
</event>
<event>
 7    1  0.6055092E-013  0.5930192E+02  0.7816164E-02  0.1266605E+00
        -11   -1    0    0    0    0  0.00000000000E+00  0.00000000000E+00  0.45593999997E+02  0.45594000000E+02  0.51100000000E-03 0. -1.
         11   -1    0    0    0    0 -0.00000000000E+00 -0.00000000000E+00 -0.45593999997E+02  0.45594000000E+02  0.51100000000E-03 0.  1.
    9900012    2    1    2    0    0 -0.27426421392E+02 -0.11652324724E+02  0.11346230443E+02  0.59301918285E+02  0.49999953051E+02 0.  0.
        -12    1    1    2    0    0  0.27426421392E+02  0.11652324724E+02 -0.11346230443E+02  0.31886081715E+02  0.00000000000E+00 0.  1.
         11    1    3    3    0    0 -0.35929659304E+02 -0.64771878418E+01  0.17446841340E+02  0.40463398931E+02  0.51100000000E-03 0. -1.
        -11    1    3    3    0    0 -0.13307250647E+01 -0.73027585098E+01 -0.79948721582E+00  0.74659420785E+01  0.51100000000E-03 0.  1.
         12    1    3    3    0    0  0.98339629764E+01  0.21276216275E+01 -0.53011236808E+01  0.11372577276E+02  0.00000000000E+00 0. -1.
</event>
<event>
 7    1  0.6055092E-013  0.5930196E+02  0.7816164E-02  0.1266605E+00
        -11   -1    0    0    0    0  0.00000000000E+00  0.00000000000E+00  0.45593999997E+02  0.45594000000E+02  0.51100000000E-03 0.  1.
         11   -1    0    0    0    0 -0.00000000000E+00 -0.00000000000E+00 -0.45593999997E+02  0.45594000000E+02  0.51100000000E-03 0. -1.
    9900012    2    1    2    0    0 -0.16806216392E+02 -0.17350041489E+02 -0.20814582781E+02  0.59301957513E+02  0.50000024595E+02 0.  0.
        -12    1    1    2    0    0  0.16806216392E+02  0.17350041489E+02  0.20814582781E+02  0.31886042487E+02  0.00000000000E+00 0.  1.
         11    1    3    3    0    0  0.14261166061E+01  0.53281723407E+01 -0.27421671342E+01  0.61597654110E+01  0.51100000000E-03 0. -1.
        -11    1    3    3    0    0 -0.16240924358E+02 -0.16199263393E+02 -0.30989005541E+02  0.38555184129E+02  0.51100000000E-03 0.  1.
        -12    1    3    3    0    0 -0.19914086396E+01 -0.64789504371E+01  0.12916589894E+02  0.14587007974E+02  0.00000000000E+00 0.  1.
</event>
<event>
 7    1  0.6055092E-013  0.5930192E+02  0.7816164E-02  0.1266605E+00
        -11   -1    0    0    0    0  0.00000000000E+00  0.00000000000E+00  0.45593999997E+02  0.45594000000E+02  0.51100000000E-03 0.  1.
         11   -1    0    0    0    0 -0.00000000000E+00 -0.00000000000E+00 -0.45593999997E+02  0.45594000000E+02  0.51100000000E-03 0. -1.
    9900012    2    1    2    0    0  0.11958255017E+01 -0.13369183281E+02 -0.28923290678E+02  0.59301924609E+02  0.49999964584E+02 0.  0.
        -12    1    1    2    0    0 -0.11958255017E+01  0.13369183281E+02  0.28923290678E+02  0.31886075391E+02  0.00000000000E+00 0.  1.
         11    1    3    3    0    0  0.11618629426E+02 -0.52568421422E+01 -0.29391968340E+02  0.32039268753E+02  0.51100000000E-03 0. -1.
        -11    1    3    3    0    0 -0.14465383050E+02 -0.11588907832E+02 -0.54272920856E+01  0.19313352665E+02  0.51100000000E-03 0.  1.
        -12    1    3    3    0    0  0.40425791255E+01  0.34765666936E+01  0.58959697478E+01  0.79493031913E+01  0.00000000000E+00 0.  1.
</event>
<event>
 7    1  0.6055092E-013  0.5930195E+02  0.7816164E-02  0.1266605E+00
        -11   -1    0    0    0    0  0.00000000000E+00  0.00000000000E+00  0.45593999997E+02  0.45594000000E+02  0.51100000000E-03 0.  1.
         11   -1    0    0    0    0 -0.00000000000E+00 -0.00000000000E+00 -0.45593999997E+02  0.45594000000E+02  0.51100000000E-03 0. -1.
    9900012    2    1    2    0    0 -0.12378942979E+02 -0.23922297132E+01 -0.29287526288E+02  0.59301949941E+02  0.50000010785E+02 0.  0.
        -12    1    1    2    0    0  0.12378942979E+02  0.23922297132E+01  0.29287526288E+02  0.31886050059E+02  0.00000000000E+00 0.  1.
         11    1    3    3    0    0 -0.12020249345E+02  0.17955003944E+01 -0.42876438508E+02  0.44565672837E+02  0.51100000000E-03 0. -1.
        -11    1    3    3    0    0 -0.97519738612E+00 -0.27302186662E+01  0.35974070429E+01  0.46202209471E+01  0.51100000000E-03 0.  1.
         12    1    3    3    0    0  0.61650375275E+00 -0.14575114415E+01  0.99915051771E+01  0.10116056158E+02  0.00000000000E+00 0. -1.
</event>
<event>
 7    1  0.6055092E-013  0.5930196E+02  0.7816164E-02  0.1266605E+00
        -11   -1    0    0    0    0  0.00000000000E+00  0.00000000000E+00  0.45593999997E+02  0.45594000000E+02  0.51100000000E-03 0. -1.
         11   -1    0    0    0    0 -0.00000000000E+00 -0.00000000000E+00 -0.45593999997E+02  0.45594000000E+02  0.51100000000E-03 0.  1.
    9900012    2    1    2    0    0  0.87896470944E+01 -0.20725994570E+02  0.22580845999E+02  0.59301963040E+02  0.50000034674E+02 0.  0.
        -12    1    1    2    0    0 -0.87896470944E+01  0.20725994570E+02 -0.22580845999E+02  0.31886036960E+02  0.00000000000E+00 0.  1.
         11    1    3    3    0    0  0.11034941335E+02 -0.71187696505E+01  0.24612998077E+01  0.13360569173E+02  0.51100000000E-03 0. -1.
        -11    1    3    3    0    0 -0.10650023361E+02 -0.41320970535E+00  0.26867666290E+02  0.28904415441E+02  0.51100000000E-03 0.  1.
        -12    1    3    3    0    0  0.84047291197E+01 -0.13194015214E+02 -0.67481200984E+01  0.17036978427E+02  0.00000000000E+00 0.  1.
</event>
<event>
 7    1  0.6055092E-013  0.5930195E+02  0.7816164E-02  0.1266605E+00
        -11   -1    0    0    0    0  0.00000000000E+00  0.00000000000E+00  0.45593999997E+02  0.45594000000E+02  0.51100000000E-03 0. -1.
         11   -1    0    0    0    0 -0.00000000000E+00 -0.00000000000E+00 -0.45593999997E+02  0.45594000000E+02  0.51100000000E-03 0.  1.
    9900012    2    1    2    0    0  0.13919980244E+01  0.28094175346E+01  0.31731520502E+02  0.59301954796E+02  0.50000019639E+02 0.  0.
        -12    1    1    2    0    0 -0.13919980244E+01 -0.28094175346E+01 -0.31731520502E+02  0.31886045204E+02  0.00000000000E+00 0.  1.
         11    1    3    3    0    0  0.99278706007E+01 -0.13536910765E+02  0.36102218702E+02  0.39814328616E+02  0.51100000000E-03 0. -1.
        -11    1    3    3    0    0 -0.25241885669E+01  0.87902706083E+01 -0.75334610026E+00  0.91764871218E+01  0.51100000000E-03 0.  1.
         12    1    3    3    0    0 -0.60116840094E+01  0.75560576912E+01 -0.36173520993E+01  0.10311139058E+02  0.00000000000E+00 0. -1.
</event>
<event>
 7    1  0.6055092E-013  0.5930196E+02  0.7816164E-02  0.1266605E+00
        -11   -1    0    0    0    0  0.00000000000E+00  0.00000000000E+00  0.45593999997E+02  0.45594000000E+02  0.51100000000E-03 0. -1.
         11   -1    0    0    0    0 -0.00000000000E+00 -0.00000000000E+00 -0.45593999997E+02  0.45594000000E+02  0.51100000000E-03 0.  1.
    9900012    2    1    2    0    0 -0.79721779258E+01 -0.30342550837E+02  0.57003125013E+01  0.59301959563E+02  0.50000028332E+02 0.  0.
        -12    1    1    2    0    0  0.79721779258E+01  0.30342550837E+02 -0.57003125013E+01  0.31886040437E+02  0.00000000000E+00 0.  1.
         11    1    3    3    0    0 -0.57744801061E+01 -0.90246161506E+00 -0.32461361644E+01  0.66855409445E+01  0.51100000000E-03 0. -1.
        -11    1    3    3    0    0  0.10451871426E+02  0.73877640614E+01  0.73514483648E+00  0.12820339790E+02  0.51100000000E-03 0.  1.
        -12    1    3    3    0    0 -0.12649569245E+02 -0.36827853283E+02  0.82113038293E+01  0.39796078828E+02  0.00000000000E+00 0.  1.
</event>
<event>
 7    1  0.6055092E-013  0.5930189E+02  0.7816164E-02  0.1266605E+00
        -11   -1    0    0    0    0  0.00000000000E+00  0.00000000000E+00  0.45593999997E+02  0.45594000000E+02  0.51100000000E-03 0.  1.
         11   -1    0    0    0    0 -0.00000000000E+00 -0.00000000000E+00 -0.45593999997E+02  0.45594000000E+02  0.51100000000E-03 0. -1.
    9900012    2    1    2    0    0  0.23895553056E+02  0.13594470016E+02 -0.16152925587E+02  0.59301888981E+02  0.49999899609E+02 0.  0.
        -12    1    1    2    0    0 -0.23895553056E+02 -0.13594470016E+02  0.16152925587E+02  0.31886111019E+02  0.00000000000E+00 0.  1.
         11    1    3    3    0    0  0.88826570035E+01  0.46629574778E+01 -0.98898664776E+01  0.14087378290E+02  0.51100000000E-03 0. -1.
        -11    1    3    3    0    0 -0.11156172052E+02 -0.39545391431E+01  0.63529397352E+01  0.13433480496E+02  0.51100000000E-03 0.  1.
        -12    1    3    3    0    0  0.26169068105E+02  0.12886051681E+02 -0.12615998844E+02  0.31781030195E+02  0.00000000000E+00 0.  1.
</event>
<event>
 7    1  0.6055092E-013  0.5930197E+02  0.7816164E-02  0.1266605E+00
        -11   -1    0    0    0    0  0.00000000000E+00  0.00000000000E+00  0.45593999997E+02  0.45594000000E+02  0.51100000000E-03 0. -1.
         11   -1    0    0    0    0 -0.00000000000E+00 -0.00000000000E+00 -0.45593999997E+02  0.45594000000E+02  0.51100000000E-03 0.  1.
    9900012    2    1    2    0    0  0.23451801952E+02 -0.16907610874E+02  0.13448598319E+02  0.59301966741E+02  0.50000041423E+02 0.  0.
        -12    1    1    2    0    0 -0.23451801952E+02  0.16907610874E+02 -0.13448598319E+02  0.31886033259E+02  0.00000000000E+00 0.  1.
         11    1    3    3    0    0  0.15108715744E+02  0.48467834062E+01  0.26242734234E+02  0.30666687157E+02  0.51100000000E-03 0. -1.
        -11    1    3    3    0    0  0.99665011620E+00 -0.43856710043E+01 -0.79990479893E+01  0.91767200354E+01  0.51100000000E-03 0.  1.
         12    1    3    3    0    0  0.73464360914E+01 -0.17368723276E+02 -0.47950879258E+01  0.19458559548E+02  0.00000000000E+00 0. -1.
</event>
<event>
 7    1  0.6055092E-013  0.5930193E+02  0.7816164E-02  0.1266605E+00
        -11   -1    0    0    0    0  0.00000000000E+00  0.00000000000E+00  0.45593999997E+02  0.45594000000E+02  0.51100000000E-03 0.  1.
         11   -1    0    0    0    0 -0.00000000000E+00 -0.00000000000E+00 -0.45593999997E+02  0.45594000000E+02  0.51100000000E-03 0. -1.
    9900012    2    1    2    0    0  0.55201906597E+01 -0.23929283026E+02 -0.20338103211E+02  0.59301928852E+02  0.49999972323E+02 0.  0.
        -12    1    1    2    0    0 -0.55201906597E+01  0.23929283026E+02  0.20338103211E+02  0.31886071148E+02  0.00000000000E+00 0.  1.
         11    1    3    3    0    0  0.15566545251E+02 -0.19753149217E+02 -0.20232572007E+02  0.32277874857E+02  0.51100000000E-03 0. -1.
        -11    1    3    3    0    0 -0.16351018352E+02  0.38635576422E+01  0.20242190828E+00  0.16802495460E+02  0.51100000000E-03 0.  1.
        -12    1    3    3    0    0  0.63046637604E+01 -0.80396914510E+01 -0.30795311274E+00  0.10221558535E+02  0.00000000000E+00 0.  1.
</event>
<event>
 7    1  0.6055092E-013  0.5930195E+02  0.7816164E-02  0.1266605E+00
        -11   -1    0    0    0    0  0.00000000000E+00  0.00000000000E+00  0.45593999997E+02  0.45594000000E+02  0.51100000000E-03 0.  1.
         11   -1    0    0    0    0 -0.00000000000E+00 -0.00000000000E+00 -0.45593999997E+02  0.45594000000E+02  0.51100000000E-03 0. -1.
    9900012    2    1    2    0    0 -0.24748332396E+02 -0.87155546444E+01 -0.18118477726E+02  0.59301951573E+02  0.50000013761E+02 0.  0.
        -12    1    1    2    0    0  0.24748332396E+02  0.87155546444E+01  0.18118477726E+02  0.31886048427E+02  0.00000000000E+00 0.  1.
         11    1    3    3    0    0 -0.14392688642E+01 -0.15771673400E+02 -0.11139134517E+02  0.19362269876E+02  0.51100000000E-03 0. -1.
        -11    1    3    3    0    0 -0.30914917382E+02  0.51057245230E+01 -0.42179440226E+01  0.31616318440E+02  0.51100000000E-03 0.  1.
         12    1    3    3    0    0  0.76058538497E+01  0.19503942330E+01 -0.27613991871E+01  0.83233632576E+01  0.00000000000E+00 0. -1.
</event>
<event>
 7    1  0.6055092E-013  0.5930194E+02  0.7816164E-02  0.1266605E+00
        -11   -1    0    0    0    0  0.00000000000E+00  0.00000000000E+00  0.45593999997E+02  0.45594000000E+02  0.51100000000E-03 0.  1.
         11   -1    0    0    0    0 -0.00000000000E+00 -0.00000000000E+00 -0.45593999997E+02  0.45594000000E+02  0.51100000000E-03 0. -1.
    9900012    2    1    2    0    0  0.11613085780E+02 -0.18059711900E+02 -0.23573373606E+02  0.59301938807E+02  0.49999990478E+02 0.  0.
        -12    1    1    2    0    0 -0.11613085780E+02  0.18059711900E+02  0.23573373606E+02  0.31886061193E+02  0.00000000000E+00 0.  1.
         11    1    3    3    0    0  0.17849968663E+02 -0.35828137110E+01 -0.10212219446E+02  0.20874562550E+02  0.51100000000E-03 0. -1.
        -11    1    3    3    0    0 -0.72902990628E+01 -0.22852173268E+02 -0.17208626244E+01  0.24048527022E+02  0.51100000000E-03 0.  1.
        -12    1    3    3    0    0  0.10534161801E+01  0.83752750787E+01 -0.11640291535E+02  0.14378849235E+02  0.00000000000E+00 0.  1.
</event>
<event>
 7    1  0.6055092E-013  0.5930191E+02  0.7816164E-02  0.1266605E+00
        -11   -1    0    0    0    0  0.00000000000E+00  0.00000000000E+00  0.45593999997E+02  0.45594000000E+02  0.51100000000E-03 0.  1.
         11   -1    0    0    0    0 -0.00000000000E+00 -0.00000000000E+00 -0.45593999997E+02  0.45594000000E+02  0.51100000000E-03 0. -1.
    9900012    2    1    2    0    0  0.55215867473E+01  0.51568051588E+01 -0.30978093581E+02  0.59301908336E+02  0.49999934907E+02 0.  0.
        -12    1    1    2    0    0 -0.55215867473E+01 -0.51568051588E+01  0.30978093581E+02  0.31886091664E+02  0.00000000000E+00 0.  1.
         11    1    3    3    0    0 -0.73747320926E+01 -0.99967965293E+01 -0.30378842043E+02  0.32820674253E+02  0.51100000000E-03 0. -1.
        -11    1    3    3    0    0  0.15171442349E+02  0.16880325779E+02 -0.28098927305E+01  0.22869489692E+02  0.51100000000E-03 0.  1.
         12    1    3    3    0    0 -0.22751235087E+01 -0.17267240910E+01  0.22106411923E+01  0.36117443912E+01  0.00000000000E+00 0. -1.
</event>
<event>
 7    1  0.6055092E-013  0.5930190E+02  0.7816164E-02  0.1266605E+00
        -11   -1    0    0    0    0  0.00000000000E+00  0.00000000000E+00  0.45593999997E+02  0.45594000000E+02  0.51100000000E-03 0.  1.
         11   -1    0    0    0    0 -0.00000000000E+00 -0.00000000000E+00 -0.45593999997E+02  0.45594000000E+02  0.51100000000E-03 0. -1.
    9900012    2    1    2    0    0 -0.83444120838E+01 -0.23043470160E+02 -0.20398344478E+02  0.59301902912E+02  0.49999925015E+02 0.  0.
        -12    1    1    2    0    0  0.83444120838E+01  0.23043470160E+02  0.20398344478E+02  0.31886097088E+02  0.00000000000E+00 0.  1.
         11    1    3    3    0    0 -0.82133182569E+01 -0.23407288132E+02 -0.28022840628E+02  0.37425116320E+02  0.51100000000E-03 0. -1.
        -11    1    3    3    0    0 -0.69067936908E+01  0.30140582393E+01  0.11411076331E+02  0.13674831240E+02  0.51100000000E-03 0.  1.
        -12    1    3    3    0    0  0.67756998639E+01 -0.26502402678E+01 -0.37865801812E+01  0.82019553517E+01  0.00000000000E+00 0.  1.
</event>
<event>
 7    1  0.6055092E-013  0.5930194E+02  0.7816164E-02  0.1266605E+00
        -11   -1    0    0    0    0  0.00000000000E+00  0.00000000000E+00  0.45593999997E+02  0.45594000000E+02  0.51100000000E-03 0.  1.
         11   -1    0    0    0    0 -0.00000000000E+00 -0.00000000000E+00 -0.45593999997E+02  0.45594000000E+02  0.51100000000E-03 0. -1.
    9900012    2    1    2    0    0  0.25526332094E+02 -0.39306044885E+01 -0.18699665476E+02  0.59301940809E+02  0.49999994129E+02 0.  0.
        -12    1    1    2    0    0 -0.25526332094E+02  0.39306044885E+01  0.18699665476E+02  0.31886059191E+02  0.00000000000E+00 0.  1.
         11    1    3    3    0    0  0.22463441845E+02 -0.66478899661E+01 -0.21593081038E+02  0.31860034675E+02  0.51100000000E-03 0. -1.
        -11    1    3    3    0    0  0.24663941179E+01  0.14842194925E+02  0.27881115948E+01  0.15301876246E+02  0.51100000000E-03 0.  1.
        -12    1    3    3    0    0  0.59649613207E+00 -0.12124909447E+02  0.10530396772E+00  0.12140029887E+02  0.00000000000E+00 0.  1.
</event>
<event>
 7    1  0.6055092E-013  0.5930196E+02  0.7816164E-02  0.1266605E+00
        -11   -1    0    0    0    0  0.00000000000E+00  0.00000000000E+00  0.45593999997E+02  0.45594000000E+02  0.51100000000E-03 0. -1.
         11   -1    0    0    0    0 -0.00000000000E+00 -0.00000000000E+00 -0.45593999997E+02  0.45594000000E+02  0.51100000000E-03 0.  1.
    9900012    2    1    2    0    0 -0.89179636817E+01 -0.55386167067E+01  0.30108352650E+02  0.59301964646E+02  0.50000037603E+02 0.  0.
        -12    1    1    2    0    0  0.89179636817E+01  0.55386167067E+01 -0.30108352650E+02  0.31886035354E+02  0.00000000000E+00 0.  1.
         11    1    3    3    0    0  0.10023042900E+02  0.54249636882E+01  0.33533893449E+02  0.35417702213E+02  0.51100000000E-03 0. -1.
        -11    1    3    3    0    0  0.49771923393E-01 -0.16308442511E+01 -0.21319690545E+01  0.26846643228E+01  0.51100000000E-03 0.  1.
         12    1    3    3    0    0 -0.18990778505E+02 -0.93327361438E+01 -0.12935717436E+01  0.21199598110E+02  0.00000000000E+00 0. -1.
</event>
<event>
 7    1  0.6055092E-013  0.5930190E+02  0.7816164E-02  0.1266605E+00
        -11   -1    0    0    0    0  0.00000000000E+00  0.00000000000E+00  0.45593999997E+02  0.45594000000E+02  0.51100000000E-03 0. -1.
         11   -1    0    0    0    0 -0.00000000000E+00 -0.00000000000E+00 -0.45593999997E+02  0.45594000000E+02  0.51100000000E-03 0.  1.
    9900012    2    1    2    0    0 -0.25831196163E+02  0.18592757847E+02  0.19447497159E+01  0.59301899720E+02  0.49999919193E+02 0.  0.
        -12    1    1    2    0    0  0.25831196163E+02 -0.18592757847E+02 -0.19447497159E+01  0.31886100280E+02  0.00000000000E+00 0.  1.
         11    1    3    3    0    0 -0.25154953518E+01  0.16417211621E+02  0.25154008326E+01  0.16798208115E+02  0.51100000000E-03 0.  1.
        -11    1    3    3    0    0 -0.76121918406E+01 -0.10241652942E+02 -0.13575015618E+02  0.18631102192E+02  0.51100000000E-03 0. -1.
         12    1    3    3    0    0 -0.15703508971E+02  0.12417199169E+02  0.13004364501E+02  0.23872589413E+02  0.00000000000E+00 0. -1.
</event>
<event>
 7    1  0.6055092E-013  0.5930195E+02  0.7816164E-02  0.1266605E+00
        -11   -1    0    0    0    0  0.00000000000E+00  0.00000000000E+00  0.45593999997E+02  0.45594000000E+02  0.51100000000E-03 0. -1.
         11   -1    0    0    0    0 -0.00000000000E+00 -0.00000000000E+00 -0.45593999997E+02  0.45594000000E+02  0.51100000000E-03 0.  1.
    9900012    2    1    2    0    0 -0.31764824288E+02  0.24989070584E+01  0.12130410317E+01  0.59301951843E+02  0.50000014253E+02 0.  0.
        -12    1    1    2    0    0  0.31764824288E+02 -0.24989070584E+01 -0.12130410317E+01  0.31886048157E+02  0.00000000000E+00 0.  1.
         11    1    3    3    0    0 -0.30771443286E+02 -0.16098519838E+02 -0.10101694745E+02  0.36167503368E+02  0.51100000000E-03 0. -1.
        -11    1    3    3    0    0 -0.37769233932E+01  0.94749449112E+01  0.34352024750E+01  0.10762915390E+02  0.51100000000E-03 0.  1.
         12    1    3    3    0    0  0.27835423908E+01  0.91224819852E+01  0.78795333021E+01  0.12371533085E+02  0.00000000000E+00 0. -1.
</event>
<event>
 7    1  0.6055092E-013  0.5930194E+02  0.7816164E-02  0.1266605E+00
        -11   -1    0    0    0    0  0.00000000000E+00  0.00000000000E+00  0.45593999997E+02  0.45594000000E+02  0.51100000000E-03 0.  1.
         11   -1    0    0    0    0 -0.00000000000E+00 -0.00000000000E+00 -0.45593999997E+02  0.45594000000E+02  0.51100000000E-03 0. -1.
    9900012    2    1    2    0    0  0.23024390682E+02  0.20700583607E+02 -0.76213116976E+01  0.59301935333E+02  0.49999984144E+02 0.  0.
        -12    1    1    2    0    0 -0.23024390682E+02 -0.20700583607E+02  0.76213116976E+01  0.31886064667E+02  0.00000000000E+00 0.  1.
         11    1    3    3    0    0  0.83422647808E+01  0.16069771574E+02 -0.16872151840E+02  0.24748746394E+02  0.51100000000E-03 0. -1.
        -11    1    3    3    0    0  0.54035128619E-01 -0.58280818723E+01  0.14658925571E+02  0.15775092940E+02  0.51100000000E-03 0.  1.
        -12    1    3    3    0    0  0.14628090772E+02  0.10458893905E+02 -0.54080854287E+01  0.18778095999E+02  0.00000000000E+00 0.  1.
</event>
<event>
 7    1  0.6055092E-013  0.5930207E+02  0.7816164E-02  0.1266604E+00
        -11   -1    0    0    0    0  0.00000000000E+00  0.00000000000E+00  0.45593999997E+02  0.45594000000E+02  0.51100000000E-03 0.  1.
         11   -1    0    0    0    0 -0.00000000000E+00 -0.00000000000E+00 -0.45593999997E+02  0.45594000000E+02  0.51100000000E-03 0. -1.
    9900012    2    1    2    0    0 -0.15623124698E+02 -0.15908254061E+02 -0.22793810740E+02  0.59302072373E+02  0.50000234070E+02 0.  0.
        -12    1    1    2    0    0  0.15623124698E+02  0.15908254061E+02  0.22793810740E+02  0.31885927627E+02  0.00000000000E+00 0.  1.
         11    1    3    3    0    0 -0.11724897432E+02 -0.97364476672E+01  0.12993930309E+02  0.20027827093E+02  0.51100000000E-03 0.  1.
        -11    1    3    3    0    0 -0.24041906457E+01 -0.10882025150E+02 -0.26640776477E+02  0.28877838831E+02  0.51100000000E-03 0. -1.
         12    1    3    3    0    0 -0.14940366204E+01  0.47102187559E+01 -0.91469645724E+01  0.10396406448E+02  0.00000000000E+00 0. -1.
</event>
<event>
 7    1  0.6055092E-013  0.5930193E+02  0.7816164E-02  0.1266605E+00
        -11   -1    0    0    0    0  0.00000000000E+00  0.00000000000E+00  0.45593999997E+02  0.45594000000E+02  0.51100000000E-03 0.  1.
         11   -1    0    0    0    0 -0.00000000000E+00 -0.00000000000E+00 -0.45593999997E+02  0.45594000000E+02  0.51100000000E-03 0. -1.
    9900012    2    1    2    0    0  0.13643098645E+02  0.24414241048E+02 -0.15314438069E+02  0.59301932197E+02  0.49999978424E+02 0.  0.
        -12    1    1    2    0    0 -0.13643098645E+02 -0.24414241048E+02  0.15314438069E+02  0.31886067803E+02  0.00000000000E+00 0.  1.
         11    1    3    3    0    0  0.49314238588E+01 -0.45903043548E+01  0.12893881871E+02  0.14547921683E+02  0.51100000000E-03 0.  1.
        -11    1    3    3    0    0  0.24618653636E-02  0.90409986130E+01 -0.19126838954E+02  0.21155983329E+02  0.51100000000E-03 0. -1.
        -12    1    3    3    0    0  0.87092129206E+01  0.19963546790E+02 -0.90814809855E+01  0.23598027185E+02  0.00000000000E+00 0.  1.
</event>
<event>
 7    1  0.6055092E-013  0.5930197E+02  0.7816164E-02  0.1266605E+00
        -11   -1    0    0    0    0  0.00000000000E+00  0.00000000000E+00  0.45593999997E+02  0.45594000000E+02  0.51100000000E-03 0. -1.
         11   -1    0    0    0    0 -0.00000000000E+00 -0.00000000000E+00 -0.45593999997E+02  0.45594000000E+02  0.51100000000E-03 0.  1.
    9900012    2    1    2    0    0 -0.10955665390E+02  0.26999299420E+02  0.12951063393E+02  0.59301971456E+02  0.50000050023E+02 0.  0.
        -12    1    1    2    0    0  0.10955665390E+02 -0.26999299420E+02 -0.12951063393E+02  0.31886028544E+02  0.00000000000E+00 0.  1.
         11    1    3    3    0    0 -0.17490603329E+02  0.15754207282E+02  0.26456543780E+02  0.35412779627E+02  0.51100000000E-03 0. -1.
        -11    1    3    3    0    0  0.84457337069E+01  0.11187435475E+02 -0.45581823579E+01  0.14739951052E+02  0.51100000000E-03 0.  1.
         12    1    3    3    0    0 -0.19107957682E+01  0.57656663027E-01 -0.89472980295E+01  0.91492407765E+01  0.00000000000E+00 0. -1.
</event>
<event>
 7    1  0.6055092E-013  0.5930198E+02  0.7816164E-02  0.1266605E+00
        -11   -1    0    0    0    0  0.00000000000E+00  0.00000000000E+00  0.45593999997E+02  0.45594000000E+02  0.51100000000E-03 0.  1.
         11   -1    0    0    0    0 -0.00000000000E+00 -0.00000000000E+00 -0.45593999997E+02  0.45594000000E+02  0.51100000000E-03 0. -1.
    9900012    2    1    2    0    0  0.17738403379E+02  0.14926008027E+02 -0.21892507962E+02  0.59301975241E+02  0.50000056925E+02 0.  0.
        -12    1    1    2    0    0 -0.17738403379E+02 -0.14926008027E+02  0.21892507962E+02  0.31886024759E+02  0.00000000000E+00 0.  1.
         11    1    3    3    0    0 -0.11579950463E+01  0.14866511194E+02 -0.14977859101E+02  0.21135050772E+02  0.51100000000E-03 0. -1.
        -11    1    3    3    0    0  0.13346316833E+02  0.62057453323E+01  0.11037119779E+02  0.18397104702E+02  0.51100000000E-03 0.  1.
        -12    1    3    3    0    0  0.55500815926E+01 -0.61462484994E+01 -0.17951768640E+02  0.19769819766E+02  0.00000000000E+00 0.  1.
</event>
<event>
 7    1  0.6055092E-013  0.5930195E+02  0.7816164E-02  0.1266605E+00
        -11   -1    0    0    0    0  0.00000000000E+00  0.00000000000E+00  0.45593999997E+02  0.45594000000E+02  0.51100000000E-03 0.  1.
         11   -1    0    0    0    0 -0.00000000000E+00 -0.00000000000E+00 -0.45593999997E+02  0.45594000000E+02  0.51100000000E-03 0. -1.
    9900012    2    1    2    0    0  0.78580656788E+00 -0.16138185214E+02 -0.27489302465E+02  0.59301948755E+02  0.50000008621E+02 0.  0.
        -12    1    1    2    0    0 -0.78580656788E+00  0.16138185214E+02  0.27489302465E+02  0.31886051245E+02  0.00000000000E+00 0.  1.
         11    1    3    3    0    0 -0.14304660901E+00 -0.47203948380E+01 -0.71179338618E+01  0.85421058575E+01  0.51100000000E-03 0. -1.
        -11    1    3    3    0    0 -0.14069912848E+02  0.11890573092E+02 -0.51014603997E+01  0.19114734486E+02  0.51100000000E-03 0.  1.
        -12    1    3    3    0    0  0.14998766025E+02 -0.23308363468E+02 -0.15269908204E+02  0.31645108411E+02  0.00000000000E+00 0.  1.
</event>
<event>
 7    1  0.6055092E-013  0.5930194E+02  0.7816164E-02  0.1266605E+00
        -11   -1    0    0    0    0  0.00000000000E+00  0.00000000000E+00  0.45593999997E+02  0.45594000000E+02  0.51100000000E-03 0.  1.
         11   -1    0    0    0    0 -0.00000000000E+00 -0.00000000000E+00 -0.45593999997E+02  0.45594000000E+02  0.51100000000E-03 0. -1.
    9900012    2    1    2    0    0  0.69367740780E+01  0.30082674298E+02 -0.79771527077E+01  0.59301935758E+02  0.49999984919E+02 0.  0.
        -12    1    1    2    0    0 -0.69367740780E+01 -0.30082674298E+02  0.79771527077E+01  0.31886064242E+02  0.00000000000E+00 0.  1.
         11    1    3    3    0    0  0.21679323564E+02  0.10469610252E+02 -0.18341523041E+01  0.24144770116E+02  0.51100000000E-03 0. -1.
        -11    1    3    3    0    0 -0.21633046235E+02  0.14954259227E+02 -0.46488260546E+01  0.26706368948E+02  0.51100000000E-03 0.  1.
        -12    1    3    3    0    0  0.68904967486E+01  0.46588048183E+01 -0.14941743490E+01  0.84507966940E+01  0.00000000000E+00 0.  1.
</event>
<event>
 7    1  0.6055092E-013  0.5930196E+02  0.7816164E-02  0.1266605E+00
        -11   -1    0    0    0    0  0.00000000000E+00  0.00000000000E+00  0.45593999997E+02  0.45594000000E+02  0.51100000000E-03 0.  1.
         11   -1    0    0    0    0 -0.00000000000E+00 -0.00000000000E+00 -0.45593999997E+02  0.45594000000E+02  0.51100000000E-03 0. -1.
    9900012    2    1    2    0    0 -0.19678902705E+01  0.23544376150E+02 -0.21412825697E+02  0.59301963169E+02  0.50000034910E+02 0.  0.
        -12    1    1    2    0    0  0.19678902705E+01 -0.23544376150E+02  0.21412825697E+02  0.31886036831E+02  0.00000000000E+00 0.  1.
         11    1    3    3    0    0  0.43413291094E+01  0.43872185444E+01 -0.24774773555E+02  0.25532023616E+02  0.51100000000E-03 0. -1.
        -11    1    3    3    0    0  0.37409652130E+01  0.20345255376E+02  0.85664669980E+01  0.22389921708E+02  0.51100000000E-03 0.  1.
         12    1    3    3    0    0 -0.10050184593E+02 -0.11880977696E+01 -0.52045191403E+01  0.11380017845E+02  0.00000000000E+00 0. -1.
</event>
<event>
 7    1  0.6055092E-013  0.5930195E+02  0.7816164E-02  0.1266605E+00
        -11   -1    0    0    0    0  0.00000000000E+00  0.00000000000E+00  0.45593999997E+02  0.45594000000E+02  0.51100000000E-03 0.  1.
         11   -1    0    0    0    0 -0.00000000000E+00 -0.00000000000E+00 -0.45593999997E+02  0.45594000000E+02  0.51100000000E-03 0. -1.
    9900012    2    1    2    0    0 -0.19084325201E+02 -0.14493948057E+02 -0.21034117696E+02  0.59301951234E+02  0.50000013143E+02 0.  0.
        -12    1    1    2    0    0  0.19084325201E+02  0.14493948057E+02  0.21034117696E+02  0.31886048766E+02  0.00000000000E+00 0.  1.
         11    1    3    3    0    0 -0.25659029490E+02 -0.13305800635E+02  0.74640061660E+01  0.29851993454E+02  0.51100000000E-03 0. -1.
        -11    1    3    3    0    0  0.64665399016E+01 -0.36479045337E+00 -0.23198767863E+02  0.24085930354E+02  0.51100000000E-03 0.  1.
         12    1    3    3    0    0  0.10816438652E+00 -0.82335696846E+00 -0.52993559984E+01  0.53640274263E+01  0.00000000000E+00 0. -1.
</event>
<event>
 7    1  0.6055092E-013  0.5930169E+02  0.7816164E-02  0.1266606E+00
        -11   -1    0    0    0    0  0.00000000000E+00  0.00000000000E+00  0.45593999997E+02  0.45594000000E+02  0.51100000000E-03 0. -1.
         11   -1    0    0    0    0 -0.00000000000E+00 -0.00000000000E+00 -0.45593999997E+02  0.45594000000E+02  0.51100000000E-03 0.  1.
    9900012    2    1    2    0    0  0.24966725377E+02 -0.19602811803E+02  0.30214582563E+01  0.59301689197E+02  0.49999535247E+02 0.  0.
        -12    1    1    2    0    0 -0.24966725377E+02  0.19602811803E+02 -0.30214582563E+01  0.31886310803E+02  0.00000000000E+00 0.  1.
         11    1    3    3    0    0  0.87837677617E+01 -0.10474688104E+02  0.22259079178E+02  0.26121643767E+02  0.51100000000E-03 0. -1.
        -11    1    3    3    0    0  0.13279646838E+02  0.36724325764E+01 -0.82247499979E+01  0.16046254827E+02  0.51100000000E-03 0.  1.
        -12    1    3    3    0    0  0.29033107771E+01 -0.12800556276E+02 -0.11012870924E+02  0.17133790603E+02  0.00000000000E+00 0.  1.
</event>
<event>
 7    1  0.6055092E-013  0.5930194E+02  0.7816164E-02  0.1266605E+00
        -11   -1    0    0    0    0  0.00000000000E+00  0.00000000000E+00  0.45593999997E+02  0.45594000000E+02  0.51100000000E-03 0. -1.
         11   -1    0    0    0    0 -0.00000000000E+00 -0.00000000000E+00 -0.45593999997E+02  0.45594000000E+02  0.51100000000E-03 0.  1.
    9900012    2    1    2    0    0 -0.43748172559E-01  0.26094072456E+02  0.18325350795E+02  0.59301937010E+02  0.49999987201E+02 0.  0.
        -12    1    1    2    0    0  0.43748172559E-01 -0.26094072456E+02 -0.18325350795E+02  0.31886062990E+02  0.00000000000E+00 0.  1.
         11    1    3    3    0    0  0.20238222324E+02  0.13804119002E+02  0.17537087421E+02  0.30127873800E+02  0.51100000000E-03 0. -1.
        -11    1    3    3    0    0 -0.78262225356E+01  0.13982437638E+02  0.32884241025E+01  0.16357629866E+02  0.51100000000E-03 0.  1.
         12    1    3    3    0    0 -0.12455747961E+02 -0.16924841845E+01 -0.25001607283E+01  0.12816433344E+02  0.00000000000E+00 0. -1.
</event>
<event>
 7    1  0.6055092E-013  0.5930194E+02  0.7816164E-02  0.1266605E+00
        -11   -1    0    0    0    0  0.00000000000E+00  0.00000000000E+00  0.45593999997E+02  0.45594000000E+02  0.51100000000E-03 0.  1.
         11   -1    0    0    0    0 -0.00000000000E+00 -0.00000000000E+00 -0.45593999997E+02  0.45594000000E+02  0.51100000000E-03 0. -1.
    9900012    2    1    2    0    0  0.26436643718E+02 -0.17596785530E+02 -0.28596482930E+01  0.59301943793E+02  0.49999999572E+02 0.  0.
        -12    1    1    2    0    0 -0.26436643718E+02  0.17596785530E+02  0.28596482930E+01  0.31886056207E+02  0.00000000000E+00 0.  1.
         11    1    3    3    0    0  0.13371252183E+02 -0.68860314307E+00 -0.17154261037E+02  0.21760818717E+02  0.51100000000E-03 0. -1.
        -11    1    3    3    0    0  0.10157423262E+02  0.11118359099E+01  0.16237318052E+02  0.19184887912E+02  0.51100000000E-03 0.  1.
        -12    1    3    3    0    0  0.29079682728E+01 -0.18020018297E+02 -0.19427053081E+01  0.18356237164E+02  0.00000000000E+00 0.  1.
</event>
<event>
 7    1  0.6055092E-013  0.5930195E+02  0.7816164E-02  0.1266605E+00
        -11   -1    0    0    0    0  0.00000000000E+00  0.00000000000E+00  0.45593999997E+02  0.45594000000E+02  0.51100000000E-03 0. -1.
         11   -1    0    0    0    0 -0.00000000000E+00 -0.00000000000E+00 -0.45593999997E+02  0.45594000000E+02  0.51100000000E-03 0.  1.
    9900012    2    1    2    0    0  0.11998038795E+02  0.77908241733E+01  0.28496851680E+02  0.59301946122E+02  0.50000003820E+02 0.  0.
        -12    1    1    2    0    0 -0.11998038795E+02 -0.77908241733E+01 -0.28496851680E+02  0.31886053878E+02  0.00000000000E+00 0.  1.
         11    1    3    3    0    0 -0.10937441345E+02  0.38159834367E+01  0.20070066221E+02  0.23173193805E+02  0.51100000000E-03 0. -1.
        -11    1    3    3    0    0  0.80787787553E+01 -0.81088259339E+01 -0.52530491206E+01  0.12594214923E+02  0.51100000000E-03 0.  1.
         12    1    3    3    0    0  0.14856701384E+02  0.12083666671E+02  0.13679834580E+02  0.23534537394E+02  0.00000000000E+00 0. -1.
</event>
<event>
 7    1  0.6055092E-013  0.5930183E+02  0.7816164E-02  0.1266605E+00
        -11   -1    0    0    0    0  0.00000000000E+00  0.00000000000E+00  0.45593999997E+02  0.45594000000E+02  0.51100000000E-03 0.  1.
         11   -1    0    0    0    0 -0.00000000000E+00 -0.00000000000E+00 -0.45593999997E+02  0.45594000000E+02  0.51100000000E-03 0. -1.
    9900012    2    1    2    0    0 -0.28674879400E+02 -0.12627023252E+02  0.59192564269E+01  0.59301827112E+02  0.49999786773E+02 0.  0.
        -12    1    1    2    0    0  0.28674879400E+02  0.12627023252E+02 -0.59192564269E+01  0.31886172888E+02  0.00000000000E+00 0.  1.
         11    1    3    3    0    0 -0.41568021328E+00  0.75340239718E+01  0.87394803688E+00  0.75959260580E+01  0.51100000000E-03 0. -1.
        -11    1    3    3    0    0 -0.75044762544E+01 -0.28191849015E+02  0.37553009275E+01  0.29414278846E+02  0.51100000000E-03 0.  1.
        -12    1    3    3    0    0 -0.20754722932E+02  0.80308017910E+01  0.12900074625E+01  0.22291622208E+02  0.00000000000E+00 0.  1.
</event>
<event>
 7    1  0.6055092E-013  0.5930195E+02  0.7816164E-02  0.1266605E+00
        -11   -1    0    0    0    0  0.00000000000E+00  0.00000000000E+00  0.45593999997E+02  0.45594000000E+02  0.51100000000E-03 0.  1.
         11   -1    0    0    0    0 -0.00000000000E+00 -0.00000000000E+00 -0.45593999997E+02  0.45594000000E+02  0.51100000000E-03 0. -1.
    9900012    2    1    2    0    0 -0.26298888024E+02 -0.16351611446E+02  0.75969205745E+01  0.59301954300E+02  0.50000018734E+02 0.  0.
        -12    1    1    2    0    0  0.26298888024E+02  0.16351611446E+02 -0.75969205745E+01  0.31886045700E+02  0.00000000000E+00 0.  1.
         11    1    3    3    0    0  0.27304343006E+01 -0.43827422647E+01 -0.24934013630E+01  0.57341740335E+01  0.51100000000E-03 0. -1.
        -11    1    3    3    0    0 -0.17493935407E+02  0.11443074818E+02 -0.73712780699E+01  0.22165682438E+02  0.51100000000E-03 0.  1.
        -12    1    3    3    0    0 -0.11535386918E+02 -0.23411943999E+02  0.17461600007E+02  0.31402097828E+02  0.00000000000E+00 0.  1.
</event>
<event>
 7    1  0.6055092E-013  0.5930194E+02  0.7816164E-02  0.1266605E+00
        -11   -1    0    0    0    0  0.00000000000E+00  0.00000000000E+00  0.45593999997E+02  0.45594000000E+02  0.51100000000E-03 0. -1.
         11   -1    0    0    0    0 -0.00000000000E+00 -0.00000000000E+00 -0.45593999997E+02  0.45594000000E+02  0.51100000000E-03 0.  1.
    9900012    2    1    2    0    0  0.39192576096E+01  0.31242331177E+02  0.50276415366E+01  0.59301936947E+02  0.49999987086E+02 0.  0.
        -12    1    1    2    0    0 -0.39192576096E+01 -0.31242331177E+02 -0.50276415366E+01  0.31886063053E+02  0.00000000000E+00 0.  1.
         11    1    3    3    0    0  0.15864419369E+02  0.27460827754E+02  0.29711039284E+01  0.31852854215E+02  0.51100000000E-03 0. -1.
        -11    1    3    3    0    0  0.15991636551E+01 -0.58340765276E+01  0.78025110503E+01  0.98728391194E+01  0.51100000000E-03 0.  1.
         12    1    3    3    0    0 -0.13544325414E+02  0.96155799513E+01 -0.57459734422E+01  0.17576243612E+02  0.00000000000E+00 0. -1.
</event>
<event>
 7    1  0.6055092E-013  0.5930193E+02  0.7816164E-02  0.1266605E+00
        -11   -1    0    0    0    0  0.00000000000E+00  0.00000000000E+00  0.45593999997E+02  0.45594000000E+02  0.51100000000E-03 0. -1.
         11   -1    0    0    0    0 -0.00000000000E+00 -0.00000000000E+00 -0.45593999997E+02  0.45594000000E+02  0.51100000000E-03 0.  1.
    9900012    2    1    2    0    0  0.94300250332E+01  0.30350844438E+02  0.25734459199E+01  0.59301925388E+02  0.49999966006E+02 0.  0.
        -12    1    1    2    0    0 -0.94300250332E+01 -0.30350844438E+02 -0.25734459199E+01  0.31886074612E+02  0.00000000000E+00 0.  1.
         11    1    3    3    0    0  0.76872997918E+01  0.19329685823E+01 -0.57161947112E+01  0.97727083179E+01  0.51100000000E-03 0. -1.
        -11    1    3    3    0    0 -0.15364007793E+02  0.26620350069E+02  0.74102569139E+00  0.30744835218E+02  0.51100000000E-03 0.  1.
        -12    1    3    3    0    0  0.17106733034E+02  0.17975257866E+01  0.75486149397E+01  0.18784381852E+02  0.00000000000E+00 0.  1.
</event>
<event>
 7    1  0.6055092E-013  0.5930194E+02  0.7816164E-02  0.1266605E+00
        -11   -1    0    0    0    0  0.00000000000E+00  0.00000000000E+00  0.45593999997E+02  0.45594000000E+02  0.51100000000E-03 0.  1.
         11   -1    0    0    0    0 -0.00000000000E+00 -0.00000000000E+00 -0.45593999997E+02  0.45594000000E+02  0.51100000000E-03 0. -1.
    9900012    2    1    2    0    0 -0.15931907663E+02 -0.26532577795E+02  0.76757675647E+01  0.59301940759E+02  0.49999994039E+02 0.  0.
        -12    1    1    2    0    0  0.15931907663E+02  0.26532577795E+02 -0.76757675647E+01  0.31886059241E+02  0.00000000000E+00 0.  1.
         11    1    3    3    0    0  0.18678926608E+01 -0.11055155819E+02 -0.17095489308E+02  0.20444100570E+02  0.51100000000E-03 0. -1.
        -11    1    3    3    0    0 -0.18585635671E+01 -0.12378531897E+02  0.16269063657E+02  0.20527170847E+02  0.51100000000E-03 0.  1.
         12    1    3    3    0    0 -0.15941236756E+02 -0.30988900787E+01  0.85021932154E+01  0.18330669342E+02  0.00000000000E+00 0. -1.
</event>
<event>
 7    1  0.6055092E-013  0.5930202E+02  0.7816164E-02  0.1266604E+00
        -11   -1    0    0    0    0  0.00000000000E+00  0.00000000000E+00  0.45593999997E+02  0.45594000000E+02  0.51100000000E-03 0.  1.
         11   -1    0    0    0    0 -0.00000000000E+00 -0.00000000000E+00 -0.45593999997E+02  0.45594000000E+02  0.51100000000E-03 0. -1.
    9900012    2    1    2    0    0  0.20230262616E+02 -0.96831952816E+00 -0.24627512848E+02  0.59302022560E+02  0.50000143224E+02 0.  0.
        -12    1    1    2    0    0 -0.20230262616E+02  0.96831952816E+00  0.24627512848E+02  0.31885977440E+02  0.00000000000E+00 0.  1.
         11    1    3    3    0    0  0.29123718082E+02 -0.34480426603E+01 -0.29245108501E+02  0.41416860391E+02  0.51100000000E-03 0. -1.
        -11    1    3    3    0    0 -0.32016899346E+01 -0.21699002092E+01  0.86692048508E+01  0.94928603888E+01  0.51100000000E-03 0.  1.
         12    1    3    3    0    0 -0.56917655318E+01  0.46496233414E+01 -0.40516091976E+01  0.83923017805E+01  0.00000000000E+00 0. -1.
</event>
<event>
 7    1  0.6055092E-013  0.5930195E+02  0.7816164E-02  0.1266605E+00
        -11   -1    0    0    0    0  0.00000000000E+00  0.00000000000E+00  0.45593999997E+02  0.45594000000E+02  0.51100000000E-03 0. -1.
         11   -1    0    0    0    0 -0.00000000000E+00 -0.00000000000E+00 -0.45593999997E+02  0.45594000000E+02  0.51100000000E-03 0.  1.
    9900012    2    1    2    0    0  0.51856202869E+01 -0.31449592289E+02  0.86745587320E+00  0.59301953011E+02  0.50000016384E+02 0.  0.
        -12    1    1    2    0    0 -0.51856202869E+01  0.31449592289E+02 -0.86745587320E+00  0.31886046989E+02  0.00000000000E+00 0.  1.
         11    1    3    3    0    0 -0.17590687034E+02 -0.12289490972E+02 -0.87298060572E+01  0.23166211877E+02  0.51100000000E-03 0.  1.
        -11    1    3    3    0    0  0.21657871281E+02 -0.20829254487E+02  0.41551539955E+01  0.30334576574E+02  0.51100000000E-03 0. -1.
         12    1    3    3    0    0  0.11184360402E+01  0.16691531702E+01  0.54421079348E+01  0.58011645603E+01  0.00000000000E+00 0. -1.
</event>
<event>
 7    1  0.6055092E-013  0.5930193E+02  0.7816164E-02  0.1266605E+00
        -11   -1    0    0    0    0  0.00000000000E+00  0.00000000000E+00  0.45593999997E+02  0.45594000000E+02  0.51100000000E-03 0. -1.
         11   -1    0    0    0    0 -0.00000000000E+00 -0.00000000000E+00 -0.45593999997E+02  0.45594000000E+02  0.51100000000E-03 0.  1.
    9900012    2    1    2    0    0  0.14025866374E+02 -0.11855144031E+02  0.26066302749E+02  0.59301929271E+02  0.49999973087E+02 0.  0.
        -12    1    1    2    0    0 -0.14025866374E+02  0.11855144031E+02 -0.26066302749E+02  0.31886070729E+02  0.00000000000E+00 0.  1.
         11    1    3    3    0    0  0.13310948379E+02 -0.26926225004E+01  0.32722051582E+02  0.35428296920E+02  0.51100000000E-03 0. -1.
        -11    1    3    3    0    0  0.10806615257E+02 -0.59500910116E+01 -0.35595845547E+01  0.12839671289E+02  0.51100000000E-03 0.  1.
         12    1    3    3    0    0 -0.10091697262E+02 -0.32124305193E+01 -0.30961642778E+01  0.11033961061E+02  0.00000000000E+00 0. -1.
</event>
<event>
 7    1  0.6055092E-013  0.5930195E+02  0.7816164E-02  0.1266605E+00
        -11   -1    0    0    0    0  0.00000000000E+00  0.00000000000E+00  0.45593999997E+02  0.45594000000E+02  0.51100000000E-03 0.  1.
         11   -1    0    0    0    0 -0.00000000000E+00 -0.00000000000E+00 -0.45593999997E+02  0.45594000000E+02  0.51100000000E-03 0. -1.
    9900012    2    1    2    0    0 -0.43831728793E+01 -0.70122373285E+01 -0.30795075068E+02  0.59301947794E+02  0.50000006870E+02 0.  0.
        -12    1    1    2    0    0  0.43831728793E+01  0.70122373285E+01  0.30795075068E+02  0.31886052206E+02  0.00000000000E+00 0.  1.
         11    1    3    3    0    0  0.63396453585E+01 -0.58304956855E+01 -0.18881390707E+02  0.20753137077E+02  0.51100000000E-03 0. -1.
        -11    1    3    3    0    0 -0.84998533854E+01 -0.31112888004E+01  0.11677498135E+02  0.14774694194E+02  0.51100000000E-03 0.  1.
         12    1    3    3    0    0 -0.22229648524E+01  0.19295471574E+01 -0.23591182495E+02  0.23774116524E+02  0.00000000000E+00 0. -1.
</event>
<event>
 7    1  0.6055092E-013  0.5930195E+02  0.7816164E-02  0.1266605E+00
        -11   -1    0    0    0    0  0.00000000000E+00  0.00000000000E+00  0.45593999997E+02  0.45594000000E+02  0.51100000000E-03 0. -1.
         11   -1    0    0    0    0 -0.00000000000E+00 -0.00000000000E+00 -0.45593999997E+02  0.45594000000E+02  0.51100000000E-03 0.  1.
    9900012    2    1    2    0    0  0.11784551584E+02  0.25335297188E+02  0.15361219242E+02  0.59301952953E+02  0.50000016278E+02 0.  0.
        -12    1    1    2    0    0 -0.11784551584E+02 -0.25335297188E+02 -0.15361219242E+02  0.31886047047E+02  0.00000000000E+00 0.  1.
         11    1    3    3    0    0 -0.62981149417E+01  0.26176208278E+02  0.63040655842E+01  0.27651426271E+02  0.51100000000E-03 0. -1.
        -11    1    3    3    0    0 -0.22418780204E+01 -0.83224444111E+01  0.17643968264E+01  0.87978516955E+01  0.51100000000E-03 0.  1.
         12    1    3    3    0    0  0.20324544546E+02  0.74815333210E+01  0.72927568318E+01  0.22852674987E+02  0.00000000000E+00 0. -1.
</event>
<event>
 7    1  0.6055092E-013  0.5930195E+02  0.7816164E-02  0.1266605E+00
        -11   -1    0    0    0    0  0.00000000000E+00  0.00000000000E+00  0.45593999997E+02  0.45594000000E+02  0.51100000000E-03 0. -1.
         11   -1    0    0    0    0 -0.00000000000E+00 -0.00000000000E+00 -0.45593999997E+02  0.45594000000E+02  0.51100000000E-03 0.  1.
    9900012    2    1    2    0    0 -0.13316869674E+02  0.67846612953E+01  0.28166463382E+02  0.59301948093E+02  0.50000007414E+02 0.  0.
        -12    1    1    2    0    0  0.13316869674E+02 -0.67846612953E+01 -0.28166463382E+02  0.31886051907E+02  0.00000000000E+00 0.  1.
         11    1    3    3    0    0  0.12762811101E+02  0.10560304467E+02  0.10289398595E+02  0.19500797454E+02  0.51100000000E-03 0. -1.
        -11    1    3    3    0    0 -0.22597618282E+02 -0.96483418223E+01  0.47806266151E+01  0.25031924477E+02  0.51100000000E-03 0.  1.
         12    1    3    3    0    0 -0.34820624933E+01  0.58726986510E+01  0.13096438171E+02  0.14769226162E+02  0.00000000000E+00 0. -1.
</event>
<event>
 7    1  0.6055092E-013  0.5930195E+02  0.7816164E-02  0.1266605E+00
        -11   -1    0    0    0    0  0.00000000000E+00  0.00000000000E+00  0.45593999997E+02  0.45594000000E+02  0.51100000000E-03 0. -1.
         11   -1    0    0    0    0 -0.00000000000E+00 -0.00000000000E+00 -0.45593999997E+02  0.45594000000E+02  0.51100000000E-03 0.  1.
    9900012    2    1    2    0    0  0.18245370583E+02 -0.22656503108E+02 -0.13057921941E+02  0.59301952797E+02  0.50000015993E+02 0.  0.
        -12    1    1    2    0    0 -0.18245370583E+02  0.22656503108E+02  0.13057921941E+02  0.31886047203E+02  0.00000000000E+00 0.  1.
         11    1    3    3    0    0  0.25653554468E+02 -0.26894930268E+02 -0.73541891201E+01  0.37888338956E+02  0.51100000000E-03 0. -1.
        -11    1    3    3    0    0 -0.83939555243E+01  0.87111750697E+01 -0.95659953437E+01  0.15422429368E+02  0.51100000000E-03 0.  1.
        -12    1    3    3    0    0  0.98577163910E+00 -0.44727479103E+01  0.38622625228E+01  0.59911844729E+01  0.00000000000E+00 0.  1.
</event>
<event>
 7    1  0.6055092E-013  0.5930195E+02  0.7816164E-02  0.1266605E+00
        -11   -1    0    0    0    0  0.00000000000E+00  0.00000000000E+00  0.45593999997E+02  0.45594000000E+02  0.51100000000E-03 0.  1.
         11   -1    0    0    0    0 -0.00000000000E+00 -0.00000000000E+00 -0.45593999997E+02  0.45594000000E+02  0.51100000000E-03 0. -1.
    9900012    2    1    2    0    0 -0.29409942275E+02 -0.43684358790E+01 -0.11519209578E+02  0.59301950920E+02  0.50000012570E+02 0.  0.
        -12    1    1    2    0    0  0.29409942275E+02  0.43684358790E+01  0.11519209578E+02  0.31886049080E+02  0.00000000000E+00 0.  1.
         11    1    3    3    0    0 -0.18601921844E+02  0.33409995609E+01 -0.10394688056E+02  0.21569499632E+02  0.51100000000E-03 0. -1.
        -11    1    3    3    0    0 -0.84087272818E+01 -0.21321705304E+02  0.34390377639E+01  0.23176470667E+02  0.51100000000E-03 0.  1.
        -12    1    3    3    0    0 -0.23992931491E+01  0.13612269864E+02 -0.45635592855E+01  0.14555980621E+02  0.00000000000E+00 0.  1.
</event>
<event>
 7    1  0.6055092E-013  0.5930196E+02  0.7816164E-02  0.1266605E+00
        -11   -1    0    0    0    0  0.00000000000E+00  0.00000000000E+00  0.45593999997E+02  0.45594000000E+02  0.51100000000E-03 0.  1.
         11   -1    0    0    0    0 -0.00000000000E+00 -0.00000000000E+00 -0.45593999997E+02  0.45594000000E+02  0.51100000000E-03 0. -1.
    9900012    2    1    2    0    0  0.53088111647E+01 -0.25738276244E+02  0.18057611464E+02  0.59301958042E+02  0.50000025559E+02 0.  0.
        -12    1    1    2    0    0 -0.53088111647E+01  0.25738276244E+02 -0.18057611464E+02  0.31886041958E+02  0.00000000000E+00 0.  1.
         11    1    3    3    0    0  0.11175861630E+02  0.18220380510E+01 -0.35280506623E+01  0.11860305543E+02  0.51100000000E-03 0. -1.
        -11    1    3    3    0    0 -0.13518493272E+02 -0.13604940803E+00  0.45587669318E+01  0.14267113443E+02  0.51100000000E-03 0.  1.
        -12    1    3    3    0    0  0.76514428066E+01 -0.27424264887E+02  0.17026895194E+02  0.33174539056E+02  0.00000000000E+00 0.  1.
</event>
<event>
 7    1  0.6055092E-013  0.5930197E+02  0.7816164E-02  0.1266605E+00
        -11   -1    0    0    0    0  0.00000000000E+00  0.00000000000E+00  0.45593999997E+02  0.45594000000E+02  0.51100000000E-03 0.  1.
         11   -1    0    0    0    0 -0.00000000000E+00 -0.00000000000E+00 -0.45593999997E+02  0.45594000000E+02  0.51100000000E-03 0. -1.
    9900012    2    1    2    0    0  0.12818313079E+02  0.15482433509E+02 -0.24752864152E+02  0.59301965733E+02  0.50000039584E+02 0.  0.
        -12    1    1    2    0    0 -0.12818313079E+02 -0.15482433509E+02  0.24752864152E+02  0.31886034267E+02  0.00000000000E+00 0.  1.
         11    1    3    3    0    0 -0.10634463026E+02 -0.57242163589E+01 -0.15620143695E+02  0.19744552314E+02  0.51100000000E-03 0. -1.
        -11    1    3    3    0    0  0.22699657411E+02  0.23390938851E+02 -0.12968272302E+02  0.35079717126E+02  0.51100000000E-03 0.  1.
         12    1    3    3    0    0  0.75311869468E+00 -0.21842889830E+01  0.38355518448E+01  0.44776962920E+01  0.00000000000E+00 0. -1.
</event>
<event>
 7    1  0.6055092E-013  0.5930194E+02  0.7816164E-02  0.1266605E+00
        -11   -1    0    0    0    0  0.00000000000E+00  0.00000000000E+00  0.45593999997E+02  0.45594000000E+02  0.51100000000E-03 0.  1.
         11   -1    0    0    0    0 -0.00000000000E+00 -0.00000000000E+00 -0.45593999997E+02  0.45594000000E+02  0.51100000000E-03 0. -1.
    9900012    2    1    2    0    0  0.35192858235E+01 -0.26576915462E+02 -0.17262770350E+02  0.59301936456E+02  0.49999986191E+02 0.  0.
        -12    1    1    2    0    0 -0.35192858235E+01  0.26576915462E+02  0.17262770350E+02  0.31886063544E+02  0.00000000000E+00 0.  1.
         11    1    3    3    0    0  0.19876609217E+01 -0.69031069827E+01 -0.10072022225E+02  0.12371310113E+02  0.51100000000E-03 0. -1.
        -11    1    3    3    0    0 -0.46835343323E+01 -0.97978138746E+01  0.16942613944E+02  0.20124234596E+02  0.51100000000E-03 0.  1.
        -12    1    3    3    0    0  0.62151592341E+01 -0.98759946049E+01 -0.24133362069E+02  0.26806391747E+02  0.00000000000E+00 0.  1.
</event>
<event>
 7    1  0.6055092E-013  0.5930198E+02  0.7816164E-02  0.1266605E+00
        -11   -1    0    0    0    0  0.00000000000E+00  0.00000000000E+00  0.45593999997E+02  0.45594000000E+02  0.51100000000E-03 0.  1.
         11   -1    0    0    0    0 -0.00000000000E+00 -0.00000000000E+00 -0.45593999997E+02  0.45594000000E+02  0.51100000000E-03 0. -1.
    9900012    2    1    2    0    0 -0.15496815300E+02 -0.25080024013E+02 -0.12147402766E+02  0.59301979821E+02  0.50000065278E+02 0.  0.
        -12    1    1    2    0    0  0.15496815300E+02  0.25080024013E+02  0.12147402766E+02  0.31886020179E+02  0.00000000000E+00 0.  1.
         11    1    3    3    0    0 -0.31416731072E+01 -0.24643436654E+02 -0.68701338932E+01  0.25775333557E+02  0.51100000000E-03 0. -1.
        -11    1    3    3    0    0  0.62112007284E+01  0.84196361960E+01  0.36794184798E+01  0.11090870515E+02  0.51100000000E-03 0.  1.
        -12    1    3    3    0    0 -0.18566342921E+02 -0.88562235550E+01 -0.89566873524E+01  0.22435775749E+02  0.00000000000E+00 0.  1.
</event>
<event>
 7    1  0.6055092E-013  0.5930185E+02  0.7816164E-02  0.1266605E+00
        -11   -1    0    0    0    0  0.00000000000E+00  0.00000000000E+00  0.45593999997E+02  0.45594000000E+02  0.51100000000E-03 0. -1.
         11   -1    0    0    0    0 -0.00000000000E+00 -0.00000000000E+00 -0.45593999997E+02  0.45594000000E+02  0.51100000000E-03 0.  1.
    9900012    2    1    2    0    0 -0.19880295923E+02 -0.24825236094E+02 -0.22821676709E+01  0.59301846228E+02  0.49999821636E+02 0.  0.
        -12    1    1    2    0    0  0.19880295923E+02  0.24825236094E+02  0.22821676709E+01  0.31886153772E+02  0.00000000000E+00 0.  1.
         11    1    3    3    0    0  0.12090524346E+02  0.27848274532E+01  0.53934476662E+01  0.13528685113E+02  0.51100000000E-03 0.  1.
        -11    1    3    3    0    0 -0.28127947749E+02 -0.27854169360E+02 -0.10550574517E+02  0.40967680166E+02  0.51100000000E-03 0. -1.
        -12    1    3    3    0    0 -0.38428725204E+01  0.24410581315E+00  0.28749591805E+01  0.48054809484E+01  0.00000000000E+00 0.  1.
</event>
<event>
 7    1  0.6055092E-013  0.5930190E+02  0.7816164E-02  0.1266605E+00
        -11   -1    0    0    0    0  0.00000000000E+00  0.00000000000E+00  0.45593999997E+02  0.45594000000E+02  0.51100000000E-03 0.  1.
         11   -1    0    0    0    0 -0.00000000000E+00 -0.00000000000E+00 -0.45593999997E+02  0.45594000000E+02  0.51100000000E-03 0. -1.
    9900012    2    1    2    0    0  0.24627955407E+02 -0.48302995071E+01 -0.19668643697E+02  0.59301897609E+02  0.49999915342E+02 0.  0.
        -12    1    1    2    0    0 -0.24627955407E+02  0.48302995071E+01  0.19668643697E+02  0.31886102391E+02  0.00000000000E+00 0.  1.
         11    1    3    3    0    0  0.12460680627E+01 -0.67576883602E+01 -0.10558558988E+02  0.12597706369E+02  0.51100000000E-03 0. -1.
        -11    1    3    3    0    0  0.70055498435E+01  0.19577789253E+02  0.44989862261E+00  0.20798316510E+02  0.51100000000E-03 0.  1.
        -12    1    3    3    0    0  0.16376337500E+02 -0.17650400400E+02 -0.95599833317E+01  0.25905874729E+02  0.00000000000E+00 0.  1.
</event>
<event>
 7    1  0.6055092E-013  0.5930198E+02  0.7816164E-02  0.1266605E+00
        -11   -1    0    0    0    0  0.00000000000E+00  0.00000000000E+00  0.45593999997E+02  0.45594000000E+02  0.51100000000E-03 0.  1.
         11   -1    0    0    0    0 -0.00000000000E+00 -0.00000000000E+00 -0.45593999997E+02  0.45594000000E+02  0.51100000000E-03 0. -1.
    9900012    2    1    2    0    0 -0.91942299492E+01  0.29160607394E+02  0.90467459691E+01  0.59301976407E+02  0.50000059051E+02 0.  0.
        -12    1    1    2    0    0  0.91942299492E+01 -0.29160607394E+02 -0.90467459691E+01  0.31886023593E+02  0.00000000000E+00 0.  1.
         11    1    3    3    0    0 -0.79054233495E+01  0.36372791619E+02  0.20886810201E+02  0.42681782169E+02  0.51100000000E-03 0. -1.
        -11    1    3    3    0    0 -0.17620937749E+01 -0.74570216105E+01 -0.37827029066E+01  0.85452318465E+01  0.51100000000E-03 0.  1.
         12    1    3    3    0    0  0.47328717517E+00  0.24483738619E+00 -0.80573613252E+01  0.80749623913E+01  0.00000000000E+00 0. -1.
</event>
<event>
 7    1  0.6055092E-013  0.5930200E+02  0.7816164E-02  0.1266605E+00
        -11   -1    0    0    0    0  0.00000000000E+00  0.00000000000E+00  0.45593999997E+02  0.45594000000E+02  0.51100000000E-03 0. -1.
         11   -1    0    0    0    0 -0.00000000000E+00 -0.00000000000E+00 -0.45593999997E+02  0.45594000000E+02  0.51100000000E-03 0.  1.
    9900012    2    1    2    0    0  0.47874851980E+01  0.26889105907E+02  0.16455182564E+02  0.59301998930E+02  0.50000100129E+02 0.  0.
        -12    1    1    2    0    0 -0.47874851980E+01 -0.26889105907E+02 -0.16455182564E+02  0.31886001070E+02  0.00000000000E+00 0.  1.
         11    1    3    3    0    0  0.48458975932E+00  0.13999058924E+02  0.23450775263E+02  0.27315697661E+02  0.51100000000E-03 0. -1.
        -11    1    3    3    0    0  0.13356424989E+02  0.29516809619E+01 -0.11434603775E+02  0.17828535351E+02  0.51100000000E-03 0.  1.
        -12    1    3    3    0    0 -0.90535295502E+01  0.99383660209E+01  0.44390110765E+01  0.14157765919E+02  0.00000000000E+00 0.  1.
</event>
<event>
 7    1  0.6055092E-013  0.5930195E+02  0.7816164E-02  0.1266605E+00
        -11   -1    0    0    0    0  0.00000000000E+00  0.00000000000E+00  0.45593999997E+02  0.45594000000E+02  0.51100000000E-03 0.  1.
         11   -1    0    0    0    0 -0.00000000000E+00 -0.00000000000E+00 -0.45593999997E+02  0.45594000000E+02  0.51100000000E-03 0. -1.
    9900012    2    1    2    0    0 -0.14020218585E+02 -0.20247038125E+02 -0.20253669099E+02  0.59301949853E+02  0.50000010624E+02 0.  0.
        -12    1    1    2    0    0  0.14020218585E+02  0.20247038125E+02  0.20253669099E+02  0.31886050147E+02  0.00000000000E+00 0.  1.
         11    1    3    3    0    0 -0.12728167540E+02  0.22560830308E+01 -0.43218894139E+01  0.13629926190E+02  0.51100000000E-03 0. -1.
        -11    1    3    3    0    0  0.15344324308E+02 -0.10245557891E+02 -0.16850564747E+02  0.24987222285E+02  0.51100000000E-03 0.  1.
        -12    1    3    3    0    0 -0.16636375352E+02 -0.12257563265E+02  0.91878506174E+00  0.20684801378E+02  0.00000000000E+00 0.  1.
</event>
<event>
 7    1  0.6055092E-013  0.5930193E+02  0.7816164E-02  0.1266605E+00
        -11   -1    0    0    0    0  0.00000000000E+00  0.00000000000E+00  0.45593999997E+02  0.45594000000E+02  0.51100000000E-03 0.  1.
         11   -1    0    0    0    0 -0.00000000000E+00 -0.00000000000E+00 -0.45593999997E+02  0.45594000000E+02  0.51100000000E-03 0. -1.
    9900012    2    1    2    0    0  0.27184040777E+01 -0.25488694777E+02 -0.18964651080E+02  0.59301932937E+02  0.49999979773E+02 0.  0.
        -12    1    1    2    0    0 -0.27184040777E+01  0.25488694777E+02  0.18964651080E+02  0.31886067063E+02  0.00000000000E+00 0.  1.
         11    1    3    3    0    0  0.15743317343E+02 -0.18154686153E+02 -0.59228906391E+01  0.24749248555E+02  0.51100000000E-03 0. -1.
        -11    1    3    3    0    0 -0.34077449384E+01  0.52255613048E+01 -0.17116171595E+02  0.18217643834E+02  0.51100000000E-03 0.  1.
         12    1    3    3    0    0 -0.96171683271E+01 -0.12559569929E+02  0.40744111541E+01  0.16335040548E+02  0.00000000000E+00 0. -1.
</event>
<event>
 7    1  0.6055092E-013  0.5930191E+02  0.7816164E-02  0.1266605E+00
        -11   -1    0    0    0    0  0.00000000000E+00  0.00000000000E+00  0.45593999997E+02  0.45594000000E+02  0.51100000000E-03 0.  1.
         11   -1    0    0    0    0 -0.00000000000E+00 -0.00000000000E+00 -0.45593999997E+02  0.45594000000E+02  0.51100000000E-03 0. -1.
    9900012    2    1    2    0    0 -0.10215967261E+02  0.47663060886E+01 -0.29826822707E+02  0.59301905639E+02  0.49999929989E+02 0.  0.
        -12    1    1    2    0    0  0.10215967261E+02 -0.47663060886E+01  0.29826822707E+02  0.31886094361E+02  0.00000000000E+00 0.  1.
         11    1    3    3    0    0 -0.34314731629E+01 -0.49888519204E+01 -0.18952136893E+02  0.19895907736E+02  0.51100000000E-03 0. -1.
        -11    1    3    3    0    0 -0.15073216668E+02 -0.79163440902E+01  0.74782601237E-01  0.17025743954E+02  0.51100000000E-03 0.  1.
        -12    1    3    3    0    0  0.82887225703E+01  0.17671502099E+02 -0.10949468415E+02  0.22380253950E+02  0.00000000000E+00 0.  1.
</event>
<event>
 7    1  0.6055092E-013  0.5930196E+02  0.7816164E-02  0.1266605E+00
        -11   -1    0    0    0    0  0.00000000000E+00  0.00000000000E+00  0.45593999997E+02  0.45594000000E+02  0.51100000000E-03 0. -1.
         11   -1    0    0    0    0 -0.00000000000E+00 -0.00000000000E+00 -0.45593999997E+02  0.45594000000E+02  0.51100000000E-03 0.  1.
    9900012    2    1    2    0    0  0.16786565870E+02 -0.14884261913E+01  0.27068718889E+02  0.59301956838E+02  0.50000023363E+02 0.  0.
        -12    1    1    2    0    0 -0.16786565870E+02  0.14884261913E+01 -0.27068718889E+02  0.31886043162E+02  0.00000000000E+00 0.  1.
         11    1    3    3    0    0  0.26674499032E+01 -0.14796693512E+02  0.10677857997E+01  0.15073075156E+02  0.51100000000E-03 0.  1.
        -11    1    3    3    0    0  0.12438009627E+02  0.22869083733E+02  0.19844097562E+02  0.32733580351E+02  0.51100000000E-03 0. -1.
        -12    1    3    3    0    0  0.16811063396E+01 -0.95608164116E+01  0.61568355273E+01  0.11495301331E+02  0.00000000000E+00 0.  1.
</event>
<event>
 7    1  0.6055092E-013  0.5930195E+02  0.7816164E-02  0.1266605E+00
        -11   -1    0    0    0    0  0.00000000000E+00  0.00000000000E+00  0.45593999997E+02  0.45594000000E+02  0.51100000000E-03 0.  1.
         11   -1    0    0    0    0 -0.00000000000E+00 -0.00000000000E+00 -0.45593999997E+02  0.45594000000E+02  0.51100000000E-03 0. -1.
    9900012    2    1    2    0    0 -0.96550263178E+01 -0.11585358414E+00 -0.30388931840E+02  0.59301950800E+02  0.50000012350E+02 0.  0.
        -12    1    1    2    0    0  0.96550263178E+01  0.11585358414E+00  0.30388931840E+02  0.31886049200E+02  0.00000000000E+00 0.  1.
         11    1    3    3    0    0  0.12417890117E+02  0.17442359155E+01 -0.16767645682E+02  0.20938010790E+02  0.51100000000E-03 0. -1.
        -11    1    3    3    0    0 -0.93519424310E+01 -0.14432465066E+02 -0.27012122054E+01  0.17408372203E+02  0.51100000000E-03 0.  1.
         12    1    3    3    0    0 -0.12720974004E+02  0.12572375566E+02 -0.10920073952E+02  0.20955567807E+02  0.00000000000E+00 0. -1.
</event>
<event>
 7    1  0.6055092E-013  0.5930190E+02  0.7816164E-02  0.1266605E+00
        -11   -1    0    0    0    0  0.00000000000E+00  0.00000000000E+00  0.45593999997E+02  0.45594000000E+02  0.51100000000E-03 0.  1.
         11   -1    0    0    0    0 -0.00000000000E+00 -0.00000000000E+00 -0.45593999997E+02  0.45594000000E+02  0.51100000000E-03 0. -1.
    9900012    2    1    2    0    0 -0.13576737207E+02  0.20479184198E+02 -0.20322363179E+02  0.59301902343E+02  0.49999923978E+02 0.  0.
        -12    1    1    2    0    0  0.13576737207E+02 -0.20479184198E+02  0.20322363179E+02  0.31886097657E+02  0.00000000000E+00 0.  1.
         11    1    3    3    0    0 -0.23800708427E+02  0.16499467470E+02 -0.10031928482E+02  0.30648747735E+02  0.51100000000E-03 0.  1.
        -11    1    3    3    0    0  0.16049242885E+02  0.89166669583E+01 -0.40732370612E+01  0.18806286375E+02  0.51100000000E-03 0. -1.
        -12    1    3    3    0    0 -0.58252716648E+01 -0.49369502304E+01 -0.62171976359E+01  0.98468682326E+01  0.00000000000E+00 0.  1.
</event>
<event>
 7    1  0.6055092E-013  0.5930195E+02  0.7816164E-02  0.1266605E+00
        -11   -1    0    0    0    0  0.00000000000E+00  0.00000000000E+00  0.45593999997E+02  0.45594000000E+02  0.51100000000E-03 0. -1.
         11   -1    0    0    0    0 -0.00000000000E+00 -0.00000000000E+00 -0.45593999997E+02  0.45594000000E+02  0.51100000000E-03 0.  1.
    9900012    2    1    2    0    0  0.11893701972E+02  0.29379403104E+02  0.34800519210E+01  0.59301949214E+02  0.50000009459E+02 0.  0.
        -12    1    1    2    0    0 -0.11893701972E+02 -0.29379403104E+02 -0.34800519210E+01  0.31886050786E+02  0.00000000000E+00 0.  1.
         11    1    3    3    0    0  0.13852326747E+02  0.11119219927E+02  0.13326504162E+02  0.22206299141E+02  0.51100000000E-03 0. -1.
        -11    1    3    3    0    0  0.96060206293E+01  0.42886118245E+01 -0.14926184853E+02  0.18260854806E+02  0.51100000000E-03 0.  1.
         12    1    3    3    0    0 -0.11564645404E+02  0.13971571352E+02  0.50797326123E+01  0.18834795268E+02  0.00000000000E+00 0. -1.
</event>
<event>
 7    1  0.6055092E-013  0.5930195E+02  0.7816164E-02  0.1266605E+00
        -11   -1    0    0    0    0  0.00000000000E+00  0.00000000000E+00  0.45593999997E+02  0.45594000000E+02  0.51100000000E-03 0.  1.
         11   -1    0    0    0    0 -0.00000000000E+00 -0.00000000000E+00 -0.45593999997E+02  0.45594000000E+02  0.51100000000E-03 0. -1.
    9900012    2    1    2    0    0 -0.73740267040E+01  0.13059072964E+02 -0.28139026361E+02  0.59301945665E+02  0.50000002986E+02 0.  0.
        -12    1    1    2    0    0  0.73740267040E+01 -0.13059072964E+02  0.28139026361E+02  0.31886054335E+02  0.00000000000E+00 0.  1.
         11    1    3    3    0    0 -0.22717014698E+02 -0.27920345694E+01 -0.10089311841E+02  0.25013045147E+02  0.51100000000E-03 0. -1.
        -11    1    3    3    0    0  0.88995454767E+01 -0.10821152805E+01 -0.36746161432E+00  0.89726201007E+01  0.51100000000E-03 0.  1.
         12    1    3    3    0    0  0.64434425177E+01  0.16933222814E+02 -0.17682252906E+02  0.25316280417E+02  0.00000000000E+00 0. -1.
</event>
<event>
 7    1  0.6055092E-013  0.5930191E+02  0.7816164E-02  0.1266605E+00
        -11   -1    0    0    0    0  0.00000000000E+00  0.00000000000E+00  0.45593999997E+02  0.45594000000E+02  0.51100000000E-03 0.  1.
         11   -1    0    0    0    0 -0.00000000000E+00 -0.00000000000E+00 -0.45593999997E+02  0.45594000000E+02  0.51100000000E-03 0. -1.
    9900012    2    1    2    0    0 -0.74054242381E+01 -0.22747688866E+02 -0.21081393230E+02  0.59301909029E+02  0.49999936170E+02 0.  0.
        -12    1    1    2    0    0  0.74054242381E+01  0.22747688866E+02  0.21081393230E+02  0.31886090971E+02  0.00000000000E+00 0.  1.
         11    1    3    3    0    0 -0.16181507606E+02 -0.21810134064E+02 -0.30598509221E+02  0.40912001944E+02  0.51100000000E-03 0. -1.
        -11    1    3    3    0    0  0.81134214467E+01 -0.63364547186E+01  0.63566638091E+01  0.12098985123E+02  0.51100000000E-03 0.  1.
        -12    1    3    3    0    0  0.66266192122E+00  0.53988999163E+01  0.31604521818E+01  0.62909219611E+01  0.00000000000E+00 0.  1.
</event>
<event>
 7    1  0.6055092E-013  0.5930194E+02  0.7816164E-02  0.1266605E+00
        -11   -1    0    0    0    0  0.00000000000E+00  0.00000000000E+00  0.45593999997E+02  0.45594000000E+02  0.51100000000E-03 0. -1.
         11   -1    0    0    0    0 -0.00000000000E+00 -0.00000000000E+00 -0.45593999997E+02  0.45594000000E+02  0.51100000000E-03 0.  1.
    9900012    2    1    2    0    0  0.23290290189E+02 -0.56170974297E+01  0.21041179005E+02  0.59301943258E+02  0.49999998596E+02 0.  0.
        -12    1    1    2    0    0 -0.23290290189E+02  0.56170974297E+01 -0.21041179005E+02  0.31886056742E+02  0.00000000000E+00 0.  1.
         11    1    3    3    0    0 -0.75897389527E+01 -0.58527785210E+01  0.12383970876E+02  0.15659562213E+02  0.51100000000E-03 0.  1.
        -11    1    3    3    0    0  0.20544539986E+02 -0.13201813687E+02 -0.39621540370E+00  0.24423820233E+02  0.51100000000E-03 0. -1.
         12    1    3    3    0    0  0.10335489157E+02  0.13437494779E+02  0.90534235331E+01  0.19218560813E+02  0.00000000000E+00 0. -1.
</event>
<event>
 7    1  0.6055092E-013  0.5930193E+02  0.7816164E-02  0.1266605E+00
        -11   -1    0    0    0    0  0.00000000000E+00  0.00000000000E+00  0.45593999997E+02  0.45594000000E+02  0.51100000000E-03 0.  1.
         11   -1    0    0    0    0 -0.00000000000E+00 -0.00000000000E+00 -0.45593999997E+02  0.45594000000E+02  0.51100000000E-03 0. -1.
    9900012    2    1    2    0    0  0.19720552815E+02 -0.16132496686E+02 -0.19171945401E+02  0.59301934970E+02  0.49999983481E+02 0.  0.
        -12    1    1    2    0    0 -0.19720552815E+02  0.16132496686E+02  0.19171945401E+02  0.31886065030E+02  0.00000000000E+00 0.  1.
         11    1    3    3    0    0  0.46261701685E+01  0.13557406379E+02 -0.10414328766E+02  0.17710532518E+02  0.51100000000E-03 0. -1.
        -11    1    3    3    0    0 -0.35521099819E+01 -0.18402892642E+02 -0.24598841537E+01  0.18903305881E+02  0.51100000000E-03 0.  1.
         12    1    3    3    0    0  0.18646492628E+02 -0.11287010423E+02 -0.62977324814E+01  0.22688096571E+02  0.00000000000E+00 0. -1.
</event>
<event>
 7    1  0.6055092E-013  0.5930194E+02  0.7816164E-02  0.1266605E+00
        -11   -1    0    0    0    0  0.00000000000E+00  0.00000000000E+00  0.45593999997E+02  0.45594000000E+02  0.51100000000E-03 0. -1.
         11   -1    0    0    0    0 -0.00000000000E+00 -0.00000000000E+00 -0.45593999997E+02  0.45594000000E+02  0.51100000000E-03 0.  1.
    9900012    2    1    2    0    0 -0.29424726579E+02  0.58304293065E+00  0.12270560302E+02  0.59301935278E+02  0.49999984043E+02 0.  0.
        -12    1    1    2    0    0  0.29424726579E+02 -0.58304293065E+00 -0.12270560302E+02  0.31886064722E+02  0.00000000000E+00 0.  1.
         11    1    3    3    0    0  0.25038267527E+01  0.58372755222E+01  0.17258945917E+02  0.18390599456E+02  0.51100000000E-03 0. -1.
        -11    1    3    3    0    0 -0.66765866880E+01  0.52303160517E+01 -0.10001549825E+02  0.13113505061E+02  0.51100000000E-03 0.  1.
         12    1    3    3    0    0 -0.25251966644E+02 -0.10484548643E+02  0.50131642107E+01  0.27797830762E+02  0.00000000000E+00 0. -1.
</event>
<event>
 7    1  0.6055092E-013  0.5930192E+02  0.7816164E-02  0.1266605E+00
        -11   -1    0    0    0    0  0.00000000000E+00  0.00000000000E+00  0.45593999997E+02  0.45594000000E+02  0.51100000000E-03 0. -1.
         11   -1    0    0    0    0 -0.00000000000E+00 -0.00000000000E+00 -0.45593999997E+02  0.45594000000E+02  0.51100000000E-03 0.  1.
    9900012    2    1    2    0    0 -0.14140534732E+02 -0.26458072302E+02  0.10804523306E+02  0.59301920964E+02  0.49999957937E+02 0.  0.
        -12    1    1    2    0    0  0.14140534732E+02  0.26458072302E+02 -0.10804523306E+02  0.31886079036E+02  0.00000000000E+00 0.  1.
         11    1    3    3    0    0 -0.18474460028E+02 -0.73491003112E+01  0.13803303809E+02  0.24204258820E+02  0.51100000000E-03 0. -1.
        -11    1    3    3    0    0  0.13932055153E+02 -0.51931409485E+01  0.58968689182E+01  0.15995122288E+02  0.51100000000E-03 0.  1.
         12    1    3    3    0    0 -0.95981298564E+01 -0.13915831042E+02 -0.88956494215E+01  0.19102539856E+02  0.00000000000E+00 0. -1.
</event>
<event>
 7    1  0.6055092E-013  0.5930195E+02  0.7816164E-02  0.1266605E+00
        -11   -1    0    0    0    0  0.00000000000E+00  0.00000000000E+00  0.45593999997E+02  0.45594000000E+02  0.51100000000E-03 0.  1.
         11   -1    0    0    0    0 -0.00000000000E+00 -0.00000000000E+00 -0.45593999997E+02  0.45594000000E+02  0.51100000000E-03 0. -1.
    9900012    2    1    2    0    0  0.26361345478E+02  0.12626730940E+02 -0.12742267390E+02  0.59301949008E+02  0.50000009082E+02 0.  0.
        -12    1    1    2    0    0 -0.26361345478E+02 -0.12626730940E+02  0.12742267390E+02  0.31886050992E+02  0.00000000000E+00 0.  1.
         11    1    3    3    0    0 -0.22939118886E+01 -0.94202530600E+01 -0.34745846626E+01  0.10299317371E+02  0.51100000000E-03 0. -1.
        -11    1    3    3    0    0  0.71347073057E+01  0.20741931107E+02  0.58127687554E+01  0.22691849533E+02  0.51100000000E-03 0.  1.
        -12    1    3    3    0    0  0.21520550061E+02  0.13050528939E+01 -0.15080451483E+02  0.26310782104E+02  0.00000000000E+00 0.  1.
</event>
<event>
 7    1  0.6055092E-013  0.5930183E+02  0.7816164E-02  0.1266605E+00
        -11   -1    0    0    0    0  0.00000000000E+00  0.00000000000E+00  0.45593999997E+02  0.45594000000E+02  0.51100000000E-03 0.  1.
         11   -1    0    0    0    0 -0.00000000000E+00 -0.00000000000E+00 -0.45593999997E+02  0.45594000000E+02  0.51100000000E-03 0. -1.
    9900012    2    1    2    0    0 -0.17547177892E+02  0.11657169571E+02 -0.23936051676E+02  0.59301833341E+02  0.49999798134E+02 0.  0.
        -12    1    1    2    0    0  0.17547177892E+02 -0.11657169571E+02  0.23936051676E+02  0.31886166659E+02  0.00000000000E+00 0.  1.
         11    1    3    3    0    0 -0.14682242194E+02  0.20033038099E+02  0.27288756306E+01  0.24986748764E+02  0.51100000000E-03 0. -1.
        -11    1    3    3    0    0 -0.79368965012E+01 -0.12629952889E+02 -0.17238144414E+02  0.22796132548E+02  0.51100000000E-03 0.  1.
        -12    1    3    3    0    0  0.50719608036E+01  0.42540843612E+01 -0.94267828928E+01  0.11518952029E+02  0.00000000000E+00 0.  1.
</event>
<event>
 7    1  0.6055092E-013  0.5930193E+02  0.7816164E-02  0.1266605E+00
        -11   -1    0    0    0    0  0.00000000000E+00  0.00000000000E+00  0.45593999997E+02  0.45594000000E+02  0.51100000000E-03 0.  1.
         11   -1    0    0    0    0 -0.00000000000E+00 -0.00000000000E+00 -0.45593999997E+02  0.45594000000E+02  0.51100000000E-03 0. -1.
    9900012    2    1    2    0    0 -0.16142051347E+02 -0.26030622118E+02 -0.88635264890E+01  0.59301933900E+02  0.49999981529E+02 0.  0.
        -12    1    1    2    0    0  0.16142051347E+02  0.26030622118E+02  0.88635264890E+01  0.31886066100E+02  0.00000000000E+00 0.  1.
         11    1    3    3    0    0  0.24880383768E+01 -0.13229584164E+02 -0.93572888759E+01  0.16394239460E+02  0.51100000000E-03 0. -1.
        -11    1    3    3    0    0 -0.24708415848E+02 -0.10583224920E+01 -0.93328687286E+01  0.26433469299E+02  0.51100000000E-03 0.  1.
        -12    1    3    3    0    0  0.60783261241E+01 -0.11742715462E+02  0.98266311155E+01  0.16474225140E+02  0.00000000000E+00 0.  1.
</event>
<event>
 7    1  0.6055092E-013  0.5930173E+02  0.7816164E-02  0.1266605E+00
        -11   -1    0    0    0    0  0.00000000000E+00  0.00000000000E+00  0.45593999997E+02  0.45594000000E+02  0.51100000000E-03 0.  1.
         11   -1    0    0    0    0 -0.00000000000E+00 -0.00000000000E+00 -0.45593999997E+02  0.45594000000E+02  0.51100000000E-03 0. -1.
    9900012    2    1    2    0    0  0.20266591049E+02  0.23080745033E+02 -0.85602906901E+01  0.59301732098E+02  0.49999613490E+02 0.  0.
        -12    1    1    2    0    0 -0.20266591049E+02 -0.23080745033E+02  0.85602906901E+01  0.31886267902E+02  0.00000000000E+00 0.  1.
         11    1    3    3    0    0  0.16368762399E+01 -0.73223247210E+01  0.12727069871E+02  0.14774102711E+02  0.51100000000E-03 0.  1.
        -11    1    3    3    0    0  0.20663540717E+02  0.23161101236E+02 -0.19922756136E+02  0.36882715976E+02  0.51100000000E-03 0. -1.
         12    1    3    3    0    0 -0.20338259079E+01  0.72419685175E+01 -0.13646044256E+01  0.76449134115E+01  0.00000000000E+00 0. -1.
</event>
<event>
 7    1  0.6055092E-013  0.5930193E+02  0.7816164E-02  0.1266605E+00
        -11   -1    0    0    0    0  0.00000000000E+00  0.00000000000E+00  0.45593999997E+02  0.45594000000E+02  0.51100000000E-03 0.  1.
         11   -1    0    0    0    0 -0.00000000000E+00 -0.00000000000E+00 -0.45593999997E+02  0.45594000000E+02  0.51100000000E-03 0. -1.
    9900012    2    1    2    0    0  0.60220895340E+01 -0.54143671920E+00 -0.31307551343E+02  0.59301929575E+02  0.49999973641E+02 0.  0.
        -12    1    1    2    0    0 -0.60220895340E+01  0.54143671920E+00  0.31307551343E+02  0.31886070425E+02  0.00000000000E+00 0.  1.
         11    1    3    3    0    0  0.71191011674E+01 -0.10701948303E+02 -0.25031320278E+01  0.13094997866E+02  0.51100000000E-03 0. -1.
        -11    1    3    3    0    0  0.89073278462E+01  0.83504833037E+01 -0.33016853895E+02  0.35202041165E+02  0.51100000000E-03 0.  1.
        -12    1    3    3    0    0 -0.10004339480E+02  0.18100282797E+01  0.42124345799E+01  0.11004890544E+02  0.00000000000E+00 0.  1.
</event>
<event>
 7    1  0.6055092E-013  0.5930193E+02  0.7816164E-02  0.1266605E+00
        -11   -1    0    0    0    0  0.00000000000E+00  0.00000000000E+00  0.45593999997E+02  0.45594000000E+02  0.51100000000E-03 0. -1.
         11   -1    0    0    0    0 -0.00000000000E+00 -0.00000000000E+00 -0.45593999997E+02  0.45594000000E+02  0.51100000000E-03 0.  1.
    9900012    2    1    2    0    0 -0.12671051043E+02  0.23999790933E+02  0.16738454067E+02  0.59301931821E+02  0.49999977738E+02 0.  0.
        -12    1    1    2    0    0  0.12671051043E+02 -0.23999790933E+02 -0.16738454067E+02  0.31886068179E+02  0.00000000000E+00 0.  1.
         11    1    3    3    0    0 -0.18199859783E+02 -0.15127862079E+01  0.11593811439E+02  0.21631918134E+02  0.51100000000E-03 0. -1.
        -11    1    3    3    0    0 -0.84378795644E+00  0.22087965106E+02 -0.72974569866E+01  0.23277522621E+02  0.51100000000E-03 0.  1.
         12    1    3    3    0    0  0.63725966966E+01  0.34246120345E+01  0.12442099615E+02  0.14392491066E+02  0.00000000000E+00 0. -1.
</event>
<event>
 7    1  0.6055092E-013  0.5930194E+02  0.7816164E-02  0.1266605E+00
        -11   -1    0    0    0    0  0.00000000000E+00  0.00000000000E+00  0.45593999997E+02  0.45594000000E+02  0.51100000000E-03 0.  1.
         11   -1    0    0    0    0 -0.00000000000E+00 -0.00000000000E+00 -0.45593999997E+02  0.45594000000E+02  0.51100000000E-03 0. -1.
    9900012    2    1    2    0    0 -0.10159102359E+02 -0.99844058963E+01 -0.28527615283E+02  0.59301944182E+02  0.50000000282E+02 0.  0.
        -12    1    1    2    0    0  0.10159102359E+02  0.99844058963E+01  0.28527615283E+02  0.31886055818E+02  0.00000000000E+00 0.  1.
         11    1    3    3    0    0 -0.99597120930E+01  0.23966139389E+01  0.20782726657E+01  0.10452695388E+02  0.51100000000E-03 0. -1.
        -11    1    3    3    0    0 -0.16119188539E+01 -0.23058038621E+02 -0.30254203690E+02  0.38073458847E+02  0.51100000000E-03 0.  1.
        -12    1    3    3    0    0  0.14125285875E+01  0.10677018786E+02 -0.35168425952E+00  0.10775789947E+02  0.00000000000E+00 0.  1.
</event>
<event>
 7    1  0.6055092E-013  0.5930194E+02  0.7816164E-02  0.1266605E+00
        -11   -1    0    0    0    0  0.00000000000E+00  0.00000000000E+00  0.45593999997E+02  0.45594000000E+02  0.51100000000E-03 0.  1.
         11   -1    0    0    0    0 -0.00000000000E+00 -0.00000000000E+00 -0.45593999997E+02  0.45594000000E+02  0.51100000000E-03 0. -1.
    9900012    2    1    2    0    0  0.12507642703E+02 -0.14059888999E+02 -0.25741000029E+02  0.59301942120E+02  0.49999996521E+02 0.  0.
        -12    1    1    2    0    0 -0.12507642703E+02  0.14059888999E+02  0.25741000029E+02  0.31886057880E+02  0.00000000000E+00 0.  1.
         11    1    3    3    0    0  0.24874328180E+02 -0.11006532167E+02 -0.12547427643E+02  0.29955198104E+02  0.51100000000E-03 0. -1.
        -11    1    3    3    0    0 -0.17463351610E+02 -0.77585542979E+01 -0.11109420739E+02  0.22103914669E+02  0.51100000000E-03 0.  1.
         12    1    3    3    0    0  0.50966661330E+01  0.47051974657E+01 -0.20841516466E+01  0.72428293470E+01  0.00000000000E+00 0. -1.
</event>
<event>
 7    1  0.6055092E-013  0.5930196E+02  0.7816164E-02  0.1266605E+00
        -11   -1    0    0    0    0  0.00000000000E+00  0.00000000000E+00  0.45593999997E+02  0.45594000000E+02  0.51100000000E-03 0.  1.
         11   -1    0    0    0    0 -0.00000000000E+00 -0.00000000000E+00 -0.45593999997E+02  0.45594000000E+02  0.51100000000E-03 0. -1.
    9900012    2    1    2    0    0 -0.27602338681E+01  0.29303852540E+02 -0.12263146165E+02  0.59301962013E+02  0.50000032800E+02 0.  0.
        -12    1    1    2    0    0  0.27602338681E+01 -0.29303852540E+02  0.12263146165E+02  0.31886037987E+02  0.00000000000E+00 0.  1.
         11    1    3    3    0    0 -0.11049463093E+02 -0.96957051657E+00 -0.10814746235E+02  0.15491592495E+02  0.51100000000E-03 0. -1.
        -11    1    3    3    0    0 -0.19421433506E+01  0.32528250342E+02 -0.45064320718E+01  0.32896305589E+02  0.51100000000E-03 0.  1.
        -12    1    3    3    0    0  0.10231372575E+02 -0.22548272860E+01  0.30580321426E+01  0.10914063929E+02  0.00000000000E+00 0.  1.
</event>
<event>
 7    1  0.6055092E-013  0.5930198E+02  0.7816164E-02  0.1266605E+00
        -11   -1    0    0    0    0  0.00000000000E+00  0.00000000000E+00  0.45593999997E+02  0.45594000000E+02  0.51100000000E-03 0.  1.
         11   -1    0    0    0    0 -0.00000000000E+00 -0.00000000000E+00 -0.45593999997E+02  0.45594000000E+02  0.51100000000E-03 0. -1.
    9900012    2    1    2    0    0  0.11083281334E+02  0.12978556500E+02 -0.26933921676E+02  0.59301981265E+02  0.50000067911E+02 0.  0.
        -12    1    1    2    0    0 -0.11083281334E+02 -0.12978556500E+02  0.26933921676E+02  0.31886018735E+02  0.00000000000E+00 0.  1.
         11    1    3    3    0    0  0.11774295701E+01  0.96088182420E+01 -0.22371582508E+02  0.24376288327E+02  0.51100000000E-03 0. -1.
        -11    1    3    3    0    0 -0.10439900004E+01  0.16005252995E+02  0.34172377933E+01  0.16399254646E+02  0.51100000000E-03 0.  1.
        -12    1    3    3    0    0  0.10949841764E+02 -0.12635514737E+02 -0.79795769606E+01  0.18526438292E+02  0.00000000000E+00 0.  1.
</event>
<event>
 7    1  0.6055092E-013  0.5930195E+02  0.7816164E-02  0.1266605E+00
        -11   -1    0    0    0    0  0.00000000000E+00  0.00000000000E+00  0.45593999997E+02  0.45594000000E+02  0.51100000000E-03 0.  1.
         11   -1    0    0    0    0 -0.00000000000E+00 -0.00000000000E+00 -0.45593999997E+02  0.45594000000E+02  0.51100000000E-03 0. -1.
    9900012    2    1    2    0    0  0.16064401565E+02 -0.42033647296E-01 -0.27543659475E+02  0.59301953808E+02  0.50000017837E+02 0.  0.
        -12    1    1    2    0    0 -0.16064401565E+02  0.42033647296E-01  0.27543659475E+02  0.31886046192E+02  0.00000000000E+00 0.  1.
         11    1    3    3    0    0  0.33032358760E+01 -0.12022087552E+02 -0.34384833775E+02  0.36575384487E+02  0.51100000000E-03 0. -1.
        -11    1    3    3    0    0  0.82457951226E+01  0.10284161570E+02  0.10352075956E+02  0.16760745606E+02  0.51100000000E-03 0.  1.
         12    1    3    3    0    0  0.45153705667E+01  0.16958923348E+01 -0.35109016566E+01  0.59658237158E+01  0.00000000000E+00 0. -1.
</event>
<event>
 7    1  0.6055092E-013  0.5930200E+02  0.7816164E-02  0.1266605E+00
        -11   -1    0    0    0    0  0.00000000000E+00  0.00000000000E+00  0.45593999997E+02  0.45594000000E+02  0.51100000000E-03 0. -1.
         11   -1    0    0    0    0 -0.00000000000E+00 -0.00000000000E+00 -0.45593999997E+02  0.45594000000E+02  0.51100000000E-03 0.  1.
    9900012    2    1    2    0    0 -0.29080029117E+02  0.12877135213E+02  0.22909122891E+01  0.59302000191E+02  0.50000102428E+02 0.  0.
        -12    1    1    2    0    0  0.29080029117E+02 -0.12877135213E+02 -0.22909122891E+01  0.31885999809E+02  0.00000000000E+00 0.  1.
         11    1    3    3    0    0  0.93236516530E+01  0.28858912044E+01  0.10887986802E+02  0.14622144338E+02  0.51100000000E-03 0. -1.
        -11    1    3    3    0    0 -0.37074023785E+02  0.40484323285E+01 -0.95949155341E+01  0.38508900897E+02  0.51100000000E-03 0.  1.
         12    1    3    3    0    0 -0.13296569849E+01  0.59428116801E+01  0.99784102158E+00  0.61709549559E+01  0.00000000000E+00 0. -1.
</event>
<event>
 7    1  0.6055092E-013  0.5930195E+02  0.7816164E-02  0.1266605E+00
        -11   -1    0    0    0    0  0.00000000000E+00  0.00000000000E+00  0.45593999997E+02  0.45594000000E+02  0.51100000000E-03 0.  1.
         11   -1    0    0    0    0 -0.00000000000E+00 -0.00000000000E+00 -0.45593999997E+02  0.45594000000E+02  0.51100000000E-03 0. -1.
    9900012    2    1    2    0    0  0.67358138438E+01  0.31114587812E+02  0.17976848560E+01  0.59301946094E+02  0.50000003768E+02 0.  0.
        -12    1    1    2    0    0 -0.67358138438E+01 -0.31114587812E+02 -0.17976848560E+01  0.31886053906E+02  0.00000000000E+00 0.  1.
         11    1    3    3    0    0  0.76574845587E+01  0.50355317054E+01  0.41738066640E+01  0.10070467301E+02  0.51100000000E-03 0. -1.
        -11    1    3    3    0    0 -0.20726757456E+02  0.16320528715E+02  0.28740290719E+01  0.26537109405E+02  0.51100000000E-03 0.  1.
        -12    1    3    3    0    0  0.19805086741E+02  0.97585273915E+01 -0.52501508799E+01  0.22694369388E+02  0.00000000000E+00 0.  1.
</event>
<event>
 7    1  0.6055092E-013  0.5930195E+02  0.7816164E-02  0.1266605E+00
        -11   -1    0    0    0    0  0.00000000000E+00  0.00000000000E+00  0.45593999997E+02  0.45594000000E+02  0.51100000000E-03 0.  1.
         11   -1    0    0    0    0 -0.00000000000E+00 -0.00000000000E+00 -0.45593999997E+02  0.45594000000E+02  0.51100000000E-03 0. -1.
    9900012    2    1    2    0    0 -0.13543650498E+02 -0.28792097471E+02 -0.20748808608E+01  0.59301945428E+02  0.50000002553E+02 0.  0.
        -12    1    1    2    0    0  0.13543650498E+02  0.28792097471E+02  0.20748808608E+01  0.31886054572E+02  0.00000000000E+00 0.  1.
         11    1    3    3    0    0  0.94769864068E+01 -0.48862240298E+01 -0.18986215396E+02  0.21775326219E+02  0.51100000000E-03 0. -1.
        -11    1    3    3    0    0 -0.11491275974E+02 -0.92167498379E+01  0.60552968223E+01  0.15926849059E+02  0.51100000000E-03 0.  1.
         12    1    3    3    0    0 -0.11529360931E+02 -0.14689123603E+02  0.10856037712E+02  0.21599770150E+02  0.00000000000E+00 0. -1.
</event>
<event>
 7    1  0.6055092E-013  0.5930199E+02  0.7816164E-02  0.1266605E+00
        -11   -1    0    0    0    0  0.00000000000E+00  0.00000000000E+00  0.45593999997E+02  0.45594000000E+02  0.51100000000E-03 0.  1.
         11   -1    0    0    0    0 -0.00000000000E+00 -0.00000000000E+00 -0.45593999997E+02  0.45594000000E+02  0.51100000000E-03 0. -1.
    9900012    2    1    2    0    0  0.41800906563E+01 -0.22565104001E+01 -0.31530182724E+02  0.59301993357E+02  0.50000089964E+02 0.  0.
        -12    1    1    2    0    0 -0.41800906563E+01  0.22565104001E+01  0.31530182724E+02  0.31886006643E+02  0.00000000000E+00 0.  1.
         11    1    3    3    0    0 -0.15228150153E+01  0.86840864461E+01 -0.29148776961E+02  0.30452972295E+02  0.51100000000E-03 0. -1.
        -11    1    3    3    0    0  0.13022625983E+02 -0.40974072732E+01  0.68058545865E+01  0.15254415452E+02  0.51100000000E-03 0.  1.
         12    1    3    3    0    0 -0.73197203118E+01 -0.68431895730E+01 -0.91872603489E+01  0.13594605610E+02  0.00000000000E+00 0. -1.
</event>
<event>
 7    1  0.6055092E-013  0.5930195E+02  0.7816164E-02  0.1266605E+00
        -11   -1    0    0    0    0  0.00000000000E+00  0.00000000000E+00  0.45593999997E+02  0.45594000000E+02  0.51100000000E-03 0.  1.
         11   -1    0    0    0    0 -0.00000000000E+00 -0.00000000000E+00 -0.45593999997E+02  0.45594000000E+02  0.51100000000E-03 0. -1.
    9900012    2    1    2    0    0 -0.94590370719E+00  0.18589241680E+02 -0.25889484765E+02  0.59301951931E+02  0.50000014413E+02 0.  0.
        -12    1    1    2    0    0  0.94590370719E+00 -0.18589241680E+02  0.25889484765E+02  0.31886048069E+02  0.00000000000E+00 0.  1.
         11    1    3    3    0    0  0.88858825320E+00 -0.36371192229E+00 -0.56264236051E+01  0.57077594809E+01  0.51100000000E-03 0. -1.
        -11    1    3    3    0    0 -0.86041404645E+01  0.32902824086E+02 -0.15488323014E+02  0.37369977469E+02  0.51100000000E-03 0.  1.
        -12    1    3    3    0    0  0.67696485041E+01 -0.13949870484E+02 -0.47747381457E+01  0.16224214981E+02  0.00000000000E+00 0.  1.
</event>
<event>
 7    1  0.6055092E-013  0.5930197E+02  0.7816164E-02  0.1266605E+00
        -11   -1    0    0    0    0  0.00000000000E+00  0.00000000000E+00  0.45593999997E+02  0.45594000000E+02  0.51100000000E-03 0.  1.
         11   -1    0    0    0    0 -0.00000000000E+00 -0.00000000000E+00 -0.45593999997E+02  0.45594000000E+02  0.51100000000E-03 0. -1.
    9900012    2    1    2    0    0 -0.17052211291E+00  0.31475039888E+02 -0.51001607672E+01  0.59301970871E+02  0.50000048956E+02 0.  0.
        -12    1    1    2    0    0  0.17052211291E+00 -0.31475039888E+02  0.51001607672E+01  0.31886029129E+02  0.00000000000E+00 0.  1.
         11    1    3    3    0    0  0.39838724979E+01  0.20740245592E+02 -0.10185989840E+02  0.23447460770E+02  0.51100000000E-03 0. -1.
        -11    1    3    3    0    0 -0.11006361279E+02 -0.80277814723E+01 -0.35732689354E+01  0.14083803291E+02  0.51100000000E-03 0.  1.
         12    1    3    3    0    0  0.68519666687E+01  0.18762575768E+02  0.86590980079E+01  0.21770706810E+02  0.00000000000E+00 0. -1.
</event>
<event>
 7    1  0.6055092E-013  0.5930195E+02  0.7816164E-02  0.1266605E+00
        -11   -1    0    0    0    0  0.00000000000E+00  0.00000000000E+00  0.45593999997E+02  0.45594000000E+02  0.51100000000E-03 0.  1.
         11   -1    0    0    0    0 -0.00000000000E+00 -0.00000000000E+00 -0.45593999997E+02  0.45594000000E+02  0.51100000000E-03 0. -1.
    9900012    2    1    2    0    0 -0.12202735048E+02 -0.29358522757E+02 -0.24270795960E+01  0.59301947932E+02  0.50000007120E+02 0.  0.
        -12    1    1    2    0    0  0.12202735048E+02  0.29358522757E+02  0.24270795960E+01  0.31886052068E+02  0.00000000000E+00 0.  1.
         11    1    3    3    0    0 -0.13770001074E+02 -0.10362900693E+02 -0.11973672012E+01  0.17275309804E+02  0.51100000000E-03 0. -1.
        -11    1    3    3    0    0  0.13099757928E+02  0.37478683556E+01  0.68853427111E+01  0.15266241171E+02  0.51100000000E-03 0.  1.
        -12    1    3    3    0    0 -0.11532491902E+02 -0.22743490419E+02 -0.81150551058E+01  0.26760396957E+02  0.00000000000E+00 0.  1.
</event>
<event>
 7    1  0.6055092E-013  0.5930197E+02  0.7816164E-02  0.1266605E+00
        -11   -1    0    0    0    0  0.00000000000E+00  0.00000000000E+00  0.45593999997E+02  0.45594000000E+02  0.51100000000E-03 0.  1.
         11   -1    0    0    0    0 -0.00000000000E+00 -0.00000000000E+00 -0.45593999997E+02  0.45594000000E+02  0.51100000000E-03 0. -1.
    9900012    2    1    2    0    0 -0.18459068216E+01 -0.12684186881E+01 -0.31807269748E+02  0.59301973801E+02  0.50000054299E+02 0.  0.
        -12    1    1    2    0    0  0.18459068216E+01  0.12684186881E+01  0.31807269748E+02  0.31886026199E+02  0.00000000000E+00 0.  1.
         11    1    3    3    0    0  0.15332739383E+02  0.81512106079E+01 -0.14490343890E+02  0.22616480665E+02  0.51100000000E-03 0. -1.
        -11    1    3    3    0    0 -0.10808039788E+02 -0.13880100673E+02 -0.21560031565E+02  0.27826352260E+02  0.51100000000E-03 0.  1.
        -12    1    3    3    0    0 -0.63706064165E+01  0.44604713766E+01  0.42431057069E+01  0.88591408757E+01  0.00000000000E+00 0.  1.
</event>
<event>
 7    1  0.6055092E-013  0.5930195E+02  0.7816164E-02  0.1266605E+00
        -11   -1    0    0    0    0  0.00000000000E+00  0.00000000000E+00  0.45593999997E+02  0.45594000000E+02  0.51100000000E-03 0.  1.
         11   -1    0    0    0    0 -0.00000000000E+00 -0.00000000000E+00 -0.45593999997E+02  0.45594000000E+02  0.51100000000E-03 0. -1.
    9900012    2    1    2    0    0  0.23834361188E+02  0.20997372117E+02 -0.27845844828E+01  0.59301947880E+02  0.50000007026E+02 0.  0.
        -12    1    1    2    0    0 -0.23834361188E+02 -0.20997372117E+02  0.27845844828E+01  0.31886052120E+02  0.00000000000E+00 0.  1.
         11    1    3    3    0    0  0.92991227683E+01 -0.60524513193E+00 -0.10325054917E+02  0.13908514127E+02  0.51100000000E-03 0. -1.
        -11    1    3    3    0    0 -0.74263820459E+01  0.20777746264E+02  0.78337034108E+01  0.23414371644E+02  0.51100000000E-03 0.  1.
        -12    1    3    3    0    0  0.21961620465E+02  0.82487098419E+00 -0.29323297694E+00  0.21979062109E+02  0.00000000000E+00 0.  1.
</event>
<event>
 7    1  0.6055092E-013  0.5930199E+02  0.7816164E-02  0.1266605E+00
        -11   -1    0    0    0    0  0.00000000000E+00  0.00000000000E+00  0.45593999997E+02  0.45594000000E+02  0.51100000000E-03 0.  1.
         11   -1    0    0    0    0 -0.00000000000E+00 -0.00000000000E+00 -0.45593999997E+02  0.45594000000E+02  0.51100000000E-03 0. -1.
    9900012    2    1    2    0    0 -0.26618776606E+02  0.39483877142E+01 -0.17104641526E+02  0.59301987467E+02  0.50000079223E+02 0.  0.
        -12    1    1    2    0    0  0.26618776606E+02 -0.39483877142E+01  0.17104641526E+02  0.31886012533E+02  0.00000000000E+00 0.  1.
         11    1    3    3    0    0 -0.16896302279E+02  0.83064279873E+00  0.59368622112E+01  0.17928227222E+02  0.51100000000E-03 0. -1.
        -11    1    3    3    0    0 -0.22718025467E+01 -0.57076485478E+00 -0.30267891185E+02  0.30358394166E+02  0.51100000000E-03 0.  1.
        -12    1    3    3    0    0 -0.74506717798E+01  0.36885097703E+01  0.72263874479E+01  0.11015366079E+02  0.00000000000E+00 0.  1.
</event>
<event>
 7    1  0.6055092E-013  0.5930194E+02  0.7816164E-02  0.1266605E+00
        -11   -1    0    0    0    0  0.00000000000E+00  0.00000000000E+00  0.45593999997E+02  0.45594000000E+02  0.51100000000E-03 0. -1.
         11   -1    0    0    0    0 -0.00000000000E+00 -0.00000000000E+00 -0.45593999997E+02  0.45594000000E+02  0.51100000000E-03 0.  1.
    9900012    2    1    2    0    0  0.11099578231E+02 -0.17226929958E+02 -0.24428534787E+02  0.59301936203E+02  0.49999985729E+02 0.  0.
        -12    1    1    2    0    0 -0.11099578231E+02  0.17226929958E+02  0.24428534787E+02  0.31886063797E+02  0.00000000000E+00 0.  1.
         11    1    3    3    0    0  0.49187887916E+01 -0.39177710045E+01  0.15326533492E+02  0.16566413068E+02  0.51100000000E-03 0. -1.
        -11    1    3    3    0    0 -0.46364747472E+00 -0.21719092328E+01 -0.10539030101E+02  0.10770483482E+02  0.51100000000E-03 0.  1.
         12    1    3    3    0    0  0.66444369138E+01 -0.11137249720E+02 -0.29216038177E+02  0.31965039653E+02  0.00000000000E+00 0. -1.
</event>
<event>
 7    1  0.6055092E-013  0.5930195E+02  0.7816164E-02  0.1266605E+00
        -11   -1    0    0    0    0  0.00000000000E+00  0.00000000000E+00  0.45593999997E+02  0.45594000000E+02  0.51100000000E-03 0. -1.
         11   -1    0    0    0    0 -0.00000000000E+00 -0.00000000000E+00 -0.45593999997E+02  0.45594000000E+02  0.51100000000E-03 0.  1.
    9900012    2    1    2    0    0 -0.21463929923E+02  0.44595269387E+01  0.23154541429E+02  0.59301945728E+02  0.50000003102E+02 0.  0.
        -12    1    1    2    0    0  0.21463929923E+02 -0.44595269387E+01 -0.23154541429E+02  0.31886054272E+02  0.00000000000E+00 0.  1.
         11    1    3    3    0    0 -0.24180713876E+02 -0.11876810730E+02 -0.24431150128E+01  0.27050589049E+02  0.51100000000E-03 0.  1.
        -11    1    3    3    0    0  0.41260363844E+01  0.11003842421E+02  0.23637688657E+02  0.26397898583E+02  0.51100000000E-03 0. -1.
         12    1    3    3    0    0 -0.14092524313E+01  0.53324952475E+01  0.19599677843E+01  0.58534580972E+01  0.00000000000E+00 0. -1.
</event>
<event>
 7    1  0.6055092E-013  0.5930194E+02  0.7816164E-02  0.1266605E+00
        -11   -1    0    0    0    0  0.00000000000E+00  0.00000000000E+00  0.45593999997E+02  0.45594000000E+02  0.51100000000E-03 0. -1.
         11   -1    0    0    0    0 -0.00000000000E+00 -0.00000000000E+00 -0.45593999997E+02  0.45594000000E+02  0.51100000000E-03 0.  1.
    9900012    2    1    2    0    0 -0.25794303717E+02  0.15237712178E+02  0.10917280974E+02  0.59301937206E+02  0.49999987558E+02 0.  0.
        -12    1    1    2    0    0  0.25794303717E+02 -0.15237712178E+02 -0.10917280974E+02  0.31886062794E+02  0.00000000000E+00 0.  1.
         11    1    3    3    0    0 -0.19824378775E+02  0.50363014414E+01 -0.15804761813E+01  0.20515073269E+02  0.51100000000E-03 0. -1.
        -11    1    3    3    0    0  0.47275660605E+01  0.76290832337E+01 -0.10185787971E+02  0.13575826630E+02  0.51100000000E-03 0.  1.
        -12    1    3    3    0    0 -0.10697491002E+02  0.25723275033E+01  0.22683545127E+02  0.25211037306E+02  0.00000000000E+00 0.  1.
</event>
<event>
 7    1  0.6055092E-013  0.5930201E+02  0.7816164E-02  0.1266605E+00
        -11   -1    0    0    0    0  0.00000000000E+00  0.00000000000E+00  0.45593999997E+02  0.45594000000E+02  0.51100000000E-03 0. -1.
         11   -1    0    0    0    0 -0.00000000000E+00 -0.00000000000E+00 -0.45593999997E+02  0.45594000000E+02  0.51100000000E-03 0.  1.
    9900012    2    1    2    0    0  0.36058225521E+00 -0.87245439851E+01  0.30667064394E+02  0.59302007372E+02  0.50000115524E+02 0.  0.
        -12    1    1    2    0    0 -0.36058225521E+00  0.87245439851E+01 -0.30667064394E+02  0.31885992628E+02  0.00000000000E+00 0.  1.
         11    1    3    3    0    0 -0.10891621184E+02  0.89429877293E+01  0.22803391762E+02  0.26806699119E+02  0.51100000000E-03 0. -1.
        -11    1    3    3    0    0  0.97488860786E+01 -0.76951812908E+01 -0.72084860469E+01  0.14360322636E+02  0.51100000000E-03 0.  1.
         12    1    3    3    0    0  0.15033173608E+01 -0.99723504236E+01  0.15072158679E+02  0.18134985616E+02  0.00000000000E+00 0. -1.
</event>
<event>
 7    1  0.6055092E-013  0.5930196E+02  0.7816164E-02  0.1266605E+00
        -11   -1    0    0    0    0  0.00000000000E+00  0.00000000000E+00  0.45593999997E+02  0.45594000000E+02  0.51100000000E-03 0.  1.
         11   -1    0    0    0    0 -0.00000000000E+00 -0.00000000000E+00 -0.45593999997E+02  0.45594000000E+02  0.51100000000E-03 0. -1.
    9900012    2    1    2    0    0  0.22078988721E+02  0.19776211690E+02 -0.11753268405E+02  0.59301959011E+02  0.50000027326E+02 0.  0.
        -12    1    1    2    0    0 -0.22078988721E+02 -0.19776211690E+02  0.11753268405E+02  0.31886040989E+02  0.00000000000E+00 0.  1.
         11    1    3    3    0    0 -0.59534621046E+00 -0.77161318917E+01  0.11753678908E+02  0.14072743038E+02  0.51100000000E-03 0. -1.
        -11    1    3    3    0    0  0.11846563277E+02  0.37831033920E+01 -0.58228547211E+01  0.13731663050E+02  0.51100000000E-03 0.  1.
         12    1    3    3    0    0  0.10827771655E+02  0.23709240189E+02 -0.17684092591E+02  0.31497552923E+02  0.00000000000E+00 0. -1.
</event>
<event>
 7    1  0.6463895E-013  0.5930193E+02  0.7816164E-02  0.1266605E+00
        -11   -1    0    0    0    0  0.00000000000E+00  0.00000000000E+00  0.45593999997E+02  0.45594000000E+02  0.51100000000E-03 0. -1.
         11   -1    0    0    0    0 -0.00000000000E+00 -0.00000000000E+00 -0.45593999997E+02  0.45594000000E+02  0.51100000000E-03 0.  1.
    9900012    2    1    2    0    0  0.24082181449E+01  0.37356199033E+00  0.31792801183E+02  0.59301932976E+02  0.49999979844E+02 0.  0.
        -12    1    1    2    0    0 -0.24082181449E+01 -0.37356199033E+00 -0.31792801183E+02  0.31886067024E+02  0.00000000000E+00 0.  1.
         11    1    3    3    0    0 -0.43207498502E+01  0.37816718250E+01  0.26353024623E+02  0.26971314912E+02  0.51100000000E-03 0. -1.
        -11    1    3    3    0    0  0.15975728272E+02 -0.10799503899E+02 -0.45724727582E-01  0.19283549189E+02  0.51100000000E-03 0.  1.
        -12    1    3    3    0    0 -0.92467602773E+01  0.73913940645E+01  0.54855012877E+01  0.13047068875E+02  0.00000000000E+00 0.  1.
</event>
<event>
 7    1  0.6055092E-013  0.5930195E+02  0.7816164E-02  0.1266605E+00
        -11   -1    0    0    0    0  0.00000000000E+00  0.00000000000E+00  0.45593999997E+02  0.45594000000E+02  0.51100000000E-03 0. -1.
         11   -1    0    0    0    0 -0.00000000000E+00 -0.00000000000E+00 -0.45593999997E+02  0.45594000000E+02  0.51100000000E-03 0.  1.
    9900012    2    1    2    0    0  0.23692186147E+02  0.19862438833E+02 -0.78028151196E+01  0.59301951568E+02  0.50000013751E+02 0.  0.
        -12    1    1    2    0    0 -0.23692186147E+02 -0.19862438833E+02  0.78028151196E+01  0.31886048432E+02  0.00000000000E+00 0.  1.
         11    1    3    3    0    0 -0.14932513924E+01 -0.36874877309E+01  0.81415879207E+01  0.90616124182E+01  0.51100000000E-03 0. -1.
        -11    1    3    3    0    0  0.21914114194E+02  0.34077503566E+01 -0.19494711522E+02  0.29527697862E+02  0.51100000000E-03 0.  1.
        -12    1    3    3    0    0  0.32713233448E+01  0.20142176208E+02  0.35503084818E+01  0.20712641288E+02  0.00000000000E+00 0.  1.
</event>
<event>
 7    1  0.6055092E-013  0.5930196E+02  0.7816164E-02  0.1266605E+00
        -11   -1    0    0    0    0  0.00000000000E+00  0.00000000000E+00  0.45593999997E+02  0.45594000000E+02  0.51100000000E-03 0. -1.
         11   -1    0    0    0    0 -0.00000000000E+00 -0.00000000000E+00 -0.45593999997E+02  0.45594000000E+02  0.51100000000E-03 0.  1.
    9900012    2    1    2    0    0 -0.97741536739E+01  0.29239798539E+02  0.81375495342E+01  0.59301958994E+02  0.50000027294E+02 0.  0.
        -12    1    1    2    0    0  0.97741536739E+01 -0.29239798539E+02 -0.81375495342E+01  0.31886041006E+02  0.00000000000E+00 0.  1.
         11    1    3    3    0    0  0.85039788213E+00  0.33848263540E+02  0.40689229848E+01  0.34102554974E+02  0.51100000000E-03 0. -1.
        -11    1    3    3    0    0 -0.66177859489E+01 -0.58507478301E+01  0.12777110557E+02  0.15533219096E+02  0.51100000000E-03 0.  1.
         12    1    3    3    0    0 -0.40067656071E+01  0.12422828292E+01 -0.87084840080E+01  0.96661849235E+01  0.00000000000E+00 0. -1.
</event>
<event>
 7    1  0.6055092E-013  0.5930205E+02  0.7816164E-02  0.1266604E+00
        -11   -1    0    0    0    0  0.00000000000E+00  0.00000000000E+00  0.45593999997E+02  0.45594000000E+02  0.51100000000E-03 0.  1.
         11   -1    0    0    0    0 -0.00000000000E+00 -0.00000000000E+00 -0.45593999997E+02  0.45594000000E+02  0.51100000000E-03 0. -1.
    9900012    2    1    2    0    0  0.12655945768E+02  0.23173145994E+02 -0.17875851984E+02  0.59302051014E+02  0.50000195118E+02 0.  0.
        -12    1    1    2    0    0 -0.12655945768E+02 -0.23173145994E+02  0.17875851984E+02  0.31885948986E+02  0.00000000000E+00 0.  1.
         11    1    3    3    0    0  0.12030813598E+02 -0.11806671689E+02 -0.43949521413E+01  0.17419918966E+02  0.51100000000E-03 0. -1.
        -11    1    3    3    0    0  0.32575760257E+01  0.14638305601E+02  0.33304886005E+01  0.15361769007E+02  0.51100000000E-03 0.  1.
         12    1    3    3    0    0 -0.26324438557E+01  0.20341512082E+02 -0.16811388443E+02  0.26520363041E+02  0.00000000000E+00 0. -1.
</event>
<event>
 7    1  0.6055092E-013  0.5930195E+02  0.7816164E-02  0.1266605E+00
        -11   -1    0    0    0    0  0.00000000000E+00  0.00000000000E+00  0.45593999997E+02  0.45594000000E+02  0.51100000000E-03 0.  1.
         11   -1    0    0    0    0 -0.00000000000E+00 -0.00000000000E+00 -0.45593999997E+02  0.45594000000E+02  0.51100000000E-03 0. -1.
    9900012    2    1    2    0    0  0.81972853648E+01  0.26815420960E+02 -0.15180839858E+02  0.59301949956E+02  0.50000010812E+02 0.  0.
        -12    1    1    2    0    0 -0.81972853648E+01 -0.26815420960E+02  0.15180839858E+02  0.31886050044E+02  0.00000000000E+00 0.  1.
         11    1    3    3    0    0 -0.13566819650E+02  0.22944200327E+02 -0.10925233518E+02  0.28807215272E+02  0.51100000000E-03 0. -1.
        -11    1    3    3    0    0  0.79415953814E+01 -0.71464716604E+01  0.34287287639E+01  0.11220391062E+02  0.51100000000E-03 0.  1.
         12    1    3    3    0    0  0.13822509633E+02  0.11017692293E+02 -0.76843351041E+01  0.19274343621E+02  0.00000000000E+00 0. -1.
</event>
<event>
 7    1  0.6055092E-013  0.5930193E+02  0.7816164E-02  0.1266605E+00
        -11   -1    0    0    0    0  0.00000000000E+00  0.00000000000E+00  0.45593999997E+02  0.45594000000E+02  0.51100000000E-03 0.  1.
         11   -1    0    0    0    0 -0.00000000000E+00 -0.00000000000E+00 -0.45593999997E+02  0.45594000000E+02  0.51100000000E-03 0. -1.
    9900012    2    1    2    0    0 -0.73524259972E+01  0.49993709090E+01 -0.30621395888E+02  0.59301925239E+02  0.49999965734E+02 0.  0.
        -12    1    1    2    0    0  0.73524259972E+01 -0.49993709090E+01  0.30621395888E+02  0.31886074761E+02  0.00000000000E+00 0.  1.
         11    1    3    3    0    0  0.16500083686E+02  0.52713952322E+01  0.28425817625E+01  0.17553365509E+02  0.51100000000E-03 0.  1.
        -11    1    3    3    0    0 -0.45124074852E+01 -0.12305196661E+01 -0.11793524517E+02  0.12687128152E+02  0.51100000000E-03 0. -1.
         12    1    3    3    0    0 -0.19340102198E+02  0.95849534288E+00 -0.21670453134E+02  0.29061431578E+02  0.00000000000E+00 0. -1.
</event>
<event>
 7    1  0.6055092E-013  0.5930194E+02  0.7816164E-02  0.1266605E+00
        -11   -1    0    0    0    0  0.00000000000E+00  0.00000000000E+00  0.45593999997E+02  0.45594000000E+02  0.51100000000E-03 0. -1.
         11   -1    0    0    0    0 -0.00000000000E+00 -0.00000000000E+00 -0.45593999997E+02  0.45594000000E+02  0.51100000000E-03 0.  1.
    9900012    2    1    2    0    0 -0.27722197098E+02 -0.12663100497E+02  0.93726389430E+01  0.59301942124E+02  0.49999996527E+02 0.  0.
        -12    1    1    2    0    0  0.27722197098E+02  0.12663100497E+02 -0.93726389430E+01  0.31886057876E+02  0.00000000000E+00 0.  1.
         11    1    3    3    0    0  0.37619748042E+01  0.30573204994E+00  0.17676383512E+02  0.18074857146E+02  0.51100000000E-03 0. -1.
        -11    1    3    3    0    0 -0.18630419199E+02 -0.17433094299E+02 -0.10220714328E+02  0.27485783562E+02  0.51100000000E-03 0.  1.
         12    1    3    3    0    0 -0.12853752704E+02  0.44642617520E+01  0.19169697590E+01  0.13741301416E+02  0.00000000000E+00 0. -1.
</event>
<event>
 7    1  0.6055092E-013  0.5930196E+02  0.7816164E-02  0.1266605E+00
        -11   -1    0    0    0    0  0.00000000000E+00  0.00000000000E+00  0.45593999997E+02  0.45594000000E+02  0.51100000000E-03 0.  1.
         11   -1    0    0    0    0 -0.00000000000E+00 -0.00000000000E+00 -0.45593999997E+02  0.45594000000E+02  0.51100000000E-03 0. -1.
    9900012    2    1    2    0    0 -0.13271970066E+02  0.13183429658E+02 -0.25821921775E+02  0.59301958365E+02  0.50000026147E+02 0.  0.
        -12    1    1    2    0    0  0.13271970066E+02 -0.13183429658E+02  0.25821921775E+02  0.31886041635E+02  0.00000000000E+00 0.  1.
         11    1    3    3    0    0 -0.34782946306E+01  0.31118073455E+01 -0.26978444749E+02  0.27379159224E+02  0.51100000000E-03 0. -1.
        -11    1    3    3    0    0 -0.54327812821E+01 -0.91132613780E+01  0.52338598505E+01  0.11830466373E+02  0.51100000000E-03 0.  1.
         12    1    3    3    0    0 -0.43608941529E+01  0.19184883691E+02 -0.40773368771E+01  0.20092332768E+02  0.00000000000E+00 0. -1.
</event>
<event>
 7    1  0.6055092E-013  0.5930196E+02  0.7816164E-02  0.1266605E+00
        -11   -1    0    0    0    0  0.00000000000E+00  0.00000000000E+00  0.45593999997E+02  0.45594000000E+02  0.51100000000E-03 0. -1.
         11   -1    0    0    0    0 -0.00000000000E+00 -0.00000000000E+00 -0.45593999997E+02  0.45594000000E+02  0.51100000000E-03 0.  1.
    9900012    2    1    2    0    0  0.34203479912E+01  0.27388248640E+02  0.15965740083E+02  0.59301956026E+02  0.50000021881E+02 0.  0.
        -12    1    1    2    0    0 -0.34203479912E+01 -0.27388248640E+02 -0.15965740083E+02  0.31886043974E+02  0.00000000000E+00 0.  1.
         11    1    3    3    0    0  0.70099948179E+01  0.37235224464E+02  0.11864838122E+02  0.39703606286E+02  0.51100000000E-03 0. -1.
        -11    1    3    3    0    0 -0.69070853202E+01  0.11223443236E+01 -0.97366256085E+00  0.70650904767E+01  0.51100000000E-03 0.  1.
         12    1    3    3    0    0  0.33174384935E+01 -0.10969320148E+02  0.50745645216E+01  0.12533259262E+02  0.00000000000E+00 0. -1.
</event>
<event>
 7    1  0.6055092E-013  0.5930200E+02  0.7816164E-02  0.1266605E+00
        -11   -1    0    0    0    0  0.00000000000E+00  0.00000000000E+00  0.45593999997E+02  0.45594000000E+02  0.51100000000E-03 0. -1.
         11   -1    0    0    0    0 -0.00000000000E+00 -0.00000000000E+00 -0.45593999997E+02  0.45594000000E+02  0.51100000000E-03 0.  1.
    9900012    2    1    2    0    0 -0.63790681359E+01  0.38777634475E+01  0.30999798660E+02  0.59301998736E+02  0.50000099775E+02 0.  0.
        -12    1    1    2    0    0  0.63790681359E+01 -0.38777634475E+01 -0.30999798660E+02  0.31886001264E+02  0.00000000000E+00 0.  1.
         11    1    3    3    0    0  0.11088576034E+02  0.55621680844E+01  0.35674935754E+02  0.37770296181E+02  0.51100000000E-03 0. -1.
        -11    1    3    3    0    0 -0.12971048280E+02 -0.55297455862E+01 -0.18087243880E+00  0.14101733753E+02  0.51100000000E-03 0.  1.
         12    1    3    3    0    0 -0.44965958899E+01  0.38453409492E+01 -0.44942646554E+01  0.74299688025E+01  0.00000000000E+00 0. -1.
</event>
<event>
 7    1  0.6055092E-013  0.5930195E+02  0.7816164E-02  0.1266605E+00
        -11   -1    0    0    0    0  0.00000000000E+00  0.00000000000E+00  0.45593999997E+02  0.45594000000E+02  0.51100000000E-03 0.  1.
         11   -1    0    0    0    0 -0.00000000000E+00 -0.00000000000E+00 -0.45593999997E+02  0.45594000000E+02  0.51100000000E-03 0. -1.
    9900012    2    1    2    0    0 -0.12211822749E+02 -0.11933759648E+01 -0.29430726345E+02  0.59301946399E+02  0.50000004324E+02 0.  0.
        -12    1    1    2    0    0  0.12211822749E+02  0.11933759648E+01  0.29430726345E+02  0.31886053601E+02  0.00000000000E+00 0.  1.
         11    1    3    3    0    0 -0.91154474399E+01  0.14717075864E+01 -0.32082358257E+02  0.33384652415E+02  0.51100000000E-03 0. -1.
        -11    1    3    3    0    0  0.34232461388E+00 -0.13005532575E+02  0.62605844122E+01  0.14438004749E+02  0.51100000000E-03 0.  1.
        -12    1    3    3    0    0 -0.34386999234E+01  0.10340449024E+02 -0.36089525003E+01  0.11479289234E+02  0.00000000000E+00 0.  1.
</event>
<event>
 7    1  0.6055092E-013  0.5930193E+02  0.7816164E-02  0.1266605E+00
        -11   -1    0    0    0    0  0.00000000000E+00  0.00000000000E+00  0.45593999997E+02  0.45594000000E+02  0.51100000000E-03 0. -1.
         11   -1    0    0    0    0 -0.00000000000E+00 -0.00000000000E+00 -0.45593999997E+02  0.45594000000E+02  0.51100000000E-03 0.  1.
    9900012    2    1    2    0    0 -0.12478589189E+02  0.23378357745E+02  0.17732983118E+02  0.59301929542E+02  0.49999973581E+02 0.  0.
        -12    1    1    2    0    0  0.12478589189E+02 -0.23378357745E+02 -0.17732983118E+02  0.31886070458E+02  0.00000000000E+00 0.  1.
         11    1    3    3    0    0 -0.15369375892E+02  0.13860233459E+02 -0.97344070359E+01  0.22870996206E+02  0.51100000000E-03 0. -1.
        -11    1    3    3    0    0  0.35107999184E+01  0.12059964123E+02  0.30163375054E+02  0.32674112775E+02  0.51100000000E-03 0.  1.
        -12    1    3    3    0    0 -0.62001321603E+00 -0.25418398362E+01 -0.26959849010E+01  0.37568205610E+01  0.00000000000E+00 0.  1.
</event>
<event>
 7    1  0.6055092E-013  0.5930186E+02  0.7816164E-02  0.1266605E+00
        -11   -1    0    0    0    0  0.00000000000E+00  0.00000000000E+00  0.45593999997E+02  0.45594000000E+02  0.51100000000E-03 0.  1.
         11   -1    0    0    0    0 -0.00000000000E+00 -0.00000000000E+00 -0.45593999997E+02  0.45594000000E+02  0.51100000000E-03 0. -1.
    9900012    2    1    2    0    0 -0.21273295353E+02 -0.12594615938E+02 -0.20138227054E+02  0.59301864539E+02  0.49999855031E+02 0.  0.
        -12    1    1    2    0    0  0.21273295353E+02  0.12594615938E+02  0.20138227054E+02  0.31886135461E+02  0.00000000000E+00 0.  1.
         11    1    3    3    0    0 -0.15173972600E+02  0.12616544418E+01 -0.17451935333E+02  0.23160554041E+02  0.51100000000E-03 0. -1.
        -11    1    3    3    0    0 -0.99515224288E+01 -0.19031054254E+02  0.86060922666E+01  0.23136089752E+02  0.51100000000E-03 0.  1.
        -12    1    3    3    0    0  0.38521996761E+01  0.51747838745E+01 -0.11292383988E+02  0.13005220745E+02  0.00000000000E+00 0.  1.
</event>
<event>
 7    1  0.6055092E-013  0.5930197E+02  0.7816164E-02  0.1266605E+00
        -11   -1    0    0    0    0  0.00000000000E+00  0.00000000000E+00  0.45593999997E+02  0.45594000000E+02  0.51100000000E-03 0.  1.
         11   -1    0    0    0    0 -0.00000000000E+00 -0.00000000000E+00 -0.45593999997E+02  0.45594000000E+02  0.51100000000E-03 0. -1.
    9900012    2    1    2    0    0  0.23481523320E+01 -0.17517951817E+02 -0.26539154897E+02  0.59301965472E+02  0.50000039110E+02 0.  0.
        -12    1    1    2    0    0 -0.23481523320E+01  0.17517951817E+02  0.26539154897E+02  0.31886034528E+02  0.00000000000E+00 0.  1.
         11    1    3    3    0    0 -0.15401026930E+02 -0.90732281206E+01 -0.10489110202E+02  0.20725263138E+02  0.51100000000E-03 0. -1.
        -11    1    3    3    0    0  0.17706573112E+02 -0.95635204300E+01  0.22435479361E+01  0.20248880512E+02  0.51100000000E-03 0.  1.
         12    1    3    3    0    0  0.42606150168E-01  0.11187967338E+01 -0.18293592631E+02  0.18327821823E+02  0.00000000000E+00 0. -1.
</event>
<event>
 7    1  0.6055092E-013  0.5930196E+02  0.7816164E-02  0.1266605E+00
        -11   -1    0    0    0    0  0.00000000000E+00  0.00000000000E+00  0.45593999997E+02  0.45594000000E+02  0.51100000000E-03 0.  1.
         11   -1    0    0    0    0 -0.00000000000E+00 -0.00000000000E+00 -0.45593999997E+02  0.45594000000E+02  0.51100000000E-03 0. -1.
    9900012    2    1    2    0    0  0.31128686002E+01 -0.13422391211E+02 -0.28755335521E+02  0.59301955126E+02  0.50000020241E+02 0.  0.
        -12    1    1    2    0    0 -0.31128686002E+01  0.13422391211E+02  0.28755335521E+02  0.31886044874E+02  0.00000000000E+00 0.  1.
         11    1    3    3    0    0 -0.10140731645E+01  0.12470205153E+02 -0.18226647848E+02  0.22107579085E+02  0.51100000000E-03 0. -1.
        -11    1    3    3    0    0 -0.63325882216E+01 -0.23424120215E+02 -0.39241036323E+01  0.24580269954E+02  0.51100000000E-03 0.  1.
        -12    1    3    3    0    0  0.10459529986E+02 -0.24684761495E+01 -0.66045840407E+01  0.12614106087E+02  0.00000000000E+00 0.  1.
</event>
<event>
 7    1  0.6055092E-013  0.5930191E+02  0.7816164E-02  0.1266605E+00
        -11   -1    0    0    0    0  0.00000000000E+00  0.00000000000E+00  0.45593999997E+02  0.45594000000E+02  0.51100000000E-03 0.  1.
         11   -1    0    0    0    0 -0.00000000000E+00 -0.00000000000E+00 -0.45593999997E+02  0.45594000000E+02  0.51100000000E-03 0. -1.
    9900012    2    1    2    0    0  0.22296875060E+02  0.99286131757E+01 -0.20518154876E+02  0.59301910924E+02  0.49999939627E+02 0.  0.
        -12    1    1    2    0    0 -0.22296875060E+02 -0.99286131757E+01  0.20518154876E+02  0.31886089076E+02  0.00000000000E+00 0.  1.
         11    1    3    3    0    0  0.23090673352E+02 -0.43820176532E+01 -0.17836045422E+02  0.29504335124E+02  0.51100000000E-03 0. -1.
        -11    1    3    3    0    0 -0.77749790564E+01  0.12830297455E+02  0.79607794013E+01  0.16983546186E+02  0.51100000000E-03 0.  1.
        -12    1    3    3    0    0  0.69811807643E+01  0.14803333736E+01 -0.10642888855E+02  0.12814029614E+02  0.00000000000E+00 0.  1.
</event>
<event>
 7    1  0.6055092E-013  0.5930195E+02  0.7816164E-02  0.1266605E+00
        -11   -1    0    0    0    0  0.00000000000E+00  0.00000000000E+00  0.45593999997E+02  0.45594000000E+02  0.51100000000E-03 0.  1.
         11   -1    0    0    0    0 -0.00000000000E+00 -0.00000000000E+00 -0.45593999997E+02  0.45594000000E+02  0.51100000000E-03 0. -1.
    9900012    2    1    2    0    0  0.26416954642E+02 -0.17553621504E+02 -0.32763978938E+01  0.59301954406E+02  0.50000018927E+02 0.  0.
        -12    1    1    2    0    0 -0.26416954642E+02  0.17553621504E+02  0.32763978938E+01  0.31886045594E+02  0.00000000000E+00 0.  1.
         11    1    3    3    0    0 -0.21527761412E+01 -0.40007649412E+01 -0.15112566617E+02  0.15780691850E+02  0.51100000000E-03 0. -1.
        -11    1    3    3    0    0  0.23849272091E+02 -0.21180502167E+02  0.50964900897E+01  0.32301326023E+02  0.51100000000E-03 0.  1.
        -12    1    3    3    0    0  0.47204586923E+01  0.76276456044E+01  0.67396786337E+01  0.11219936534E+02  0.00000000000E+00 0.  1.
</event>
<event>
 7    1  0.6055092E-013  0.5930195E+02  0.7816164E-02  0.1266605E+00
        -11   -1    0    0    0    0  0.00000000000E+00  0.00000000000E+00  0.45593999997E+02  0.45594000000E+02  0.51100000000E-03 0.  1.
         11   -1    0    0    0    0 -0.00000000000E+00 -0.00000000000E+00 -0.45593999997E+02  0.45594000000E+02  0.51100000000E-03 0. -1.
    9900012    2    1    2    0    0 -0.12261655286E+02  0.10316975493E+02 -0.27566868373E+02  0.59301946535E+02  0.50000004573E+02 0.  0.
        -12    1    1    2    0    0  0.12261655286E+02 -0.10316975493E+02  0.27566868373E+02  0.31886053465E+02  0.00000000000E+00 0.  1.
         11    1    3    3    0    0 -0.21889067905E+02  0.10100986958E+02 -0.18683924873E+02  0.30500004593E+02  0.51100000000E-03 0. -1.
        -11    1    3    3    0    0 -0.16892342603E+01 -0.68558458881E+01  0.56709291718E+01  0.90562449813E+01  0.51100000000E-03 0.  1.
         12    1    3    3    0    0  0.11316646880E+02  0.70718344232E+01 -0.14553872672E+02  0.19745696960E+02  0.00000000000E+00 0. -1.
</event>
<event>
 7    1  0.6055092E-013  0.5930192E+02  0.7816164E-02  0.1266605E+00
        -11   -1    0    0    0    0  0.00000000000E+00  0.00000000000E+00  0.45593999997E+02  0.45594000000E+02  0.51100000000E-03 0.  1.
         11   -1    0    0    0    0 -0.00000000000E+00 -0.00000000000E+00 -0.45593999997E+02  0.45594000000E+02  0.51100000000E-03 0. -1.
    9900012    2    1    2    0    0 -0.18684434539E+02  0.79509929575E+01 -0.24584456257E+02  0.59301923533E+02  0.49999962622E+02 0.  0.
        -12    1    1    2    0    0  0.18684434539E+02 -0.79509929575E+01  0.24584456257E+02  0.31886076467E+02  0.00000000000E+00 0.  1.
         11    1    3    3    0    0 -0.98340573151E+00  0.67310169413E+01 -0.59838972718E+01  0.90598401044E+01  0.51100000000E-03 0. -1.
        -11    1    3    3    0    0 -0.28184640884E+02 -0.98915962447E+01 -0.18164101186E+02  0.34959293902E+02  0.51100000000E-03 0.  1.
        -12    1    3    3    0    0  0.10483612076E+02  0.11111572261E+02 -0.43645779925E+00  0.15282789526E+02  0.00000000000E+00 0.  1.
</event>
<event>
 7    1  0.6055092E-013  0.5930194E+02  0.7816164E-02  0.1266605E+00
        -11   -1    0    0    0    0  0.00000000000E+00  0.00000000000E+00  0.45593999997E+02  0.45594000000E+02  0.51100000000E-03 0. -1.
         11   -1    0    0    0    0 -0.00000000000E+00 -0.00000000000E+00 -0.45593999997E+02  0.45594000000E+02  0.51100000000E-03 0.  1.
    9900012    2    1    2    0    0  0.80682001844E+01  0.33060716775E+01  0.30670749137E+02  0.59301940087E+02  0.49999992813E+02 0.  0.
        -12    1    1    2    0    0 -0.80682001844E+01 -0.33060716775E+01 -0.30670749137E+02  0.31886059913E+02  0.00000000000E+00 0.  1.
         11    1    3    3    0    0 -0.13547149868E+02  0.11958481043E+02 -0.20570278525E+01  0.18186860703E+02  0.51100000000E-03 0.  1.
        -11    1    3    3    0    0  0.17182159843E+02 -0.75755471138E+01  0.30985841897E+02  0.36231725453E+02  0.51100000000E-03 0. -1.
        -12    1    3    3    0    0  0.44331902099E+01 -0.10768622514E+01  0.17419350926E+01  0.48833539307E+01  0.00000000000E+00 0.  1.
</event>
<event>
 7    1  0.6055092E-013  0.5930194E+02  0.7816164E-02  0.1266605E+00
        -11   -1    0    0    0    0  0.00000000000E+00  0.00000000000E+00  0.45593999997E+02  0.45594000000E+02  0.51100000000E-03 0.  1.
         11   -1    0    0    0    0 -0.00000000000E+00 -0.00000000000E+00 -0.45593999997E+02  0.45594000000E+02  0.51100000000E-03 0. -1.
    9900012    2    1    2    0    0  0.24496091135E+02 -0.19514022853E+02  0.59887377314E+01  0.59301944296E+02  0.50000000489E+02 0.  0.
        -12    1    1    2    0    0 -0.24496091135E+02  0.19514022853E+02 -0.59887377314E+01  0.31886055704E+02  0.00000000000E+00 0.  1.
         11    1    3    3    0    0  0.22636627570E+01  0.25569287100E+01 -0.94826958514E+01  0.10078867713E+02  0.51100000000E-03 0. -1.
        -11    1    3    3    0    0  0.13838580803E+02 -0.30162836065E+02  0.17295023798E+02  0.37422197243E+02  0.51100000000E-03 0.  1.
        -12    1    3    3    0    0  0.83938475752E+01  0.80918845020E+01 -0.18235902148E+01  0.11800879339E+02  0.00000000000E+00 0.  1.
</event>
<event>
 7    1  0.6055092E-013  0.5930201E+02  0.7816164E-02  0.1266605E+00
        -11   -1    0    0    0    0  0.00000000000E+00  0.00000000000E+00  0.45593999997E+02  0.45594000000E+02  0.51100000000E-03 0.  1.
         11   -1    0    0    0    0 -0.00000000000E+00 -0.00000000000E+00 -0.45593999997E+02  0.45594000000E+02  0.51100000000E-03 0. -1.
    9900012    2    1    2    0    0  0.17440527530E+02 -0.26209192865E+02 -0.50618850567E+01  0.59302008225E+02  0.50000117080E+02 0.  0.
        -12    1    1    2    0    0 -0.17440527530E+02  0.26209192865E+02  0.50618850567E+01  0.31885991775E+02  0.00000000000E+00 0.  1.
         11    1    3    3    0    0 -0.44058938475E+01 -0.53583915614E+01 -0.76246584739E+01  0.10308233497E+02  0.51100000000E-03 0. -1.
        -11    1    3    3    0    0  0.10800808298E+02 -0.15126866709E+02  0.20174314313E+02  0.27431414739E+02  0.51100000000E-03 0.  1.
        -12    1    3    3    0    0  0.11045613080E+02 -0.57239345949E+01 -0.17611540896E+02  0.21562359989E+02  0.00000000000E+00 0.  1.
</event>
<event>
 7    1  0.6055092E-013  0.5930202E+02  0.7816164E-02  0.1266605E+00
        -11   -1    0    0    0    0  0.00000000000E+00  0.00000000000E+00  0.45593999997E+02  0.45594000000E+02  0.51100000000E-03 0. -1.
         11   -1    0    0    0    0 -0.00000000000E+00 -0.00000000000E+00 -0.45593999997E+02  0.45594000000E+02  0.51100000000E-03 0.  1.
    9900012    2    1    2    0    0  0.12669141717E+02  0.28727040668E+02  0.55647003026E+01  0.59302017079E+02  0.50000133228E+02 0.  0.
        -12    1    1    2    0    0 -0.12669141717E+02 -0.28727040668E+02 -0.55647003026E+01  0.31885982921E+02  0.00000000000E+00 0.  1.
         11    1    3    3    0    0 -0.10000283566E+02 -0.58999453369E+00 -0.58799035825E+01  0.11615809544E+02  0.51100000000E-03 0.  1.
        -11    1    3    3    0    0  0.19117899017E+02  0.28029020694E+02  0.19254207927E+02  0.39010826536E+02  0.51100000000E-03 0. -1.
        -12    1    3    3    0    0  0.35515262659E+01  0.12880145074E+01 -0.78096040416E+01  0.86753809989E+01  0.00000000000E+00 0.  1.
</event>
<event>
 7    1  0.6055092E-013  0.5930194E+02  0.7816164E-02  0.1266605E+00
        -11   -1    0    0    0    0  0.00000000000E+00  0.00000000000E+00  0.45593999997E+02  0.45594000000E+02  0.51100000000E-03 0.  1.
         11   -1    0    0    0    0 -0.00000000000E+00 -0.00000000000E+00 -0.45593999997E+02  0.45594000000E+02  0.51100000000E-03 0. -1.
    9900012    2    1    2    0    0 -0.11766687649E+02 -0.27575857683E+01 -0.29506971387E+02  0.59301943832E+02  0.49999999642E+02 0.  0.
        -12    1    1    2    0    0  0.11766687649E+02  0.27575857683E+01  0.29506971387E+02  0.31886056168E+02  0.00000000000E+00 0.  1.
         11    1    3    3    0    0 -0.24925599589E+02  0.34455343597E+01 -0.13013813520E+02  0.28328723312E+02  0.51100000000E-03 0. -1.
        -11    1    3    3    0    0  0.95646811319E+01 -0.13114492883E+02 -0.16552158025E+02  0.23182902844E+02  0.51100000000E-03 0.  1.
         12    1    3    3    0    0  0.35942308080E+01  0.69113727548E+01  0.59000158204E-01  0.77903176749E+01  0.00000000000E+00 0. -1.
</event>
<event>
 7    1  0.6055092E-013  0.5930191E+02  0.7816164E-02  0.1266605E+00
        -11   -1    0    0    0    0  0.00000000000E+00  0.00000000000E+00  0.45593999997E+02  0.45594000000E+02  0.51100000000E-03 0.  1.
         11   -1    0    0    0    0 -0.00000000000E+00 -0.00000000000E+00 -0.45593999997E+02  0.45594000000E+02  0.51100000000E-03 0. -1.
    9900012    2    1    2    0    0  0.20790775259E+02  0.23093558478E+02  0.71522042356E+01  0.59301908919E+02  0.49999935969E+02 0.  0.
        -12    1    1    2    0    0 -0.20790775259E+02 -0.23093558478E+02 -0.71522042356E+01  0.31886091081E+02  0.00000000000E+00 0.  1.
         11    1    3    3    0    0  0.25471291133E+02  0.15846179927E+02 -0.25415922776E+01  0.30105610471E+02  0.51100000000E-03 0. -1.
        -11    1    3    3    0    0 -0.62983810188E+01 -0.40843874960E+01  0.14851812451E+02  0.16641158554E+02  0.51100000000E-03 0.  1.
         12    1    3    3    0    0  0.16178651453E+01  0.11331766046E+02 -0.51580159375E+01  0.12555139894E+02  0.00000000000E+00 0. -1.
</event>
<event>
 7    1  0.6055092E-013  0.5930193E+02  0.7816164E-02  0.1266605E+00
        -11   -1    0    0    0    0  0.00000000000E+00  0.00000000000E+00  0.45593999997E+02  0.45594000000E+02  0.51100000000E-03 0.  1.
         11   -1    0    0    0    0 -0.00000000000E+00 -0.00000000000E+00 -0.45593999997E+02  0.45594000000E+02  0.51100000000E-03 0. -1.
    9900012    2    1    2    0    0 -0.60354465590E+01 -0.21753488133E+02 -0.22518447887E+02  0.59301931626E+02  0.49999977382E+02 0.  0.
        -12    1    1    2    0    0  0.60354465590E+01  0.21753488133E+02  0.22518447887E+02  0.31886068374E+02  0.00000000000E+00 0.  1.
         11    1    3    3    0    0  0.15771833218E+02 -0.24298826734E+02 -0.50504427988E+01  0.29405623211E+02  0.51100000000E-03 0. -1.
        -11    1    3    3    0    0 -0.60535362752E+01  0.52499531506E+01 -0.79772293830E+01  0.11306789925E+02  0.51100000000E-03 0.  1.
         12    1    3    3    0    0 -0.15753743502E+02 -0.27046145494E+01 -0.94907757053E+01  0.18589518489E+02  0.00000000000E+00 0. -1.
</event>
<event>
 7    1  0.6055092E-013  0.5930199E+02  0.7816164E-02  0.1266605E+00
        -11   -1    0    0    0    0  0.00000000000E+00  0.00000000000E+00  0.45593999997E+02  0.45594000000E+02  0.51100000000E-03 0.  1.
         11   -1    0    0    0    0 -0.00000000000E+00 -0.00000000000E+00 -0.45593999997E+02  0.45594000000E+02  0.51100000000E-03 0. -1.
    9900012    2    1    2    0    0  0.14617094746E+02 -0.26463971943E+02 -0.10134894204E+02  0.59301994444E+02  0.50000091946E+02 0.  0.
        -12    1    1    2    0    0 -0.14617094746E+02  0.26463971943E+02  0.10134894204E+02  0.31886005556E+02  0.00000000000E+00 0.  1.
         11    1    3    3    0    0 -0.29107560224E+01 -0.18974262821E+02  0.13044480501E+02  0.23208912556E+02  0.51100000000E-03 0. -1.
        -11    1    3    3    0    0  0.12323580506E+01  0.62070568366E+01 -0.44138521499E+01  0.77154618786E+01  0.51100000000E-03 0.  1.
         12    1    3    3    0    0  0.16295492718E+02 -0.13696765958E+02 -0.18765522554E+02  0.28377620009E+02  0.00000000000E+00 0. -1.
</event>
<event>
 7    1  0.6055092E-013  0.5930195E+02  0.7816164E-02  0.1266605E+00
        -11   -1    0    0    0    0  0.00000000000E+00  0.00000000000E+00  0.45593999997E+02  0.45594000000E+02  0.51100000000E-03 0. -1.
         11   -1    0    0    0    0 -0.00000000000E+00 -0.00000000000E+00 -0.45593999997E+02  0.45594000000E+02  0.51100000000E-03 0.  1.
    9900012    2    1    2    0    0  0.16259651712E+02 -0.22954737006E+02  0.15014119620E+02  0.59301952694E+02  0.50000015806E+02 0.  0.
        -12    1    1    2    0    0 -0.16259651712E+02  0.22954737006E+02 -0.15014119620E+02  0.31886047306E+02  0.00000000000E+00 0.  1.
         11    1    3    3    0    0  0.56998262300E+01 -0.16064545150E+02  0.17600599713E+02  0.24501810963E+02  0.51100000000E-03 0. -1.
        -11    1    3    3    0    0  0.67569759328E-01 -0.43333936450E+01 -0.16572612351E+02  0.17129925468E+02  0.51100000000E-03 0.  1.
        -12    1    3    3    0    0  0.10492255722E+02 -0.25567982110E+01  0.13986132258E+02  0.17670216263E+02  0.00000000000E+00 0.  1.
</event>
<event>
 7    1  0.6055092E-013  0.5930194E+02  0.7816164E-02  0.1266605E+00
        -11   -1    0    0    0    0  0.00000000000E+00  0.00000000000E+00  0.45593999997E+02  0.45594000000E+02  0.51100000000E-03 0. -1.
         11   -1    0    0    0    0 -0.00000000000E+00 -0.00000000000E+00 -0.45593999997E+02  0.45594000000E+02  0.51100000000E-03 0.  1.
    9900012    2    1    2    0    0 -0.29447141284E+02  0.11045605782E+02  0.52517808768E+01  0.59301941302E+02  0.49999995030E+02 0.  0.
        -12    1    1    2    0    0  0.29447141284E+02 -0.11045605782E+02 -0.52517808768E+01  0.31886058698E+02  0.00000000000E+00 0.  1.
         11    1    3    3    0    0  0.59076226287E+01 -0.32220714815E+01 -0.93133808146E+01  0.11490030993E+02  0.51100000000E-03 0.  1.
        -11    1    3    3    0    0 -0.12943641136E+02  0.17873366836E+02  0.11566309182E+02  0.24915348608E+02  0.51100000000E-03 0. -1.
        -12    1    3    3    0    0 -0.22411122777E+02 -0.36056895718E+01  0.29988525096E+01  0.22896561702E+02  0.00000000000E+00 0.  1.
</event>
<event>
 7    1  0.6055092E-013  0.5930193E+02  0.7816164E-02  0.1266605E+00
        -11   -1    0    0    0    0  0.00000000000E+00  0.00000000000E+00  0.45593999997E+02  0.45594000000E+02  0.51100000000E-03 0. -1.
         11   -1    0    0    0    0 -0.00000000000E+00 -0.00000000000E+00 -0.45593999997E+02  0.45594000000E+02  0.51100000000E-03 0.  1.
    9900012    2    1    2    0    0 -0.83924570606E+01 -0.30267315395E+02  0.54934091152E+01  0.59301933130E+02  0.49999980126E+02 0.  0.
        -12    1    1    2    0    0  0.83924570606E+01  0.30267315395E+02 -0.54934091152E+01  0.31886066870E+02  0.00000000000E+00 0.  1.
         11    1    3    3    0    0  0.17355454709E+01 -0.13823896225E+02  0.68713554659E+01  0.15534727263E+02  0.51100000000E-03 0. -1.
        -11    1    3    3    0    0 -0.19015479774E+02  0.18599254198E+00  0.10261791541E+02  0.21608503654E+02  0.51100000000E-03 0.  1.
        -12    1    3    3    0    0  0.88874772425E+01 -0.16629411711E+02 -0.11639737892E+02  0.22158702214E+02  0.00000000000E+00 0.  1.
</event>
<event>
 7    1  0.6055092E-013  0.5930198E+02  0.7816164E-02  0.1266605E+00
        -11   -1    0    0    0    0  0.00000000000E+00  0.00000000000E+00  0.45593999997E+02  0.45594000000E+02  0.51100000000E-03 0. -1.
         11   -1    0    0    0    0 -0.00000000000E+00 -0.00000000000E+00 -0.45593999997E+02  0.45594000000E+02  0.51100000000E-03 0.  1.
    9900012    2    1    2    0    0 -0.59978360801E+01  0.50260276073E+01  0.30910895760E+02  0.59301976920E+02  0.50000059987E+02 0.  0.
        -12    1    1    2    0    0  0.59978360801E+01 -0.50260276073E+01 -0.30910895760E+02  0.31886023080E+02  0.00000000000E+00 0.  1.
         11    1    3    3    0    0 -0.11448875002E+02 -0.18760475472E+02  0.11038731191E+02  0.24594425493E+02  0.51100000000E-03 0. -1.
        -11    1    3    3    0    0  0.85088267399E+01  0.69523434485E+01  0.51461234804E+01  0.12133334210E+02  0.51100000000E-03 0.  1.
         12    1    3    3    0    0 -0.30577878183E+01  0.16834159631E+02  0.14726041089E+02  0.22574217217E+02  0.00000000000E+00 0. -1.
</event>
<event>
 7    1  0.6055092E-013  0.5930194E+02  0.7816164E-02  0.1266605E+00
        -11   -1    0    0    0    0  0.00000000000E+00  0.00000000000E+00  0.45593999997E+02  0.45594000000E+02  0.51100000000E-03 0.  1.
         11   -1    0    0    0    0 -0.00000000000E+00 -0.00000000000E+00 -0.45593999997E+02  0.45594000000E+02  0.51100000000E-03 0. -1.
    9900012    2    1    2    0    0 -0.11643086307E+02 -0.23167074382E+02 -0.18559251850E+02  0.59301943119E+02  0.49999998343E+02 0.  0.
        -12    1    1    2    0    0  0.11643086307E+02  0.23167074382E+02  0.18559251850E+02  0.31886056881E+02  0.00000000000E+00 0.  1.
         11    1    3    3    0    0 -0.18766657836E+02  0.56258531738E+01 -0.14961768637E+02  0.24651413575E+02  0.51100000000E-03 0. -1.
        -11    1    3    3    0    0 -0.44104179326E+00 -0.26567094523E+02 -0.24754968678E+01  0.26685822346E+02  0.51100000000E-03 0.  1.
         12    1    3    3    0    0  0.75646133220E+01 -0.22258330327E+01 -0.11219863449E+01  0.79647071986E+01  0.00000000000E+00 0. -1.
</event>
<event>
 7    1  0.6055092E-013  0.5930198E+02  0.7816164E-02  0.1266605E+00
        -11   -1    0    0    0    0  0.00000000000E+00  0.00000000000E+00  0.45593999997E+02  0.45594000000E+02  0.51100000000E-03 0.  1.
         11   -1    0    0    0    0 -0.00000000000E+00 -0.00000000000E+00 -0.45593999997E+02  0.45594000000E+02  0.51100000000E-03 0. -1.
    9900012    2    1    2    0    0  0.41094404628E+01  0.20589024669E+02 -0.23998396574E+02  0.59301976794E+02  0.50000059759E+02 0.  0.
        -12    1    1    2    0    0 -0.41094404628E+01 -0.20589024669E+02  0.23998396574E+02  0.31886023206E+02  0.00000000000E+00 0.  1.
         11    1    3    3    0    0  0.11399673916E+02  0.43868421436E+01 -0.34617776901E+02  0.36709500504E+02  0.51100000000E-03 0. -1.
        -11    1    3    3    0    0 -0.60075932644E+01  0.10090637632E+02  0.19441682959E+01  0.11903442161E+02  0.51100000000E-03 0.  1.
         12    1    3    3    0    0 -0.12826401892E+01  0.61115448933E+01  0.86752120314E+01  0.10689034130E+02  0.00000000000E+00 0. -1.
</event>
<event>
 7    1  0.6055092E-013  0.5930195E+02  0.7816164E-02  0.1266605E+00
        -11   -1    0    0    0    0  0.00000000000E+00  0.00000000000E+00  0.45593999997E+02  0.45594000000E+02  0.51100000000E-03 0. -1.
         11   -1    0    0    0    0 -0.00000000000E+00 -0.00000000000E+00 -0.45593999997E+02  0.45594000000E+02  0.51100000000E-03 0.  1.
    9900012    2    1    2    0    0 -0.10736487083E+02 -0.26198711963E+02  0.14665456640E+02  0.59301948475E+02  0.50000008111E+02 0.  0.
        -12    1    1    2    0    0  0.10736487083E+02  0.26198711963E+02 -0.14665456640E+02  0.31886051525E+02  0.00000000000E+00 0.  1.
         11    1    3    3    0    0  0.16081553126E+02 -0.12063460028E+02  0.32007762125E+01  0.20356531812E+02  0.51100000000E-03 0. -1.
        -11    1    3    3    0    0 -0.12046187522E+02  0.41890964716E+01  0.82509728732E+01  0.15190053215E+02  0.51100000000E-03 0.  1.
         12    1    3    3    0    0 -0.14771852687E+02 -0.18324348407E+02  0.32137075540E+01  0.23755363448E+02  0.00000000000E+00 0. -1.
</event>
<event>
 7    1  0.6055092E-013  0.5930193E+02  0.7816164E-02  0.1266605E+00
        -11   -1    0    0    0    0  0.00000000000E+00  0.00000000000E+00  0.45593999997E+02  0.45594000000E+02  0.51100000000E-03 0.  1.
         11   -1    0    0    0    0 -0.00000000000E+00 -0.00000000000E+00 -0.45593999997E+02  0.45594000000E+02  0.51100000000E-03 0. -1.
    9900012    2    1    2    0    0 -0.15308065406E+02 -0.40148934519E+01 -0.27681499493E+02  0.59301927020E+02  0.49999968982E+02 0.  0.
        -12    1    1    2    0    0  0.15308065406E+02  0.40148934519E+01  0.27681499493E+02  0.31886072980E+02  0.00000000000E+00 0.  1.
         11    1    3    3    0    0 -0.47191888117E+01 -0.25554574762E+01 -0.81551182159E+01  0.97625334483E+01  0.51100000000E-03 0. -1.
        -11    1    3    3    0    0  0.13329230721E+02  0.57361360290E+01 -0.19815543141E+02  0.24560688068E+02  0.51100000000E-03 0.  1.
        -12    1    3    3    0    0 -0.23918107316E+02 -0.71955720047E+01  0.28916186398E+00  0.24978705503E+02  0.00000000000E+00 0.  1.
</event>
<event>
 7    1  0.6055092E-013  0.5930197E+02  0.7816164E-02  0.1266605E+00
        -11   -1    0    0    0    0  0.00000000000E+00  0.00000000000E+00  0.45593999997E+02  0.45594000000E+02  0.51100000000E-03 0.  1.
         11   -1    0    0    0    0 -0.00000000000E+00 -0.00000000000E+00 -0.45593999997E+02  0.45594000000E+02  0.51100000000E-03 0. -1.
    9900012    2    1    2    0    0 -0.30881748438E+02  0.66787519088E+01  0.42931235529E+01  0.59301968207E+02  0.50000044097E+02 0.  0.
        -12    1    1    2    0    0  0.30881748438E+02 -0.66787519088E+01 -0.42931235529E+01  0.31886031793E+02  0.00000000000E+00 0.  1.
         11    1    3    3    0    0 -0.22490247649E+02  0.10872970309E+02 -0.14530537154E+02  0.28899294678E+02  0.51100000000E-03 0. -1.
        -11    1    3    3    0    0 -0.10435998680E+02  0.12606070525E+01  0.21545287352E+02  0.23972872292E+02  0.51100000000E-03 0.  1.
        -12    1    3    3    0    0  0.20444978907E+01 -0.54548254532E+01 -0.27216266450E+01  0.64298012368E+01  0.00000000000E+00 0.  1.
</event>
<event>
 7    1  0.6055092E-013  0.5930199E+02  0.7816164E-02  0.1266605E+00
        -11   -1    0    0    0    0  0.00000000000E+00  0.00000000000E+00  0.45593999997E+02  0.45594000000E+02  0.51100000000E-03 0. -1.
         11   -1    0    0    0    0 -0.00000000000E+00 -0.00000000000E+00 -0.45593999997E+02  0.45594000000E+02  0.51100000000E-03 0.  1.
    9900012    2    1    2    0    0 -0.58561057021E+01  0.14133513824E+02  0.27976196522E+02  0.59301988038E+02  0.50000080264E+02 0.  0.
        -12    1    1    2    0    0  0.58561057021E+01 -0.14133513824E+02 -0.27976196522E+02  0.31886011962E+02  0.00000000000E+00 0.  1.
         11    1    3    3    0    0  0.15816451228E+01  0.15740485148E+02  0.40803497003E+02  0.43762882012E+02  0.51100000000E-03 0. -1.
        -11    1    3    3    0    0 -0.18755561685E+01 -0.29555948389E+00 -0.51824597949E+00  0.19681578967E+01  0.51100000000E-03 0.  1.
         12    1    3    3    0    0 -0.55621946564E+01 -0.13114118404E+01 -0.12309054502E+02  0.13570948130E+02  0.00000000000E+00 0. -1.
</event>
<event>
 7    1  0.6055092E-013  0.5930195E+02  0.7816164E-02  0.1266605E+00
        -11   -1    0    0    0    0  0.00000000000E+00  0.00000000000E+00  0.45593999997E+02  0.45594000000E+02  0.51100000000E-03 0.  1.
         11   -1    0    0    0    0 -0.00000000000E+00 -0.00000000000E+00 -0.45593999997E+02  0.45594000000E+02  0.51100000000E-03 0. -1.
    9900012    2    1    2    0    0  0.90545215562E+01  0.29006230693E+02 -0.96630354369E+01  0.59301952370E+02  0.50000015214E+02 0.  0.
        -12    1    1    2    0    0 -0.90545215562E+01 -0.29006230693E+02  0.96630354369E+01  0.31886047630E+02  0.00000000000E+00 0.  1.
         11    1    3    3    0    0  0.21850757284E+02  0.14699089326E+02 -0.14177188831E+02  0.29908385184E+02  0.51100000000E-03 0. -1.
        -11    1    3    3    0    0 -0.15180504414E+02  0.18611244530E+02  0.27846952973E+01  0.24178103015E+02  0.51100000000E-03 0.  1.
        -12    1    3    3    0    0  0.23842686862E+01 -0.43041031631E+01  0.17294580972E+01  0.52154641708E+01  0.00000000000E+00 0.  1.
</event>
<event>
 7    1  0.6055092E-013  0.5930194E+02  0.7816164E-02  0.1266605E+00
        -11   -1    0    0    0    0  0.00000000000E+00  0.00000000000E+00  0.45593999997E+02  0.45594000000E+02  0.51100000000E-03 0. -1.
         11   -1    0    0    0    0 -0.00000000000E+00 -0.00000000000E+00 -0.45593999997E+02  0.45594000000E+02  0.51100000000E-03 0.  1.
    9900012    2    1    2    0    0 -0.93659386951E+00 -0.17104733850E+02  0.26893716246E+02  0.59301935619E+02  0.49999984665E+02 0.  0.
        -12    1    1    2    0    0  0.93659386951E+00  0.17104733850E+02 -0.26893716246E+02  0.31886064381E+02  0.00000000000E+00 0.  1.
         11    1    3    3    0    0 -0.18586636780E+02 -0.13215994446E+02  0.28788081024E+02  0.36727090618E+02  0.51100000000E-03 0. -1.
        -11    1    3    3    0    0  0.18153105499E+02 -0.64390529317E+01 -0.34173757939E+01  0.19562083209E+02  0.51100000000E-03 0.  1.
         12    1    3    3    0    0 -0.50306258830E+00  0.25503135277E+01  0.15230110166E+01  0.30127617918E+01  0.00000000000E+00 0. -1.
</event>
<event>
 7    1  0.6055092E-013  0.5930200E+02  0.7816164E-02  0.1266605E+00
        -11   -1    0    0    0    0  0.00000000000E+00  0.00000000000E+00  0.45593999997E+02  0.45594000000E+02  0.51100000000E-03 0.  1.
         11   -1    0    0    0    0 -0.00000000000E+00 -0.00000000000E+00 -0.45593999997E+02  0.45594000000E+02  0.51100000000E-03 0. -1.
    9900012    2    1    2    0    0 -0.25871859772E+02 -0.16491536072E+02 -0.86829217481E+01  0.59301999621E+02  0.50000101389E+02 0.  0.
        -12    1    1    2    0    0  0.25871859772E+02  0.16491536072E+02  0.86829217481E+01  0.31886000379E+02  0.00000000000E+00 0.  1.
         11    1    3    3    0    0 -0.29215487412E+02 -0.16444129591E+02 -0.55205745247E+01  0.33976916371E+02  0.51100000000E-03 0. -1.
        -11    1    3    3    0    0 -0.44318279795E+01  0.99429160250E+01 -0.58868296693E+01  0.12375679462E+02  0.51100000000E-03 0.  1.
         12    1    3    3    0    0  0.77754556198E+01 -0.99903225065E+01  0.27244824458E+01  0.12949403788E+02  0.00000000000E+00 0. -1.
</event>
<event>
 7    1  0.6055092E-013  0.5930195E+02  0.7816164E-02  0.1266605E+00
        -11   -1    0    0    0    0  0.00000000000E+00  0.00000000000E+00  0.45593999997E+02  0.45594000000E+02  0.51100000000E-03 0. -1.
         11   -1    0    0    0    0 -0.00000000000E+00 -0.00000000000E+00 -0.45593999997E+02  0.45594000000E+02  0.51100000000E-03 0.  1.
    9900012    2    1    2    0    0  0.14826474064E+02  0.21569094752E+02  0.18211814029E+02  0.59301947378E+02  0.50000006110E+02 0.  0.
        -12    1    1    2    0    0 -0.14826474064E+02 -0.21569094752E+02 -0.18211814029E+02  0.31886052622E+02  0.00000000000E+00 0.  1.
         11    1    3    3    0    0  0.24845831104E+01 -0.60784262417E+00  0.20803929581E+02  0.20960584728E+02  0.51100000000E-03 0. -1.
        -11    1    3    3    0    0  0.19258016945E+02  0.68561455173E+01 -0.57553683004E+01  0.21236812674E+02  0.51100000000E-03 0.  1.
         12    1    3    3    0    0 -0.69161259919E+01  0.15320791859E+02  0.31632527491E+01  0.17104549976E+02  0.00000000000E+00 0. -1.
</event>
<event>
 7    1  0.6055092E-013  0.5930194E+02  0.7816164E-02  0.1266605E+00
        -11   -1    0    0    0    0  0.00000000000E+00  0.00000000000E+00  0.45593999997E+02  0.45594000000E+02  0.51100000000E-03 0.  1.
         11   -1    0    0    0    0 -0.00000000000E+00 -0.00000000000E+00 -0.45593999997E+02  0.45594000000E+02  0.51100000000E-03 0. -1.
    9900012    2    1    2    0    0  0.30189053968E+02 -0.73251774158E+01  0.71891502267E+01  0.59301935887E+02  0.49999985153E+02 0.  0.
        -12    1    1    2    0    0 -0.30189053968E+02  0.73251774158E+01 -0.71891502267E+01  0.31886064113E+02  0.00000000000E+00 0.  1.
         11    1    3    3    0    0  0.11115243480E+02 -0.22541293618E+02 -0.62434380863E+01  0.25896700079E+02  0.51100000000E-03 0. -1.
        -11    1    3    3    0    0  0.19901934310E+02  0.54967257629E+01  0.73849500290E+01  0.21928029337E+02  0.51100000000E-03 0.  1.
         12    1    3    3    0    0 -0.82812382176E+00  0.97193904392E+01  0.60476382840E+01  0.11477206471E+02  0.00000000000E+00 0. -1.
</event>
<event>
 7    1  0.6055092E-013  0.5930197E+02  0.7816164E-02  0.1266605E+00
        -11   -1    0    0    0    0  0.00000000000E+00  0.00000000000E+00  0.45593999997E+02  0.45594000000E+02  0.51100000000E-03 0.  1.
         11   -1    0    0    0    0 -0.00000000000E+00 -0.00000000000E+00 -0.45593999997E+02  0.45594000000E+02  0.51100000000E-03 0. -1.
    9900012    2    1    2    0    0 -0.30799184335E+02  0.14007498740E+00 -0.82528658778E+01  0.59301965880E+02  0.50000039854E+02 0.  0.
        -12    1    1    2    0    0  0.30799184335E+02 -0.14007498740E+00  0.82528658778E+01  0.31886034120E+02  0.00000000000E+00 0.  1.
         11    1    3    3    0    0 -0.60719395368E+00 -0.14310437935E+02 -0.14661230018E+02  0.20496560304E+02  0.51100000000E-03 0. -1.
        -11    1    3    3    0    0 -0.29696297335E+01  0.64598188766E+01  0.76030781391E+01  0.10409359160E+02  0.51100000000E-03 0.  1.
         12    1    3    3    0    0 -0.27222360647E+02  0.79906940459E+01 -0.11947139993E+01  0.28396046417E+02  0.00000000000E+00 0. -1.
</event>
<event>
 7    1  0.6055092E-013  0.5930194E+02  0.7816164E-02  0.1266605E+00
        -11   -1    0    0    0    0  0.00000000000E+00  0.00000000000E+00  0.45593999997E+02  0.45594000000E+02  0.51100000000E-03 0. -1.
         11   -1    0    0    0    0 -0.00000000000E+00 -0.00000000000E+00 -0.45593999997E+02  0.45594000000E+02  0.51100000000E-03 0.  1.
    9900012    2    1    2    0    0  0.17402688625E+02  0.25754791909E+02  0.71103906761E+01  0.59301944534E+02  0.50000000922E+02 0.  0.
        -12    1    1    2    0    0 -0.17402688625E+02 -0.25754791909E+02 -0.71103906761E+01  0.31886055466E+02  0.00000000000E+00 0.  1.
         11    1    3    3    0    0  0.16159673906E+01  0.16008677140E+02  0.38204859646E+01  0.16537388175E+02  0.51100000000E-03 0. -1.
        -11    1    3    3    0    0  0.19176580827E+02  0.51150335660E+01 -0.14169509491E+02  0.24386057903E+02  0.51100000000E-03 0.  1.
        -12    1    3    3    0    0 -0.33898595927E+01  0.46310812026E+01  0.17459414202E+02  0.18378498455E+02  0.00000000000E+00 0.  1.
</event>
<event>
 7    1  0.6055092E-013  0.5930195E+02  0.7816164E-02  0.1266605E+00
        -11   -1    0    0    0    0  0.00000000000E+00  0.00000000000E+00  0.45593999997E+02  0.45594000000E+02  0.51100000000E-03 0.  1.
         11   -1    0    0    0    0 -0.00000000000E+00 -0.00000000000E+00 -0.45593999997E+02  0.45594000000E+02  0.51100000000E-03 0. -1.
    9900012    2    1    2    0    0  0.23562796944E+02 -0.54382379219E+00 -0.21476014912E+02  0.59301947239E+02  0.50000005857E+02 0.  0.
        -12    1    1    2    0    0 -0.23562796944E+02  0.54382379219E+00  0.21476014912E+02  0.31886052761E+02  0.00000000000E+00 0.  1.
         11    1    3    3    0    0  0.24899662911E+02  0.10825048657E+02 -0.60584767317E+01  0.27818699324E+02  0.51100000000E-03 0. -1.
        -11    1    3    3    0    0 -0.81723536628E+01 -0.86380230460E+01  0.24658311157E+01  0.12144263250E+02  0.51100000000E-03 0.  1.
         12    1    3    3    0    0  0.68354876957E+01 -0.27308494030E+01 -0.17883369296E+02  0.19338984665E+02  0.00000000000E+00 0. -1.
</event>
<event>
 7    1  0.6055092E-013  0.5930197E+02  0.7816164E-02  0.1266605E+00
        -11   -1    0    0    0    0  0.00000000000E+00  0.00000000000E+00  0.45593999997E+02  0.45594000000E+02  0.51100000000E-03 0.  1.
         11   -1    0    0    0    0 -0.00000000000E+00 -0.00000000000E+00 -0.45593999997E+02  0.45594000000E+02  0.51100000000E-03 0. -1.
    9900012    2    1    2    0    0  0.15266961823E+02 -0.27744470065E+02 -0.37260484846E+01  0.59301965756E+02  0.50000039628E+02 0.  0.
        -12    1    1    2    0    0 -0.15266961823E+02  0.27744470065E+02  0.37260484846E+01  0.31886034244E+02  0.00000000000E+00 0.  1.
         11    1    3    3    0    0  0.52778763628E+01 -0.49379263912E+01 -0.92855154185E+01  0.11766898181E+02  0.51100000000E-03 0. -1.
        -11    1    3    3    0    0 -0.13516827325E+02 -0.68247271297E+00  0.69716387550E+01  0.15224130094E+02  0.51100000000E-03 0.  1.
        -12    1    3    3    0    0  0.23505912785E+02 -0.22124070961E+02 -0.14121718210E+01  0.32310937482E+02  0.00000000000E+00 0.  1.
</event>
<event>
 7    1  0.6055092E-013  0.5930192E+02  0.7816164E-02  0.1266605E+00
        -11   -1    0    0    0    0  0.00000000000E+00  0.00000000000E+00  0.45593999997E+02  0.45594000000E+02  0.51100000000E-03 0. -1.
         11   -1    0    0    0    0 -0.00000000000E+00 -0.00000000000E+00 -0.45593999997E+02  0.45594000000E+02  0.51100000000E-03 0.  1.
    9900012    2    1    2    0    0  0.30336775147E+02  0.97490668841E+01  0.11653715168E+01  0.59301916481E+02  0.49999949761E+02 0.  0.
        -12    1    1    2    0    0 -0.30336775147E+02 -0.97490668841E+01 -0.11653715168E+01  0.31886083519E+02  0.00000000000E+00 0.  1.
         11    1    3    3    0    0  0.31199914624E+02  0.65192223299E+01 -0.48313074529E+01  0.32237811097E+02  0.51100000000E-03 0. -1.
        -11    1    3    3    0    0 -0.30525320714E+01  0.12081104406E+02 -0.44191005383E+01  0.13221175649E+02  0.51100000000E-03 0.  1.
         12    1    3    3    0    0  0.21893925940E+01 -0.88512598514E+01  0.10415779508E+02  0.13842929735E+02  0.00000000000E+00 0. -1.
</event>
<event>
 7    1  0.6055092E-013  0.5930194E+02  0.7816164E-02  0.1266605E+00
        -11   -1    0    0    0    0  0.00000000000E+00  0.00000000000E+00  0.45593999997E+02  0.45594000000E+02  0.51100000000E-03 0.  1.
         11   -1    0    0    0    0 -0.00000000000E+00 -0.00000000000E+00 -0.45593999997E+02  0.45594000000E+02  0.51100000000E-03 0. -1.
    9900012    2    1    2    0    0  0.69604736616E+01 -0.80054090949E+01 -0.30069681630E+02  0.59301944714E+02  0.50000001251E+02 0.  0.
        -12    1    1    2    0    0 -0.69604736616E+01  0.80054090949E+01  0.30069681630E+02  0.31886055286E+02  0.00000000000E+00 0.  1.
         11    1    3    3    0    0 -0.16896312723E+02  0.29426783129E+01 -0.16313043782E+02  0.23669814891E+02  0.51100000000E-03 0. -1.
        -11    1    3    3    0    0  0.15340631028E+02 -0.13089080755E+02 -0.10585706137E+01  0.20193552619E+02  0.51100000000E-03 0.  1.
         12    1    3    3    0    0  0.85161553570E+01  0.21409933475E+01 -0.12698067235E+02  0.15438577204E+02  0.00000000000E+00 0. -1.
</event>
<event>
 7    1  0.6055092E-013  0.5930194E+02  0.7816164E-02  0.1266605E+00
        -11   -1    0    0    0    0  0.00000000000E+00  0.00000000000E+00  0.45593999997E+02  0.45594000000E+02  0.51100000000E-03 0. -1.
         11   -1    0    0    0    0 -0.00000000000E+00 -0.00000000000E+00 -0.45593999997E+02  0.45594000000E+02  0.51100000000E-03 0.  1.
    9900012    2    1    2    0    0  0.40387397231E+01  0.28911544226E+02  0.12827007297E+02  0.59301938402E+02  0.49999989739E+02 0.  0.
        -12    1    1    2    0    0 -0.40387397231E+01 -0.28911544226E+02 -0.12827007297E+02  0.31886061598E+02  0.00000000000E+00 0.  1.
         11    1    3    3    0    0 -0.45641542406E+01  0.36927104769E+01  0.11687737586E+02  0.13079404602E+02  0.51100000000E-03 0. -1.
        -11    1    3    3    0    0  0.22998655897E+02  0.11110521473E+02  0.40370858875E+01  0.25858846130E+02  0.51100000000E-03 0.  1.
        -12    1    3    3    0    0 -0.14395761933E+02  0.14108312275E+02 -0.28978161764E+01  0.20363687669E+02  0.00000000000E+00 0.  1.
</event>
<event>
 7    1  0.6055092E-013  0.5930195E+02  0.7816164E-02  0.1266605E+00
        -11   -1    0    0    0    0  0.00000000000E+00  0.00000000000E+00  0.45593999997E+02  0.45594000000E+02  0.51100000000E-03 0.  1.
         11   -1    0    0    0    0 -0.00000000000E+00 -0.00000000000E+00 -0.45593999997E+02  0.45594000000E+02  0.51100000000E-03 0. -1.
    9900012    2    1    2    0    0  0.10632087104E+02  0.14153167451E+02 -0.26521067213E+02  0.59301946133E+02  0.50000003840E+02 0.  0.
        -12    1    1    2    0    0 -0.10632087104E+02 -0.14153167451E+02  0.26521067213E+02  0.31886053867E+02  0.00000000000E+00 0.  1.
         11    1    3    3    0    0  0.24841534890E+01 -0.15282071369E+01 -0.28007730258E+02  0.28159179499E+02  0.51100000000E-03 0. -1.
        -11    1    3    3    0    0  0.11063620706E+02  0.66903755425E+01  0.11549805918E+02  0.17336748398E+02  0.51100000000E-03 0.  1.
         12    1    3    3    0    0 -0.29156870911E+01  0.89909990458E+01 -0.10063142873E+02  0.13806018236E+02  0.00000000000E+00 0. -1.
</event>
<event>
 7    1  0.6055092E-013  0.5930193E+02  0.7816164E-02  0.1266605E+00
        -11   -1    0    0    0    0  0.00000000000E+00  0.00000000000E+00  0.45593999997E+02  0.45594000000E+02  0.51100000000E-03 0.  1.
         11   -1    0    0    0    0 -0.00000000000E+00 -0.00000000000E+00 -0.45593999997E+02  0.45594000000E+02  0.51100000000E-03 0. -1.
    9900012    2    1    2    0    0  0.27269500433E+01 -0.27276483184E+02  0.16287377728E+02  0.59301929928E+02  0.49999974285E+02 0.  0.
        -12    1    1    2    0    0 -0.27269500433E+01  0.27276483184E+02 -0.16287377728E+02  0.31886070072E+02  0.00000000000E+00 0.  1.
         11    1    3    3    0    0  0.10305397328E+02 -0.11233562414E+02 -0.10342265496E+02  0.18421633870E+02  0.51100000000E-03 0. -1.
        -11    1    3    3    0    0 -0.10226405077E+02 -0.20502663452E+02  0.13103747941E+02  0.26394067133E+02  0.51100000000E-03 0.  1.
        -12    1    3    3    0    0  0.26479577916E+01  0.44597426826E+01  0.13525895283E+02  0.14486228925E+02  0.00000000000E+00 0.  1.
</event>
<event>
 7    1  0.6055092E-013  0.5930194E+02  0.7816164E-02  0.1266605E+00
        -11   -1    0    0    0    0  0.00000000000E+00  0.00000000000E+00  0.45593999997E+02  0.45594000000E+02  0.51100000000E-03 0. -1.
         11   -1    0    0    0    0 -0.00000000000E+00 -0.00000000000E+00 -0.45593999997E+02  0.45594000000E+02  0.51100000000E-03 0.  1.
    9900012    2    1    2    0    0 -0.20959402708E+02  0.10998117917E+02  0.21365057376E+02  0.59301939781E+02  0.49999992255E+02 0.  0.
        -12    1    1    2    0    0  0.20959402708E+02 -0.10998117917E+02 -0.21365057376E+02  0.31886060219E+02  0.00000000000E+00 0.  1.
         11    1    3    3    0    0 -0.11607953439E+02 -0.10848235511E+02  0.36948655842E+00  0.15892303713E+02  0.51100000000E-03 0. -1.
        -11    1    3    3    0    0  0.51643650431E+01  0.18531376094E+02  0.20988199052E+01  0.19351682394E+02  0.51100000000E-03 0.  1.
         12    1    3    3    0    0 -0.14515814312E+02  0.33149773339E+01  0.18896750913E+02  0.24057953673E+02  0.00000000000E+00 0. -1.
</event>
<event>
 7    1  0.6055092E-013  0.5930194E+02  0.7816164E-02  0.1266605E+00
        -11   -1    0    0    0    0  0.00000000000E+00  0.00000000000E+00  0.45593999997E+02  0.45594000000E+02  0.51100000000E-03 0. -1.
         11   -1    0    0    0    0 -0.00000000000E+00 -0.00000000000E+00 -0.45593999997E+02  0.45594000000E+02  0.51100000000E-03 0.  1.
    9900012    2    1    2    0    0  0.29965418593E+02 -0.10279362063E+02  0.36234540376E+01  0.59301936978E+02  0.49999987143E+02 0.  0.
        -12    1    1    2    0    0 -0.29965418593E+02  0.10279362063E+02 -0.36234540376E+01  0.31886063022E+02  0.00000000000E+00 0.  1.
         11    1    3    3    0    0 -0.67272523458E+01 -0.17051780279E+02  0.46005949729E+01  0.18899328273E+02  0.51100000000E-03 0. -1.
        -11    1    3    3    0    0  0.68137742944E+00  0.35879688807E+01  0.19361825295E+01  0.41335939495E+01  0.51100000000E-03 0.  1.
         12    1    3    3    0    0  0.36011293509E+02  0.31844493345E+01 -0.29133234648E+01  0.36269014756E+02  0.00000000000E+00 0. -1.
</event>
<event>
 7    1  0.6055092E-013  0.5930189E+02  0.7816164E-02  0.1266605E+00
        -11   -1    0    0    0    0  0.00000000000E+00  0.00000000000E+00  0.45593999997E+02  0.45594000000E+02  0.51100000000E-03 0.  1.
         11   -1    0    0    0    0 -0.00000000000E+00 -0.00000000000E+00 -0.45593999997E+02  0.45594000000E+02  0.51100000000E-03 0. -1.
    9900012    2    1    2    0    0 -0.14138776786E+01 -0.11915615242E+02 -0.29542229103E+02  0.59301886454E+02  0.49999894999E+02 0.  0.
        -12    1    1    2    0    0  0.14138776786E+01  0.11915615242E+02  0.29542229103E+02  0.31886113546E+02  0.00000000000E+00 0.  1.
         11    1    3    3    0    0 -0.47124011977E+01 -0.58560176983E+01 -0.22630446596E+02  0.23846106217E+02  0.51100000000E-03 0. -1.
        -11    1    3    3    0    0  0.52896493341E+01  0.56954670398E+01  0.11283864592E+02  0.13701982896E+02  0.51100000000E-03 0.  1.
        -12    1    3    3    0    0 -0.19911258149E+01 -0.11755064583E+02 -0.18195647100E+02  0.21753797341E+02  0.00000000000E+00 0.  1.
</event>
<event>
 7    1  0.6055092E-013  0.5930192E+02  0.7816164E-02  0.1266605E+00
        -11   -1    0    0    0    0  0.00000000000E+00  0.00000000000E+00  0.45593999997E+02  0.45594000000E+02  0.51100000000E-03 0.  1.
         11   -1    0    0    0    0 -0.00000000000E+00 -0.00000000000E+00 -0.45593999997E+02  0.45594000000E+02  0.51100000000E-03 0. -1.
    9900012    2    1    2    0    0 -0.76485287560E+01 -0.23464821006E+02  0.20189711924E+02  0.59301917071E+02  0.49999950837E+02 0.  0.
        -12    1    1    2    0    0  0.76485287560E+01  0.23464821006E+02 -0.20189711924E+02  0.31886082929E+02  0.00000000000E+00 0.  1.
         11    1    3    3    0    0  0.25017006301E+01  0.70960234329E+01 -0.38328322629E+01  0.84440901239E+01  0.51100000000E-03 0. -1.
        -11    1    3    3    0    0 -0.16507084671E+02 -0.33570888900E+02  0.22521824463E+02  0.43666016573E+02  0.51100000000E-03 0.  1.
        -12    1    3    3    0    0  0.63568552848E+01  0.30100444615E+01  0.15007197241E+01  0.71918103745E+01  0.00000000000E+00 0.  1.
</event>
<event>
 7    1  0.6055092E-013  0.5930195E+02  0.7816164E-02  0.1266605E+00
        -11   -1    0    0    0    0  0.00000000000E+00  0.00000000000E+00  0.45593999997E+02  0.45594000000E+02  0.51100000000E-03 0. -1.
         11   -1    0    0    0    0 -0.00000000000E+00 -0.00000000000E+00 -0.45593999997E+02  0.45594000000E+02  0.51100000000E-03 0.  1.
    9900012    2    1    2    0    0  0.28900477911E+01  0.29853281946E+02  0.10823545771E+02  0.59301953487E+02  0.50000017252E+02 0.  0.
        -12    1    1    2    0    0 -0.28900477911E+01 -0.29853281946E+02 -0.10823545771E+02  0.31886046513E+02  0.00000000000E+00 0.  1.
         11    1    3    3    0    0 -0.12644966289E+02  0.14332689579E+02 -0.12498440332E+01  0.19154197278E+02  0.51100000000E-03 0. -1.
        -11    1    3    3    0    0  0.12212785615E+02  0.21550680466E+02  0.18353413194E+02  0.30829072921E+02  0.51100000000E-03 0.  1.
        -12    1    3    3    0    0  0.33222284653E+01 -0.60300880992E+01 -0.62800233890E+01  0.93186832883E+01  0.00000000000E+00 0.  1.
</event>
<event>
 7    1  0.6055092E-013  0.5930195E+02  0.7816164E-02  0.1266605E+00
        -11   -1    0    0    0    0  0.00000000000E+00  0.00000000000E+00  0.45593999997E+02  0.45594000000E+02  0.51100000000E-03 0.  1.
         11   -1    0    0    0    0 -0.00000000000E+00 -0.00000000000E+00 -0.45593999997E+02  0.45594000000E+02  0.51100000000E-03 0. -1.
    9900012    2    1    2    0    0 -0.13093268548E+02 -0.14287569918E+02 -0.25320978431E+02  0.59301948440E+02  0.50000008046E+02 0.  0.
        -12    1    1    2    0    0  0.13093268548E+02  0.14287569918E+02  0.25320978431E+02  0.31886051560E+02  0.00000000000E+00 0.  1.
         11    1    3    3    0    0  0.39960652854E+01 -0.22002790309E+02 -0.20619138780E+02  0.30417761315E+02  0.51100000000E-03 0. -1.
        -11    1    3    3    0    0 -0.11429813812E+02  0.43841078027E+01  0.79729070057E+01  0.14609185172E+02  0.51100000000E-03 0.  1.
         12    1    3    3    0    0 -0.56595200209E+01  0.33311125881E+01 -0.12674746657E+02  0.14275001953E+02  0.00000000000E+00 0. -1.
</event>
<event>
 7    1  0.6055092E-013  0.5930196E+02  0.7816164E-02  0.1266605E+00
        -11   -1    0    0    0    0  0.00000000000E+00  0.00000000000E+00  0.45593999997E+02  0.45594000000E+02  0.51100000000E-03 0.  1.
         11   -1    0    0    0    0 -0.00000000000E+00 -0.00000000000E+00 -0.45593999997E+02  0.45594000000E+02  0.51100000000E-03 0. -1.
    9900012    2    1    2    0    0 -0.74351582172E+00 -0.10027099384E+02 -0.30259284075E+02  0.59301955865E+02  0.50000021589E+02 0.  0.
        -12    1    1    2    0    0  0.74351582172E+00  0.10027099384E+02  0.30259284075E+02  0.31886044135E+02  0.00000000000E+00 0.  1.
         11    1    3    3    0    0 -0.15560584822E+02  0.14543068934E+01 -0.11006698113E+02  0.19115287395E+02  0.51100000000E-03 0. -1.
        -11    1    3    3    0    0  0.12531550879E+02 -0.13153749783E+02  0.24215885559E+01  0.18328256659E+02  0.51100000000E-03 0.  1.
         12    1    3    3    0    0  0.22855181218E+01  0.16723435055E+01 -0.21674174518E+02  0.21858411811E+02  0.00000000000E+00 0. -1.
</event>
<event>
 7    1  0.6055092E-013  0.5930178E+02  0.7816164E-02  0.1266605E+00
        -11   -1    0    0    0    0  0.00000000000E+00  0.00000000000E+00  0.45593999997E+02  0.45594000000E+02  0.51100000000E-03 0. -1.
         11   -1    0    0    0    0 -0.00000000000E+00 -0.00000000000E+00 -0.45593999997E+02  0.45594000000E+02  0.51100000000E-03 0.  1.
    9900012    2    1    2    0    0  0.23790933088E+01 -0.28354880729E+02 -0.14389979700E+02  0.59301782571E+02  0.49999705541E+02 0.  0.
        -12    1    1    2    0    0 -0.23790933088E+01  0.28354880729E+02  0.14389979700E+02  0.31886217429E+02  0.00000000000E+00 0.  1.
         11    1    3    3    0    0 -0.43192588403E+01 -0.68536525613E+01 -0.59674030753E+01  0.10061731963E+02  0.51100000000E-03 0. -1.
        -11    1    3    3    0    0  0.13088829876E+02 -0.14341641683E+01  0.13487909672E+02  0.18849350174E+02  0.51100000000E-03 0.  1.
        -12    1    3    3    0    0 -0.63904777270E+01 -0.20067064000E+02 -0.21910486297E+02  0.30390700435E+02  0.00000000000E+00 0.  1.
</event>
<event>
 7    1  0.6055092E-013  0.5930195E+02  0.7816164E-02  0.1266605E+00
        -11   -1    0    0    0    0  0.00000000000E+00  0.00000000000E+00  0.45593999997E+02  0.45594000000E+02  0.51100000000E-03 0. -1.
         11   -1    0    0    0    0 -0.00000000000E+00 -0.00000000000E+00 -0.45593999997E+02  0.45594000000E+02  0.51100000000E-03 0.  1.
    9900012    2    1    2    0    0  0.20947355621E+02 -0.61946701282E+01  0.23228313596E+02  0.59301949789E+02  0.50000010507E+02 0.  0.
        -12    1    1    2    0    0 -0.20947355621E+02  0.61946701282E+01 -0.23228313596E+02  0.31886050211E+02  0.00000000000E+00 0.  1.
         11    1    3    3    0    0  0.12616642217E+02  0.97064614066E+01  0.14391169101E+02  0.21459282426E+02  0.51100000000E-03 0. -1.
        -11    1    3    3    0    0  0.59682981908E+01 -0.18279130011E+02 -0.78888078225E+01  0.20784139780E+02  0.51100000000E-03 0.  1.
        -12    1    3    3    0    0  0.23624152138E+01  0.23779984764E+01  0.16725952318E+02  0.17058527584E+02  0.00000000000E+00 0.  1.
</event>
<event>
 7    1  0.6055092E-013  0.5930193E+02  0.7816164E-02  0.1266605E+00
        -11   -1    0    0    0    0  0.00000000000E+00  0.00000000000E+00  0.45593999997E+02  0.45594000000E+02  0.51100000000E-03 0.  1.
         11   -1    0    0    0    0 -0.00000000000E+00 -0.00000000000E+00 -0.45593999997E+02  0.45594000000E+02  0.51100000000E-03 0. -1.
    9900012    2    1    2    0    0  0.56552900688E+01 -0.62278632709E+01 -0.30756346640E+02  0.59301930231E+02  0.49999974838E+02 0.  0.
        -12    1    1    2    0    0 -0.56552900688E+01  0.62278632709E+01  0.30756346640E+02  0.31886069769E+02  0.00000000000E+00 0.  1.
         11    1    3    3    0    0  0.22967731816E+02 -0.27048858606E+01 -0.25120246496E+02  0.34144690606E+02  0.51100000000E-03 0. -1.
        -11    1    3    3    0    0 -0.14175984458E+02  0.12294097979E+01  0.32572139474E+01  0.14597240382E+02  0.51100000000E-03 0.  1.
         12    1    3    3    0    0 -0.31364572887E+01 -0.47523872082E+01 -0.88933140908E+01  0.10559999243E+02  0.00000000000E+00 0. -1.
</event>
<event>
 7    1  0.6055092E-013  0.5930195E+02  0.7816164E-02  0.1266605E+00
        -11   -1    0    0    0    0  0.00000000000E+00  0.00000000000E+00  0.45593999997E+02  0.45594000000E+02  0.51100000000E-03 0.  1.
         11   -1    0    0    0    0 -0.00000000000E+00 -0.00000000000E+00 -0.45593999997E+02  0.45594000000E+02  0.51100000000E-03 0. -1.
    9900012    2    1    2    0    0 -0.20930733981E+02  0.23701592538E+02 -0.41059901050E+01  0.59301948684E+02  0.50000008492E+02 0.  0.
        -12    1    1    2    0    0  0.20930733981E+02 -0.23701592538E+02  0.41059901050E+01  0.31886051316E+02  0.00000000000E+00 0.  1.
         11    1    3    3    0    0  0.24904519122E+00  0.54750448073E+01 -0.44401462065E+01  0.70535833266E+01  0.51100000000E-03 0. -1.
        -11    1    3    3    0    0 -0.31033299894E+02  0.33858531658E+01  0.89290429446E+01  0.32469331871E+02  0.51100000000E-03 0.  1.
        -12    1    3    3    0    0  0.98535207226E+01  0.14840694565E+02 -0.85948868431E+01  0.19779033486E+02  0.00000000000E+00 0.  1.
</event>
<event>
 7    1  0.6055092E-013  0.5930195E+02  0.7816164E-02  0.1266605E+00
        -11   -1    0    0    0    0  0.00000000000E+00  0.00000000000E+00  0.45593999997E+02  0.45594000000E+02  0.51100000000E-03 0. -1.
         11   -1    0    0    0    0 -0.00000000000E+00 -0.00000000000E+00 -0.45593999997E+02  0.45594000000E+02  0.51100000000E-03 0.  1.
    9900012    2    1    2    0    0 -0.56364205947E+01  0.75703009255E-01  0.31383839804E+02  0.59301947110E+02  0.50000005621E+02 0.  0.
        -12    1    1    2    0    0  0.56364205947E+01 -0.75703009255E-01 -0.31383839804E+02  0.31886052890E+02  0.00000000000E+00 0.  1.
         11    1    3    3    0    0 -0.10826509083E+02  0.66099335518E+01  0.11247547980E+01  0.12734582604E+02  0.51100000000E-03 0. -1.
        -11    1    3    3    0    0 -0.43979989260E+01 -0.19094692037E+02  0.16739064387E+02  0.25771028993E+02  0.51100000000E-03 0.  1.
        -12    1    3    3    0    0  0.95880874142E+01  0.12560461495E+02  0.13520020619E+02  0.20796335513E+02  0.00000000000E+00 0.  1.
</event>
<event>
 7    1  0.6055092E-013  0.5930200E+02  0.7816164E-02  0.1266605E+00
        -11   -1    0    0    0    0  0.00000000000E+00  0.00000000000E+00  0.45593999997E+02  0.45594000000E+02  0.51100000000E-03 0. -1.
         11   -1    0    0    0    0 -0.00000000000E+00 -0.00000000000E+00 -0.45593999997E+02  0.45594000000E+02  0.51100000000E-03 0.  1.
    9900012    2    1    2    0    0 -0.19517996322E+02  0.64934895468E+01  0.24363901320E+02  0.59301995634E+02  0.50000094117E+02 0.  0.
        -12    1    1    2    0    0  0.19517996322E+02 -0.64934895468E+01 -0.24363901320E+02  0.31886004366E+02  0.00000000000E+00 0.  1.
         11    1    3    3    0    0  0.36450234184E+01  0.74106131799E+01  0.28958875587E+02  0.30113449801E+02  0.51100000000E-03 0. -1.
        -11    1    3    3    0    0 -0.39366445434E+01 -0.70596098980E+01 -0.39449718515E+01  0.89943351808E+01  0.51100000000E-03 0.  1.
         12    1    3    3    0    0 -0.19226375197E+02  0.61424862649E+01 -0.65000241491E+00  0.20194210652E+02  0.00000000000E+00 0. -1.
</event>
<event>
 7    1  0.6055092E-013  0.5930194E+02  0.7816164E-02  0.1266605E+00
        -11   -1    0    0    0    0  0.00000000000E+00  0.00000000000E+00  0.45593999997E+02  0.45594000000E+02  0.51100000000E-03 0.  1.
         11   -1    0    0    0    0 -0.00000000000E+00 -0.00000000000E+00 -0.45593999997E+02  0.45594000000E+02  0.51100000000E-03 0. -1.
    9900012    2    1    2    0    0 -0.54133772311E+01  0.31364825285E+02  0.19141270043E+01  0.59301940344E+02  0.49999993281E+02 0.  0.
        -12    1    1    2    0    0  0.54133772311E+01 -0.31364825285E+02 -0.19141270043E+01  0.31886059656E+02  0.00000000000E+00 0.  1.
         11    1    3    3    0    0  0.91703533946E+01  0.20828381871E+02  0.91240945631E+01  0.24518686233E+02  0.51100000000E-03 0. -1.
        -11    1    3    3    0    0 -0.23431875561E+02  0.69082832578E+01 -0.44622498746E+01  0.24833220574E+02  0.51100000000E-03 0.  1.
         12    1    3    3    0    0  0.88481449348E+01  0.36281601566E+01 -0.27477176842E+01  0.99500335367E+01  0.00000000000E+00 0. -1.
</event>
<event>
 7    1  0.6055092E-013  0.5930195E+02  0.7816164E-02  0.1266605E+00
        -11   -1    0    0    0    0  0.00000000000E+00  0.00000000000E+00  0.45593999997E+02  0.45594000000E+02  0.51100000000E-03 0.  1.
         11   -1    0    0    0    0 -0.00000000000E+00 -0.00000000000E+00 -0.45593999997E+02  0.45594000000E+02  0.51100000000E-03 0. -1.
    9900012    2    1    2    0    0  0.82492220970E+01  0.77525532924E+01 -0.29808862596E+02  0.59301952315E+02  0.50000015113E+02 0.  0.
        -12    1    1    2    0    0 -0.82492220970E+01 -0.77525532924E+01  0.29808862596E+02  0.31886047685E+02  0.00000000000E+00 0.  1.
         11    1    3    3    0    0 -0.13837333638E+02 -0.55830350242E+01 -0.69923483586E+01  0.16478319639E+02  0.51100000000E-03 0. -1.
        -11    1    3    3    0    0  0.42272705753E+01  0.17307769705E+02 -0.94681300392E+01  0.20176079782E+02  0.51100000000E-03 0.  1.
         12    1    3    3    0    0  0.17859285159E+02 -0.39721813884E+01 -0.13348384198E+02  0.22647552894E+02  0.00000000000E+00 0. -1.
</event>
<event>
 7    1  0.6055092E-013  0.5930200E+02  0.7816164E-02  0.1266605E+00
        -11   -1    0    0    0    0  0.00000000000E+00  0.00000000000E+00  0.45593999997E+02  0.45594000000E+02  0.51100000000E-03 0. -1.
         11   -1    0    0    0    0 -0.00000000000E+00 -0.00000000000E+00 -0.45593999997E+02  0.45594000000E+02  0.51100000000E-03 0.  1.
    9900012    2    1    2    0    0  0.21338791069E+02  0.16271506597E+02  0.17222406366E+02  0.59301996609E+02  0.50000095896E+02 0.  0.
        -12    1    1    2    0    0 -0.21338791069E+02 -0.16271506597E+02 -0.17222406366E+02  0.31886003391E+02  0.00000000000E+00 0.  1.
         11    1    3    3    0    0  0.43543288419E+01 -0.15441471592E+02  0.11914653335E+02  0.19983948282E+02  0.51100000000E-03 0. -1.
        -11    1    3    3    0    0  0.46465058976E+01  0.13104877007E+02 -0.49347112772E+01  0.14753955201E+02  0.51100000000E-03 0.  1.
         12    1    3    3    0    0  0.12337956329E+02  0.18608101182E+02  0.10242464308E+02  0.24564093125E+02  0.00000000000E+00 0. -1.
</event>
<event>
 7    1  0.6055092E-013  0.5930193E+02  0.7816164E-02  0.1266605E+00
        -11   -1    0    0    0    0  0.00000000000E+00  0.00000000000E+00  0.45593999997E+02  0.45594000000E+02  0.51100000000E-03 0.  1.
         11   -1    0    0    0    0 -0.00000000000E+00 -0.00000000000E+00 -0.45593999997E+02  0.45594000000E+02  0.51100000000E-03 0. -1.
    9900012    2    1    2    0    0  0.17532712808E+02 -0.18169874375E+02 -0.19472573569E+02  0.59301929771E+02  0.49999974000E+02 0.  0.
        -12    1    1    2    0    0 -0.17532712808E+02  0.18169874375E+02  0.19472573569E+02  0.31886070229E+02  0.00000000000E+00 0.  1.
         11    1    3    3    0    0  0.72028896946E+01 -0.24706415155E+02 -0.14661510045E+02  0.29618380219E+02  0.51100000000E-03 0. -1.
        -11    1    3    3    0    0 -0.43456703036E+01 -0.22628617415E+00  0.79703366676E+01  0.90808767570E+01  0.51100000000E-03 0.  1.
         12    1    3    3    0    0  0.14675493417E+02  0.67628269538E+01 -0.12781400192E+02  0.20602672795E+02  0.00000000000E+00 0. -1.
</event>
<event>
 7    1  0.6055092E-013  0.5930196E+02  0.7816164E-02  0.1266605E+00
        -11   -1    0    0    0    0  0.00000000000E+00  0.00000000000E+00  0.45593999997E+02  0.45594000000E+02  0.51100000000E-03 0.  1.
         11   -1    0    0    0    0 -0.00000000000E+00 -0.00000000000E+00 -0.45593999997E+02  0.45594000000E+02  0.51100000000E-03 0. -1.
    9900012    2    1    2    0    0  0.91812777231E+01 -0.35102200899E+01 -0.30333182295E+02  0.59301961459E+02  0.50000031791E+02 0.  0.
        -12    1    1    2    0    0 -0.91812777231E+01  0.35102200899E+01  0.30333182295E+02  0.31886038541E+02  0.00000000000E+00 0.  1.
         11    1    3    3    0    0  0.14462595691E+01 -0.12503753863E+02 -0.22756333456E+02  0.26005504033E+02  0.51100000000E-03 0. -1.
        -11    1    3    3    0    0  0.18667107432E+02  0.79613496455E+01 -0.63178549280E+00  0.20303771601E+02  0.51100000000E-03 0.  1.
        -12    1    3    3    0    0 -0.10932089278E+02  0.10321841278E+01 -0.69450633459E+01  0.12992685825E+02  0.00000000000E+00 0.  1.
</event>
<event>
 7    1  0.6055092E-013  0.5930185E+02  0.7816164E-02  0.1266605E+00
        -11   -1    0    0    0    0  0.00000000000E+00  0.00000000000E+00  0.45593999997E+02  0.45594000000E+02  0.51100000000E-03 0. -1.
         11   -1    0    0    0    0 -0.00000000000E+00 -0.00000000000E+00 -0.45593999997E+02  0.45594000000E+02  0.51100000000E-03 0.  1.
    9900012    2    1    2    0    0 -0.10887703470E+02  0.28377630896E+02 -0.96381751470E+01  0.59301851874E+02  0.49999831934E+02 0.  0.
        -12    1    1    2    0    0  0.10887703470E+02 -0.28377630896E+02  0.96381751470E+01  0.31886148126E+02  0.00000000000E+00 0.  1.
         11    1    3    3    0    0  0.73526632887E+01 -0.94210670868E+00 -0.48246502161E+01  0.88445730511E+01  0.51100000000E-03 0. -1.
        -11    1    3    3    0    0 -0.28660616752E+02  0.27360264659E+02 -0.36772098740E+01  0.39793679241E+02  0.51100000000E-03 0.  1.
        -12    1    3    3    0    0  0.10420249993E+02  0.19594729457E+01 -0.11363150570E+01  0.10663599582E+02  0.00000000000E+00 0.  1.
</event>
<event>
 7    1  0.6055092E-013  0.5930198E+02  0.7816164E-02  0.1266605E+00
        -11   -1    0    0    0    0  0.00000000000E+00  0.00000000000E+00  0.45593999997E+02  0.45594000000E+02  0.51100000000E-03 0.  1.
         11   -1    0    0    0    0 -0.00000000000E+00 -0.00000000000E+00 -0.45593999997E+02  0.45594000000E+02  0.51100000000E-03 0. -1.
    9900012    2    1    2    0    0 -0.41537830873E+01  0.16587550990E+02 -0.26913146906E+02  0.59301980521E+02  0.50000066556E+02 0.  0.
        -12    1    1    2    0    0  0.41537830873E+01 -0.16587550990E+02  0.26913146906E+02  0.31886019479E+02  0.00000000000E+00 0.  1.
         11    1    3    3    0    0 -0.47124730796E+01  0.16419740316E+02 -0.36371284497E+02  0.40183150832E+02  0.51100000000E-03 0. -1.
        -11    1    3    3    0    0  0.82353934791E+01 -0.14653128881E+01  0.27828212074E+01  0.88154944132E+01  0.51100000000E-03 0.  1.
         12    1    3    3    0    0 -0.76767034868E+01  0.16331235625E+01  0.66753163833E+01  0.10303335276E+02  0.00000000000E+00 0. -1.
</event>
<event>
 7    1  0.6055092E-013  0.5930194E+02  0.7816164E-02  0.1266605E+00
        -11   -1    0    0    0    0  0.00000000000E+00  0.00000000000E+00  0.45593999997E+02  0.45594000000E+02  0.51100000000E-03 0.  1.
         11   -1    0    0    0    0 -0.00000000000E+00 -0.00000000000E+00 -0.45593999997E+02  0.45594000000E+02  0.51100000000E-03 0. -1.
    9900012    2    1    2    0    0  0.17321579011E+02 -0.88934810819E+01 -0.25250544718E+02  0.59301935431E+02  0.49999984321E+02 0.  0.
        -12    1    1    2    0    0 -0.17321579011E+02  0.88934810819E+01  0.25250544718E+02  0.31886064569E+02  0.00000000000E+00 0.  1.
         11    1    3    3    0    0  0.25590870633E+01  0.16112491681E+01 -0.11852301006E+02  0.12232010868E+02  0.51100000000E-03 0. -1.
        -11    1    3    3    0    0  0.19733628519E+02 -0.21130509800E+02  0.45647439794E+00  0.28915789944E+02  0.51100000000E-03 0.  1.
        -12    1    3    3    0    0 -0.49711365718E+01  0.10625779550E+02 -0.13854718109E+02  0.18154134619E+02  0.00000000000E+00 0.  1.
</event>
<event>
 7    1  0.6055092E-013  0.5930193E+02  0.7816164E-02  0.1266605E+00
        -11   -1    0    0    0    0  0.00000000000E+00  0.00000000000E+00  0.45593999997E+02  0.45594000000E+02  0.51100000000E-03 0.  1.
         11   -1    0    0    0    0 -0.00000000000E+00 -0.00000000000E+00 -0.45593999997E+02  0.45594000000E+02  0.51100000000E-03 0. -1.
    9900012    2    1    2    0    0 -0.72526683213E+01 -0.29984649266E+02  0.80647860318E+01  0.59301934656E+02  0.49999982908E+02 0.  0.
        -12    1    1    2    0    0  0.72526683213E+01  0.29984649266E+02 -0.80647860318E+01  0.31886065344E+02  0.00000000000E+00 0.  1.
         11    1    3    3    0    0 -0.91240814867E+01 -0.10224475275E+02 -0.57647712377E+01  0.14866786651E+02  0.51100000000E-03 0. -1.
        -11    1    3    3    0    0  0.13599548144E+02  0.38481658763E+01  0.11025664065E+02  0.17925438869E+02  0.51100000000E-03 0.  1.
        -12    1    3    3    0    0 -0.11728134978E+02 -0.23608339867E+02  0.28038932045E+01  0.26509709136E+02  0.00000000000E+00 0.  1.
</event>
<event>
 7    1  0.6055092E-013  0.5930195E+02  0.7816164E-02  0.1266605E+00
        -11   -1    0    0    0    0  0.00000000000E+00  0.00000000000E+00  0.45593999997E+02  0.45594000000E+02  0.51100000000E-03 0.  1.
         11   -1    0    0    0    0 -0.00000000000E+00 -0.00000000000E+00 -0.45593999997E+02  0.45594000000E+02  0.51100000000E-03 0. -1.
    9900012    2    1    2    0    0 -0.10547328631E+02  0.14385356435E+02 -0.26429828162E+02  0.59301946032E+02  0.50000003655E+02 0.  0.
        -12    1    1    2    0    0  0.10547328631E+02 -0.14385356435E+02  0.26429828162E+02  0.31886053968E+02  0.00000000000E+00 0.  1.
         11    1    3    3    0    0 -0.20456894526E+02  0.18979544031E+02 -0.12606631677E+01  0.27933794893E+02  0.51100000000E-03 0. -1.
        -11    1    3    3    0    0 -0.34537285141E+01 -0.40744629577E+01 -0.68208802195E+01  0.86633651818E+01  0.51100000000E-03 0.  1.
         12    1    3    3    0    0  0.13363294409E+02 -0.51972463838E+00 -0.18348284775E+02  0.22704785956E+02  0.00000000000E+00 0. -1.
</event>
<event>
 7    1  0.6055092E-013  0.5930200E+02  0.7816164E-02  0.1266605E+00
        -11   -1    0    0    0    0  0.00000000000E+00  0.00000000000E+00  0.45593999997E+02  0.45594000000E+02  0.51100000000E-03 0.  1.
         11   -1    0    0    0    0 -0.00000000000E+00 -0.00000000000E+00 -0.45593999997E+02  0.45594000000E+02  0.51100000000E-03 0. -1.
    9900012    2    1    2    0    0  0.21409230655E+01  0.83893588254E+01 -0.30687980579E+02  0.59301999230E+02  0.50000100676E+02 0.  0.
        -12    1    1    2    0    0 -0.21409230655E+01 -0.83893588254E+01  0.30687980579E+02  0.31886000770E+02  0.00000000000E+00 0.  1.
         11    1    3    3    0    0 -0.14561721022E+02  0.62357882089E+01 -0.28109465017E+01  0.16088200465E+02  0.51100000000E-03 0. -1.
        -11    1    3    3    0    0  0.23135573392E+02 -0.43743734736E+01 -0.22607971633E+02  0.32642154970E+02  0.51100000000E-03 0.  1.
        -12    1    3    3    0    0 -0.64329293055E+01  0.65279440900E+01 -0.52690624447E+01  0.10571643795E+02  0.00000000000E+00 0.  1.
</event>
<event>
 7    1  0.6055092E-013  0.5930194E+02  0.7816164E-02  0.1266605E+00
        -11   -1    0    0    0    0  0.00000000000E+00  0.00000000000E+00  0.45593999997E+02  0.45594000000E+02  0.51100000000E-03 0.  1.
         11   -1    0    0    0    0 -0.00000000000E+00 -0.00000000000E+00 -0.45593999997E+02  0.45594000000E+02  0.51100000000E-03 0. -1.
    9900012    2    1    2    0    0 -0.10297907250E+02  0.17720190803E+02 -0.24426804983E+02  0.59301939448E+02  0.49999991648E+02 0.  0.
        -12    1    1    2    0    0  0.10297907250E+02 -0.17720190803E+02  0.24426804983E+02  0.31886060552E+02  0.00000000000E+00 0.  1.
         11    1    3    3    0    0 -0.23311647961E+02  0.20917294402E+02 -0.95536632454E+01  0.32745054855E+02  0.51100000000E-03 0. -1.
        -11    1    3    3    0    0  0.59342895394E+01  0.23425819393E+01  0.26139157922E+01  0.68946383886E+01  0.51100000000E-03 0.  1.
         12    1    3    3    0    0  0.70794511716E+01 -0.55396855383E+01 -0.17487057530E+02  0.19662246204E+02  0.00000000000E+00 0. -1.
</event>
<event>
 7    1  0.6055092E-013  0.5930196E+02  0.7816164E-02  0.1266605E+00
        -11   -1    0    0    0    0  0.00000000000E+00  0.00000000000E+00  0.45593999997E+02  0.45594000000E+02  0.51100000000E-03 0.  1.
         11   -1    0    0    0    0 -0.00000000000E+00 -0.00000000000E+00 -0.45593999997E+02  0.45594000000E+02  0.51100000000E-03 0. -1.
    9900012    2    1    2    0    0  0.10191690359E+02  0.25978125802E+02 -0.15426803854E+02  0.59301955251E+02  0.50000020469E+02 0.  0.
        -12    1    1    2    0    0 -0.10191690359E+02 -0.25978125802E+02  0.15426803854E+02  0.31886044749E+02  0.00000000000E+00 0.  1.
         11    1    3    3    0    0  0.18693576597E+01  0.32498117092E+01 -0.16441560297E+02  0.16863590349E+02  0.51100000000E-03 0. -1.
        -11    1    3    3    0    0  0.21249711626E+01  0.14668601297E+02  0.17584715946E+02  0.22997947770E+02  0.51100000000E-03 0.  1.
        -12    1    3    3    0    0  0.61973615363E+01  0.80597127958E+01 -0.16569959503E+02  0.19440417133E+02  0.00000000000E+00 0.  1.
</event>
<event>
 7    1  0.6055092E-013  0.5930201E+02  0.7816164E-02  0.1266605E+00
        -11   -1    0    0    0    0  0.00000000000E+00  0.00000000000E+00  0.45593999997E+02  0.45594000000E+02  0.51100000000E-03 0. -1.
         11   -1    0    0    0    0 -0.00000000000E+00 -0.00000000000E+00 -0.45593999997E+02  0.45594000000E+02  0.51100000000E-03 0.  1.
    9900012    2    1    2    0    0 -0.23118520946E+02  0.16485981597E+02  0.14507345124E+02  0.59302005230E+02  0.50000111617E+02 0.  0.
        -12    1    1    2    0    0  0.23118520946E+02 -0.16485981597E+02 -0.14507345124E+02  0.31885994770E+02  0.00000000000E+00 0.  1.
         11    1    3    3    0    0 -0.39120292682E+01 -0.86286932647E+01  0.45563954769E+01  0.10512804595E+02  0.51100000000E-03 0. -1.
        -11    1    3    3    0    0 -0.16903560519E+02  0.13879678449E+02 -0.11316933546E+02  0.24626181539E+02  0.51100000000E-03 0.  1.
        -12    1    3    3    0    0 -0.23029311593E+01  0.11234996412E+02  0.21267883193E+02  0.24163019095E+02  0.00000000000E+00 0.  1.
</event>
<event>
 7    1  0.6055092E-013  0.5930192E+02  0.7816164E-02  0.1266605E+00
        -11   -1    0    0    0    0  0.00000000000E+00  0.00000000000E+00  0.45593999997E+02  0.45594000000E+02  0.51100000000E-03 0.  1.
         11   -1    0    0    0    0 -0.00000000000E+00 -0.00000000000E+00 -0.45593999997E+02  0.45594000000E+02  0.51100000000E-03 0. -1.
    9900012    2    1    2    0    0  0.30730023400E+01 -0.48806617681E+01 -0.31360127679E+02  0.59301924501E+02  0.49999964389E+02 0.  0.
        -12    1    1    2    0    0 -0.30730023400E+01  0.48806617681E+01  0.31360127679E+02  0.31886075499E+02  0.00000000000E+00 0.  1.
         11    1    3    3    0    0 -0.13246602536E+02 -0.91592031032E+01 -0.97472333615E+01  0.18824771943E+02  0.51100000000E-03 0. -1.
        -11    1    3    3    0    0  0.22151952980E+02  0.11464214641E+02 -0.15047269190E+02  0.29130011131E+02  0.51100000000E-03 0.  1.
        -12    1    3    3    0    0 -0.58323481033E+01 -0.71856733060E+01 -0.65656251273E+01  0.11347141427E+02  0.00000000000E+00 0.  1.
</event>
<event>
 7    1  0.6055092E-013  0.5930194E+02  0.7816164E-02  0.1266605E+00
        -11   -1    0    0    0    0  0.00000000000E+00  0.00000000000E+00  0.45593999997E+02  0.45594000000E+02  0.51100000000E-03 0.  1.
         11   -1    0    0    0    0 -0.00000000000E+00 -0.00000000000E+00 -0.45593999997E+02  0.45594000000E+02  0.51100000000E-03 0. -1.
    9900012    2    1    2    0    0  0.19739275036E+02  0.92637864937E+01 -0.23265088252E+02  0.59301936421E+02  0.49999986128E+02 0.  0.
        -12    1    1    2    0    0 -0.19739275036E+02 -0.92637864937E+01  0.23265088252E+02  0.31886063579E+02  0.00000000000E+00 0.  1.
         11    1    3    3    0    0  0.16727083125E+02 -0.37482801989E+01 -0.32435451702E+02  0.36686556689E+02  0.51100000000E-03 0. -1.
        -11    1    3    3    0    0  0.61679524848E+01 -0.47305964802E+00  0.55251081066E+01  0.82942295083E+01  0.51100000000E-03 0.  1.
         12    1    3    3    0    0 -0.31557605735E+01  0.13485126341E+02  0.36452553431E+01  0.14321150224E+02  0.00000000000E+00 0. -1.
</event>
<event>
 7    1  0.6055092E-013  0.5930194E+02  0.7816164E-02  0.1266605E+00
        -11   -1    0    0    0    0  0.00000000000E+00  0.00000000000E+00  0.45593999997E+02  0.45594000000E+02  0.51100000000E-03 0.  1.
         11   -1    0    0    0    0 -0.00000000000E+00 -0.00000000000E+00 -0.45593999997E+02  0.45594000000E+02  0.51100000000E-03 0. -1.
    9900012    2    1    2    0    0 -0.24960658478E+01  0.31655978310E+02  0.28964408894E+01  0.59301942274E+02  0.49999996802E+02 0.  0.
        -12    1    1    2    0    0  0.24960658478E+01 -0.31655978310E+02 -0.28964408894E+01  0.31886057726E+02  0.00000000000E+00 0.  1.
         11    1    3    3    0    0 -0.16710265232E+01 -0.97187896862E+01  0.73905022107E+01  0.12323421838E+02  0.51100000000E-03 0. -1.
        -11    1    3    3    0    0 -0.21016235443E+01  0.42778413089E+02 -0.74430184624E+01  0.43471921651E+02  0.51100000000E-03 0.  1.
        -12    1    3    3    0    0  0.12765842196E+01 -0.14036450934E+01  0.29489571411E+01  0.35065987848E+01  0.00000000000E+00 0.  1.
</event>
<event>
 7    1  0.6055092E-013  0.5930192E+02  0.7816164E-02  0.1266605E+00
        -11   -1    0    0    0    0  0.00000000000E+00  0.00000000000E+00  0.45593999997E+02  0.45594000000E+02  0.51100000000E-03 0.  1.
         11   -1    0    0    0    0 -0.00000000000E+00 -0.00000000000E+00 -0.45593999997E+02  0.45594000000E+02  0.51100000000E-03 0. -1.
    9900012    2    1    2    0    0  0.21349946979E+02 -0.12352647290E+02 -0.20206775879E+02  0.59301922748E+02  0.49999961191E+02 0.  0.
        -12    1    1    2    0    0 -0.21349946979E+02  0.12352647290E+02  0.20206775879E+02  0.31886077252E+02  0.00000000000E+00 0.  1.
         11    1    3    3    0    0  0.10467233601E+02 -0.64540498815E+01 -0.27177601135E+02  0.29830181744E+02  0.51100000000E-03 0. -1.
        -11    1    3    3    0    0  0.43037390337E+01 -0.61086868925E+01  0.16371189069E+02  0.17995945571E+02  0.51100000000E-03 0.  1.
        -12    1    3    3    0    0  0.65789743447E+01  0.21008948376E+00 -0.94003638123E+01  0.11475795433E+02  0.00000000000E+00 0.  1.
</event>
<event>
 7    1  0.6055092E-013  0.5930223E+02  0.7816164E-02  0.1266604E+00
        -11   -1    0    0    0    0  0.00000000000E+00  0.00000000000E+00  0.45593999997E+02  0.45594000000E+02  0.51100000000E-03 0. -1.
         11   -1    0    0    0    0 -0.00000000000E+00 -0.00000000000E+00 -0.45593999997E+02  0.45594000000E+02  0.51100000000E-03 0.  1.
    9900012    2    1    2    0    0  0.79113710690E+01  0.19317057234E+02  0.24103186607E+02  0.59302233631E+02  0.50000528164E+02 0.  0.
        -12    1    1    2    0    0 -0.79113710690E+01 -0.19317057234E+02 -0.24103186607E+02  0.31885766369E+02  0.00000000000E+00 0.  1.
         11    1    3    3    0    0  0.19558461092E+02  0.68432371746E+01  0.30701559371E+02  0.37039830499E+02  0.51100000000E-03 0. -1.
        -11    1    3    3    0    0 -0.37982402168E-01 -0.16081948655E+01 -0.33624190165E+01  0.37274113392E+01  0.51100000000E-03 0.  1.
         12    1    3    3    0    0 -0.11609107621E+02  0.14082014925E+02 -0.32359537485E+01  0.18534991792E+02  0.00000000000E+00 0. -1.
</event>
<event>
 7    1  0.6055092E-013  0.5930186E+02  0.7816164E-02  0.1266605E+00
        -11   -1    0    0    0    0  0.00000000000E+00  0.00000000000E+00  0.45593999997E+02  0.45594000000E+02  0.51100000000E-03 0.  1.
         11   -1    0    0    0    0 -0.00000000000E+00 -0.00000000000E+00 -0.45593999997E+02  0.45594000000E+02  0.51100000000E-03 0. -1.
    9900012    2    1    2    0    0 -0.11273353441E+02  0.21402993540E+02 -0.20773762457E+02  0.59301861367E+02  0.49999849247E+02 0.  0.
        -12    1    1    2    0    0  0.11273353441E+02 -0.21402993540E+02  0.20773762457E+02  0.31886138633E+02  0.00000000000E+00 0.  1.
         11    1    3    3    0    0  0.14241459996E+02  0.11150568840E+02 -0.12210641269E+02  0.21823247438E+02  0.51100000000E-03 0. -1.
        -11    1    3    3    0    0 -0.18244529307E+02 -0.17384109114E+01 -0.13336184126E+02  0.22665805290E+02  0.51100000000E-03 0.  1.
        -12    1    3    3    0    0 -0.72702841300E+01  0.11990835611E+02  0.47730629379E+01  0.14812808640E+02  0.00000000000E+00 0.  1.
</event>
<event>
 7    1  0.6055092E-013  0.5930193E+02  0.7816164E-02  0.1266605E+00
        -11   -1    0    0    0    0  0.00000000000E+00  0.00000000000E+00  0.45593999997E+02  0.45594000000E+02  0.51100000000E-03 0.  1.
         11   -1    0    0    0    0 -0.00000000000E+00 -0.00000000000E+00 -0.45593999997E+02  0.45594000000E+02  0.51100000000E-03 0. -1.
    9900012    2    1    2    0    0 -0.13223497246E+02 -0.28849044517E+02 -0.30972848950E+01  0.59301930586E+02  0.49999975486E+02 0.  0.
        -12    1    1    2    0    0  0.13223497246E+02  0.28849044517E+02  0.30972848950E+01  0.31886069414E+02  0.00000000000E+00 0.  1.
         11    1    3    3    0    0  0.89161572766E+01 -0.25747208246E+02  0.11223568495E+02  0.29468374286E+02  0.51100000000E-03 0.  1.
        -11    1    3    3    0    0 -0.22494263284E+02 -0.55112859870E-01 -0.10206222011E+02  0.24701455142E+02  0.51100000000E-03 0. -1.
        -12    1    3    3    0    0  0.35460876155E+00 -0.30467234110E+01 -0.41146313785E+01  0.51321011582E+01  0.00000000000E+00 0.  1.
</event>
<event>
 7    1  0.6055092E-013  0.5930192E+02  0.7816164E-02  0.1266605E+00
        -11   -1    0    0    0    0  0.00000000000E+00  0.00000000000E+00  0.45593999997E+02  0.45594000000E+02  0.51100000000E-03 0. -1.
         11   -1    0    0    0    0 -0.00000000000E+00 -0.00000000000E+00 -0.45593999997E+02  0.45594000000E+02  0.51100000000E-03 0.  1.
    9900012    2    1    2    0    0  0.43927741985E+01 -0.31560913153E+02 -0.11552027431E+01  0.59301918434E+02  0.49999953324E+02 0.  0.
        -12    1    1    2    0    0 -0.43927741985E+01  0.31560913153E+02  0.11552027431E+01  0.31886081566E+02  0.00000000000E+00 0.  1.
         11    1    3    3    0    0  0.87824718519E+01 -0.32266667271E+02 -0.79987941986E+01  0.34383867402E+02  0.51100000000E-03 0. -1.
        -11    1    3    3    0    0 -0.66430435622E+01  0.43981636533E+01 -0.68814452862E+01  0.10527495466E+02  0.51100000000E-03 0.  1.
         12    1    3    3    0    0  0.22533459088E+01 -0.36924095354E+01  0.13725036742E+02  0.14390555567E+02  0.00000000000E+00 0. -1.
</event>
<event>
 7    1  0.6055092E-013  0.5930194E+02  0.7816164E-02  0.1266605E+00
        -11   -1    0    0    0    0  0.00000000000E+00  0.00000000000E+00  0.45593999997E+02  0.45594000000E+02  0.51100000000E-03 0. -1.
         11   -1    0    0    0    0 -0.00000000000E+00 -0.00000000000E+00 -0.45593999997E+02  0.45594000000E+02  0.51100000000E-03 0.  1.
    9900012    2    1    2    0    0 -0.29268041072E+01  0.31534008960E+02 -0.37095355962E+01  0.59301944150E+02  0.50000000222E+02 0.  0.
        -12    1    1    2    0    0  0.29268041072E+01 -0.31534008960E+02  0.37095355962E+01  0.31886055850E+02  0.00000000000E+00 0.  1.
         11    1    3    3    0    0 -0.54994795914E+01 -0.43859191894E+01  0.17320601099E+01  0.72443492045E+01  0.51100000000E-03 0. -1.
        -11    1    3    3    0    0 -0.28518863667E+01  0.25571998374E+02 -0.20570482010E+02  0.32942451140E+02  0.51100000000E-03 0.  1.
        -12    1    3    3    0    0  0.54245618509E+01  0.10347929775E+02  0.15128886304E+02  0.19115143805E+02  0.00000000000E+00 0.  1.
</event>
<event>
 7    1  0.6055092E-013  0.5930194E+02  0.7816164E-02  0.1266605E+00
        -11   -1    0    0    0    0  0.00000000000E+00  0.00000000000E+00  0.45593999997E+02  0.45594000000E+02  0.51100000000E-03 0.  1.
         11   -1    0    0    0    0 -0.00000000000E+00 -0.00000000000E+00 -0.45593999997E+02  0.45594000000E+02  0.51100000000E-03 0. -1.
    9900012    2    1    2    0    0 -0.15193611258E+02 -0.22884351315E+02 -0.16192014182E+02  0.59301942210E+02  0.49999996684E+02 0.  0.
        -12    1    1    2    0    0  0.15193611258E+02  0.22884351315E+02  0.16192014182E+02  0.31886057790E+02  0.00000000000E+00 0.  1.
         11    1    3    3    0    0 -0.35132322335E+01 -0.27537835007E+02 -0.21856061614E+02  0.35332174956E+02  0.51100000000E-03 0. -1.
        -11    1    3    3    0    0  0.13233623528E+01  0.92633947000E+01  0.35687747717E+01  0.10014885068E+02  0.51100000000E-03 0.  1.
         12    1    3    3    0    0 -0.13003741377E+02 -0.46099110078E+01  0.20952726603E+01  0.13954882186E+02  0.00000000000E+00 0. -1.
</event>
<event>
 7    1  0.6055092E-013  0.5930208E+02  0.7816164E-02  0.1266604E+00
        -11   -1    0    0    0    0  0.00000000000E+00  0.00000000000E+00  0.45593999997E+02  0.45594000000E+02  0.51100000000E-03 0. -1.
         11   -1    0    0    0    0 -0.00000000000E+00 -0.00000000000E+00 -0.45593999997E+02  0.45594000000E+02  0.51100000000E-03 0.  1.
    9900012    2    1    2    0    0 -0.20142544413E+02 -0.19217649161E+02  0.15545786718E+02  0.59302084310E+02  0.50000255840E+02 0.  0.
        -12    1    1    2    0    0  0.20142544413E+02  0.19217649161E+02 -0.15545786718E+02  0.31885915690E+02  0.00000000000E+00 0.  1.
         11    1    3    3    0    0  0.10177486594E+02 -0.18815718479E+02  0.14503455421E+02  0.25844974650E+02  0.51100000000E-03 0. -1.
        -11    1    3    3    0    0 -0.15829295190E+02  0.25670118337E+01 -0.59391154876E+01  0.17100562242E+02  0.51100000000E-03 0.  1.
         12    1    3    3    0    0 -0.14490735818E+02 -0.29689425160E+01  0.69814467844E+01  0.16356547417E+02  0.00000000000E+00 0. -1.
</event>
<event>
 7    1  0.6055092E-013  0.5930204E+02  0.7816164E-02  0.1266604E+00
        -11   -1    0    0    0    0  0.00000000000E+00  0.00000000000E+00  0.45593999997E+02  0.45594000000E+02  0.51100000000E-03 0. -1.
         11   -1    0    0    0    0 -0.00000000000E+00 -0.00000000000E+00 -0.45593999997E+02  0.45594000000E+02  0.51100000000E-03 0.  1.
    9900012    2    1    2    0    0  0.14254139628E+02 -0.13327655644E+01  0.28491365980E+02  0.59302036066E+02  0.50000167855E+02 0.  0.
        -12    1    1    2    0    0 -0.14254139628E+02  0.13327655644E+01 -0.28491365980E+02  0.31885963934E+02  0.00000000000E+00 0.  1.
         11    1    3    3    0    0 -0.25412033122E+01 -0.16954783837E+01  0.64976881398E+01  0.71799939169E+01  0.51100000000E-03 0. -1.
        -11    1    3    3    0    0  0.81822101685E+01  0.21969459272E+02  0.70723542970E+01  0.24487219105E+02  0.51100000000E-03 0.  1.
        -12    1    3    3    0    0  0.86131327718E+01 -0.21606746452E+02  0.14921323543E+02  0.27634823044E+02  0.00000000000E+00 0.  1.
</event>
<event>
 7    1  0.6055092E-013  0.5930195E+02  0.7816164E-02  0.1266605E+00
        -11   -1    0    0    0    0  0.00000000000E+00  0.00000000000E+00  0.45593999997E+02  0.45594000000E+02  0.51100000000E-03 0.  1.
         11   -1    0    0    0    0 -0.00000000000E+00 -0.00000000000E+00 -0.45593999997E+02  0.45594000000E+02  0.51100000000E-03 0. -1.
    9900012    2    1    2    0    0 -0.18312671459E+02  0.26054886435E+02  0.15840915746E+01  0.59301946791E+02  0.50000005040E+02 0.  0.
        -12    1    1    2    0    0  0.18312671459E+02 -0.26054886435E+02 -0.15840915746E+01  0.31886053209E+02  0.00000000000E+00 0.  1.
         11    1    3    3    0    0 -0.17359811440E+00  0.36851366567E+01 -0.55191922026E+01  0.66386633680E+01  0.51100000000E-03 0. -1.
        -11    1    3    3    0    0 -0.31416383591E+02  0.22895566458E+02  0.46537821350E+01  0.39151676973E+02  0.51100000000E-03 0.  1.
        -12    1    3    3    0    0  0.13277310247E+02 -0.52581667926E+00  0.24495016421E+01  0.13511606450E+02  0.00000000000E+00 0.  1.
</event>
<event>
 7    1  0.6055092E-013  0.5930196E+02  0.7816164E-02  0.1266605E+00
        -11   -1    0    0    0    0  0.00000000000E+00  0.00000000000E+00  0.45593999997E+02  0.45594000000E+02  0.51100000000E-03 0. -1.
         11   -1    0    0    0    0 -0.00000000000E+00 -0.00000000000E+00 -0.45593999997E+02  0.45594000000E+02  0.51100000000E-03 0.  1.
    9900012    2    1    2    0    0  0.17436709823E+02 -0.52974826684E+00  0.26690822378E+02  0.59301961019E+02  0.50000030989E+02 0.  0.
        -12    1    1    2    0    0 -0.17436709823E+02  0.52974826684E+00 -0.26690822378E+02  0.31886038981E+02  0.00000000000E+00 0.  1.
         11    1    3    3    0    0 -0.43008043300E+01 -0.19467157381E+02  0.30604767842E+01  0.20170117818E+02  0.51100000000E-03 0. -1.
        -11    1    3    3    0    0  0.12412897399E+02  0.17733559442E+02  0.14709309753E+02  0.26171032574E+02  0.51100000000E-03 0.  1.
         12    1    3    3    0    0  0.93246167539E+01  0.12038496720E+01  0.89210358403E+01  0.12960810627E+02  0.00000000000E+00 0. -1.
</event>
<event>
 7    1  0.6055092E-013  0.5930193E+02  0.7816164E-02  0.1266605E+00
        -11   -1    0    0    0    0  0.00000000000E+00  0.00000000000E+00  0.45593999997E+02  0.45594000000E+02  0.51100000000E-03 0.  1.
         11   -1    0    0    0    0 -0.00000000000E+00 -0.00000000000E+00 -0.45593999997E+02  0.45594000000E+02  0.51100000000E-03 0. -1.
    9900012    2    1    2    0    0 -0.30709432620E+02  0.42595658096E+01  0.74503686082E+01  0.59301934938E+02  0.49999983423E+02 0.  0.
        -12    1    1    2    0    0  0.30709432620E+02 -0.42595658096E+01 -0.74503686082E+01  0.31886065062E+02  0.00000000000E+00 0.  1.
         11    1    3    3    0    0 -0.17973952442E+02 -0.10543072303E+02 -0.12691188790E+02  0.24398475631E+02  0.51100000000E-03 0. -1.
        -11    1    3    3    0    0 -0.67554570324E+01  0.19520286524E+02  0.12661678014E+02  0.24227997773E+02  0.51100000000E-03 0.  1.
        -12    1    3    3    0    0 -0.59800231457E+01 -0.47176484118E+01  0.74798793841E+01  0.10675461534E+02  0.00000000000E+00 0.  1.
</event>
<event>
 7    1  0.6055092E-013  0.5930194E+02  0.7816164E-02  0.1266605E+00
        -11   -1    0    0    0    0  0.00000000000E+00  0.00000000000E+00  0.45593999997E+02  0.45594000000E+02  0.51100000000E-03 0.  1.
         11   -1    0    0    0    0 -0.00000000000E+00 -0.00000000000E+00 -0.45593999997E+02  0.45594000000E+02  0.51100000000E-03 0. -1.
    9900012    2    1    2    0    0  0.84241339598E+01  0.22660833448E+02 -0.20790416252E+02  0.59301940139E+02  0.49999992908E+02 0.  0.
        -12    1    1    2    0    0 -0.84241339598E+01 -0.22660833448E+02  0.20790416252E+02  0.31886059861E+02  0.00000000000E+00 0.  1.
         11    1    3    3    0    0  0.20516390705E+02  0.65944646164E+01 -0.28072448364E+02  0.35390275621E+02  0.51100000000E-03 0. -1.
        -11    1    3    3    0    0 -0.40262624306E+00  0.59268642416E+01  0.59050470309E+01  0.83761213177E+01  0.51100000000E-03 0.  1.
         12    1    3    3    0    0 -0.11689630502E+02  0.10139504590E+02  0.13769850810E+01  0.15535543200E+02  0.00000000000E+00 0. -1.
</event>
<event>
 7    1  0.6055092E-013  0.5930194E+02  0.7816164E-02  0.1266605E+00
        -11   -1    0    0    0    0  0.00000000000E+00  0.00000000000E+00  0.45593999997E+02  0.45594000000E+02  0.51100000000E-03 0.  1.
         11   -1    0    0    0    0 -0.00000000000E+00 -0.00000000000E+00 -0.45593999997E+02  0.45594000000E+02  0.51100000000E-03 0. -1.
    9900012    2    1    2    0    0  0.25816732886E+02 -0.62033529878E+01 -0.17656037526E+02  0.59301938056E+02  0.49999989109E+02 0.  0.
        -12    1    1    2    0    0 -0.25816732886E+02  0.62033529878E+01  0.17656037526E+02  0.31886061944E+02  0.00000000000E+00 0.  1.
         11    1    3    3    0    0  0.67240793160E+01 -0.15727281420E+02 -0.51047501600E+01  0.17849904704E+02  0.51100000000E-03 0. -1.
        -11    1    3    3    0    0  0.72811978981E+01  0.21169285039E+02 -0.10540139925E+02  0.24743666297E+02  0.51100000000E-03 0.  1.
        -12    1    3    3    0    0  0.11811455672E+02 -0.11645356607E+02 -0.20111474407E+01  0.16708367054E+02  0.00000000000E+00 0.  1.
</event>
<event>
 7    1  0.6055092E-013  0.5930194E+02  0.7816164E-02  0.1266605E+00
        -11   -1    0    0    0    0  0.00000000000E+00  0.00000000000E+00  0.45593999997E+02  0.45594000000E+02  0.51100000000E-03 0.  1.
         11   -1    0    0    0    0 -0.00000000000E+00 -0.00000000000E+00 -0.45593999997E+02  0.45594000000E+02  0.51100000000E-03 0. -1.
    9900012    2    1    2    0    0  0.29989686648E+01  0.31733118022E+02 -0.85794395079E+00  0.59301942541E+02  0.49999997288E+02 0.  0.
        -12    1    1    2    0    0 -0.29989686648E+01 -0.31733118022E+02  0.85794395079E+00  0.31886057459E+02  0.00000000000E+00 0.  1.
         11    1    3    3    0    0 -0.20875191816E+01  0.27648949121E+02 -0.17881005788E+02  0.32993218880E+02  0.51100000000E-03 0. -1.
        -11    1    3    3    0    0 -0.51376010901E+01  0.73785451888E+01  0.10134702831E+02  0.13548065390E+02  0.51100000000E-03 0.  1.
         12    1    3    3    0    0  0.10224088936E+02 -0.32943762873E+01  0.68883590061E+01  0.12760658271E+02  0.00000000000E+00 0. -1.
</event>
<event>
 7    1  0.6055092E-013  0.5930196E+02  0.7816164E-02  0.1266605E+00
        -11   -1    0    0    0    0  0.00000000000E+00  0.00000000000E+00  0.45593999997E+02  0.45594000000E+02  0.51100000000E-03 0.  1.
         11   -1    0    0    0    0 -0.00000000000E+00 -0.00000000000E+00 -0.45593999997E+02  0.45594000000E+02  0.51100000000E-03 0. -1.
    9900012    2    1    2    0    0  0.13154266904E+02 -0.26537438250E+02 -0.11808850608E+02  0.59301963569E+02  0.50000035638E+02 0.  0.
        -12    1    1    2    0    0 -0.13154266904E+02  0.26537438250E+02  0.11808850608E+02  0.31886036431E+02  0.00000000000E+00 0.  1.
         11    1    3    3    0    0  0.33255723990E+01 -0.97193773550E+01 -0.25738693443E+02  0.27712922407E+02  0.51100000000E-03 0. -1.
        -11    1    3    3    0    0  0.93806580284E+01 -0.17782023514E+02  0.18242394043E+02  0.27147413246E+02  0.51100000000E-03 0.  1.
        -12    1    3    3    0    0  0.44803647652E+00  0.96396261912E+00 -0.43125512077E+01  0.44416279149E+01  0.00000000000E+00 0.  1.
</event>
<event>
 7    1  0.6055092E-013  0.5930195E+02  0.7816164E-02  0.1266605E+00
        -11   -1    0    0    0    0  0.00000000000E+00  0.00000000000E+00  0.45593999997E+02  0.45594000000E+02  0.51100000000E-03 0. -1.
         11   -1    0    0    0    0 -0.00000000000E+00 -0.00000000000E+00 -0.45593999997E+02  0.45594000000E+02  0.51100000000E-03 0.  1.
    9900012    2    1    2    0    0  0.18071555772E+02  0.50309529999E+01  0.25784272593E+02  0.59301947732E+02  0.50000006755E+02 0.  0.
        -12    1    1    2    0    0 -0.18071555772E+02 -0.50309529999E+01 -0.25784272593E+02  0.31886052268E+02  0.00000000000E+00 0.  1.
         11    1    3    3    0    0 -0.43617263118E+01  0.15094163478E+02  0.69445020841E+01  0.17178024828E+02  0.51100000000E-03 0. -1.
        -11    1    3    3    0    0  0.17777656816E+02 -0.31299289952E+01  0.25638135387E+02  0.31355310934E+02  0.51100000000E-03 0.  1.
        -12    1    3    3    0    0  0.46556252676E+01 -0.69332814832E+01 -0.67983648776E+01  0.10768611970E+02  0.00000000000E+00 0.  1.
</event>
<event>
 7    1  0.6055092E-013  0.5930195E+02  0.7816164E-02  0.1266605E+00
        -11   -1    0    0    0    0  0.00000000000E+00  0.00000000000E+00  0.45593999997E+02  0.45594000000E+02  0.51100000000E-03 0.  1.
         11   -1    0    0    0    0 -0.00000000000E+00 -0.00000000000E+00 -0.45593999997E+02  0.45594000000E+02  0.51100000000E-03 0. -1.
    9900012    2    1    2    0    0  0.24520409968E+02  0.15707812968E+01 -0.20322464289E+02  0.59301946409E+02  0.50000004342E+02 0.  0.
        -12    1    1    2    0    0 -0.24520409968E+02 -0.15707812968E+01  0.20322464289E+02  0.31886053591E+02  0.00000000000E+00 0.  1.
         11    1    3    3    0    0  0.26676058938E+01  0.62823757264E+01 -0.21434880661E+02  0.22495298957E+02  0.51100000000E-03 0. -1.
        -11    1    3    3    0    0  0.74762544159E+01 -0.15905063735E+02 -0.37036962348E+01  0.17960590151E+02  0.51100000000E-03 0.  1.
        -12    1    3    3    0    0  0.14376549658E+02  0.11193469305E+02  0.48161126066E+01  0.18846057301E+02  0.00000000000E+00 0.  1.
</event>
<event>
 7    1  0.6055092E-013  0.5930197E+02  0.7816164E-02  0.1266605E+00
        -11   -1    0    0    0    0  0.00000000000E+00  0.00000000000E+00  0.45593999997E+02  0.45594000000E+02  0.51100000000E-03 0. -1.
         11   -1    0    0    0    0 -0.00000000000E+00 -0.00000000000E+00 -0.45593999997E+02  0.45594000000E+02  0.51100000000E-03 0.  1.
    9900012    2    1    2    0    0 -0.20617176160E+02  0.83056124663E+01  0.22861923868E+02  0.59301973058E+02  0.50000052944E+02 0.  0.
        -12    1    1    2    0    0  0.20617176160E+02 -0.83056124663E+01 -0.22861923868E+02  0.31886026942E+02  0.00000000000E+00 0.  1.
         11    1    3    3    0    0 -0.16045268892E+01  0.43974318103E+01  0.35078691396E+01  0.58495349581E+01  0.51100000000E-03 0. -1.
        -11    1    3    3    0    0 -0.31494378178E+02 -0.67437064696E+01  0.71230761677E+01  0.32986537377E+02  0.51100000000E-03 0.  1.
        -12    1    3    3    0    0  0.12481728907E+02  0.10651887126E+02  0.12230978560E+02  0.20465900723E+02  0.00000000000E+00 0.  1.
</event>
<event>
 7    1  0.6055092E-013  0.5930194E+02  0.7816164E-02  0.1266605E+00
        -11   -1    0    0    0    0  0.00000000000E+00  0.00000000000E+00  0.45593999997E+02  0.45594000000E+02  0.51100000000E-03 0. -1.
         11   -1    0    0    0    0 -0.00000000000E+00 -0.00000000000E+00 -0.45593999997E+02  0.45594000000E+02  0.51100000000E-03 0.  1.
    9900012    2    1    2    0    0 -0.39084958077E+01  0.29824582829E+02  0.10580119405E+02  0.59301937103E+02  0.49999987371E+02 0.  0.
        -12    1    1    2    0    0  0.39084958077E+01 -0.29824582829E+02 -0.10580119405E+02  0.31886062897E+02  0.00000000000E+00 0.  1.
         11    1    3    3    0    0 -0.24989531416E+00 -0.66269314324E+01  0.52652997932E+01  0.84677063040E+01  0.51100000000E-03 0. -1.
        -11    1    3    3    0    0 -0.37096244363E+01  0.33125085443E+02 -0.10285595243E+02  0.34883034111E+02  0.51100000000E-03 0.  1.
        -12    1    3    3    0    0  0.51023942811E-01  0.33264288188E+01  0.15600414855E+02  0.15951196688E+02  0.00000000000E+00 0.  1.
</event>
<event>
 7    1  0.6055092E-013  0.5930194E+02  0.7816164E-02  0.1266605E+00
        -11   -1    0    0    0    0  0.00000000000E+00  0.00000000000E+00  0.45593999997E+02  0.45594000000E+02  0.51100000000E-03 0.  1.
         11   -1    0    0    0    0 -0.00000000000E+00 -0.00000000000E+00 -0.45593999997E+02  0.45594000000E+02  0.51100000000E-03 0. -1.
    9900012    2    1    2    0    0 -0.25134484324E+02  0.12910364309E+02 -0.14775010885E+02  0.59301941048E+02  0.49999994566E+02 0.  0.
        -12    1    1    2    0    0  0.25134484324E+02 -0.12910364309E+02  0.14775010885E+02  0.31886058952E+02  0.00000000000E+00 0.  1.
         11    1    3    3    0    0 -0.33705297520E+01 -0.77544674337E+01 -0.16299389956E+02  0.18361981080E+02  0.51100000000E-03 0. -1.
        -11    1    3    3    0    0  0.61258173913E+00  0.17747520571E+02  0.41067684819E+01  0.18226773999E+02  0.51100000000E-03 0.  1.
        -12    1    3    3    0    0 -0.22376536312E+02  0.29173111717E+01 -0.25823894103E+01  0.22713185969E+02  0.00000000000E+00 0.  1.
</event>
<event>
 7    1  0.6055092E-013  0.5930195E+02  0.7816164E-02  0.1266605E+00
        -11   -1    0    0    0    0  0.00000000000E+00  0.00000000000E+00  0.45593999997E+02  0.45594000000E+02  0.51100000000E-03 0. -1.
         11   -1    0    0    0    0 -0.00000000000E+00 -0.00000000000E+00 -0.45593999997E+02  0.45594000000E+02  0.51100000000E-03 0.  1.
    9900012    2    1    2    0    0 -0.29617718119E+02  0.71359424791E+01  0.94121755151E+01  0.59301953685E+02  0.50000017613E+02 0.  0.
        -12    1    1    2    0    0  0.29617718119E+02 -0.71359424791E+01 -0.94121755151E+01  0.31886046315E+02  0.00000000000E+00 0.  1.
         11    1    3    3    0    0 -0.77251540521E+01  0.11364408725E+02 -0.58694768835E+01  0.14942508154E+02  0.51100000000E-03 0. -1.
        -11    1    3    3    0    0 -0.20054734949E+02 -0.15854256429E+02  0.63894819434E+00  0.25572604401E+02  0.51100000000E-03 0.  1.
        -12    1    3    3    0    0 -0.18378291185E+01  0.11625790183E+02  0.14642704204E+02  0.18786841130E+02  0.00000000000E+00 0.  1.
</event>
<event>
 7    1  0.6055092E-013  0.5930194E+02  0.7816164E-02  0.1266605E+00
        -11   -1    0    0    0    0  0.00000000000E+00  0.00000000000E+00  0.45593999997E+02  0.45594000000E+02  0.51100000000E-03 0. -1.
         11   -1    0    0    0    0 -0.00000000000E+00 -0.00000000000E+00 -0.45593999997E+02  0.45594000000E+02  0.51100000000E-03 0.  1.
    9900012    2    1    2    0    0 -0.19677803444E+02  0.21543250319E+01  0.24997276216E+02  0.59301939050E+02  0.49999990922E+02 0.  0.
        -12    1    1    2    0    0  0.19677803444E+02 -0.21543250319E+01 -0.24997276216E+02  0.31886060950E+02  0.00000000000E+00 0.  1.
         11    1    3    3    0    0 -0.54582231615E+01 -0.77046991218E+01  0.34350298229E+02  0.35624395817E+02  0.51100000000E-03 0. -1.
        -11    1    3    3    0    0 -0.16300293394E+02  0.63100288367E+01 -0.86560483130E+01  0.19504953251E+02  0.51100000000E-03 0.  1.
         12    1    3    3    0    0  0.20807131123E+01  0.35489953171E+01 -0.69697370067E+00  0.41725899817E+01  0.00000000000E+00 0. -1.
</event>
<event>
 7    1  0.6055092E-013  0.5930209E+02  0.7816164E-02  0.1266604E+00
        -11   -1    0    0    0    0  0.00000000000E+00  0.00000000000E+00  0.45593999997E+02  0.45594000000E+02  0.51100000000E-03 0. -1.
         11   -1    0    0    0    0 -0.00000000000E+00 -0.00000000000E+00 -0.45593999997E+02  0.45594000000E+02  0.51100000000E-03 0.  1.
    9900012    2    1    2    0    0  0.10030645377E+02  0.28531368692E+02  0.10102399842E+02  0.59302088869E+02  0.50000264154E+02 0.  0.
        -12    1    1    2    0    0 -0.10030645377E+02 -0.28531368692E+02 -0.10102399842E+02  0.31885911131E+02  0.00000000000E+00 0.  1.
         11    1    3    3    0    0  0.61595047120E+01  0.23363062877E+02  0.99274532975E+01  0.26121380793E+02  0.51100000000E-03 0. -1.
        -11    1    3    3    0    0  0.36671384099E+01  0.48801767345E+00 -0.15958071914E+02  0.16381273603E+02  0.51100000000E-03 0.  1.
        -12    1    3    3    0    0  0.20400225485E+00  0.46802881415E+01  0.16133018459E+02  0.16799434472E+02  0.00000000000E+00 0.  1.
</event>
<event>
 7    1  0.6055092E-013  0.5930192E+02  0.7816164E-02  0.1266605E+00
        -11   -1    0    0    0    0  0.00000000000E+00  0.00000000000E+00  0.45593999997E+02  0.45594000000E+02  0.51100000000E-03 0. -1.
         11   -1    0    0    0    0 -0.00000000000E+00 -0.00000000000E+00 -0.45593999997E+02  0.45594000000E+02  0.51100000000E-03 0.  1.
    9900012    2    1    2    0    0  0.15475352694E+02  0.13764511710E+02  0.24244048667E+02  0.59301918093E+02  0.49999952701E+02 0.  0.
        -12    1    1    2    0    0 -0.15475352694E+02 -0.13764511710E+02 -0.24244048667E+02  0.31886081907E+02  0.00000000000E+00 0.  1.
         11    1    3    3    0    0  0.46916440282E+01 -0.60348014732E+00  0.16564989030E+02  0.17227146421E+02  0.51100000000E-03 0. -1.
        -11    1    3    3    0    0  0.98236250881E+01 -0.10538367174E+02 -0.33933730797E+01  0.14801208521E+02  0.51100000000E-03 0.  1.
        -12    1    3    3    0    0  0.96008357753E+00  0.24906359031E+02  0.11072432717E+02  0.27273563151E+02  0.00000000000E+00 0.  1.
</event>
<event>
 7    1  0.6055092E-013  0.5930193E+02  0.7816164E-02  0.1266605E+00
        -11   -1    0    0    0    0  0.00000000000E+00  0.00000000000E+00  0.45593999997E+02  0.45594000000E+02  0.51100000000E-03 0.  1.
         11   -1    0    0    0    0 -0.00000000000E+00 -0.00000000000E+00 -0.45593999997E+02  0.45594000000E+02  0.51100000000E-03 0. -1.
    9900012    2    1    2    0    0 -0.21871575514E+02 -0.23016427257E+02 -0.29324841759E+01  0.59301934038E+02  0.49999981781E+02 0.  0.
        -12    1    1    2    0    0  0.21871575514E+02  0.23016427257E+02  0.29324841759E+01  0.31886065962E+02  0.00000000000E+00 0.  1.
         11    1    3    3    0    0 -0.34553851194E+02 -0.27156052434E+02 -0.83530604816E+01  0.44734700578E+02  0.51100000000E-03 0. -1.
        -11    1    3    3    0    0  0.66945895995E+01  0.21989116670E+01  0.16752408442E+01  0.72428706031E+01  0.51100000000E-03 0.  1.
         12    1    3    3    0    0  0.59876860812E+01  0.19407135101E+01  0.37453354614E+01  0.73243628565E+01  0.00000000000E+00 0. -1.
</event>
<event>
 7    1  0.6055092E-013  0.5930195E+02  0.7816164E-02  0.1266605E+00
        -11   -1    0    0    0    0  0.00000000000E+00  0.00000000000E+00  0.45593999997E+02  0.45594000000E+02  0.51100000000E-03 0. -1.
         11   -1    0    0    0    0 -0.00000000000E+00 -0.00000000000E+00 -0.45593999997E+02  0.45594000000E+02  0.51100000000E-03 0.  1.
    9900012    2    1    2    0    0  0.56441341503E+01  0.21042871852E+02  0.23282214036E+02  0.59301949813E+02  0.50000010551E+02 0.  0.
        -12    1    1    2    0    0 -0.56441341503E+01 -0.21042871852E+02 -0.23282214036E+02  0.31886050187E+02  0.00000000000E+00 0.  1.
         11    1    3    3    0    0  0.22906800098E+01  0.18524224709E+02  0.25502561284E+02  0.31603397733E+02  0.51100000000E-03 0. -1.
        -11    1    3    3    0    0 -0.37696365001E+01  0.12777838235E+02 -0.60547479173E+01  0.14633635294E+02  0.51100000000E-03 0.  1.
         12    1    3    3    0    0  0.71230906407E+01 -0.10259191092E+02  0.38344006692E+01  0.13064916786E+02  0.00000000000E+00 0. -1.
</event>
<event>
 7    1  0.6055092E-013  0.5930194E+02  0.7816164E-02  0.1266605E+00
        -11   -1    0    0    0    0  0.00000000000E+00  0.00000000000E+00  0.45593999997E+02  0.45594000000E+02  0.51100000000E-03 0.  1.
         11   -1    0    0    0    0 -0.00000000000E+00 -0.00000000000E+00 -0.45593999997E+02  0.45594000000E+02  0.51100000000E-03 0. -1.
    9900012    2    1    2    0    0  0.19938556746E+01  0.29288884160E+02 -0.12446159365E+02  0.59301935980E+02  0.49999985322E+02 0.  0.
        -12    1    1    2    0    0 -0.19938556746E+01 -0.29288884160E+02  0.12446159365E+02  0.31886064020E+02  0.00000000000E+00 0.  1.
         11    1    3    3    0    0  0.55313356759E+01  0.23760681729E+02  0.82063290703E+00  0.24409815838E+02  0.51100000000E-03 0. -1.
        -11    1    3    3    0    0  0.58038940071E+01 -0.51454161788E+01 -0.18272606246E+02  0.19850658241E+02  0.51100000000E-03 0.  1.
        -12    1    3    3    0    0 -0.93413740084E+01  0.10673618609E+02  0.50058139745E+01  0.15041461901E+02  0.00000000000E+00 0.  1.
</event>
<event>
 7    1  0.6055092E-013  0.5930158E+02  0.7816164E-02  0.1266606E+00
        -11   -1    0    0    0    0  0.00000000000E+00  0.00000000000E+00  0.45593999997E+02  0.45594000000E+02  0.51100000000E-03 0. -1.
         11   -1    0    0    0    0 -0.00000000000E+00 -0.00000000000E+00 -0.45593999997E+02  0.45594000000E+02  0.51100000000E-03 0.  1.
    9900012    2    1    2    0    0 -0.13239849491E+02  0.20201346667E+02  0.20817195960E+02  0.59301581742E+02  0.49999339273E+02 0.  0.
        -12    1    1    2    0    0  0.13239849491E+02 -0.20201346667E+02 -0.20817195960E+02  0.31886418258E+02  0.00000000000E+00 0.  1.
         11    1    3    3    0    0 -0.70682534605E+01  0.53554149716E-01 -0.26118583201E+01  0.75355742431E+01  0.51100000000E-03 0. -1.
        -11    1    3    3    0    0 -0.38558305704E+00  0.32043557276E+02  0.21007840408E+02  0.38317980062E+02  0.51100000000E-03 0.  1.
        -12    1    3    3    0    0 -0.57860129734E+01 -0.11895764759E+02  0.24212138720E+01  0.13448027436E+02  0.00000000000E+00 0.  1.
</event>
<event>
 7    1  0.6055092E-013  0.5930189E+02  0.7816164E-02  0.1266605E+00
        -11   -1    0    0    0    0  0.00000000000E+00  0.00000000000E+00  0.45593999997E+02  0.45594000000E+02  0.51100000000E-03 0. -1.
         11   -1    0    0    0    0 -0.00000000000E+00 -0.00000000000E+00 -0.45593999997E+02  0.45594000000E+02  0.51100000000E-03 0.  1.
    9900012    2    1    2    0    0  0.44876009772E+01 -0.86801040194E+01  0.30351951412E+02  0.59301894517E+02  0.49999909705E+02 0.  0.
        -12    1    1    2    0    0 -0.44876009772E+01  0.86801040194E+01 -0.30351951412E+02  0.31886105483E+02  0.00000000000E+00 0.  1.
         11    1    3    3    0    0 -0.47646353801E+01 -0.17077710951E+02  0.18090294159E+02  0.25329996144E+02  0.51100000000E-03 0. -1.
        -11    1    3    3    0    0  0.96951509842E+01 -0.25629864061E+01 -0.67037835145E+01  0.12062568781E+02  0.51100000000E-03 0.  1.
         12    1    3    3    0    0 -0.44291462690E+00  0.10960593338E+02  0.18965440768E+02  0.21909329593E+02  0.00000000000E+00 0. -1.
</event>
<event>
 7    1  0.6055092E-013  0.5930203E+02  0.7816164E-02  0.1266604E+00
        -11   -1    0    0    0    0  0.00000000000E+00  0.00000000000E+00  0.45593999997E+02  0.45594000000E+02  0.51100000000E-03 0. -1.
         11   -1    0    0    0    0 -0.00000000000E+00 -0.00000000000E+00 -0.45593999997E+02  0.45594000000E+02  0.51100000000E-03 0.  1.
    9900012    2    1    2    0    0 -0.43910622225E+00 -0.15315125294E+02  0.27963707928E+02  0.59302033838E+02  0.50000163792E+02 0.  0.
        -12    1    1    2    0    0  0.43910622225E+00  0.15315125294E+02 -0.27963707928E+02  0.31885966162E+02  0.00000000000E+00 0.  1.
         11    1    3    3    0    0 -0.20939400623E+02 -0.24839753951E+01  0.20891598917E+02  0.29683118734E+02  0.51100000000E-03 0. -1.
        -11    1    3    3    0    0  0.94778572522E+01 -0.22094796525E+01 -0.42095592075E+01  0.10603394146E+02  0.51100000000E-03 0.  1.
         12    1    3    3    0    0  0.11022437149E+02 -0.10621670246E+02  0.11281668218E+02  0.19015520958E+02  0.00000000000E+00 0. -1.
</event>
<event>
 7    1  0.6055092E-013  0.5930192E+02  0.7816164E-02  0.1266605E+00
        -11   -1    0    0    0    0  0.00000000000E+00  0.00000000000E+00  0.45593999997E+02  0.45594000000E+02  0.51100000000E-03 0.  1.
         11   -1    0    0    0    0 -0.00000000000E+00 -0.00000000000E+00 -0.45593999997E+02  0.45594000000E+02  0.51100000000E-03 0. -1.
    9900012    2    1    2    0    0 -0.17906257896E+02  0.25846287844E+02 -0.52968976033E+01  0.59301924804E+02  0.49999964940E+02 0.  0.
        -12    1    1    2    0    0  0.17906257896E+02 -0.25846287844E+02  0.52968976033E+01  0.31886075196E+02  0.00000000000E+00 0.  1.
         11    1    3    3    0    0 -0.14577688418E+02 -0.55848235523E+01 -0.81189126032E+01  0.17595908497E+02  0.51100000000E-03 0. -1.
        -11    1    3    3    0    0  0.12661987305E+00  0.35836055219E+02  0.37473678881E+01  0.36031675684E+02  0.51100000000E-03 0.  1.
        -12    1    3    3    0    0 -0.34551893520E+01 -0.44049438224E+01 -0.92535288824E+00  0.56743406229E+01  0.00000000000E+00 0.  1.
</event>
<event>
 7    1  0.6055092E-013  0.5930195E+02  0.7816164E-02  0.1266605E+00
        -11   -1    0    0    0    0  0.00000000000E+00  0.00000000000E+00  0.45593999997E+02  0.45594000000E+02  0.51100000000E-03 0. -1.
         11   -1    0    0    0    0 -0.00000000000E+00 -0.00000000000E+00 -0.45593999997E+02  0.45594000000E+02  0.51100000000E-03 0.  1.
    9900012    2    1    2    0    0  0.10226646827E+02  0.29680234190E+02 -0.55874743799E+01  0.59301945417E+02  0.50000002534E+02 0.  0.
        -12    1    1    2    0    0 -0.10226646827E+02 -0.29680234190E+02  0.55874743799E+01  0.31886054583E+02  0.00000000000E+00 0.  1.
         11    1    3    3    0    0  0.30951868136E+01  0.40678706989E+00  0.12197115968E+02  0.12590285752E+02  0.51100000000E-03 0. -1.
        -11    1    3    3    0    0  0.16357924750E+02  0.27232577225E+02 -0.19256154036E+02  0.37148276312E+02  0.51100000000E-03 0.  1.
        -12    1    3    3    0    0 -0.92264647366E+01  0.20408698948E+01  0.14715636883E+01  0.95633833528E+01  0.00000000000E+00 0.  1.
</event>
<event>
 7    1  0.6055092E-013  0.5930166E+02  0.7816164E-02  0.1266606E+00
        -11   -1    0    0    0    0  0.00000000000E+00  0.00000000000E+00  0.45593999997E+02  0.45594000000E+02  0.51100000000E-03 0.  1.
         11   -1    0    0    0    0 -0.00000000000E+00 -0.00000000000E+00 -0.45593999997E+02  0.45594000000E+02  0.51100000000E-03 0. -1.
    9900012    2    1    2    0    0 -0.95024331210E+01  0.21970633804E+02 -0.21064985323E+02  0.59301661364E+02  0.49999484486E+02 0.  0.
        -12    1    1    2    0    0  0.95024331210E+01 -0.21970633804E+02  0.21064985323E+02  0.31886338636E+02  0.00000000000E+00 0.  1.
         11    1    3    3    0    0  0.10029659708E+02 -0.89337303512E+01 -0.14558539361E+02  0.19807995366E+02  0.51100000000E-03 0. -1.
        -11    1    3    3    0    0 -0.49594695484E+00  0.54354188707E+01  0.31005054429E+01  0.62771710145E+01  0.51100000000E-03 0.  1.
         12    1    3    3    0    0 -0.19036145874E+02  0.25468945284E+02 -0.96069514057E+01  0.33216494983E+02  0.00000000000E+00 0. -1.
</event>
<event>
 7    1  0.6055092E-013  0.5930194E+02  0.7816164E-02  0.1266605E+00
        -11   -1    0    0    0    0  0.00000000000E+00  0.00000000000E+00  0.45593999997E+02  0.45594000000E+02  0.51100000000E-03 0.  1.
         11   -1    0    0    0    0 -0.00000000000E+00 -0.00000000000E+00 -0.45593999997E+02  0.45594000000E+02  0.51100000000E-03 0. -1.
    9900012    2    1    2    0    0  0.12692635760E+01  0.27442300436E+02 -0.16187339573E+02  0.59301939634E+02  0.49999991987E+02 0.  0.
        -12    1    1    2    0    0 -0.12692635760E+01 -0.27442300436E+02  0.16187339573E+02  0.31886060366E+02  0.00000000000E+00 0.  1.
         11    1    3    3    0    0  0.15158533012E+02  0.23965377577E+02 -0.51548330596E+01  0.28821740919E+02  0.51100000000E-03 0. -1.
        -11    1    3    3    0    0 -0.46002718817E+01 -0.99126367981E+01 -0.23332655835E+00  0.10930567745E+02  0.51100000000E-03 0.  1.
         12    1    3    3    0    0 -0.92889975541E+01  0.13389559657E+02 -0.10799179955E+02  0.19549630970E+02  0.00000000000E+00 0. -1.
</event>
<event>
 7    1  0.6055092E-013  0.5930180E+02  0.7816164E-02  0.1266605E+00
        -11   -1    0    0    0    0  0.00000000000E+00  0.00000000000E+00  0.45593999997E+02  0.45594000000E+02  0.51100000000E-03 0.  1.
         11   -1    0    0    0    0 -0.00000000000E+00 -0.00000000000E+00 -0.45593999997E+02  0.45594000000E+02  0.51100000000E-03 0. -1.
    9900012    2    1    2    0    0  0.16336780454E+02  0.96002581402E+01  0.25645164397E+02  0.59301799084E+02  0.49999735656E+02 0.  0.
        -12    1    1    2    0    0 -0.16336780454E+02 -0.96002581402E+01 -0.25645164397E+02  0.31886200916E+02  0.00000000000E+00 0.  1.
         11    1    3    3    0    0  0.91997685241E+01 -0.46715811319E+01  0.32034682875E+02  0.33655316346E+02  0.51100000000E-03 0. -1.
        -11    1    3    3    0    0  0.12422699015E+02  0.44459214881E+01 -0.93555729623E+00  0.13227431210E+02  0.51100000000E-03 0.  1.
         12    1    3    3    0    0 -0.52856870857E+01  0.98259177840E+01 -0.54539611824E+01  0.12419051528E+02  0.00000000000E+00 0. -1.
</event>
<event>
 7    1  0.6055092E-013  0.5930193E+02  0.7816164E-02  0.1266605E+00
        -11   -1    0    0    0    0  0.00000000000E+00  0.00000000000E+00  0.45593999997E+02  0.45594000000E+02  0.51100000000E-03 0. -1.
         11   -1    0    0    0    0 -0.00000000000E+00 -0.00000000000E+00 -0.45593999997E+02  0.45594000000E+02  0.51100000000E-03 0.  1.
    9900012    2    1    2    0    0  0.30715484901E+02  0.58943252365E+01  0.62078264812E+01  0.59301934198E+02  0.49999982074E+02 0.  0.
        -12    1    1    2    0    0 -0.30715484901E+02 -0.58943252365E+01 -0.62078264812E+01  0.31886065802E+02  0.00000000000E+00 0.  1.
         11    1    3    3    0    0  0.29643601694E+02  0.14653348075E+02  0.76979043141E+00  0.33076522018E+02  0.51100000000E-03 0.  1.
        -11    1    3    3    0    0 -0.96435485469E+01 -0.15680632620E+01 -0.36630097800E+01  0.10434294029E+02  0.51100000000E-03 0. -1.
         12    1    3    3    0    0  0.10715431753E+02 -0.71909595765E+01  0.91010458298E+01  0.15791118152E+02  0.00000000000E+00 0. -1.
</event>
<event>
 7    1  0.6055092E-013  0.5930195E+02  0.7816164E-02  0.1266605E+00
        -11   -1    0    0    0    0  0.00000000000E+00  0.00000000000E+00  0.45593999997E+02  0.45594000000E+02  0.51100000000E-03 0.  1.
         11   -1    0    0    0    0 -0.00000000000E+00 -0.00000000000E+00 -0.45593999997E+02  0.45594000000E+02  0.51100000000E-03 0. -1.
    9900012    2    1    2    0    0 -0.39149223878E+01 -0.68417318184E+01 -0.30896345555E+02  0.59301951637E+02  0.50000013877E+02 0.  0.
        -12    1    1    2    0    0  0.39149223878E+01  0.68417318184E+01  0.30896345555E+02  0.31886048363E+02  0.00000000000E+00 0.  1.
         11    1    3    3    0    0 -0.29825573145E+01  0.19699519165E+02 -0.12062308206E+02  0.23290899145E+02  0.51100000000E-03 0. -1.
        -11    1    3    3    0    0  0.68781639271E+01 -0.14697769885E+02 -0.12452653966E+02  0.20454881316E+02  0.51100000000E-03 0.  1.
         12    1    3    3    0    0 -0.78105290004E+01 -0.11843481098E+02 -0.63813833820E+01  0.15556171176E+02  0.00000000000E+00 0. -1.
</event>
<event>
 7    1  0.6055092E-013  0.5930196E+02  0.7816164E-02  0.1266605E+00
        -11   -1    0    0    0    0  0.00000000000E+00  0.00000000000E+00  0.45593999997E+02  0.45594000000E+02  0.51100000000E-03 0. -1.
         11   -1    0    0    0    0 -0.00000000000E+00 -0.00000000000E+00 -0.45593999997E+02  0.45594000000E+02  0.51100000000E-03 0.  1.
    9900012    2    1    2    0    0  0.26806739645E+02 -0.62814229727E+01 -0.16082979663E+02  0.59301956034E+02  0.50000021896E+02 0.  0.
        -12    1    1    2    0    0 -0.26806739645E+02  0.62814229727E+01  0.16082979663E+02  0.31886043966E+02  0.00000000000E+00 0.  1.
         11    1    3    3    0    0  0.59455394791E+01 -0.29930576025E+01 -0.19828928891E+02  0.20916363324E+02  0.51100000000E-03 0.  1.
        -11    1    3    3    0    0  0.27807200868E+02 -0.64950304596E+01  0.79692501230E+01  0.29646834377E+02  0.51100000000E-03 0. -1.
        -12    1    3    3    0    0 -0.69460007015E+01  0.32066650894E+01 -0.42233008956E+01  0.87387583326E+01  0.00000000000E+00 0.  1.
</event>
<event>
 7    1  0.6055092E-013  0.5930194E+02  0.7816164E-02  0.1266605E+00
        -11   -1    0    0    0    0  0.00000000000E+00  0.00000000000E+00  0.45593999997E+02  0.45594000000E+02  0.51100000000E-03 0.  1.
         11   -1    0    0    0    0 -0.00000000000E+00 -0.00000000000E+00 -0.45593999997E+02  0.45594000000E+02  0.51100000000E-03 0. -1.
    9900012    2    1    2    0    0  0.14542397685E+02  0.25056710038E+02 -0.13319198182E+02  0.59301935825E+02  0.49999985040E+02 0.  0.
        -12    1    1    2    0    0 -0.14542397685E+02 -0.25056710038E+02  0.13319198182E+02  0.31886064175E+02  0.00000000000E+00 0.  1.
         11    1    3    3    0    0 -0.54345507888E+01 -0.60306859842E+00 -0.85530062318E+01  0.10151450629E+02  0.51100000000E-03 0. -1.
        -11    1    3    3    0    0  0.19641127766E+02  0.25020657346E+02  0.10781207863E+02  0.33586331106E+02  0.51100000000E-03 0.  1.
        -12    1    3    3    0    0  0.33582070796E+00  0.63912129111E+00 -0.15547399813E+02  0.15564154090E+02  0.00000000000E+00 0.  1.
</event>
<event>
 7    1  0.6055092E-013  0.5930194E+02  0.7816164E-02  0.1266605E+00
        -11   -1    0    0    0    0  0.00000000000E+00  0.00000000000E+00  0.45593999997E+02  0.45594000000E+02  0.51100000000E-03 0.  1.
         11   -1    0    0    0    0 -0.00000000000E+00 -0.00000000000E+00 -0.45593999997E+02  0.45594000000E+02  0.51100000000E-03 0. -1.
    9900012    2    1    2    0    0  0.77995841803E+01 -0.13519777123E+02 -0.27804731102E+02  0.59301937865E+02  0.49999988760E+02 0.  0.
        -12    1    1    2    0    0 -0.77995841803E+01  0.13519777123E+02  0.27804731102E+02  0.31886062135E+02  0.00000000000E+00 0.  1.
         11    1    3    3    0    0 -0.48518077070E+01 -0.13892360762E+02  0.58735474629E+01  0.15844124640E+02  0.51100000000E-03 0. -1.
        -11    1    3    3    0    0  0.33836709496E+01  0.11736179957E+02 -0.19822604775E+02  0.23283530862E+02  0.51100000000E-03 0.  1.
         12    1    3    3    0    0  0.92677209377E+01 -0.11363596318E+02 -0.13855673790E+02  0.20174282362E+02  0.00000000000E+00 0. -1.
</event>
<event>
 7    1  0.6055092E-013  0.5930195E+02  0.7816164E-02  0.1266605E+00
        -11   -1    0    0    0    0  0.00000000000E+00  0.00000000000E+00  0.45593999997E+02  0.45594000000E+02  0.51100000000E-03 0.  1.
         11   -1    0    0    0    0 -0.00000000000E+00 -0.00000000000E+00 -0.45593999997E+02  0.45594000000E+02  0.51100000000E-03 0. -1.
    9900012    2    1    2    0    0  0.24768972668E+02 -0.32045511527E+01 -0.19822938930E+02  0.59301951908E+02  0.50000014372E+02 0.  0.
        -12    1    1    2    0    0 -0.24768972668E+02  0.32045511527E+01  0.19822938930E+02  0.31886048092E+02  0.00000000000E+00 0.  1.
         11    1    3    3    0    0  0.25314879697E+02  0.14952064185E+02 -0.17682731267E+02  0.34308691942E+02  0.51100000000E-03 0. -1.
        -11    1    3    3    0    0  0.98844582568E+00 -0.30206114813E+01  0.66872968951E+01  0.74041244517E+01  0.51100000000E-03 0.  1.
         12    1    3    3    0    0 -0.15343528548E+01 -0.15136003856E+02 -0.88275045580E+01  0.17589135514E+02  0.00000000000E+00 0. -1.
</event>
<event>
 7    1  0.6055092E-013  0.5930193E+02  0.7816164E-02  0.1266605E+00
        -11   -1    0    0    0    0  0.00000000000E+00  0.00000000000E+00  0.45593999997E+02  0.45594000000E+02  0.51100000000E-03 0.  1.
         11   -1    0    0    0    0 -0.00000000000E+00 -0.00000000000E+00 -0.45593999997E+02  0.45594000000E+02  0.51100000000E-03 0. -1.
    9900012    2    1    2    0    0  0.26739511926E+02 -0.13369225170E+02 -0.11089801606E+02  0.59301931265E+02  0.49999976724E+02 0.  0.
        -12    1    1    2    0    0 -0.26739511926E+02  0.13369225170E+02  0.11089801606E+02  0.31886068735E+02  0.00000000000E+00 0.  1.
         11    1    3    3    0    0  0.11143237471E+02 -0.92250370836E+01  0.24717714649E+00  0.14468384407E+02  0.51100000000E-03 0. -1.
        -11    1    3    3    0    0 -0.26836799856E+01  0.15461023089E+02 -0.85858691071E+01  0.17887496242E+02  0.51100000000E-03 0.  1.
        -12    1    3    3    0    0  0.18279954441E+02 -0.19605211175E+02 -0.27511096452E+01  0.26946050617E+02  0.00000000000E+00 0.  1.
</event>
<event>
 7    1  0.6055092E-013  0.5930193E+02  0.7816164E-02  0.1266605E+00
        -11   -1    0    0    0    0  0.00000000000E+00  0.00000000000E+00  0.45593999997E+02  0.45594000000E+02  0.51100000000E-03 0. -1.
         11   -1    0    0    0    0 -0.00000000000E+00 -0.00000000000E+00 -0.45593999997E+02  0.45594000000E+02  0.51100000000E-03 0.  1.
    9900012    2    1    2    0    0 -0.26778870554E+02 -0.74234073227E+01  0.15636712618E+02  0.59301926772E+02  0.49999968529E+02 0.  0.
        -12    1    1    2    0    0  0.26778870554E+02  0.74234073227E+01 -0.15636712618E+02  0.31886073228E+02  0.00000000000E+00 0.  1.
         11    1    3    3    0    0 -0.19100111449E+02 -0.14846409268E+02  0.15123496058E+02  0.28529813508E+02  0.51100000000E-03 0. -1.
        -11    1    3    3    0    0 -0.13108752610E+02  0.44466477430E+01 -0.11012301151E+02  0.17688494793E+02  0.51100000000E-03 0.  1.
         12    1    3    3    0    0  0.54299935046E+01  0.29763542023E+01  0.11525517711E+02  0.13083618471E+02  0.00000000000E+00 0. -1.
</event>
<event>
 7    1  0.6055092E-013  0.5930195E+02  0.7816164E-02  0.1266605E+00
        -11   -1    0    0    0    0  0.00000000000E+00  0.00000000000E+00  0.45593999997E+02  0.45594000000E+02  0.51100000000E-03 0.  1.
         11   -1    0    0    0    0 -0.00000000000E+00 -0.00000000000E+00 -0.45593999997E+02  0.45594000000E+02  0.51100000000E-03 0. -1.
    9900012    2    1    2    0    0 -0.28360190513E+02 -0.11546618085E+02  0.88935461124E+01  0.59301953560E+02  0.50000017384E+02 0.  0.
        -12    1    1    2    0    0  0.28360190513E+02  0.11546618085E+02 -0.88935461124E+01  0.31886046440E+02  0.00000000000E+00 0.  1.
         11    1    3    3    0    0 -0.11963187996E+02  0.18428060957E+02 -0.37099098766E+01  0.22281712887E+02  0.51100000000E-03 0. -1.
        -11    1    3    3    0    0 -0.42440563008E+01 -0.11313759278E+02  0.73369518601E+01  0.14136620026E+02  0.51100000000E-03 0.  1.
         12    1    3    3    0    0 -0.12152946216E+02 -0.18660919764E+02  0.52665041289E+01  0.22883620647E+02  0.00000000000E+00 0. -1.
</event>
<event>
 7    1  0.6055092E-013  0.5930196E+02  0.7816164E-02  0.1266605E+00
        -11   -1    0    0    0    0  0.00000000000E+00  0.00000000000E+00  0.45593999997E+02  0.45594000000E+02  0.51100000000E-03 0.  1.
         11   -1    0    0    0    0 -0.00000000000E+00 -0.00000000000E+00 -0.45593999997E+02  0.45594000000E+02  0.51100000000E-03 0. -1.
    9900012    2    1    2    0    0 -0.24925136965E+02 -0.54396218623E+01 -0.19127666606E+02  0.59301959661E+02  0.50000028511E+02 0.  0.
        -12    1    1    2    0    0  0.24925136965E+02  0.54396218623E+01  0.19127666606E+02  0.31886040339E+02  0.00000000000E+00 0.  1.
         11    1    3    3    0    0 -0.28384846447E+02 -0.10683819926E+02 -0.43228873554E+01  0.30635451219E+02  0.51100000000E-03 0. -1.
        -11    1    3    3    0    0 -0.19368765855E+01  0.80795843421E+01 -0.19352714963E+02  0.21060834522E+02  0.51100000000E-03 0.  1.
        -12    1    3    3    0    0  0.53965860673E+01 -0.28353862781E+01  0.45479357131E+01  0.76056739201E+01  0.00000000000E+00 0.  1.
</event>
<event>
 7    1  0.6055092E-013  0.5930193E+02  0.7816164E-02  0.1266605E+00
        -11   -1    0    0    0    0  0.00000000000E+00  0.00000000000E+00  0.45593999997E+02  0.45594000000E+02  0.51100000000E-03 0.  1.
         11   -1    0    0    0    0 -0.00000000000E+00 -0.00000000000E+00 -0.45593999997E+02  0.45594000000E+02  0.51100000000E-03 0. -1.
    9900012    2    1    2    0    0 -0.25796027562E+02  0.10964660998E+02 -0.15200736164E+02  0.59301933941E+02  0.49999981605E+02 0.  0.
        -12    1    1    2    0    0  0.25796027562E+02 -0.10964660998E+02  0.15200736164E+02  0.31886066059E+02  0.00000000000E+00 0.  1.
         11    1    3    3    0    0 -0.20203263316E+02 -0.14751675416E+02  0.15300432657E+01  0.25062418256E+02  0.51100000000E-03 0. -1.
        -11    1    3    3    0    0  0.40923430467E+01  0.13221531369E+02 -0.99072501966E+01  0.17020862789E+02  0.51100000000E-03 0.  1.
         12    1    3    3    0    0 -0.96851072922E+01  0.12494805044E+02 -0.68235292331E+01  0.17218652896E+02  0.00000000000E+00 0. -1.
</event>
<event>
 7    1  0.6055092E-013  0.5930194E+02  0.7816164E-02  0.1266605E+00
        -11   -1    0    0    0    0  0.00000000000E+00  0.00000000000E+00  0.45593999997E+02  0.45594000000E+02  0.51100000000E-03 0. -1.
         11   -1    0    0    0    0 -0.00000000000E+00 -0.00000000000E+00 -0.45593999997E+02  0.45594000000E+02  0.51100000000E-03 0.  1.
    9900012    2    1    2    0    0  0.12731001840E+02 -0.28137150935E+02  0.79336532259E+01  0.59301944676E+02  0.50000001183E+02 0.  0.
        -12    1    1    2    0    0 -0.12731001840E+02  0.28137150935E+02 -0.79336532259E+01  0.31886055324E+02  0.00000000000E+00 0.  1.
         11    1    3    3    0    0 -0.60732682441E+00 -0.28269622691E+02  0.18986011907E+02  0.34058905757E+02  0.51100000000E-03 0. -1.
        -11    1    3    3    0    0  0.43845742700E+01 -0.49571029713E+01 -0.13160050687E+02  0.14730386816E+02  0.51100000000E-03 0.  1.
         12    1    3    3    0    0  0.89537543947E+01  0.50895747275E+01  0.21076920060E+01  0.10512652104E+02  0.00000000000E+00 0. -1.
</event>
<event>
 7    1  0.6055092E-013  0.5930194E+02  0.7816164E-02  0.1266605E+00
        -11   -1    0    0    0    0  0.00000000000E+00  0.00000000000E+00  0.45593999997E+02  0.45594000000E+02  0.51100000000E-03 0. -1.
         11   -1    0    0    0    0 -0.00000000000E+00 -0.00000000000E+00 -0.45593999997E+02  0.45594000000E+02  0.51100000000E-03 0.  1.
    9900012    2    1    2    0    0 -0.56491575009E+01  0.21614354736E+02  0.22751430277E+02  0.59301938927E+02  0.49999990697E+02 0.  0.
        -12    1    1    2    0    0  0.56491575009E+01 -0.21614354736E+02 -0.22751430277E+02  0.31886061073E+02  0.00000000000E+00 0.  1.
         11    1    3    3    0    0  0.47150684790E+01 -0.14104815893E+02 -0.66949906055E+00  0.14887106213E+02  0.51100000000E-03 0. -1.
        -11    1    3    3    0    0 -0.92141792709E+01  0.24962059719E+02  0.13985917496E+02  0.30060129965E+02  0.51100000000E-03 0.  1.
         12    1    3    3    0    0 -0.11500467091E+01  0.10757110911E+02  0.94350118407E+01  0.14354702749E+02  0.00000000000E+00 0. -1.
</event>
<event>
 7    1  0.6055092E-013  0.5930196E+02  0.7816164E-02  0.1266605E+00
        -11   -1    0    0    0    0  0.00000000000E+00  0.00000000000E+00  0.45593999997E+02  0.45594000000E+02  0.51100000000E-03 0.  1.
         11   -1    0    0    0    0 -0.00000000000E+00 -0.00000000000E+00 -0.45593999997E+02  0.45594000000E+02  0.51100000000E-03 0. -1.
    9900012    2    1    2    0    0 -0.88799156846E+01 -0.27747929482E+02 -0.12958349860E+02  0.59301963492E+02  0.50000035498E+02 0.  0.
        -12    1    1    2    0    0  0.88799156846E+01  0.27747929482E+02  0.12958349860E+02  0.31886036508E+02  0.00000000000E+00 0.  1.
         11    1    3    3    0    0 -0.61903208014E+01 -0.89926367407E+01 -0.22616469511E+02  0.25113587569E+02  0.51100000000E-03 0. -1.
        -11    1    3    3    0    0 -0.92458151919E+01 -0.15829915380E+02  0.16208313297E+02  0.24469996725E+02  0.51100000000E-03 0.  1.
         12    1    3    3    0    0  0.65562203087E+01 -0.29253773608E+01 -0.65501936460E+01  0.97183791982E+01  0.00000000000E+00 0. -1.
</event>
<event>
 7    1  0.6055092E-013  0.5930196E+02  0.7816164E-02  0.1266605E+00
        -11   -1    0    0    0    0  0.00000000000E+00  0.00000000000E+00  0.45593999997E+02  0.45594000000E+02  0.51100000000E-03 0. -1.
         11   -1    0    0    0    0 -0.00000000000E+00 -0.00000000000E+00 -0.45593999997E+02  0.45594000000E+02  0.51100000000E-03 0.  1.
    9900012    2    1    2    0    0 -0.12081960111E+02 -0.26451336561E+02  0.13079474286E+02  0.59301958954E+02  0.50000027222E+02 0.  0.
        -12    1    1    2    0    0  0.12081960111E+02  0.26451336561E+02 -0.13079474286E+02  0.31886041046E+02  0.00000000000E+00 0.  1.
         11    1    3    3    0    0  0.11673150571E+02 -0.16031773632E+02  0.20221123103E+02  0.28322676954E+02  0.51100000000E-03 0. -1.
        -11    1    3    3    0    0 -0.92623169616E+01 -0.53728617251E+01 -0.10794079088E+02  0.15204285654E+02  0.51100000000E-03 0.  1.
        -12    1    3    3    0    0 -0.14492793720E+02 -0.50467012031E+01  0.36524302717E+01  0.15774996346E+02  0.00000000000E+00 0.  1.
</event>
<event>
 7    1  0.6055092E-013  0.5930195E+02  0.7816164E-02  0.1266605E+00
        -11   -1    0    0    0    0  0.00000000000E+00  0.00000000000E+00  0.45593999997E+02  0.45594000000E+02  0.51100000000E-03 0.  1.
         11   -1    0    0    0    0 -0.00000000000E+00 -0.00000000000E+00 -0.45593999997E+02  0.45594000000E+02  0.51100000000E-03 0. -1.
    9900012    2    1    2    0    0 -0.11713574827E+02 -0.19067753539E+02 -0.22714156629E+02  0.59301953340E+02  0.50000016983E+02 0.  0.
        -12    1    1    2    0    0  0.11713574827E+02  0.19067753539E+02  0.22714156629E+02  0.31886046660E+02  0.00000000000E+00 0.  1.
         11    1    3    3    0    0  0.17104031097E+01 -0.22362615935E+02 -0.37184504373E+01  0.22734092112E+02  0.51100000000E-03 0. -1.
        -11    1    3    3    0    0 -0.78303641401E+00  0.11329404911E+02 -0.18344853577E+02  0.21575500335E+02  0.51100000000E-03 0.  1.
        -12    1    3    3    0    0 -0.12640941523E+02 -0.80345425148E+01 -0.65085261432E+00  0.14992360893E+02  0.00000000000E+00 0.  1.
</event>
<event>
 7    1  0.6055092E-013  0.5930188E+02  0.7816164E-02  0.1266605E+00
        -11   -1    0    0    0    0  0.00000000000E+00  0.00000000000E+00  0.45593999997E+02  0.45594000000E+02  0.51100000000E-03 0. -1.
         11   -1    0    0    0    0 -0.00000000000E+00 -0.00000000000E+00 -0.45593999997E+02  0.45594000000E+02  0.51100000000E-03 0.  1.
    9900012    2    1    2    0    0  0.16142575758E+02  0.11496873446E+02  0.24979272696E+02  0.59301875815E+02  0.49999875596E+02 0.  0.
        -12    1    1    2    0    0 -0.16142575758E+02 -0.11496873446E+02 -0.24979272696E+02  0.31886124185E+02  0.00000000000E+00 0.  1.
         11    1    3    3    0    0 -0.26877736685E+01 -0.76589789299E+01  0.18890522719E+02  0.20560543145E+02  0.51100000000E-03 0. -1.
        -11    1    3    3    0    0  0.40697011472E+01  0.22688371345E+02  0.44445903989E+01  0.23475072860E+02  0.51100000000E-03 0.  1.
         12    1    3    3    0    0  0.14760648279E+02 -0.35325189688E+01  0.16441595777E+01  0.15266259811E+02  0.00000000000E+00 0. -1.
</event>
<event>
 7    1  0.6055092E-013  0.5930195E+02  0.7816164E-02  0.1266605E+00
        -11   -1    0    0    0    0  0.00000000000E+00  0.00000000000E+00  0.45593999997E+02  0.45594000000E+02  0.51100000000E-03 0. -1.
         11   -1    0    0    0    0 -0.00000000000E+00 -0.00000000000E+00 -0.45593999997E+02  0.45594000000E+02  0.51100000000E-03 0.  1.
    9900012    2    1    2    0    0  0.25423849706E+00 -0.16047008769E+02  0.27552657608E+02  0.59301951814E+02  0.50000014200E+02 0.  0.
        -12    1    1    2    0    0 -0.25423849706E+00  0.16047008769E+02 -0.27552657608E+02  0.31886048186E+02  0.00000000000E+00 0.  1.
         11    1    3    3    0    0 -0.33477387765E+01 -0.24909876769E+02 -0.91886287190E-03  0.25133828134E+02  0.51100000000E-03 0. -1.
        -11    1    3    3    0    0 -0.16615476709E+01  0.60647556375E+01  0.32712702445E+00  0.62967462992E+01  0.51100000000E-03 0.  1.
         12    1    3    3    0    0  0.52635249445E+01  0.27981123625E+01  0.27226449446E+02  0.27871377381E+02  0.00000000000E+00 0. -1.
</event>
<event>
 7    1  0.6055092E-013  0.5930194E+02  0.7816164E-02  0.1266605E+00
        -11   -1    0    0    0    0  0.00000000000E+00  0.00000000000E+00  0.45593999997E+02  0.45594000000E+02  0.51100000000E-03 0.  1.
         11   -1    0    0    0    0 -0.00000000000E+00 -0.00000000000E+00 -0.45593999997E+02  0.45594000000E+02  0.51100000000E-03 0. -1.
    9900012    2    1    2    0    0  0.16640814534E+02  0.27165019960E+02 -0.13659334749E+01  0.59301940475E+02  0.49999993520E+02 0.  0.
        -12    1    1    2    0    0 -0.16640814534E+02 -0.27165019960E+02  0.13659334749E+01  0.31886059525E+02  0.00000000000E+00 0.  1.
         11    1    3    3    0    0  0.19289372784E+01 -0.51355519695E+01 -0.12628472642E+02  0.13768551652E+02  0.51100000000E-03 0. -1.
        -11    1    3    3    0    0 -0.57457686313E+01  0.17178006211E+02  0.82888651914E+01  0.19919915687E+02  0.51100000000E-03 0.  1.
         12    1    3    3    0    0  0.20457645887E+02  0.15122565718E+02  0.29736739762E+01  0.25613473135E+02  0.00000000000E+00 0. -1.
</event>
<event>
 7    1  0.6055092E-013  0.5930194E+02  0.7816164E-02  0.1266605E+00
        -11   -1    0    0    0    0  0.00000000000E+00  0.00000000000E+00  0.45593999997E+02  0.45594000000E+02  0.51100000000E-03 0.  1.
         11   -1    0    0    0    0 -0.00000000000E+00 -0.00000000000E+00 -0.45593999997E+02  0.45594000000E+02  0.51100000000E-03 0. -1.
    9900012    2    1    2    0    0  0.28761538585E+02 -0.12495749435E+02  0.57750117650E+01  0.59301943226E+02  0.49999998538E+02 0.  0.
        -12    1    1    2    0    0 -0.28761538585E+02  0.12495749435E+02 -0.57750117650E+01  0.31886056774E+02  0.00000000000E+00 0.  1.
         11    1    3    3    0    0  0.39828777778E+02  0.13306963607E+01  0.52596478735E+01  0.40196594235E+02  0.51100000000E-03 0. -1.
        -11    1    3    3    0    0 -0.49586001084E-01 -0.47833242299E+01 -0.53303576541E+00  0.48131878052E+01  0.51100000000E-03 0.  1.
         12    1    3    3    0    0 -0.11017653192E+02 -0.90431215655E+01  0.10483996568E+01  0.14292161186E+02  0.00000000000E+00 0. -1.
</event>
<event>
 7    1  0.6055092E-013  0.5930194E+02  0.7816164E-02  0.1266605E+00
        -11   -1    0    0    0    0  0.00000000000E+00  0.00000000000E+00  0.45593999997E+02  0.45594000000E+02  0.51100000000E-03 0.  1.
         11   -1    0    0    0    0 -0.00000000000E+00 -0.00000000000E+00 -0.45593999997E+02  0.45594000000E+02  0.51100000000E-03 0. -1.
    9900012    2    1    2    0    0  0.16506935438E+02  0.79735688919E+01 -0.26089539416E+02  0.59301940579E+02  0.49999993711E+02 0.  0.
        -12    1    1    2    0    0 -0.16506935438E+02 -0.79735688919E+01  0.26089539416E+02  0.31886059421E+02  0.00000000000E+00 0.  1.
         11    1    3    3    0    0 -0.63747567425E+01  0.86627455558E+01 -0.77962906901E+01  0.13283931379E+02  0.51100000000E-03 0. -1.
        -11    1    3    3    0    0  0.20749721725E+02 -0.89792522648E+01 -0.26031268093E+02  0.34479049316E+02  0.51100000000E-03 0.  1.
        -12    1    3    3    0    0  0.21319704561E+01  0.82900756010E+01  0.77380193677E+01  0.11538959885E+02  0.00000000000E+00 0.  1.
</event>
<event>
 7    1  0.6055092E-013  0.5930196E+02  0.7816164E-02  0.1266605E+00
        -11   -1    0    0    0    0  0.00000000000E+00  0.00000000000E+00  0.45593999997E+02  0.45594000000E+02  0.51100000000E-03 0.  1.
         11   -1    0    0    0    0 -0.00000000000E+00 -0.00000000000E+00 -0.45593999997E+02  0.45594000000E+02  0.51100000000E-03 0. -1.
    9900012    2    1    2    0    0 -0.15828168859E+02 -0.96828105613E+01 -0.25931292335E+02  0.59301958038E+02  0.50000025552E+02 0.  0.
        -12    1    1    2    0    0  0.15828168859E+02  0.96828105613E+01  0.25931292335E+02  0.31886041962E+02  0.00000000000E+00 0.  1.
         11    1    3    3    0    0  0.69007796221E+01  0.13941554836E+01 -0.56461836464E+00  0.70628056085E+01  0.51100000000E-03 0. -1.
        -11    1    3    3    0    0 -0.33097453604E+02 -0.45722393619E+01 -0.19156262620E+02  0.38513753461E+02  0.51100000000E-03 0.  1.
        -12    1    3    3    0    0  0.10368505123E+02 -0.65047266830E+01 -0.62104113507E+01  0.13725398969E+02  0.00000000000E+00 0.  1.
</event>
<event>
 7    1  0.6055092E-013  0.5930195E+02  0.7816164E-02  0.1266605E+00
        -11   -1    0    0    0    0  0.00000000000E+00  0.00000000000E+00  0.45593999997E+02  0.45594000000E+02  0.51100000000E-03 0. -1.
         11   -1    0    0    0    0 -0.00000000000E+00 -0.00000000000E+00 -0.45593999997E+02  0.45594000000E+02  0.51100000000E-03 0.  1.
    9900012    2    1    2    0    0 -0.10342796331E+02 -0.30046979855E+02 -0.26317229107E+01  0.59301946625E+02  0.50000004736E+02 0.  0.
        -12    1    1    2    0    0  0.10342796331E+02  0.30046979855E+02  0.26317229107E+01  0.31886053375E+02  0.00000000000E+00 0.  1.
         11    1    3    3    0    0  0.10645158102E+02 -0.48357327525E+01  0.71548181164E+01  0.13707484263E+02  0.51100000000E-03 0. -1.
        -11    1    3    3    0    0 -0.27170568252E+02 -0.21552257677E+02 -0.16210146230E+01  0.34718399715E+02  0.51100000000E-03 0.  1.
        -12    1    3    3    0    0  0.61826138186E+01 -0.36589894261E+01 -0.81655264040E+01  0.10876062647E+02  0.00000000000E+00 0.  1.
</event>
<event>
 7    1  0.6055092E-013  0.5930202E+02  0.7816164E-02  0.1266604E+00
        -11   -1    0    0    0    0  0.00000000000E+00  0.00000000000E+00  0.45593999997E+02  0.45594000000E+02  0.51100000000E-03 0.  1.
         11   -1    0    0    0    0 -0.00000000000E+00 -0.00000000000E+00 -0.45593999997E+02  0.45594000000E+02  0.51100000000E-03 0. -1.
    9900012    2    1    2    0    0  0.13566616380E+02 -0.26977926962E+02 -0.10239814225E+02  0.59302024737E+02  0.50000147193E+02 0.  0.
        -12    1    1    2    0    0 -0.13566616380E+02  0.26977926962E+02  0.10239814225E+02  0.31885975263E+02  0.00000000000E+00 0.  1.
         11    1    3    3    0    0  0.22339577127E+02 -0.31672245446E+01 -0.21869983333E+01  0.22668722494E+02  0.51100000000E-03 0. -1.
        -11    1    3    3    0    0 -0.44892294912E+01 -0.86215121948E+00  0.73566400024E+01  0.86612146109E+01  0.51100000000E-03 0.  1.
         12    1    3    3    0    0 -0.42837312558E+01 -0.22948551197E+02 -0.15409455894E+02  0.27972087632E+02  0.00000000000E+00 0. -1.
</event>
<event>
 7    1  0.6055092E-013  0.5930195E+02  0.7816164E-02  0.1266605E+00
        -11   -1    0    0    0    0  0.00000000000E+00  0.00000000000E+00  0.45593999997E+02  0.45594000000E+02  0.51100000000E-03 0.  1.
         11   -1    0    0    0    0 -0.00000000000E+00 -0.00000000000E+00 -0.45593999997E+02  0.45594000000E+02  0.51100000000E-03 0. -1.
    9900012    2    1    2    0    0 -0.20735601655E+02  0.20296342152E+02  0.13221698589E+02  0.59301952984E+02  0.50000016333E+02 0.  0.
        -12    1    1    2    0    0  0.20735601655E+02 -0.20296342152E+02 -0.13221698589E+02  0.31886047016E+02  0.00000000000E+00 0.  1.
         11    1    3    3    0    0  0.36712012011E+01 -0.10703302637E+01 -0.56465140470E+01  0.68195634960E+01  0.51100000000E-03 0. -1.
        -11    1    3    3    0    0 -0.10065714362E+02  0.17964518594E+02  0.28288703109E+02  0.34989902227E+02  0.51100000000E-03 0.  1.
         12    1    3    3    0    0 -0.14341088494E+02  0.34021538209E+01 -0.94204904733E+01  0.17492487261E+02  0.00000000000E+00 0. -1.
</event>
<event>
 7    1  0.6055092E-013  0.5930194E+02  0.7816164E-02  0.1266605E+00
        -11   -1    0    0    0    0  0.00000000000E+00  0.00000000000E+00  0.45593999997E+02  0.45594000000E+02  0.51100000000E-03 0.  1.
         11   -1    0    0    0    0 -0.00000000000E+00 -0.00000000000E+00 -0.45593999997E+02  0.45594000000E+02  0.51100000000E-03 0. -1.
    9900012    2    1    2    0    0  0.28460724390E+01  0.66507427895E+00 -0.31751822933E+02  0.59301941735E+02  0.49999995818E+02 0.  0.
        -12    1    1    2    0    0 -0.28460724390E+01 -0.66507427895E+00  0.31751822933E+02  0.31886058265E+02  0.00000000000E+00 0.  1.
         11    1    3    3    0    0 -0.21415229960E+02 -0.18604840863E+00 -0.17030704302E+02  0.27362229031E+02  0.51100000000E-03 0. -1.
        -11    1    3    3    0    0  0.12686474144E+02 -0.65557593213E+01 -0.99017622406E+01  0.17377269700E+02  0.51100000000E-03 0.  1.
         12    1    3    3    0    0  0.11574828255E+02  0.74068820089E+01 -0.48193563907E+01  0.14562443004E+02  0.00000000000E+00 0. -1.
</event>
<event>
 7    1  0.6055092E-013  0.5930194E+02  0.7816164E-02  0.1266605E+00
        -11   -1    0    0    0    0  0.00000000000E+00  0.00000000000E+00  0.45593999997E+02  0.45594000000E+02  0.51100000000E-03 0.  1.
         11   -1    0    0    0    0 -0.00000000000E+00 -0.00000000000E+00 -0.45593999997E+02  0.45594000000E+02  0.51100000000E-03 0. -1.
    9900012    2    1    2    0    0 -0.69711233283E+01 -0.26607686076E+02  0.16129320802E+02  0.59301944924E+02  0.50000001634E+02 0.  0.
        -12    1    1    2    0    0  0.69711233283E+01  0.26607686076E+02 -0.16129320802E+02  0.31886055076E+02  0.00000000000E+00 0.  1.
         11    1    3    3    0    0  0.20019592111E+02 -0.87380863752E+01  0.86248059789E+01  0.23484580052E+02  0.51100000000E-03 0. -1.
        -11    1    3    3    0    0 -0.17309411601E+02 -0.15282136228E+02 -0.33731289228E+00  0.23092708761E+02  0.51100000000E-03 0.  1.
         12    1    3    3    0    0 -0.96813038375E+01 -0.25874634729E+01  0.78418277154E+01  0.12724656111E+02  0.00000000000E+00 0. -1.
</event>
<event>
 7    1  0.6055092E-013  0.5930194E+02  0.7816164E-02  0.1266605E+00
        -11   -1    0    0    0    0  0.00000000000E+00  0.00000000000E+00  0.45593999997E+02  0.45594000000E+02  0.51100000000E-03 0.  1.
         11   -1    0    0    0    0 -0.00000000000E+00 -0.00000000000E+00 -0.45593999997E+02  0.45594000000E+02  0.51100000000E-03 0. -1.
    9900012    2    1    2    0    0 -0.28607099430E+02  0.13407856677E+02 -0.43108927206E+01  0.59301944200E+02  0.50000000313E+02 0.  0.
        -12    1    1    2    0    0  0.28607099430E+02 -0.13407856677E+02  0.43108927206E+01  0.31886055800E+02  0.00000000000E+00 0.  1.
         11    1    3    3    0    0 -0.31295807185E+02  0.20958073114E+01  0.12811466338E+02  0.33881464337E+02  0.51100000000E-03 0. -1.
        -11    1    3    3    0    0  0.64631118248E+01  0.11099305141E+02 -0.70270346869E+01  0.14640546637E+02  0.51100000000E-03 0.  1.
         12    1    3    3    0    0 -0.37744040701E+01  0.21274422491E+00 -0.10095324372E+02  0.10779933226E+02  0.00000000000E+00 0. -1.
</event>
<event>
 7    1  0.6055092E-013  0.5930196E+02  0.7816164E-02  0.1266605E+00
        -11   -1    0    0    0    0  0.00000000000E+00  0.00000000000E+00  0.45593999997E+02  0.45594000000E+02  0.51100000000E-03 0. -1.
         11   -1    0    0    0    0 -0.00000000000E+00 -0.00000000000E+00 -0.45593999997E+02  0.45594000000E+02  0.51100000000E-03 0.  1.
    9900012    2    1    2    0    0  0.14928866687E+02  0.90301520043E+01  0.26689044481E+02  0.59301956014E+02  0.50000021859E+02 0.  0.
        -12    1    1    2    0    0 -0.14928866687E+02 -0.90301520043E+01 -0.26689044481E+02  0.31886043986E+02  0.00000000000E+00 0.  1.
         11    1    3    3    0    0 -0.84356777636E+01 -0.51977413751E+01  0.13479996693E+02  0.16729838189E+02  0.51100000000E-03 0. -1.
        -11    1    3    3    0    0  0.25823909881E+02  0.19668613137E+02  0.15753421425E+02  0.36081836860E+02  0.51100000000E-03 0.  1.
         12    1    3    3    0    0 -0.24593654310E+01 -0.54407197579E+01 -0.25443736360E+01  0.64902809652E+01  0.00000000000E+00 0. -1.
</event>
<event>
 7    1  0.6055092E-013  0.5930195E+02  0.7816164E-02  0.1266605E+00
        -11   -1    0    0    0    0  0.00000000000E+00  0.00000000000E+00  0.45593999997E+02  0.45594000000E+02  0.51100000000E-03 0. -1.
         11   -1    0    0    0    0 -0.00000000000E+00 -0.00000000000E+00 -0.45593999997E+02  0.45594000000E+02  0.51100000000E-03 0.  1.
    9900012    2    1    2    0    0 -0.25801603191E+02 -0.19431814125E+01  0.18633889036E+02  0.59301945025E+02  0.50000001819E+02 0.  0.
        -12    1    1    2    0    0  0.25801603191E+02  0.19431814125E+01 -0.18633889036E+02  0.31886054975E+02  0.00000000000E+00 0.  1.
         11    1    3    3    0    0 -0.18940684246E+02 -0.17657871502E+02 -0.75652338630E+01  0.26977448162E+02  0.51100000000E-03 0.  1.
        -11    1    3    3    0    0 -0.62240727712E+01  0.60570669056E+01  0.16363440615E+02  0.18525369912E+02  0.51100000000E-03 0. -1.
        -12    1    3    3    0    0 -0.63684617374E+00  0.96576231837E+01  0.98356822844E+01  0.13799126951E+02  0.00000000000E+00 0.  1.
</event>
<event>
 7    1  0.6055092E-013  0.5930194E+02  0.7816164E-02  0.1266605E+00
        -11   -1    0    0    0    0  0.00000000000E+00  0.00000000000E+00  0.45593999997E+02  0.45594000000E+02  0.51100000000E-03 0.  1.
         11   -1    0    0    0    0 -0.00000000000E+00 -0.00000000000E+00 -0.45593999997E+02  0.45594000000E+02  0.51100000000E-03 0. -1.
    9900012    2    1    2    0    0  0.30400885522E+02 -0.30118788486E+01 -0.91343160729E+01  0.59301937451E+02  0.49999988006E+02 0.  0.
        -12    1    1    2    0    0 -0.30400885522E+02  0.30118788486E+01  0.91343160729E+01  0.31886062549E+02  0.00000000000E+00 0.  1.
         11    1    3    3    0    0  0.10293540957E+02  0.67300097395E+01 -0.13796794229E+02  0.18482465955E+02  0.51100000000E-03 0. -1.
        -11    1    3    3    0    0  0.65013527814E+01 -0.33434838208E+01  0.18806135188E+02  0.20177145314E+02  0.51100000000E-03 0.  1.
         12    1    3    3    0    0  0.13605991784E+02 -0.63984047672E+01 -0.14143657032E+02  0.20642326182E+02  0.00000000000E+00 0. -1.
</event>
<event>
 7    1  0.6055092E-013  0.5930196E+02  0.7816164E-02  0.1266605E+00
        -11   -1    0    0    0    0  0.00000000000E+00  0.00000000000E+00  0.45593999997E+02  0.45594000000E+02  0.51100000000E-03 0. -1.
         11   -1    0    0    0    0 -0.00000000000E+00 -0.00000000000E+00 -0.45593999997E+02  0.45594000000E+02  0.51100000000E-03 0.  1.
    9900012    2    1    2    0    0  0.22577806417E+02 -0.20977020728E+02  0.81808766504E+01  0.59301960986E+02  0.50000030928E+02 0.  0.
        -12    1    1    2    0    0 -0.22577806417E+02  0.20977020728E+02 -0.81808766504E+01  0.31886039014E+02  0.00000000000E+00 0.  1.
         11    1    3    3    0    0 -0.37702888276E+01 -0.94145620281E+01  0.10548048060E+02  0.14632510863E+02  0.51100000000E-03 0. -1.
        -11    1    3    3    0    0  0.30429335155E+02 -0.11308525046E+02 -0.11678748045E+02  0.34499570038E+02  0.51100000000E-03 0.  1.
        -12    1    3    3    0    0 -0.40812399099E+01 -0.25393365412E+00  0.93115766351E+01  0.10169880085E+02  0.00000000000E+00 0.  1.
</event>
<event>
 7    1  0.6055092E-013  0.5930199E+02  0.7816164E-02  0.1266605E+00
        -11   -1    0    0    0    0  0.00000000000E+00  0.00000000000E+00  0.45593999997E+02  0.45594000000E+02  0.51100000000E-03 0. -1.
         11   -1    0    0    0    0 -0.00000000000E+00 -0.00000000000E+00 -0.45593999997E+02  0.45594000000E+02  0.51100000000E-03 0.  1.
    9900012    2    1    2    0    0  0.55454010323E+01 -0.20820655070E+02 -0.23504604247E+02  0.59301990984E+02  0.50000085636E+02 0.  0.
        -12    1    1    2    0    0 -0.55454010323E+01  0.20820655070E+02  0.23504604247E+02  0.31886009016E+02  0.00000000000E+00 0.  1.
         11    1    3    3    0    0 -0.79728881124E+01 -0.27194331249E+02 -0.13438752735E+02  0.31363970926E+02  0.51100000000E-03 0. -1.
        -11    1    3    3    0    0  0.69525626988E+01  0.14059585850E+02 -0.41451098025E+01  0.16223193826E+02  0.51100000000E-03 0.  1.
         12    1    3    3    0    0  0.65657264459E+01 -0.76859096715E+01 -0.59207417103E+01  0.11714826232E+02  0.00000000000E+00 0. -1.
</event>
<event>
 7    1  0.6055092E-013  0.5930195E+02  0.7816164E-02  0.1266605E+00
        -11   -1    0    0    0    0  0.00000000000E+00  0.00000000000E+00  0.45593999997E+02  0.45594000000E+02  0.51100000000E-03 0.  1.
         11   -1    0    0    0    0 -0.00000000000E+00 -0.00000000000E+00 -0.45593999997E+02  0.45594000000E+02  0.51100000000E-03 0. -1.
    9900012    2    1    2    0    0  0.30790043561E+02 -0.87399641871E+00  0.82419309781E+01  0.59301951664E+02  0.50000013927E+02 0.  0.
        -12    1    1    2    0    0 -0.30790043561E+02  0.87399641871E+00 -0.82419309781E+01  0.31886048336E+02  0.00000000000E+00 0.  1.
         11    1    3    3    0    0  0.25753610894E+02 -0.12946539844E+02  0.79106194490E+01  0.29890454469E+02  0.51100000000E-03 0. -1.
        -11    1    3    3    0    0  0.63540684519E+01  0.20148515896E+02 -0.85071863143E+00  0.21143807632E+02  0.51100000000E-03 0.  1.
        -12    1    3    3    0    0 -0.13176357851E+01 -0.80759724713E+01  0.11820301605E+01  0.82676895636E+01  0.00000000000E+00 0.  1.
</event>
<event>
 7    1  0.6055092E-013  0.5930198E+02  0.7816164E-02  0.1266605E+00
        -11   -1    0    0    0    0  0.00000000000E+00  0.00000000000E+00  0.45593999997E+02  0.45594000000E+02  0.51100000000E-03 0. -1.
         11   -1    0    0    0    0 -0.00000000000E+00 -0.00000000000E+00 -0.45593999997E+02  0.45594000000E+02  0.51100000000E-03 0.  1.
    9900012    2    1    2    0    0 -0.19123721583E+02 -0.14966062487E+02  0.20664423658E+02  0.59301981768E+02  0.50000068830E+02 0.  0.
        -12    1    1    2    0    0  0.19123721583E+02  0.14966062487E+02 -0.20664423658E+02  0.31886018232E+02  0.00000000000E+00 0.  1.
         11    1    3    3    0    0  0.73997463664E+01 -0.13175058673E+02 -0.63123110536E+01  0.16376314861E+02  0.51100000000E-03 0. -1.
        -11    1    3    3    0    0 -0.15775029246E+02 -0.47709236031E+01  0.33773653345E+01  0.16823194007E+02  0.51100000000E-03 0.  1.
         12    1    3    3    0    0 -0.10748438703E+02  0.29799197888E+01  0.23599369377E+02  0.26102472900E+02  0.00000000000E+00 0. -1.
</event>
<event>
 7    1  0.6055092E-013  0.5930183E+02  0.7816164E-02  0.1266605E+00
        -11   -1    0    0    0    0  0.00000000000E+00  0.00000000000E+00  0.45593999997E+02  0.45594000000E+02  0.51100000000E-03 0.  1.
         11   -1    0    0    0    0 -0.00000000000E+00 -0.00000000000E+00 -0.45593999997E+02  0.45594000000E+02  0.51100000000E-03 0. -1.
    9900012    2    1    2    0    0 -0.19678480976E+01 -0.31152988365E+02  0.65074465289E+01  0.59301827911E+02  0.49999788230E+02 0.  0.
        -12    1    1    2    0    0  0.19678480976E+01  0.31152988365E+02 -0.65074465289E+01  0.31886172089E+02  0.00000000000E+00 0.  1.
         11    1    3    3    0    0 -0.11140383985E+02 -0.88260568506E+01  0.75876104969E+01  0.16111463875E+02  0.51100000000E-03 0. -1.
        -11    1    3    3    0    0  0.14662827617E+02  0.41590618500E+01  0.37922670352E+01  0.15705973345E+02  0.51100000000E-03 0.  1.
        -12    1    3    3    0    0 -0.54902917294E+01 -0.26485993364E+02 -0.48724310032E+01  0.27484390691E+02  0.00000000000E+00 0.  1.
</event>
<event>
 7    1  0.6055092E-013  0.5930198E+02  0.7816164E-02  0.1266605E+00
        -11   -1    0    0    0    0  0.00000000000E+00  0.00000000000E+00  0.45593999997E+02  0.45594000000E+02  0.51100000000E-03 0.  1.
         11   -1    0    0    0    0 -0.00000000000E+00 -0.00000000000E+00 -0.45593999997E+02  0.45594000000E+02  0.51100000000E-03 0. -1.
    9900012    2    1    2    0    0 -0.31871418129E+02 -0.31498369566E+00  0.91191182470E+00  0.59301982823E+02  0.50000070753E+02 0.  0.
        -12    1    1    2    0    0  0.31871418129E+02  0.31498369566E+00 -0.91191182470E+00  0.31886017177E+02  0.00000000000E+00 0.  1.
         11    1    3    3    0    0 -0.16031611008E+02  0.23547520929E+02 -0.21563526896E+01  0.28568306751E+02  0.51100000000E-03 0. -1.
        -11    1    3    3    0    0 -0.41924233930E+01 -0.26610718591E+01  0.42193412903E+01  0.65161766805E+01  0.51100000000E-03 0.  1.
         12    1    3    3    0    0 -0.11647383727E+02 -0.21201432766E+02 -0.11510767760E+01  0.24217499391E+02  0.00000000000E+00 0. -1.
</event>
<event>
 7    1  0.6055092E-013  0.5930195E+02  0.7816164E-02  0.1266605E+00
        -11   -1    0    0    0    0  0.00000000000E+00  0.00000000000E+00  0.45593999997E+02  0.45594000000E+02  0.51100000000E-03 0.  1.
         11   -1    0    0    0    0 -0.00000000000E+00 -0.00000000000E+00 -0.45593999997E+02  0.45594000000E+02  0.51100000000E-03 0. -1.
    9900012    2    1    2    0    0  0.21683295515E+02  0.11982714607E+02 -0.20074090583E+02  0.59301954988E+02  0.50000019990E+02 0.  0.
        -12    1    1    2    0    0 -0.21683295515E+02 -0.11982714607E+02  0.20074090583E+02  0.31886045012E+02  0.00000000000E+00 0.  1.
         11    1    3    3    0    0 -0.28821842773E+01  0.70052052797E+01 -0.13397644192E+02  0.15390801064E+02  0.51100000000E-03 0. -1.
        -11    1    3    3    0    0  0.27083607667E+02 -0.81530375196E+01 -0.10229653559E+02  0.30077227885E+02  0.51100000000E-03 0.  1.
        -12    1    3    3    0    0 -0.25181278752E+01  0.13130546846E+02  0.35532071677E+01  0.13833926039E+02  0.00000000000E+00 0.  1.
</event>
<event>
 7    1  0.6055092E-013  0.5930193E+02  0.7816164E-02  0.1266605E+00
        -11   -1    0    0    0    0  0.00000000000E+00  0.00000000000E+00  0.45593999997E+02  0.45594000000E+02  0.51100000000E-03 0.  1.
         11   -1    0    0    0    0 -0.00000000000E+00 -0.00000000000E+00 -0.45593999997E+02  0.45594000000E+02  0.51100000000E-03 0. -1.
    9900012    2    1    2    0    0 -0.22842083044E+02  0.17079520129E+02 -0.14256592820E+02  0.59301934008E+02  0.49999981726E+02 0.  0.
        -12    1    1    2    0    0  0.22842083044E+02 -0.17079520129E+02  0.14256592820E+02  0.31886065992E+02  0.00000000000E+00 0.  1.
         11    1    3    3    0    0 -0.13337636522E+02 -0.16279689414E+02 -0.53766231486E+01  0.21721623147E+02  0.51100000000E-03 0. -1.
        -11    1    3    3    0    0 -0.41973583835E+01  0.18743550783E+02  0.86916697859E+00  0.19227427411E+02  0.51100000000E-03 0.  1.
         12    1    3    3    0    0 -0.53070881379E+01  0.14615658760E+02 -0.97491366501E+01  0.18352883450E+02  0.00000000000E+00 0. -1.
</event>
<event>
 7    1  0.6055092E-013  0.5930195E+02  0.7816164E-02  0.1266605E+00
        -11   -1    0    0    0    0  0.00000000000E+00  0.00000000000E+00  0.45593999997E+02  0.45594000000E+02  0.51100000000E-03 0.  1.
         11   -1    0    0    0    0 -0.00000000000E+00 -0.00000000000E+00 -0.45593999997E+02  0.45594000000E+02  0.51100000000E-03 0. -1.
    9900012    2    1    2    0    0  0.21667735629E+02 -0.21127714940E+02 -0.10042350117E+02  0.59301954435E+02  0.50000018981E+02 0.  0.
        -12    1    1    2    0    0 -0.21667735629E+02  0.21127714940E+02  0.10042350117E+02  0.31886045565E+02  0.00000000000E+00 0.  1.
         11    1    3    3    0    0  0.28984682413E+02 -0.11898950142E+02  0.76721142699E+01  0.32257683840E+02  0.51100000000E-03 0. -1.
        -11    1    3    3    0    0 -0.23627042283E+01  0.28358704355E+01  0.13630017191E+01  0.39347561989E+01  0.51100000000E-03 0.  1.
         12    1    3    3    0    0 -0.49542425559E+01 -0.12064635233E+02 -0.19077466106E+02  0.23109514397E+02  0.00000000000E+00 0. -1.
</event>
<event>
 7    1  0.6055092E-013  0.5930194E+02  0.7816164E-02  0.1266605E+00
        -11   -1    0    0    0    0  0.00000000000E+00  0.00000000000E+00  0.45593999997E+02  0.45594000000E+02  0.51100000000E-03 0.  1.
         11   -1    0    0    0    0 -0.00000000000E+00 -0.00000000000E+00 -0.45593999997E+02  0.45594000000E+02  0.51100000000E-03 0. -1.
    9900012    2    1    2    0    0 -0.23272075839E+02 -0.13213482101E+02 -0.17335956857E+02  0.59301936850E+02  0.49999986910E+02 0.  0.
        -12    1    1    2    0    0  0.23272075839E+02  0.13213482101E+02  0.17335956857E+02  0.31886063150E+02  0.00000000000E+00 0.  1.
         11    1    3    3    0    0  0.73855595204E+01  0.10981233822E+02 -0.79142884922E+01  0.15419790799E+02  0.51100000000E-03 0. -1.
        -11    1    3    3    0    0 -0.53500367154E+01 -0.43722201995E+01  0.51198603551E+01  0.85995449092E+01  0.51100000000E-03 0.  1.
         12    1    3    3    0    0 -0.25307598644E+02 -0.19822495724E+02 -0.14541528720E+02  0.35282601142E+02  0.00000000000E+00 0. -1.
</event>
<event>
 7    1  0.6055092E-013  0.5930191E+02  0.7816164E-02  0.1266605E+00
        -11   -1    0    0    0    0  0.00000000000E+00  0.00000000000E+00  0.45593999997E+02  0.45594000000E+02  0.51100000000E-03 0.  1.
         11   -1    0    0    0    0 -0.00000000000E+00 -0.00000000000E+00 -0.45593999997E+02  0.45594000000E+02  0.51100000000E-03 0. -1.
    9900012    2    1    2    0    0  0.21799571713E+02 -0.41336936152E+01 -0.22900081576E+02  0.59301913912E+02  0.49999945077E+02 0.  0.
        -12    1    1    2    0    0 -0.21799571713E+02  0.41336936152E+01  0.22900081576E+02  0.31886086088E+02  0.00000000000E+00 0.  1.
         11    1    3    3    0    0  0.80601959586E+01  0.65084263979E+01 -0.90013381329E+01  0.13724083267E+02  0.51100000000E-03 0. -1.
        -11    1    3    3    0    0  0.87061673871E+01 -0.23657812565E+02  0.91590872644E+00  0.25225549250E+02  0.51100000000E-03 0.  1.
        -12    1    3    3    0    0  0.50332083676E+01  0.13015692552E+02 -0.14814652170E+02  0.20352281395E+02  0.00000000000E+00 0.  1.
</event>
<event>
 7    1  0.6055092E-013  0.5930199E+02  0.7816164E-02  0.1266605E+00
        -11   -1    0    0    0    0  0.00000000000E+00  0.00000000000E+00  0.45593999997E+02  0.45594000000E+02  0.51100000000E-03 0.  1.
         11   -1    0    0    0    0 -0.00000000000E+00 -0.00000000000E+00 -0.45593999997E+02  0.45594000000E+02  0.51100000000E-03 0. -1.
    9900012    2    1    2    0    0  0.27181980104E+02 -0.14394573575E+02  0.84055931776E+01  0.59301987589E+02  0.50000079446E+02 0.  0.
        -12    1    1    2    0    0 -0.27181980104E+02  0.14394573575E+02 -0.84055931776E+01  0.31886012411E+02  0.00000000000E+00 0.  1.
         11    1    3    3    0    0 -0.70578215820E+01 -0.14692436245E+02 -0.83543255995E+01  0.18315984407E+02  0.51100000000E-03 0. -1.
        -11    1    3    3    0    0  0.78408606336E+01 -0.52787215154E+00  0.11699361318E+02  0.14093714911E+02  0.51100000000E-03 0.  1.
         12    1    3    3    0    0  0.26398941052E+02  0.82573482158E+00  0.50605574590E+01  0.26892288271E+02  0.00000000000E+00 0. -1.
</event>
<event>
 7    1  0.6055092E-013  0.5930196E+02  0.7816164E-02  0.1266605E+00
        -11   -1    0    0    0    0  0.00000000000E+00  0.00000000000E+00  0.45593999997E+02  0.45594000000E+02  0.51100000000E-03 0. -1.
         11   -1    0    0    0    0 -0.00000000000E+00 -0.00000000000E+00 -0.45593999997E+02  0.45594000000E+02  0.51100000000E-03 0.  1.
    9900012    2    1    2    0    0  0.20338338828E+02  0.17323439133E+02  0.17406038357E+02  0.59301956957E+02  0.50000023579E+02 0.  0.
        -12    1    1    2    0    0 -0.20338338828E+02 -0.17323439133E+02 -0.17406038357E+02  0.31886043043E+02  0.00000000000E+00 0.  1.
         11    1    3    3    0    0  0.12549928518E+01 -0.10639505966E+02  0.66777926028E+01  0.12624064661E+02  0.51100000000E-03 0. -1.
        -11    1    3    3    0    0  0.94667171664E+01  0.22819083924E+02  0.20447840323E+02  0.32069354517E+02  0.51100000000E-03 0.  1.
        -12    1    3    3    0    0  0.96166288095E+01  0.51438611756E+01 -0.97195945680E+01  0.14608537778E+02  0.00000000000E+00 0.  1.
</event>
<event>
 7    1  0.6055092E-013  0.5930193E+02  0.7816164E-02  0.1266605E+00
        -11   -1    0    0    0    0  0.00000000000E+00  0.00000000000E+00  0.45593999997E+02  0.45594000000E+02  0.51100000000E-03 0.  1.
         11   -1    0    0    0    0 -0.00000000000E+00 -0.00000000000E+00 -0.45593999997E+02  0.45594000000E+02  0.51100000000E-03 0. -1.
    9900012    2    1    2    0    0  0.13907247325E+01  0.15266965052E+02 -0.27959020276E+02  0.59301934830E+02  0.49999983226E+02 0.  0.
        -12    1    1    2    0    0 -0.13907247325E+01 -0.15266965052E+02  0.27959020276E+02  0.31886065170E+02  0.00000000000E+00 0.  1.
         11    1    3    3    0    0  0.48189735949E+01 -0.16077250706E+00 -0.12760944102E+02  0.13641482652E+02  0.51100000000E-03 0. -1.
        -11    1    3    3    0    0  0.24807240350E+01  0.28070919169E+02 -0.56234519422E+01  0.28735930587E+02  0.51100000000E-03 0.  1.
        -12    1    3    3    0    0 -0.59089728975E+01 -0.12643181609E+02 -0.95746242326E+01  0.16924521591E+02  0.00000000000E+00 0.  1.
</event>
<event>
 7    1  0.6055092E-013  0.5930194E+02  0.7816164E-02  0.1266605E+00
        -11   -1    0    0    0    0  0.00000000000E+00  0.00000000000E+00  0.45593999997E+02  0.45594000000E+02  0.51100000000E-03 0. -1.
         11   -1    0    0    0    0 -0.00000000000E+00 -0.00000000000E+00 -0.45593999997E+02  0.45594000000E+02  0.51100000000E-03 0.  1.
    9900012    2    1    2    0    0  0.28633978455E+01 -0.52489092913E+01  0.31320447958E+02  0.59301944172E+02  0.50000000264E+02 0.  0.
        -12    1    1    2    0    0 -0.28633978455E+01  0.52489092913E+01 -0.31320447958E+02  0.31886055828E+02  0.00000000000E+00 0.  1.
         11    1    3    3    0    0 -0.28779799717E+01 -0.25223336226E+02  0.15750642370E+02  0.29876114111E+02  0.51100000000E-03 0. -1.
        -11    1    3    3    0    0  0.10076804248E+02  0.10598939929E+02  0.86173964834E+01  0.16974658579E+02  0.51100000000E-03 0.  1.
         12    1    3    3    0    0 -0.43354264305E+01  0.93754870053E+01  0.69524091048E+01  0.12451171482E+02  0.00000000000E+00 0. -1.
</event>
<event>
 7    1  0.6055092E-013  0.5930156E+02  0.7816164E-02  0.1266606E+00
        -11   -1    0    0    0    0  0.00000000000E+00  0.00000000000E+00  0.45593999997E+02  0.45594000000E+02  0.51100000000E-03 0. -1.
         11   -1    0    0    0    0 -0.00000000000E+00 -0.00000000000E+00 -0.45593999997E+02  0.45594000000E+02  0.51100000000E-03 0.  1.
    9900012    2    1    2    0    0 -0.25385125648E+02 -0.58252969756E+01  0.18395821946E+02  0.59301561596E+02  0.49999302532E+02 0.  0.
        -12    1    1    2    0    0  0.25385125648E+02  0.58252969756E+01 -0.18395821946E+02  0.31886438404E+02  0.00000000000E+00 0.  1.
         11    1    3    3    0    0 -0.97356537740E+01  0.15099763168E+01  0.22129271133E+02  0.24223286813E+02  0.51100000000E-03 0. -1.
        -11    1    3    3    0    0  0.15986836063E+01  0.63175032475E+01 -0.10240709464E+02  0.12138318135E+02  0.51100000000E-03 0.  1.
        -12    1    3    3    0    0 -0.17248155481E+02 -0.13652776540E+02  0.65072602763E+01  0.22939956649E+02  0.00000000000E+00 0.  1.
</event>
<event>
 7    1  0.6055092E-013  0.5930199E+02  0.7816164E-02  0.1266605E+00
        -11   -1    0    0    0    0  0.00000000000E+00  0.00000000000E+00  0.45593999997E+02  0.45594000000E+02  0.51100000000E-03 0.  1.
         11   -1    0    0    0    0 -0.00000000000E+00 -0.00000000000E+00 -0.45593999997E+02  0.45594000000E+02  0.51100000000E-03 0. -1.
    9900012    2    1    2    0    0  0.15916711606E+02  0.44195976181E+01 -0.27273492543E+02  0.59301985089E+02  0.50000074885E+02 0.  0.
        -12    1    1    2    0    0 -0.15916711606E+02 -0.44195976181E+01  0.27273492543E+02  0.31886014911E+02  0.00000000000E+00 0.  1.
         11    1    3    3    0    0  0.77261322762E+01  0.17592146266E+02  0.98296124979E+00  0.19239099336E+02  0.51100000000E-03 0. -1.
        -11    1    3    3    0    0 -0.43811635960E+01 -0.12784972136E+02 -0.22462627984E+02  0.26214876753E+02  0.51100000000E-03 0.  1.
         12    1    3    3    0    0  0.12571742925E+02 -0.38757651205E+00 -0.57938258083E+01  0.13848008999E+02  0.00000000000E+00 0. -1.
</event>
<event>
 7    1  0.6055092E-013  0.5930194E+02  0.7816164E-02  0.1266605E+00
        -11   -1    0    0    0    0  0.00000000000E+00  0.00000000000E+00  0.45593999997E+02  0.45594000000E+02  0.51100000000E-03 0.  1.
         11   -1    0    0    0    0 -0.00000000000E+00 -0.00000000000E+00 -0.45593999997E+02  0.45594000000E+02  0.51100000000E-03 0. -1.
    9900012    2    1    2    0    0  0.29937285456E+02  0.10957095547E+02 -0.64966000323E+00  0.59301936251E+02  0.49999985817E+02 0.  0.
        -12    1    1    2    0    0 -0.29937285456E+02 -0.10957095547E+02  0.64966000323E+00  0.31886063749E+02  0.00000000000E+00 0.  1.
         11    1    3    3    0    0  0.30517064448E+02  0.56273793097E+01  0.61780528112E+01  0.31640590342E+02  0.51100000000E-03 0. -1.
        -11    1    3    3    0    0 -0.32086091219E+01  0.84675552895E+01  0.81203940636E+01  0.12162872403E+02  0.51100000000E-03 0.  1.
        -12    1    3    3    0    0  0.26288301296E+01 -0.31378390522E+01 -0.14948106878E+02  0.15498473506E+02  0.00000000000E+00 0.  1.
</event>
<event>
 7    1  0.6055092E-013  0.5930183E+02  0.7816164E-02  0.1266605E+00
        -11   -1    0    0    0    0  0.00000000000E+00  0.00000000000E+00  0.45593999997E+02  0.45594000000E+02  0.51100000000E-03 0. -1.
         11   -1    0    0    0    0 -0.00000000000E+00 -0.00000000000E+00 -0.45593999997E+02  0.45594000000E+02  0.51100000000E-03 0.  1.
    9900012    2    1    2    0    0 -0.29503355735E+02  0.91816214418E+01  0.78725806173E+01  0.59301832191E+02  0.49999796037E+02 0.  0.
        -12    1    1    2    0    0  0.29503355735E+02 -0.91816214418E+01 -0.78725806173E+01  0.31886167809E+02  0.00000000000E+00 0.  1.
         11    1    3    3    0    0 -0.62182579776E+01  0.11113995533E+02  0.43971482855E+01  0.13473030182E+02  0.51100000000E-03 0. -1.
        -11    1    3    3    0    0 -0.23250883870E+02 -0.17978529599E+02 -0.90564403207E-01  0.29391143725E+02  0.51100000000E-03 0.  1.
        -12    1    3    3    0    0 -0.34213887868E-01  0.16046155508E+02  0.35659967350E+01  0.16437658285E+02  0.00000000000E+00 0.  1.
</event>
<event>
 7    1  0.6055092E-013  0.5930196E+02  0.7816164E-02  0.1266605E+00
        -11   -1    0    0    0    0  0.00000000000E+00  0.00000000000E+00  0.45593999997E+02  0.45594000000E+02  0.51100000000E-03 0.  1.
         11   -1    0    0    0    0 -0.00000000000E+00 -0.00000000000E+00 -0.45593999997E+02  0.45594000000E+02  0.51100000000E-03 0. -1.
    9900012    2    1    2    0    0 -0.58107846562E+01 -0.28920380595E+02 -0.12106430429E+02  0.59301964031E+02  0.50000036482E+02 0.  0.
        -12    1    1    2    0    0  0.58107846562E+01  0.28920380595E+02  0.12106430429E+02  0.31886035969E+02  0.00000000000E+00 0.  1.
         11    1    3    3    0    0 -0.11160847450E+02 -0.56970143329E+01 -0.26582052010E+02  0.29387513972E+02  0.51100000000E-03 0. -1.
        -11    1    3    3    0    0 -0.25506682435E+01 -0.12834413062E+02  0.80890787908E+01  0.15383798721E+02  0.51100000000E-03 0.  1.
         12    1    3    3    0    0  0.79007310371E+01 -0.10388953199E+02  0.63865427906E+01  0.14530651338E+02  0.00000000000E+00 0. -1.
</event>
<event>
 7    1  0.6055092E-013  0.5930191E+02  0.7816164E-02  0.1266605E+00
        -11   -1    0    0    0    0  0.00000000000E+00  0.00000000000E+00  0.45593999997E+02  0.45594000000E+02  0.51100000000E-03 0.  1.
         11   -1    0    0    0    0 -0.00000000000E+00 -0.00000000000E+00 -0.45593999997E+02  0.45594000000E+02  0.51100000000E-03 0. -1.
    9900012    2    1    2    0    0  0.14184850414E+02 -0.21982743257E+01 -0.28472443719E+02  0.59301914593E+02  0.49999946318E+02 0.  0.
        -12    1    1    2    0    0 -0.14184850414E+02  0.21982743257E+01  0.28472443719E+02  0.31886085407E+02  0.00000000000E+00 0.  1.
         11    1    3    3    0    0 -0.19009037782E+00  0.27750478437E+01  0.14712590898E+01  0.31466853127E+01  0.51100000000E-03 0. -1.
        -11    1    3    3    0    0  0.18695373390E+02 -0.21807218901E+02 -0.25016914210E+02  0.38090914655E+02  0.51100000000E-03 0.  1.
        -12    1    3    3    0    0 -0.43204325990E+01  0.16833896731E+02 -0.49267885985E+01  0.18064314626E+02  0.00000000000E+00 0.  1.
</event>
<event>
 7    1  0.6055092E-013  0.5930189E+02  0.7816164E-02  0.1266605E+00
        -11   -1    0    0    0    0  0.00000000000E+00  0.00000000000E+00  0.45593999997E+02  0.45594000000E+02  0.51100000000E-03 0. -1.
         11   -1    0    0    0    0 -0.00000000000E+00 -0.00000000000E+00 -0.45593999997E+02  0.45594000000E+02  0.51100000000E-03 0.  1.
    9900012    2    1    2    0    0 -0.41936575446E+01 -0.22971336611E+01  0.31525556195E+02  0.59301885780E+02  0.49999893771E+02 0.  0.
        -12    1    1    2    0    0  0.41936575446E+01  0.22971336611E+01 -0.31525556195E+02  0.31886114220E+02  0.00000000000E+00 0.  1.
         11    1    3    3    0    0 -0.12522051570E+02 -0.17378080460E+02  0.19062893157E+02  0.28673914134E+02  0.51100000000E-03 0. -1.
        -11    1    3    3    0    0 -0.29421204265E+01  0.10121120777E+02  0.14724756172E+02  0.18108329658E+02  0.51100000000E-03 0.  1.
         12    1    3    3    0    0  0.11270514452E+02  0.49598260220E+01 -0.22620931343E+01  0.12519641989E+02  0.00000000000E+00 0. -1.
</event>
<event>
 7    1  0.6055092E-013  0.5930192E+02  0.7816164E-02  0.1266605E+00
        -11   -1    0    0    0    0  0.00000000000E+00  0.00000000000E+00  0.45593999997E+02  0.45594000000E+02  0.51100000000E-03 0.  1.
         11   -1    0    0    0    0 -0.00000000000E+00 -0.00000000000E+00 -0.45593999997E+02  0.45594000000E+02  0.51100000000E-03 0. -1.
    9900012    2    1    2    0    0 -0.13295601097E+02 -0.20241185439E+02 -0.20742318967E+02  0.59301915376E+02  0.49999947746E+02 0.  0.
        -12    1    1    2    0    0  0.13295601097E+02  0.20241185439E+02  0.20742318967E+02  0.31886084624E+02  0.00000000000E+00 0.  1.
         11    1    3    3    0    0 -0.53820686666E+01  0.96853532782E+01  0.17524919435E+01  0.11218019412E+02  0.51100000000E-03 0.  1.
        -11    1    3    3    0    0  0.25193760780E+01 -0.22784546208E+02 -0.75615667307E+00  0.22935879641E+02  0.51100000000E-03 0. -1.
         12    1    3    3    0    0 -0.10432908508E+02 -0.71419925098E+01 -0.21738654237E+02  0.25148016323E+02  0.00000000000E+00 0. -1.
</event>
<event>
 7    1  0.6055092E-013  0.5930195E+02  0.7816164E-02  0.1266605E+00
        -11   -1    0    0    0    0  0.00000000000E+00  0.00000000000E+00  0.45593999997E+02  0.45594000000E+02  0.51100000000E-03 0.  1.
         11   -1    0    0    0    0 -0.00000000000E+00 -0.00000000000E+00 -0.45593999997E+02  0.45594000000E+02  0.51100000000E-03 0. -1.
    9900012    2    1    2    0    0  0.28999847381E+02  0.11291451443E+02 -0.69449513693E+01  0.59301947040E+02  0.50000005494E+02 0.  0.
        -12    1    1    2    0    0 -0.28999847381E+02 -0.11291451443E+02  0.69449513693E+01  0.31886052960E+02  0.00000000000E+00 0.  1.
         11    1    3    3    0    0  0.26824121638E+01  0.13856651920E+02 -0.59968995059E+00  0.14126633206E+02  0.51100000000E-03 0.  1.
        -11    1    3    3    0    0  0.22569258130E+01 -0.16230443584E+02 -0.61547211645E+01  0.17504331062E+02  0.51100000000E-03 0. -1.
        -12    1    3    3    0    0  0.24060509404E+02  0.13665243107E+02 -0.19054025423E+00  0.27670982772E+02  0.00000000000E+00 0.  1.
</event>
<event>
 7    1  0.6055092E-013  0.5930194E+02  0.7816164E-02  0.1266605E+00
        -11   -1    0    0    0    0  0.00000000000E+00  0.00000000000E+00  0.45593999997E+02  0.45594000000E+02  0.51100000000E-03 0.  1.
         11   -1    0    0    0    0 -0.00000000000E+00 -0.00000000000E+00 -0.45593999997E+02  0.45594000000E+02  0.51100000000E-03 0. -1.
    9900012    2    1    2    0    0 -0.17617001985E+02 -0.88594517132E+01 -0.25057378428E+02  0.59301939452E+02  0.49999991655E+02 0.  0.
        -12    1    1    2    0    0  0.17617001985E+02  0.88594517132E+01  0.25057378428E+02  0.31886060548E+02  0.00000000000E+00 0.  1.
         11    1    3    3    0    0 -0.59421806530E+01 -0.30690107139E+01  0.11092105441E+02  0.12952341141E+02  0.51100000000E-03 0. -1.
        -11    1    3    3    0    0  0.55437845043E+01 -0.95834859249E+00 -0.24189580557E+02  0.24835212631E+02  0.51100000000E-03 0.  1.
         12    1    3    3    0    0 -0.17218605836E+02 -0.48320924068E+01 -0.11959903311E+02  0.21514385680E+02  0.00000000000E+00 0. -1.
</event>
<event>
 7    1  0.6055092E-013  0.5930194E+02  0.7816164E-02  0.1266605E+00
        -11   -1    0    0    0    0  0.00000000000E+00  0.00000000000E+00  0.45593999997E+02  0.45594000000E+02  0.51100000000E-03 0. -1.
         11   -1    0    0    0    0 -0.00000000000E+00 -0.00000000000E+00 -0.45593999997E+02  0.45594000000E+02  0.51100000000E-03 0.  1.
    9900012    2    1    2    0    0  0.33736853333E+01 -0.85176793695E+01  0.30541582238E+02  0.59301939406E+02  0.49999991572E+02 0.  0.
        -12    1    1    2    0    0 -0.33736853333E+01  0.85176793695E+01 -0.30541582238E+02  0.31886060594E+02  0.00000000000E+00 0.  1.
         11    1    3    3    0    0 -0.27964053348E+01 -0.22361704321E+02  0.30349628649E+02  0.37801662164E+02  0.51100000000E-03 0. -1.
        -11    1    3    3    0    0  0.84184944765E+01  0.13001117275E+02 -0.45855806121E+01  0.16153255073E+02  0.51100000000E-03 0.  1.
         12    1    3    3    0    0 -0.22484038083E+01  0.84290767717E+00  0.47775342010E+01  0.53470221693E+01  0.00000000000E+00 0. -1.
</event>
<event>
 7    1  0.6055092E-013  0.5930196E+02  0.7816164E-02  0.1266605E+00
        -11   -1    0    0    0    0  0.00000000000E+00  0.00000000000E+00  0.45593999997E+02  0.45594000000E+02  0.51100000000E-03 0.  1.
         11   -1    0    0    0    0 -0.00000000000E+00 -0.00000000000E+00 -0.45593999997E+02  0.45594000000E+02  0.51100000000E-03 0. -1.
    9900012    2    1    2    0    0  0.20135280309E+02 -0.71400830578E+00 -0.24713969332E+02  0.59301959149E+02  0.50000027578E+02 0.  0.
        -12    1    1    2    0    0 -0.20135280309E+02  0.71400830578E+00  0.24713969332E+02  0.31886040851E+02  0.00000000000E+00 0.  1.
         11    1    3    3    0    0 -0.41694863799E+01  0.15373074691E+02 -0.54647960881E+01  0.16839834876E+02  0.51100000000E-03 0. -1.
        -11    1    3    3    0    0  0.26554789847E+02 -0.15208832098E+02 -0.89502077906E+01  0.31883720883E+02  0.51100000000E-03 0.  1.
         12    1    3    3    0    0 -0.22500231586E+01 -0.87825089904E+00 -0.10298965454E+02  0.10578403389E+02  0.00000000000E+00 0. -1.
</event>
<event>
 7    1  0.6055092E-013  0.5930195E+02  0.7816164E-02  0.1266605E+00
        -11   -1    0    0    0    0  0.00000000000E+00  0.00000000000E+00  0.45593999997E+02  0.45594000000E+02  0.51100000000E-03 0.  1.
         11   -1    0    0    0    0 -0.00000000000E+00 -0.00000000000E+00 -0.45593999997E+02  0.45594000000E+02  0.51100000000E-03 0. -1.
    9900012    2    1    2    0    0 -0.97852788080E+01  0.20404439004E+02 -0.22463915516E+02  0.59301947991E+02  0.50000007228E+02 0.  0.
        -12    1    1    2    0    0  0.97852788080E+01 -0.20404439004E+02  0.22463915516E+02  0.31886052009E+02  0.00000000000E+00 0.  1.
         11    1    3    3    0    0  0.60153073825E+01  0.61569244099E+01 -0.27433717214E+02  0.28752399579E+02  0.51100000000E-03 0. -1.
        -11    1    3    3    0    0 -0.16338687589E+02  0.17740564890E+02  0.84828151112E+01  0.25566354985E+02  0.51100000000E-03 0.  1.
        -12    1    3    3    0    0  0.53810139831E+00 -0.34930502967E+01 -0.35130134134E+01  0.49831934272E+01  0.00000000000E+00 0.  1.
</event>
<event>
 7    1  0.6055092E-013  0.5930194E+02  0.7816164E-02  0.1266605E+00
        -11   -1    0    0    0    0  0.00000000000E+00  0.00000000000E+00  0.45593999997E+02  0.45594000000E+02  0.51100000000E-03 0.  1.
         11   -1    0    0    0    0 -0.00000000000E+00 -0.00000000000E+00 -0.45593999997E+02  0.45594000000E+02  0.51100000000E-03 0. -1.
    9900012    2    1    2    0    0  0.26839023516E+02 -0.15773738758E+02 -0.68975840639E+01  0.59301942175E+02  0.49999996622E+02 0.  0.
        -12    1    1    2    0    0 -0.26839023516E+02  0.15773738758E+02  0.68975840639E+01  0.31886057825E+02  0.00000000000E+00 0.  1.
         11    1    3    3    0    0  0.91686848111E+01  0.66879750970E+01 -0.16929293079E+02  0.20381235401E+02  0.51100000000E-03 0. -1.
        -11    1    3    3    0    0 -0.22056465248E+01 -0.68825124403E+01  0.11545844942E+02  0.13621321147E+02  0.51100000000E-03 0.  1.
         12    1    3    3    0    0  0.19875985229E+02 -0.15579201414E+02 -0.15141359278E+01  0.25299385628E+02  0.00000000000E+00 0. -1.
</event>
<event>
 7    1  0.6055092E-013  0.5930195E+02  0.7816164E-02  0.1266605E+00
        -11   -1    0    0    0    0  0.00000000000E+00  0.00000000000E+00  0.45593999997E+02  0.45594000000E+02  0.51100000000E-03 0.  1.
         11   -1    0    0    0    0 -0.00000000000E+00 -0.00000000000E+00 -0.45593999997E+02  0.45594000000E+02  0.51100000000E-03 0. -1.
    9900012    2    1    2    0    0  0.14940382741E+02 -0.41352943660E+01 -0.27864036641E+02  0.59301949227E+02  0.50000009483E+02 0.  0.
        -12    1    1    2    0    0 -0.14940382741E+02  0.41352943660E+01  0.27864036641E+02  0.31886050773E+02  0.00000000000E+00 0.  1.
         11    1    3    3    0    0 -0.59421287392E+01  0.15213953877E+02 -0.12584958686E+02  0.20619274282E+02  0.51100000000E-03 0.  1.
        -11    1    3    3    0    0  0.20859970004E+02 -0.74116294921E+01 -0.15001802566E+02  0.26741815211E+02  0.51100000000E-03 0. -1.
        -12    1    3    3    0    0  0.22541476780E-01 -0.11937618751E+02 -0.27727538997E+00  0.11940859735E+02  0.00000000000E+00 0.  1.
</event>
<event>
 7    1  0.6055092E-013  0.5930195E+02  0.7816164E-02  0.1266605E+00
        -11   -1    0    0    0    0  0.00000000000E+00  0.00000000000E+00  0.45593999997E+02  0.45594000000E+02  0.51100000000E-03 0. -1.
         11   -1    0    0    0    0 -0.00000000000E+00 -0.00000000000E+00 -0.45593999997E+02  0.45594000000E+02  0.51100000000E-03 0.  1.
    9900012    2    1    2    0    0  0.21409284526E+02 -0.11377888387E+02 -0.20710058236E+02  0.59301947873E+02  0.50000007014E+02 0.  0.
        -12    1    1    2    0    0 -0.21409284526E+02  0.11377888387E+02  0.20710058236E+02  0.31886052127E+02  0.00000000000E+00 0.  1.
         11    1    3    3    0    0  0.30270414859E+02 -0.12807158646E+02 -0.15304501818E+02  0.36256711164E+02  0.51100000000E-03 0. -1.
        -11    1    3    3    0    0 -0.62083999840E+01  0.10782016218E+02 -0.13615012110E+01  0.12515981379E+02  0.51100000000E-03 0.  1.
         12    1    3    3    0    0 -0.26527303488E+01 -0.93527459592E+01 -0.40440552074E+01  0.10529255330E+02  0.00000000000E+00 0. -1.
</event>
<event>
 7    1  0.6055092E-013  0.5930187E+02  0.7816164E-02  0.1266605E+00
        -11   -1    0    0    0    0  0.00000000000E+00  0.00000000000E+00  0.45593999997E+02  0.45594000000E+02  0.51100000000E-03 0. -1.
         11   -1    0    0    0    0 -0.00000000000E+00 -0.00000000000E+00 -0.45593999997E+02  0.45594000000E+02  0.51100000000E-03 0.  1.
    9900012    2    1    2    0    0 -0.18366608040E+02 -0.23197197645E+02  0.11886250077E+02  0.59301871192E+02  0.49999867165E+02 0.  0.
        -12    1    1    2    0    0  0.18366608040E+02  0.23197197645E+02 -0.11886250077E+02  0.31886128808E+02  0.00000000000E+00 0.  1.
         11    1    3    3    0    0 -0.27042863147E+01 -0.58260270875E+01  0.63163690007E+01  0.90084556784E+01  0.51100000000E-03 0. -1.
        -11    1    3    3    0    0 -0.14317976606E+02  0.26072013004E+01 -0.15475946310E+02  0.21243984258E+02  0.51100000000E-03 0.  1.
        -12    1    3    3    0    0 -0.13443451187E+01 -0.19978371858E+02  0.21045827386E+02  0.29049431255E+02  0.00000000000E+00 0.  1.
</event>
<event>
 7    1  0.6055092E-013  0.5930193E+02  0.7816164E-02  0.1266605E+00
        -11   -1    0    0    0    0  0.00000000000E+00  0.00000000000E+00  0.45593999997E+02  0.45594000000E+02  0.51100000000E-03 0.  1.
         11   -1    0    0    0    0 -0.00000000000E+00 -0.00000000000E+00 -0.45593999997E+02  0.45594000000E+02  0.51100000000E-03 0. -1.
    9900012    2    1    2    0    0  0.31702315326E+02 -0.24583635858E+01 -0.23750876954E+01  0.59301931097E+02  0.49999976417E+02 0.  0.
        -12    1    1    2    0    0 -0.31702315326E+02  0.24583635858E+01  0.23750876954E+01  0.31886068903E+02  0.00000000000E+00 0.  1.
         11    1    3    3    0    0  0.11068883553E+02  0.69633705881E+00 -0.62557373497E+01  0.12733393831E+02  0.51100000000E-03 0. -1.
        -11    1    3    3    0    0 -0.99090222962E+01  0.52738007360E+01 -0.68102371911E+01  0.13129395566E+02  0.51100000000E-03 0.  1.
        -12    1    3    3    0    0  0.30542454069E+02 -0.84285013806E+01  0.10690886845E+02  0.33439141700E+02  0.00000000000E+00 0.  1.
</event>
<event>
 7    1  0.6055092E-013  0.5930191E+02  0.7816164E-02  0.1266605E+00
        -11   -1    0    0    0    0  0.00000000000E+00  0.00000000000E+00  0.45593999997E+02  0.45594000000E+02  0.51100000000E-03 0.  1.
         11   -1    0    0    0    0 -0.00000000000E+00 -0.00000000000E+00 -0.45593999997E+02  0.45594000000E+02  0.51100000000E-03 0. -1.
    9900012    2    1    2    0    0 -0.16099400579E+02  0.67495094319E+01 -0.26682877036E+02  0.59301913638E+02  0.49999944576E+02 0.  0.
        -12    1    1    2    0    0  0.16099400579E+02 -0.67495094319E+01  0.26682877036E+02  0.31886086362E+02  0.00000000000E+00 0.  1.
         11    1    3    3    0    0  0.14812383866E+01 -0.16669649304E+01 -0.32540072840E+02  0.32616394343E+02  0.51100000000E-03 0. -1.
        -11    1    3    3    0    0 -0.16138715903E+02  0.31699738260E+01  0.10516720354E+02  0.19521995091E+02  0.51100000000E-03 0.  1.
        -12    1    3    3    0    0 -0.14419230635E+01  0.52465005363E+01 -0.46595245497E+01  0.71635242045E+01  0.00000000000E+00 0.  1.
</event>
<event>
 7    1  0.6055092E-013  0.5930193E+02  0.7816164E-02  0.1266605E+00
        -11   -1    0    0    0    0  0.00000000000E+00  0.00000000000E+00  0.45593999997E+02  0.45594000000E+02  0.51100000000E-03 0. -1.
         11   -1    0    0    0    0 -0.00000000000E+00 -0.00000000000E+00 -0.45593999997E+02  0.45594000000E+02  0.51100000000E-03 0.  1.
    9900012    2    1    2    0    0 -0.28939100998E+02 -0.64092284589E+01  0.11754657150E+02  0.59301925599E+02  0.49999966390E+02 0.  0.
        -12    1    1    2    0    0  0.28939100998E+02  0.64092284589E+01 -0.11754657150E+02  0.31886074401E+02  0.00000000000E+00 0.  1.
         11    1    3    3    0    0 -0.32127408208E+01  0.17211570423E+02  0.10963399179E+02  0.20658073043E+02  0.51100000000E-03 0. -1.
        -11    1    3    3    0    0 -0.10689679444E+02 -0.20487663479E+02 -0.12854804651E+01  0.23144460714E+02  0.51100000000E-03 0.  1.
        -12    1    3    3    0    0 -0.15036680733E+02 -0.31331354032E+01  0.20767384359E+01  0.15499391842E+02  0.00000000000E+00 0.  1.
</event>
<event>
 7    1  0.6055092E-013  0.5930194E+02  0.7816164E-02  0.1266605E+00
        -11   -1    0    0    0    0  0.00000000000E+00  0.00000000000E+00  0.45593999997E+02  0.45594000000E+02  0.51100000000E-03 0.  1.
         11   -1    0    0    0    0 -0.00000000000E+00 -0.00000000000E+00 -0.45593999997E+02  0.45594000000E+02  0.51100000000E-03 0. -1.
    9900012    2    1    2    0    0  0.40890915022E+01  0.21362102136E+02 -0.23316527751E+02  0.59301944375E+02  0.50000000633E+02 0.  0.
        -12    1    1    2    0    0 -0.40890915022E+01 -0.21362102136E+02  0.23316527751E+02  0.31886055625E+02  0.00000000000E+00 0.  1.
         11    1    3    3    0    0  0.79233949294E+01  0.49421164981E+01 -0.13191063338E+02  0.16161957027E+02  0.51100000000E-03 0. -1.
        -11    1    3    3    0    0 -0.43843638842E+00 -0.10110803785E+02  0.61381868553E+01  0.11836296624E+02  0.51100000000E-03 0.  1.
        -12    1    3    3    0    0 -0.33958670388E+01  0.26530789422E+02 -0.16263651268E+02  0.31303690723E+02  0.00000000000E+00 0.  1.
</event>
<event>
 7    1  0.6055092E-013  0.5930193E+02  0.7816164E-02  0.1266605E+00
        -11   -1    0    0    0    0  0.00000000000E+00  0.00000000000E+00  0.45593999997E+02  0.45594000000E+02  0.51100000000E-03 0. -1.
         11   -1    0    0    0    0 -0.00000000000E+00 -0.00000000000E+00 -0.45593999997E+02  0.45594000000E+02  0.51100000000E-03 0.  1.
    9900012    2    1    2    0    0  0.14836190151E+02 -0.83626809134E+00  0.28211870574E+02  0.59301929001E+02  0.49999972594E+02 0.  0.
        -12    1    1    2    0    0 -0.14836190151E+02  0.83626809134E+00 -0.28211870574E+02  0.31886070999E+02  0.00000000000E+00 0.  1.
         11    1    3    3    0    0 -0.15371420290E+02 -0.58441437303E+00  0.52278176479E+01  0.16246605168E+02  0.51100000000E-03 0. -1.
        -11    1    3    3    0    0  0.11983500397E+02  0.28544856813E+00 -0.19728269062E+01  0.12148160722E+02  0.51100000000E-03 0.  1.
         12    1    3    3    0    0  0.18224110043E+02 -0.53730228644E+00  0.24956879832E+02  0.30907163111E+02  0.00000000000E+00 0. -1.
</event>
<event>
 7    1  0.6055092E-013  0.5930194E+02  0.7816164E-02  0.1266605E+00
        -11   -1    0    0    0    0  0.00000000000E+00  0.00000000000E+00  0.45593999997E+02  0.45594000000E+02  0.51100000000E-03 0. -1.
         11   -1    0    0    0    0 -0.00000000000E+00 -0.00000000000E+00 -0.45593999997E+02  0.45594000000E+02  0.51100000000E-03 0.  1.
    9900012    2    1    2    0    0  0.88039383280E+01  0.44885595049E+01 -0.30316069036E+02  0.59301944454E+02  0.50000000778E+02 0.  0.
        -12    1    1    2    0    0 -0.88039383280E+01 -0.44885595049E+01  0.30316069036E+02  0.31886055546E+02  0.00000000000E+00 0.  1.
         11    1    3    3    0    0 -0.12782613709E+02 -0.26394535026E+01 -0.13405755821E+02  0.18710323819E+02  0.51100000000E-03 0. -1.
        -11    1    3    3    0    0  0.20069083369E+02  0.16048145861E+02 -0.18148279765E+02  0.31459039266E+02  0.51100000000E-03 0.  1.
        -12    1    3    3    0    0  0.15174686676E+01 -0.89201328534E+01  0.12379665503E+01  0.91325813689E+01  0.00000000000E+00 0.  1.
</event>
<event>
 7    1  0.6055092E-013  0.5930195E+02  0.7816164E-02  0.1266605E+00
        -11   -1    0    0    0    0  0.00000000000E+00  0.00000000000E+00  0.45593999997E+02  0.45594000000E+02  0.51100000000E-03 0. -1.
         11   -1    0    0    0    0 -0.00000000000E+00 -0.00000000000E+00 -0.45593999997E+02  0.45594000000E+02  0.51100000000E-03 0.  1.
    9900012    2    1    2    0    0  0.42235843037E+01 -0.91865259582E+01  0.30240525384E+02  0.59301948206E+02  0.50000007620E+02 0.  0.
        -12    1    1    2    0    0 -0.42235843037E+01  0.91865259582E+01 -0.30240525384E+02  0.31886051794E+02  0.00000000000E+00 0.  1.
         11    1    3    3    0    0 -0.59460061378E+01 -0.13310237006E+02  0.43747562134E+01  0.15220246067E+02  0.51100000000E-03 0. -1.
        -11    1    3    3    0    0  0.16824904357E+02 -0.65151203368E+01  0.34162635290E+01  0.18362871682E+02  0.51100000000E-03 0.  1.
        -12    1    3    3    0    0 -0.66553139158E+01  0.10638831385E+02  0.22449505641E+02  0.25718830457E+02  0.00000000000E+00 0.  1.
</event>
<event>
 7    1  0.6055092E-013  0.5930194E+02  0.7816164E-02  0.1266605E+00
        -11   -1    0    0    0    0  0.00000000000E+00  0.00000000000E+00  0.45593999997E+02  0.45594000000E+02  0.51100000000E-03 0.  1.
         11   -1    0    0    0    0 -0.00000000000E+00 -0.00000000000E+00 -0.45593999997E+02  0.45594000000E+02  0.51100000000E-03 0. -1.
    9900012    2    1    2    0    0  0.25264956014E+02  0.64077589954E+01 -0.18366903604E+02  0.59301944651E+02  0.50000001137E+02 0.  0.
        -12    1    1    2    0    0 -0.25264956014E+02 -0.64077589954E+01  0.18366903604E+02  0.31886055349E+02  0.00000000000E+00 0.  1.
         11    1    3    3    0    0  0.35940002006E+02  0.13186915997E+02 -0.10297494537E+02  0.39643623595E+02  0.51100000000E-03 0.  1.
        -11    1    3    3    0    0 -0.79403404887E+01 -0.24859493895E+01 -0.10994150023E+02  0.13787686043E+02  0.51100000000E-03 0. -1.
        -12    1    3    3    0    0 -0.27347055033E+01 -0.42932076126E+01  0.29247409566E+01  0.58706350132E+01  0.00000000000E+00 0.  1.
</event>
<event>
 7    1  0.6055092E-013  0.5930204E+02  0.7816164E-02  0.1266604E+00
        -11   -1    0    0    0    0  0.00000000000E+00  0.00000000000E+00  0.45593999997E+02  0.45594000000E+02  0.51100000000E-03 0.  1.
         11   -1    0    0    0    0 -0.00000000000E+00 -0.00000000000E+00 -0.45593999997E+02  0.45594000000E+02  0.51100000000E-03 0. -1.
    9900012    2    1    2    0    0  0.26817036122E+02 -0.88344965998E+01 -0.14815965498E+02  0.59302037725E+02  0.50000170881E+02 0.  0.
        -12    1    1    2    0    0 -0.26817036122E+02  0.88344965998E+01  0.14815965498E+02  0.31885962275E+02  0.00000000000E+00 0.  1.
         11    1    3    3    0    0  0.32626923735E+02 -0.54101302888E+01  0.62824647329E+01  0.33663853397E+02  0.51100000000E-03 0. -1.
        -11    1    3    3    0    0 -0.67512668752E+01 -0.73284780636E+01 -0.17969202588E+02  0.20546981215E+02  0.51100000000E-03 0.  1.
        -12    1    3    3    0    0  0.94137926280E+00  0.39041117525E+01 -0.31292276430E+01  0.50912031127E+01  0.00000000000E+00 0.  1.
</event>
<event>
 7    1  0.6055092E-013  0.5930196E+02  0.7816164E-02  0.1266605E+00
        -11   -1    0    0    0    0  0.00000000000E+00  0.00000000000E+00  0.45593999997E+02  0.45594000000E+02  0.51100000000E-03 0.  1.
         11   -1    0    0    0    0 -0.00000000000E+00 -0.00000000000E+00 -0.45593999997E+02  0.45594000000E+02  0.51100000000E-03 0. -1.
    9900012    2    1    2    0    0  0.11480579835E+02 -0.13936276305E+02 -0.26281096488E+02  0.59301960057E+02  0.50000029234E+02 0.  0.
        -12    1    1    2    0    0 -0.11480579835E+02  0.13936276305E+02  0.26281096488E+02  0.31886039943E+02  0.00000000000E+00 0.  1.
         11    1    3    3    0    0  0.14676793662E+02  0.94983005691E+01 -0.29703586609E+02  0.34466346537E+02  0.51100000000E-03 0. -1.
        -11    1    3    3    0    0 -0.19581645960E+01 -0.18299569872E+02 -0.24401742918E+00  0.18405657034E+02  0.51100000000E-03 0.  1.
        -12    1    3    3    0    0 -0.12380492304E+01 -0.51350070019E+01  0.36665075497E+01  0.64299564865E+01  0.00000000000E+00 0.  1.
</event>
<event>
 7    1  0.6055092E-013  0.5930195E+02  0.7816164E-02  0.1266605E+00
        -11   -1    0    0    0    0  0.00000000000E+00  0.00000000000E+00  0.45593999997E+02  0.45594000000E+02  0.51100000000E-03 0. -1.
         11   -1    0    0    0    0 -0.00000000000E+00 -0.00000000000E+00 -0.45593999997E+02  0.45594000000E+02  0.51100000000E-03 0.  1.
    9900012    2    1    2    0    0 -0.19206141727E+02 -0.18613403668E+02  0.17360458910E+02  0.59301949606E+02  0.50000010173E+02 0.  0.
        -12    1    1    2    0    0  0.19206141727E+02  0.18613403668E+02 -0.17360458910E+02  0.31886050394E+02  0.00000000000E+00 0.  1.
         11    1    3    3    0    0  0.65804532072E+01 -0.61406534105E+01  0.50855588801E+01  0.10337934905E+02  0.51100000000E-03 0. -1.
        -11    1    3    3    0    0 -0.20997269168E+02 -0.23462090833E+02 -0.44034441151E+00  0.31488869815E+02  0.51100000000E-03 0.  1.
        -12    1    3    3    0    0 -0.47893257670E+01  0.10989340575E+02  0.12715244442E+02  0.17475144886E+02  0.00000000000E+00 0.  1.
</event>
<event>
 7    1  0.6055092E-013  0.5930230E+02  0.7816164E-02  0.1266604E+00
        -11   -1    0    0    0    0  0.00000000000E+00  0.00000000000E+00  0.45593999997E+02  0.45594000000E+02  0.51100000000E-03 0.  1.
         11   -1    0    0    0    0 -0.00000000000E+00 -0.00000000000E+00 -0.45593999997E+02  0.45594000000E+02  0.51100000000E-03 0. -1.
    9900012    2    1    2    0    0  0.35864201702E+01  0.58576190414E+01 -0.31137179492E+02  0.59302296978E+02  0.50000643693E+02 0.  0.
        -12    1    1    2    0    0 -0.35864201702E+01 -0.58576190414E+01  0.31137179492E+02  0.31885703022E+02  0.00000000000E+00 0.  1.
         11    1    3    3    0    0 -0.69763289814E+01 -0.27483054504E+01 -0.13099882888E+02  0.15094014736E+02  0.51100000000E-03 0. -1.
        -11    1    3    3    0    0 -0.67472613437E+01  0.17590643054E+02 -0.19768882615E+01  0.18943715215E+02  0.51100000000E-03 0.  1.
        -12    1    3    3    0    0  0.17310010495E+02 -0.89847185618E+01 -0.16060408342E+02  0.25264567028E+02  0.00000000000E+00 0.  1.
</event>
<event>
 7    1  0.6055092E-013  0.5930201E+02  0.7816164E-02  0.1266605E+00
        -11   -1    0    0    0    0  0.00000000000E+00  0.00000000000E+00  0.45593999997E+02  0.45594000000E+02  0.51100000000E-03 0. -1.
         11   -1    0    0    0    0 -0.00000000000E+00 -0.00000000000E+00 -0.45593999997E+02  0.45594000000E+02  0.51100000000E-03 0.  1.
    9900012    2    1    2    0    0  0.14802010769E+02 -0.18394495257E+02  0.21430336349E+02  0.59302010999E+02  0.50000122139E+02 0.  0.
        -12    1    1    2    0    0 -0.14802010769E+02  0.18394495257E+02 -0.21430336349E+02  0.31885989001E+02  0.00000000000E+00 0.  1.
         11    1    3    3    0    0  0.33886156520E+01  0.13036223771E+02 -0.28794691801E+01  0.13773786308E+02  0.51100000000E-03 0. -1.
        -11    1    3    3    0    0  0.80187494869E+01 -0.88329209477E+01 -0.31514931139E+00  0.11933991585E+02  0.51100000000E-03 0.  1.
         12    1    3    3    0    0  0.33946456301E+01 -0.22597798080E+02  0.24624954841E+02  0.33594233105E+02  0.00000000000E+00 0. -1.
</event>
<event>
 7    1  0.6055092E-013  0.5930193E+02  0.7816164E-02  0.1266605E+00
        -11   -1    0    0    0    0  0.00000000000E+00  0.00000000000E+00  0.45593999997E+02  0.45594000000E+02  0.51100000000E-03 0. -1.
         11   -1    0    0    0    0 -0.00000000000E+00 -0.00000000000E+00 -0.45593999997E+02  0.45594000000E+02  0.51100000000E-03 0.  1.
    9900012    2    1    2    0    0  0.22031505800E+01 -0.31801633236E+02 -0.72365594555E+00  0.59301930520E+02  0.49999975366E+02 0.  0.
        -12    1    1    2    0    0 -0.22031505800E+01  0.31801633236E+02  0.72365594555E+00  0.31886069480E+02  0.00000000000E+00 0.  1.
         11    1    3    3    0    0 -0.15594128852E+02 -0.17524974414E+02  0.16536339537E+02  0.28701082007E+02  0.51100000000E-03 0. -1.
        -11    1    3    3    0    0  0.12803414377E+02 -0.14962677335E+02 -0.16079743474E+02  0.25423754310E+02  0.51100000000E-03 0.  1.
         12    1    3    3    0    0  0.49938650550E+01  0.68601851375E+00 -0.11802520081E+01  0.51770942035E+01  0.00000000000E+00 0. -1.
</event>
<event>
 7    1  0.6055092E-013  0.5930193E+02  0.7816164E-02  0.1266605E+00
        -11   -1    0    0    0    0  0.00000000000E+00  0.00000000000E+00  0.45593999997E+02  0.45594000000E+02  0.51100000000E-03 0.  1.
         11   -1    0    0    0    0 -0.00000000000E+00 -0.00000000000E+00 -0.45593999997E+02  0.45594000000E+02  0.51100000000E-03 0. -1.
    9900012    2    1    2    0    0  0.28580063530E+02  0.10961523849E+02  0.89300762250E+01  0.59301932543E+02  0.49999979055E+02 0.  0.
        -12    1    1    2    0    0 -0.28580063530E+02 -0.10961523849E+02 -0.89300762250E+01  0.31886067457E+02  0.00000000000E+00 0.  1.
         11    1    3    3    0    0  0.17542362085E+02  0.19729283454E+02 -0.12435749978E+02  0.29182648456E+02  0.51100000000E-03 0. -1.
        -11    1    3    3    0    0 -0.23878862088E+01 -0.38461717456E+01  0.12500028731E+02  0.13294576194E+02  0.51100000000E-03 0.  1.
         12    1    3    3    0    0  0.13425587653E+02 -0.49215878591E+01  0.88657974722E+01  0.16824707894E+02  0.00000000000E+00 0. -1.
</event>
<event>
 7    1  0.6055092E-013  0.5930196E+02  0.7816164E-02  0.1266605E+00
        -11   -1    0    0    0    0  0.00000000000E+00  0.00000000000E+00  0.45593999997E+02  0.45594000000E+02  0.51100000000E-03 0.  1.
         11   -1    0    0    0    0 -0.00000000000E+00 -0.00000000000E+00 -0.45593999997E+02  0.45594000000E+02  0.51100000000E-03 0. -1.
    9900012    2    1    2    0    0  0.78300119481E+01  0.62821264083E+01 -0.30264593938E+02  0.59301955316E+02  0.50000020588E+02 0.  0.
        -12    1    1    2    0    0 -0.78300119481E+01 -0.62821264083E+01  0.30264593938E+02  0.31886044684E+02  0.00000000000E+00 0.  1.
         11    1    3    3    0    0  0.16243797879E+01  0.76554747074E+01 -0.34802859945E+02  0.35671893183E+02  0.51100000000E-03 0. -1.
        -11    1    3    3    0    0  0.91606280937E+01  0.26679295232E+01  0.11570963891E+02  0.14997405130E+02  0.51100000000E-03 0.  1.
        -12    1    3    3    0    0 -0.29549959335E+01 -0.40412778223E+01 -0.70326978843E+01  0.86326570033E+01  0.00000000000E+00 0.  1.
</event>
<event>
 7    1  0.6055092E-013  0.5930193E+02  0.7816164E-02  0.1266605E+00
        -11   -1    0    0    0    0  0.00000000000E+00  0.00000000000E+00  0.45593999997E+02  0.45594000000E+02  0.51100000000E-03 0. -1.
         11   -1    0    0    0    0 -0.00000000000E+00 -0.00000000000E+00 -0.45593999997E+02  0.45594000000E+02  0.51100000000E-03 0.  1.
    9900012    2    1    2    0    0 -0.70600090385E+01  0.10014893437E+02  0.29437720830E+02  0.59301933672E+02  0.49999981114E+02 0.  0.
        -12    1    1    2    0    0  0.70600090385E+01 -0.10014893437E+02 -0.29437720830E+02  0.31886066328E+02  0.00000000000E+00 0.  1.
         11    1    3    3    0    0  0.18708581483E+02 -0.64132247343E+00  0.33355290843E+01  0.19014417429E+02  0.51100000000E-03 0. -1.
        -11    1    3    3    0    0 -0.14582145121E+02 -0.89190844405E+00  0.12580922103E+02  0.19279887402E+02  0.51100000000E-03 0.  1.
         12    1    3    3    0    0 -0.11186445400E+02  0.11548124355E+02  0.13521269643E+02  0.21007628842E+02  0.00000000000E+00 0. -1.
</event>
<event>
 7    1  0.6055092E-013  0.5930196E+02  0.7816164E-02  0.1266605E+00
        -11   -1    0    0    0    0  0.00000000000E+00  0.00000000000E+00  0.45593999997E+02  0.45594000000E+02  0.51100000000E-03 0.  1.
         11   -1    0    0    0    0 -0.00000000000E+00 -0.00000000000E+00 -0.45593999997E+02  0.45594000000E+02  0.51100000000E-03 0. -1.
    9900012    2    1    2    0    0  0.28121621158E+02 -0.14597462882E+02 -0.35788590507E+01  0.59301957109E+02  0.50000023858E+02 0.  0.
        -12    1    1    2    0    0 -0.28121621158E+02  0.14597462882E+02  0.35788590507E+01  0.31886042891E+02  0.00000000000E+00 0.  1.
         11    1    3    3    0    0  0.69621166606E+01 -0.13336676497E+02 -0.11273612355E+02  0.18799796387E+02  0.51100000000E-03 0. -1.
        -11    1    3    3    0    0  0.15016241799E+02 -0.12171456430E+02  0.16319944683E+02  0.25297677050E+02  0.51100000000E-03 0.  1.
         12    1    3    3    0    0  0.61432626984E+01  0.10910670046E+02 -0.86251913788E+01  0.15204483673E+02  0.00000000000E+00 0. -1.
</event>
<event>
 7    1  0.6055092E-013  0.5930192E+02  0.7816164E-02  0.1266605E+00
        -11   -1    0    0    0    0  0.00000000000E+00  0.00000000000E+00  0.45593999997E+02  0.45594000000E+02  0.51100000000E-03 0.  1.
         11   -1    0    0    0    0 -0.00000000000E+00 -0.00000000000E+00 -0.45593999997E+02  0.45594000000E+02  0.51100000000E-03 0. -1.
    9900012    2    1    2    0    0 -0.26988191834E+02 -0.16794955046E+02 -0.25078000388E+01  0.59301920365E+02  0.49999956844E+02 0.  0.
        -12    1    1    2    0    0  0.26988191834E+02  0.16794955046E+02  0.25078000388E+01  0.31886079635E+02  0.00000000000E+00 0.  1.
         11    1    3    3    0    0  0.10366964172E+02  0.33686512701E+01 -0.74302094464E+01  0.13192034347E+02  0.51100000000E-03 0. -1.
        -11    1    3    3    0    0 -0.20920707705E+02 -0.16017657893E+02 -0.44810290357E+01  0.26726784257E+02  0.51100000000E-03 0.  1.
        -12    1    3    3    0    0 -0.16434448301E+02 -0.41459484231E+01  0.94034384434E+01  0.19383101760E+02  0.00000000000E+00 0.  1.
</event>
<event>
 7    1  0.6055092E-013  0.5930195E+02  0.7816164E-02  0.1266605E+00
        -11   -1    0    0    0    0  0.00000000000E+00  0.00000000000E+00  0.45593999997E+02  0.45594000000E+02  0.51100000000E-03 0.  1.
         11   -1    0    0    0    0 -0.00000000000E+00 -0.00000000000E+00 -0.45593999997E+02  0.45594000000E+02  0.51100000000E-03 0. -1.
    9900012    2    1    2    0    0 -0.19563093733E+02  0.10572028357E+02 -0.22852526531E+02  0.59301946798E+02  0.50000005052E+02 0.  0.
        -12    1    1    2    0    0  0.19563093733E+02 -0.10572028357E+02  0.22852526531E+02  0.31886053202E+02  0.00000000000E+00 0.  1.
         11    1    3    3    0    0 -0.26898776967E+02 -0.43931704095E-01 -0.38060077363E+01  0.27166741200E+02  0.51100000000E-03 0. -1.
        -11    1    3    3    0    0 -0.37652119326E+01  0.13817196260E+02 -0.10942776228E+02  0.18023209626E+02  0.51100000000E-03 0.  1.
         12    1    3    3    0    0  0.11100895167E+02 -0.32012361988E+01 -0.81037425669E+01  0.14111995971E+02  0.00000000000E+00 0. -1.
</event>
<event>
 7    1  0.6055092E-013  0.5930197E+02  0.7816164E-02  0.1266605E+00
        -11   -1    0    0    0    0  0.00000000000E+00  0.00000000000E+00  0.45593999997E+02  0.45594000000E+02  0.51100000000E-03 0.  1.
         11   -1    0    0    0    0 -0.00000000000E+00 -0.00000000000E+00 -0.45593999997E+02  0.45594000000E+02  0.51100000000E-03 0. -1.
    9900012    2    1    2    0    0 -0.28378775764E+02 -0.82776790833E+01 -0.11951733363E+02  0.59301971473E+02  0.50000050054E+02 0.  0.
        -12    1    1    2    0    0  0.28378775764E+02  0.82776790833E+01  0.11951733363E+02  0.31886028527E+02  0.00000000000E+00 0.  1.
         11    1    3    3    0    0 -0.11397182544E+02  0.59307060465E+01  0.16414615715E+02  0.20844871155E+02  0.51100000000E-03 0. -1.
        -11    1    3    3    0    0  0.19027918338E+01 -0.41284777530E+01 -0.54800766544E+01  0.71201254005E+01  0.51100000000E-03 0.  1.
         12    1    3    3    0    0 -0.18884385054E+02 -0.10079907377E+02 -0.22886272423E+02  0.31336974918E+02  0.00000000000E+00 0. -1.
</event>
<event>
 7    1  0.6055092E-013  0.5930194E+02  0.7816164E-02  0.1266605E+00
        -11   -1    0    0    0    0  0.00000000000E+00  0.00000000000E+00  0.45593999997E+02  0.45594000000E+02  0.51100000000E-03 0.  1.
         11   -1    0    0    0    0 -0.00000000000E+00 -0.00000000000E+00 -0.45593999997E+02  0.45594000000E+02  0.51100000000E-03 0. -1.
    9900012    2    1    2    0    0  0.20033489205E+02  0.22302306751E+02 -0.10862195293E+02  0.59301939366E+02  0.49999991499E+02 0.  0.
        -12    1    1    2    0    0 -0.20033489205E+02 -0.22302306751E+02  0.10862195293E+02  0.31886060634E+02  0.00000000000E+00 0.  1.
         11    1    3    3    0    0  0.24306106761E+02  0.30304685795E+02 -0.65327058081E+01  0.39393363051E+02  0.51100000000E-03 0. -1.
        -11    1    3    3    0    0  0.19272066245E+01 -0.52027955942E+01 -0.97448739296E+01  0.11213642385E+02  0.51100000000E-03 0.  1.
        -12    1    3    3    0    0 -0.61998241806E+01 -0.27995834504E+01  0.54153844445E+01  0.86949339300E+01  0.00000000000E+00 0.  1.
</event>
<event>
 7    1  0.6055092E-013  0.5930178E+02  0.7816164E-02  0.1266605E+00
        -11   -1    0    0    0    0  0.00000000000E+00  0.00000000000E+00  0.45593999997E+02  0.45594000000E+02  0.51100000000E-03 0.  1.
         11   -1    0    0    0    0 -0.00000000000E+00 -0.00000000000E+00 -0.45593999997E+02  0.45594000000E+02  0.51100000000E-03 0. -1.
    9900012    2    1    2    0    0 -0.21948600964E+02 -0.15997040308E+02 -0.16705817137E+02  0.59301784968E+02  0.49999709912E+02 0.  0.
        -12    1    1    2    0    0  0.21948600964E+02  0.15997040308E+02  0.16705817137E+02  0.31886215032E+02  0.00000000000E+00 0.  1.
         11    1    3    3    0    0 -0.18167438472E+02 -0.11026144360E+02 -0.14890472355E+02  0.25949139625E+02  0.51100000000E-03 0. -1.
        -11    1    3    3    0    0  0.13918056770E+02 -0.18596818325E+01 -0.53705778048E+01  0.15033756250E+02  0.51100000000E-03 0.  1.
        -12    1    3    3    0    0 -0.17699219262E+02 -0.31112141155E+01  0.35552330229E+01  0.18318889093E+02  0.00000000000E+00 0.  1.
</event>
<event>
 7    1  0.6055092E-013  0.5930196E+02  0.7816164E-02  0.1266605E+00
        -11   -1    0    0    0    0  0.00000000000E+00  0.00000000000E+00  0.45593999997E+02  0.45594000000E+02  0.51100000000E-03 0. -1.
         11   -1    0    0    0    0 -0.00000000000E+00 -0.00000000000E+00 -0.45593999997E+02  0.45594000000E+02  0.51100000000E-03 0.  1.
    9900012    2    1    2    0    0 -0.14957203084E+02  0.27632605648E+02 -0.54259566338E+01  0.59301955648E+02  0.50000021193E+02 0.  0.
        -12    1    1    2    0    0  0.14957203084E+02 -0.27632605648E+02  0.54259566338E+01  0.31886044352E+02  0.00000000000E+00 0.  1.
         11    1    3    3    0    0 -0.18754796418E+00  0.13011271246E+02  0.13959261678E+02  0.19083745453E+02  0.51100000000E-03 0. -1.
        -11    1    3    3    0    0 -0.70585482471E+01 -0.82970920530E+01 -0.78483318497E+01  0.13426136934E+02  0.51100000000E-03 0.  1.
         12    1    3    3    0    0 -0.77111068730E+01  0.22918426455E+02 -0.11536886462E+02  0.26792073261E+02  0.00000000000E+00 0. -1.
</event>
<event>
 7    1  0.6055092E-013  0.5930191E+02  0.7816164E-02  0.1266605E+00
        -11   -1    0    0    0    0  0.00000000000E+00  0.00000000000E+00  0.45593999997E+02  0.45594000000E+02  0.51100000000E-03 0. -1.
         11   -1    0    0    0    0 -0.00000000000E+00 -0.00000000000E+00 -0.45593999997E+02  0.45594000000E+02  0.51100000000E-03 0.  1.
    9900012    2    1    2    0    0 -0.20761858718E+01  0.14409777163E+02  0.28368475914E+02  0.59301911320E+02  0.49999940348E+02 0.  0.
        -12    1    1    2    0    0  0.20761858718E+01 -0.14409777163E+02 -0.28368475914E+02  0.31886088680E+02  0.00000000000E+00 0.  1.
         11    1    3    3    0    0  0.12471156899E+01  0.64662283213E+01  0.54670459732E+01  0.85589717946E+01  0.51100000000E-03 0. -1.
        -11    1    3    3    0    0  0.12307668102E+02 -0.11325773214E+02 -0.36365141722E+00  0.16729736269E+02  0.51100000000E-03 0.  1.
        -12    1    3    3    0    0 -0.15630969664E+02  0.19269322056E+02  0.23265081358E+02  0.34013203256E+02  0.00000000000E+00 0.  1.
</event>
<event>
 7    1  0.6055092E-013  0.5930195E+02  0.7816164E-02  0.1266605E+00
        -11   -1    0    0    0    0  0.00000000000E+00  0.00000000000E+00  0.45593999997E+02  0.45594000000E+02  0.51100000000E-03 0.  1.
         11   -1    0    0    0    0 -0.00000000000E+00 -0.00000000000E+00 -0.45593999997E+02  0.45594000000E+02  0.51100000000E-03 0. -1.
    9900012    2    1    2    0    0  0.12354887182E+02 -0.29278014789E+02 -0.26219536713E+01  0.59301952451E+02  0.50000015362E+02 0.  0.
        -12    1    1    2    0    0 -0.12354887182E+02  0.29278014789E+02  0.26219536713E+01  0.31886047549E+02  0.00000000000E+00 0.  1.
         11    1    3    3    0    0 -0.98294932658E+01  0.68631904715E+01  0.34269391806E+01  0.12468609935E+02  0.51100000000E-03 0. -1.
        -11    1    3    3    0    0  0.77134587640E+01 -0.58543427509E+01 -0.88919618556E+01  0.13146777592E+02  0.51100000000E-03 0.  1.
         12    1    3    3    0    0  0.14470921683E+02 -0.30286862509E+02  0.28430690036E+01  0.33686564924E+02  0.00000000000E+00 0. -1.
</event>
<event>
 7    1  0.6055092E-013  0.5930194E+02  0.7816164E-02  0.1266605E+00
        -11   -1    0    0    0    0  0.00000000000E+00  0.00000000000E+00  0.45593999997E+02  0.45594000000E+02  0.51100000000E-03 0. -1.
         11   -1    0    0    0    0 -0.00000000000E+00 -0.00000000000E+00 -0.45593999997E+02  0.45594000000E+02  0.51100000000E-03 0.  1.
    9900012    2    1    2    0    0  0.95229656596E+01  0.11483693772E+02  0.28180824816E+02  0.59301937450E+02  0.49999988004E+02 0.  0.
        -12    1    1    2    0    0 -0.95229656596E+01 -0.11483693772E+02 -0.28180824816E+02  0.31886062550E+02  0.00000000000E+00 0.  1.
         11    1    3    3    0    0  0.94006126191E+01  0.24030788573E+02  0.11456334658E+02  0.28232922646E+02  0.51100000000E-03 0.  1.
        -11    1    3    3    0    0  0.37862046236E+00 -0.80122585514E+01 -0.46132529995E+01  0.92532018268E+01  0.51100000000E-03 0. -1.
         12    1    3    3    0    0 -0.25626742185E+00 -0.45348362502E+01  0.21337743158E+02  0.21815812977E+02  0.00000000000E+00 0. -1.
</event>
<event>
 7    1  0.6055092E-013  0.5930189E+02  0.7816164E-02  0.1266605E+00
        -11   -1    0    0    0    0  0.00000000000E+00  0.00000000000E+00  0.45593999997E+02  0.45594000000E+02  0.51100000000E-03 0. -1.
         11   -1    0    0    0    0 -0.00000000000E+00 -0.00000000000E+00 -0.45593999997E+02  0.45594000000E+02  0.51100000000E-03 0.  1.
    9900012    2    1    2    0    0  0.17339366990E+02  0.11731648548E+01  0.26733759545E+02  0.59301892323E+02  0.49999905703E+02 0.  0.
        -12    1    1    2    0    0 -0.17339366990E+02 -0.11731648548E+01 -0.26733759545E+02  0.31886107677E+02  0.00000000000E+00 0.  1.
         11    1    3    3    0    0 -0.25626381556E+01  0.13455798225E+02  0.26102566958E+02  0.29478290694E+02  0.51100000000E-03 0. -1.
        -11    1    3    3    0    0  0.59155221015E+01 -0.12558898133E+02 -0.49834411665E+01  0.14749712206E+02  0.51100000000E-03 0.  1.
         12    1    3    3    0    0  0.13986483044E+02  0.27626476312E+00  0.56146337531E+01  0.15073889423E+02  0.00000000000E+00 0. -1.
</event>
<event>
 7    1  0.6055092E-013  0.5930195E+02  0.7816164E-02  0.1266605E+00
        -11   -1    0    0    0    0  0.00000000000E+00  0.00000000000E+00  0.45593999997E+02  0.45594000000E+02  0.51100000000E-03 0.  1.
         11   -1    0    0    0    0 -0.00000000000E+00 -0.00000000000E+00 -0.45593999997E+02  0.45594000000E+02  0.51100000000E-03 0. -1.
    9900012    2    1    2    0    0  0.99492293954E+01 -0.29851820467E+02  0.51577256126E+01  0.59301945301E+02  0.50000002323E+02 0.  0.
        -12    1    1    2    0    0 -0.99492293954E+01  0.29851820467E+02 -0.51577256126E+01  0.31886054699E+02  0.00000000000E+00 0.  1.
         11    1    3    3    0    0  0.16068545187E+01 -0.41073331456E+01 -0.53411406124E+01  0.69267561178E+01  0.51100000000E-03 0. -1.
        -11    1    3    3    0    0  0.21569654734E+02  0.61075067469E-01  0.88979435251E+01  0.23332962408E+02  0.51100000000E-03 0.  1.
        -12    1    3    3    0    0 -0.13227279857E+02 -0.25805562389E+02  0.16009226999E+01  0.29042226776E+02  0.00000000000E+00 0.  1.
</event>
<event>
 7    1  0.6055092E-013  0.5930200E+02  0.7816164E-02  0.1266605E+00
        -11   -1    0    0    0    0  0.00000000000E+00  0.00000000000E+00  0.45593999997E+02  0.45594000000E+02  0.51100000000E-03 0. -1.
         11   -1    0    0    0    0 -0.00000000000E+00 -0.00000000000E+00 -0.45593999997E+02  0.45594000000E+02  0.51100000000E-03 0.  1.
    9900012    2    1    2    0    0 -0.17743322464E+01 -0.30329797026E+02  0.96784263144E+01  0.59302003411E+02  0.50000108301E+02 0.  0.
        -12    1    1    2    0    0  0.17743322464E+01  0.30329797026E+02 -0.96784263144E+01  0.31885996589E+02  0.00000000000E+00 0.  1.
         11    1    3    3    0    0  0.15296293561E+02  0.14973075844E+01  0.11344955541E+02  0.19103050626E+02  0.51100000000E-03 0. -1.
        -11    1    3    3    0    0 -0.68871944365E+01 -0.23652673895E+02  0.55878356532E+01  0.25260766757E+02  0.51100000000E-03 0.  1.
        -12    1    3    3    0    0 -0.10183431371E+02 -0.81744307152E+01 -0.72543648801E+01  0.14938186028E+02  0.00000000000E+00 0.  1.
</event>
<event>
 7    1  0.6055092E-013  0.5930187E+02  0.7816164E-02  0.1266605E+00
        -11   -1    0    0    0    0  0.00000000000E+00  0.00000000000E+00  0.45593999997E+02  0.45594000000E+02  0.51100000000E-03 0.  1.
         11   -1    0    0    0    0 -0.00000000000E+00 -0.00000000000E+00 -0.45593999997E+02  0.45594000000E+02  0.51100000000E-03 0. -1.
    9900012    2    1    2    0    0 -0.11591027260E+02  0.53819251113E+01 -0.29213154700E+02  0.59301867617E+02  0.49999860644E+02 0.  0.
        -12    1    1    2    0    0  0.11591027260E+02 -0.53819251113E+01  0.29213154700E+02  0.31886132383E+02  0.00000000000E+00 0.  1.
         11    1    3    3    0    0 -0.20376647691E+01  0.17108347677E+02 -0.27572264906E+02  0.32512727204E+02  0.51100000000E-03 0. -1.
        -11    1    3    3    0    0  0.44502924448E+01 -0.90102103120E+01  0.48011216315E+01  0.11137313944E+02  0.51100000000E-03 0.  1.
         12    1    3    3    0    0 -0.14003654936E+02 -0.27162122536E+01 -0.64420114251E+01  0.15651826468E+02  0.00000000000E+00 0. -1.
</event>
<event>
 7    1  0.6055092E-013  0.5930193E+02  0.7816164E-02  0.1266605E+00
        -11   -1    0    0    0    0  0.00000000000E+00  0.00000000000E+00  0.45593999997E+02  0.45594000000E+02  0.51100000000E-03 0. -1.
         11   -1    0    0    0    0 -0.00000000000E+00 -0.00000000000E+00 -0.45593999997E+02  0.45594000000E+02  0.51100000000E-03 0.  1.
    9900012    2    1    2    0    0 -0.26894990050E+02  0.83119444337E+01  0.14976404462E+02  0.59301927795E+02  0.49999970395E+02 0.  0.
        -12    1    1    2    0    0  0.26894990050E+02 -0.83119444337E+01 -0.14976404462E+02  0.31886072205E+02  0.00000000000E+00 0.  1.
         11    1    3    3    0    0 -0.25858838487E+02  0.19769111156E+02  0.13679606650E+02  0.35307632634E+02  0.51100000000E-03 0. -1.
        -11    1    3    3    0    0 -0.40746608255E+01 -0.16337436951E+02 -0.26164076748E+01  0.17039961748E+02  0.51100000000E-03 0.  1.
        -12    1    3    3    0    0  0.30385092624E+01  0.48802702288E+01  0.39132054867E+01  0.69543334134E+01  0.00000000000E+00 0.  1.
</event>
<event>
 7    1  0.6055092E-013  0.5930195E+02  0.7816164E-02  0.1266605E+00
        -11   -1    0    0    0    0  0.00000000000E+00  0.00000000000E+00  0.45593999997E+02  0.45594000000E+02  0.51100000000E-03 0.  1.
         11   -1    0    0    0    0 -0.00000000000E+00 -0.00000000000E+00 -0.45593999997E+02  0.45594000000E+02  0.51100000000E-03 0. -1.
    9900012    2    1    2    0    0  0.16992115735E+02  0.14765098197E+02 -0.22582737987E+02  0.59301950120E+02  0.50000011112E+02 0.  0.
        -12    1    1    2    0    0 -0.16992115735E+02 -0.14765098197E+02  0.22582737987E+02  0.31886049880E+02  0.00000000000E+00 0.  1.
         11    1    3    3    0    0  0.13297477673E+00  0.12242325004E+02  0.11709932839E+02  0.16941509117E+02  0.51100000000E-03 0. -1.
        -11    1    3    3    0    0  0.18470101138E+02 -0.33274101961E+01 -0.24957708786E+02  0.31226647639E+02  0.51100000000E-03 0.  1.
        -12    1    3    3    0    0 -0.16109601793E+01  0.58501833894E+01 -0.93349620409E+01  0.11133793365E+02  0.00000000000E+00 0.  1.
</event>
<event>
 7    1  0.6055092E-013  0.5930190E+02  0.7816164E-02  0.1266605E+00
        -11   -1    0    0    0    0  0.00000000000E+00  0.00000000000E+00  0.45593999997E+02  0.45594000000E+02  0.51100000000E-03 0.  1.
         11   -1    0    0    0    0 -0.00000000000E+00 -0.00000000000E+00 -0.45593999997E+02  0.45594000000E+02  0.51100000000E-03 0. -1.
    9900012    2    1    2    0    0 -0.14152553831E+02  0.17291994533E+02  0.22746774476E+02  0.59301896383E+02  0.49999913107E+02 0.  0.
        -12    1    1    2    0    0  0.14152553831E+02 -0.17291994533E+02 -0.22746774476E+02  0.31886103617E+02  0.00000000000E+00 0.  1.
         11    1    3    3    0    0 -0.10353813711E+02  0.12753346957E+02  0.69983676933E+01  0.17855712464E+02  0.51100000000E-03 0. -1.
        -11    1    3    3    0    0  0.13777587897E+02  0.78590333610E+01  0.17325532451E+02  0.23489580852E+02  0.51100000000E-03 0.  1.
        -12    1    3    3    0    0 -0.17576328017E+02 -0.33203857853E+01 -0.15771256683E+01  0.17956603067E+02  0.00000000000E+00 0.  1.
</event>
<event>
 7    1  0.6055092E-013  0.5930195E+02  0.7816164E-02  0.1266605E+00
        -11   -1    0    0    0    0  0.00000000000E+00  0.00000000000E+00  0.45593999997E+02  0.45594000000E+02  0.51100000000E-03 0. -1.
         11   -1    0    0    0    0 -0.00000000000E+00 -0.00000000000E+00 -0.45593999997E+02  0.45594000000E+02  0.51100000000E-03 0.  1.
    9900012    2    1    2    0    0 -0.20886368018E+01 -0.16259407584E+02  0.27349399716E+02  0.59301946567E+02  0.50000004632E+02 0.  0.
        -12    1    1    2    0    0  0.20886368018E+01  0.16259407584E+02 -0.27349399716E+02  0.31886053433E+02  0.00000000000E+00 0.  1.
         11    1    3    3    0    0  0.58202165038E+01 -0.18924860941E+02 -0.59305244467E+00  0.19808508103E+02  0.51100000000E-03 0. -1.
        -11    1    3    3    0    0 -0.14406507750E+02  0.10418773647E+02  0.17192493078E+02  0.24732167887E+02  0.51100000000E-03 0.  1.
        -12    1    3    3    0    0  0.64976544448E+01 -0.77533202898E+01  0.10749959082E+02  0.14761270578E+02  0.00000000000E+00 0.  1.
</event>
<event>
 7    1  0.6055092E-013  0.5930192E+02  0.7816164E-02  0.1266605E+00
        -11   -1    0    0    0    0  0.00000000000E+00  0.00000000000E+00  0.45593999997E+02  0.45594000000E+02  0.51100000000E-03 0.  1.
         11   -1    0    0    0    0 -0.00000000000E+00 -0.00000000000E+00 -0.45593999997E+02  0.45594000000E+02  0.51100000000E-03 0. -1.
    9900012    2    1    2    0    0  0.20834863673E+02  0.15460164937E+02 -0.18536817462E+02  0.59301923952E+02  0.49999963386E+02 0.  0.
        -12    1    1    2    0    0 -0.20834863673E+02 -0.15460164937E+02  0.18536817462E+02  0.31886076048E+02  0.00000000000E+00 0.  1.
         11    1    3    3    0    0 -0.52636756326E-01  0.24205230933E+02 -0.25032985393E+01  0.24334388815E+02  0.51100000000E-03 0.  1.
        -11    1    3    3    0    0  0.24326992411E+02 -0.58718037564E+01 -0.17163235723E+02  0.30345630655E+02  0.51100000000E-03 0. -1.
         12    1    3    3    0    0 -0.34394919820E+01 -0.28732622396E+01  0.11297167999E+01  0.46219044819E+01  0.00000000000E+00 0. -1.
</event>
<event>
 7    1  0.6055092E-013  0.5930191E+02  0.7816164E-02  0.1266605E+00
        -11   -1    0    0    0    0  0.00000000000E+00  0.00000000000E+00  0.45593999997E+02  0.45594000000E+02  0.51100000000E-03 0.  1.
         11   -1    0    0    0    0 -0.00000000000E+00 -0.00000000000E+00 -0.45593999997E+02  0.45594000000E+02  0.51100000000E-03 0. -1.
    9900012    2    1    2    0    0  0.48303041655E+01 -0.17712695364E+02 -0.26070126382E+02  0.59301907343E+02  0.49999933096E+02 0.  0.
        -12    1    1    2    0    0 -0.48303041655E+01  0.17712695364E+02  0.26070126382E+02  0.31886092657E+02  0.00000000000E+00 0.  1.
         11    1    3    3    0    0 -0.12627781504E+02 -0.10401188999E+02 -0.28243159387E+01  0.16601878179E+02  0.51100000000E-03 0. -1.
        -11    1    3    3    0    0  0.61767461343E+01  0.10984057166E+02 -0.15211895490E+02  0.19753568520E+02  0.51100000000E-03 0.  1.
        -12    1    3    3    0    0  0.11281339535E+02 -0.18295563530E+02 -0.80339149528E+01  0.22946460643E+02  0.00000000000E+00 0.  1.
</event>
<event>
 7    1  0.6055092E-013  0.5930195E+02  0.7816164E-02  0.1266605E+00
        -11   -1    0    0    0    0  0.00000000000E+00  0.00000000000E+00  0.45593999997E+02  0.45594000000E+02  0.51100000000E-03 0. -1.
         11   -1    0    0    0    0 -0.00000000000E+00 -0.00000000000E+00 -0.45593999997E+02  0.45594000000E+02  0.51100000000E-03 0.  1.
    9900012    2    1    2    0    0 -0.31331672549E+02  0.13277705655E+01  0.57692013616E+01  0.59301947191E+02  0.50000005768E+02 0.  0.
        -12    1    1    2    0    0  0.31331672549E+02 -0.13277705655E+01 -0.57692013616E+01  0.31886052809E+02  0.00000000000E+00 0.  1.
         11    1    3    3    0    0 -0.22384304808E+02  0.23804229385E+02  0.61339486410E+01  0.33246409799E+02  0.51100000000E-03 0. -1.
        -11    1    3    3    0    0 -0.89862036149E+01 -0.19090735977E+02  0.29642862920E+01  0.21307159573E+02  0.51100000000E-03 0.  1.
         12    1    3    3    0    0  0.38835873826E-01 -0.33857228421E+01 -0.33290335714E+01  0.47483778186E+01  0.00000000000E+00 0. -1.
</event>
<event>
 7    1  0.6055092E-013  0.5930195E+02  0.7816164E-02  0.1266605E+00
        -11   -1    0    0    0    0  0.00000000000E+00  0.00000000000E+00  0.45593999997E+02  0.45594000000E+02  0.51100000000E-03 0. -1.
         11   -1    0    0    0    0 -0.00000000000E+00 -0.00000000000E+00 -0.45593999997E+02  0.45594000000E+02  0.51100000000E-03 0.  1.
    9900012    2    1    2    0    0  0.25957052260E+00 -0.20074252465E+02  0.24772508783E+02  0.59301950068E+02  0.50000011015E+02 0.  0.
        -12    1    1    2    0    0 -0.25957052260E+00  0.20074252465E+02 -0.24772508783E+02  0.31886049932E+02  0.00000000000E+00 0.  1.
         11    1    3    3    0    0 -0.12552558398E+02 -0.24466246386E+01  0.18016414567E+02  0.22093978559E+02  0.51100000000E-03 0. -1.
        -11    1    3    3    0    0  0.22150452541E+02 -0.97892279067E+01  0.27407028607E+01  0.24371766108E+02  0.51100000000E-03 0.  1.
         12    1    3    3    0    0 -0.93383236206E+01 -0.78383999200E+01  0.40153913551E+01  0.12836205400E+02  0.00000000000E+00 0. -1.
</event>
<event>
 7    1  0.6055092E-013  0.5930195E+02  0.7816164E-02  0.1266605E+00
        -11   -1    0    0    0    0  0.00000000000E+00  0.00000000000E+00  0.45593999997E+02  0.45594000000E+02  0.51100000000E-03 0.  1.
         11   -1    0    0    0    0 -0.00000000000E+00 -0.00000000000E+00 -0.45593999997E+02  0.45594000000E+02  0.51100000000E-03 0. -1.
    9900012    2    1    2    0    0 -0.19542944181E+01 -0.59665345310E+01 -0.31261817842E+02  0.59301952021E+02  0.50000014577E+02 0.  0.
        -12    1    1    2    0    0  0.19542944181E+01  0.59665345310E+01  0.31261817842E+02  0.31886047979E+02  0.00000000000E+00 0.  1.
         11    1    3    3    0    0  0.12396577265E+02  0.23535874384E+01 -0.19782454261E+02  0.23464014971E+02  0.51100000000E-03 0. -1.
        -11    1    3    3    0    0 -0.14082488323E+02 -0.18408016622E+02 -0.46118086776E+01  0.23631342172E+02  0.51100000000E-03 0.  1.
         12    1    3    3    0    0 -0.26838336080E+00  0.10087894653E+02 -0.68675549034E+01  0.12206594877E+02  0.00000000000E+00 0. -1.
</event>
<event>
 7    1  0.6055092E-013  0.5930197E+02  0.7816164E-02  0.1266605E+00
        -11   -1    0    0    0    0  0.00000000000E+00  0.00000000000E+00  0.45593999997E+02  0.45594000000E+02  0.51100000000E-03 0.  1.
         11   -1    0    0    0    0 -0.00000000000E+00 -0.00000000000E+00 -0.45593999997E+02  0.45594000000E+02  0.51100000000E-03 0. -1.
    9900012    2    1    2    0    0 -0.30315496038E+01 -0.20084657296E+02 -0.24579160916E+02  0.59301970096E+02  0.50000047543E+02 0.  0.
        -12    1    1    2    0    0  0.30315496038E+01  0.20084657296E+02  0.24579160916E+02  0.31886029904E+02  0.00000000000E+00 0.  1.
         11    1    3    3    0    0  0.13126936024E+02 -0.71798077192E+01 -0.19719223373E+02  0.24753057568E+02  0.51100000000E-03 0. -1.
        -11    1    3    3    0    0 -0.18046482990E+02 -0.18331101898E+02  0.17596897464E+01  0.25783742036E+02  0.51100000000E-03 0.  1.
        -12    1    3    3    0    0  0.18879973623E+01  0.54262523220E+01 -0.66196272891E+01  0.87651704917E+01  0.00000000000E+00 0.  1.
</event>
<event>
 7    1  0.6055092E-013  0.5930196E+02  0.7816164E-02  0.1266605E+00
        -11   -1    0    0    0    0  0.00000000000E+00  0.00000000000E+00  0.45593999997E+02  0.45594000000E+02  0.51100000000E-03 0.  1.
         11   -1    0    0    0    0 -0.00000000000E+00 -0.00000000000E+00 -0.45593999997E+02  0.45594000000E+02  0.51100000000E-03 0. -1.
    9900012    2    1    2    0    0  0.21427745900E+02  0.81561899051E+01 -0.22159597770E+02  0.59301960712E+02  0.50000030428E+02 0.  0.
        -12    1    1    2    0    0 -0.21427745900E+02 -0.81561899051E+01  0.22159597770E+02  0.31886039288E+02  0.00000000000E+00 0.  1.
         11    1    3    3    0    0  0.39940108077E+01  0.16115393734E+02 -0.22052306928E+00  0.16604417129E+02  0.51100000000E-03 0. -1.
        -11    1    3    3    0    0  0.20240604647E+02 -0.44892450688E+01 -0.43691109998E+00  0.20737075236E+02  0.51100000000E-03 0.  1.
         12    1    3    3    0    0 -0.28068695547E+01 -0.34699587597E+01 -0.21502163601E+02  0.21960468347E+02  0.00000000000E+00 0. -1.
</event>
<event>
 7    1  0.6055092E-013  0.5930196E+02  0.7816164E-02  0.1266605E+00
        -11   -1    0    0    0    0  0.00000000000E+00  0.00000000000E+00  0.45593999997E+02  0.45594000000E+02  0.51100000000E-03 0.  1.
         11   -1    0    0    0    0 -0.00000000000E+00 -0.00000000000E+00 -0.45593999997E+02  0.45594000000E+02  0.51100000000E-03 0. -1.
    9900012    2    1    2    0    0  0.17763551347E+02 -0.52881108011E+01 -0.25946328150E+02  0.59301955768E+02  0.50000021411E+02 0.  0.
        -12    1    1    2    0    0 -0.17763551347E+02  0.52881108011E+01  0.25946328150E+02  0.31886044232E+02  0.00000000000E+00 0.  1.
         11    1    3    3    0    0  0.20325648972E+02 -0.72679675236E+01  0.85694442477E+01  0.23224787039E+02  0.51100000000E-03 0. -1.
        -11    1    3    3    0    0 -0.20502099630E+01  0.60243583403E+01 -0.19143322892E+02  0.20173325603E+02  0.51100000000E-03 0.  1.
         12    1    3    3    0    0 -0.51188766156E+00 -0.40445016177E+01 -0.15372449506E+02  0.15903843125E+02  0.00000000000E+00 0. -1.
</event>
<event>
 7    1  0.6055092E-013  0.5930188E+02  0.7816164E-02  0.1266605E+00
        -11   -1    0    0    0    0  0.00000000000E+00  0.00000000000E+00  0.45593999997E+02  0.45594000000E+02  0.51100000000E-03 0.  1.
         11   -1    0    0    0    0 -0.00000000000E+00 -0.00000000000E+00 -0.45593999997E+02  0.45594000000E+02  0.51100000000E-03 0. -1.
    9900012    2    1    2    0    0  0.16152085187E+02 -0.16189117599E+02 -0.22220428926E+02  0.59301876903E+02  0.49999877580E+02 0.  0.
        -12    1    1    2    0    0 -0.16152085187E+02  0.16189117599E+02  0.22220428926E+02  0.31886123097E+02  0.00000000000E+00 0.  1.
         11    1    3    3    0    0  0.14899919263E+02 -0.92495669984E+01  0.19212046939E+01  0.17642366945E+02  0.51100000000E-03 0.  1.
        -11    1    3    3    0    0 -0.15607954610E+02 -0.20830408257E+00 -0.89888954987E+01  0.18012547855E+02  0.51100000000E-03 0. -1.
        -12    1    3    3    0    0  0.16860120534E+02 -0.67312465180E+01 -0.15152738121E+02  0.23646962102E+02  0.00000000000E+00 0.  1.
</event>
<event>
 7    1  0.6055092E-013  0.5930196E+02  0.7816164E-02  0.1266605E+00
        -11   -1    0    0    0    0  0.00000000000E+00  0.00000000000E+00  0.45593999997E+02  0.45594000000E+02  0.51100000000E-03 0.  1.
         11   -1    0    0    0    0 -0.00000000000E+00 -0.00000000000E+00 -0.45593999997E+02  0.45594000000E+02  0.51100000000E-03 0. -1.
    9900012    2    1    2    0    0 -0.18323882767E+02 -0.43674725336E+01 -0.25727033208E+02  0.59301957071E+02  0.50000023787E+02 0.  0.
        -12    1    1    2    0    0  0.18323882767E+02  0.43674725336E+01  0.25727033208E+02  0.31886042929E+02  0.00000000000E+00 0.  1.
         11    1    3    3    0    0 -0.63035464034E+01 -0.18911097342E+02 -0.71916923981E+01  0.21191619564E+02  0.51100000000E-03 0. -1.
        -11    1    3    3    0    0 -0.48274080402E+01  0.21832540965E+02 -0.16187156871E+02  0.27604125801E+02  0.51100000000E-03 0.  1.
        -12    1    3    3    0    0 -0.71929283237E+01 -0.72889161570E+01 -0.23481839386E+01  0.10506211707E+02  0.00000000000E+00 0.  1.
</event>
<event>
 7    1  0.6055092E-013  0.5930195E+02  0.7816164E-02  0.1266605E+00
        -11   -1    0    0    0    0  0.00000000000E+00  0.00000000000E+00  0.45593999997E+02  0.45594000000E+02  0.51100000000E-03 0. -1.
         11   -1    0    0    0    0 -0.00000000000E+00 -0.00000000000E+00 -0.45593999997E+02  0.45594000000E+02  0.51100000000E-03 0.  1.
    9900012    2    1    2    0    0  0.14368102228E+02  0.28051910394E+02 -0.48340628043E+01  0.59301949734E+02  0.50000010407E+02 0.  0.
        -12    1    1    2    0    0 -0.14368102228E+02 -0.28051910394E+02  0.48340628043E+01  0.31886050266E+02  0.00000000000E+00 0.  1.
         11    1    3    3    0    0 -0.10529953822E+02 -0.18888337067E+01 -0.54142751526E+01  0.11990079064E+02  0.51100000000E-03 0.  1.
        -11    1    3    3    0    0  0.24796601198E+02  0.25373976927E+02  0.99848611607E+01  0.36856581349E+02  0.51100000000E-03 0. -1.
         12    1    3    3    0    0  0.10145485196E+00  0.45667671737E+01 -0.94046488124E+01  0.10455289321E+02  0.00000000000E+00 0. -1.
</event>
<event>
 7    1  0.6055092E-013  0.5930205E+02  0.7816164E-02  0.1266604E+00
        -11   -1    0    0    0    0  0.00000000000E+00  0.00000000000E+00  0.45593999997E+02  0.45594000000E+02  0.51100000000E-03 0.  1.
         11   -1    0    0    0    0 -0.00000000000E+00 -0.00000000000E+00 -0.45593999997E+02  0.45594000000E+02  0.51100000000E-03 0. -1.
    9900012    2    1    2    0    0  0.19124049815E+02 -0.23615157360E+02 -0.96596581881E+01  0.59302048003E+02  0.50000189626E+02 0.  0.
        -12    1    1    2    0    0 -0.19124049815E+02  0.23615157360E+02  0.96596581881E+01  0.31885951997E+02  0.00000000000E+00 0.  1.
         11    1    3    3    0    0 -0.66119953706E+01 -0.16070451779E+02 -0.20701542550E+02  0.27028351177E+02  0.51100000000E-03 0. -1.
        -11    1    3    3    0    0  0.10245721202E+02 -0.42888822102E+01  0.12080837910E+02  0.16410848803E+02  0.51100000000E-03 0.  1.
        -12    1    3    3    0    0  0.15490323983E+02 -0.32558233703E+01 -0.10389535486E+01  0.15862848023E+02  0.00000000000E+00 0.  1.
</event>
<event>
 7    1  0.6055092E-013  0.5930193E+02  0.7816164E-02  0.1266605E+00
        -11   -1    0    0    0    0  0.00000000000E+00  0.00000000000E+00  0.45593999997E+02  0.45594000000E+02  0.51100000000E-03 0.  1.
         11   -1    0    0    0    0 -0.00000000000E+00 -0.00000000000E+00 -0.45593999997E+02  0.45594000000E+02  0.51100000000E-03 0. -1.
    9900012    2    1    2    0    0 -0.86658309572E+01  0.27311476150E+02 -0.13989566367E+02  0.59301932151E+02  0.49999978340E+02 0.  0.
        -12    1    1    2    0    0  0.86658309572E+01 -0.27311476150E+02  0.13989566367E+02  0.31886067849E+02  0.00000000000E+00 0.  1.
         11    1    3    3    0    0 -0.22335770326E+02  0.23019001176E+02 -0.18837447424E+02  0.37196914884E+02  0.51100000000E-03 0. -1.
        -11    1    3    3    0    0  0.13714971672E+02  0.10005773836E+01 -0.25698773932E+01  0.13989491525E+02  0.51100000000E-03 0.  1.
         12    1    3    3    0    0 -0.45032303477E-01  0.32918975911E+01  0.74177584496E+01  0.81155257424E+01  0.00000000000E+00 0. -1.
</event>
<event>
 7    1  0.6055092E-013  0.5930194E+02  0.7816164E-02  0.1266605E+00
        -11   -1    0    0    0    0  0.00000000000E+00  0.00000000000E+00  0.45593999997E+02  0.45594000000E+02  0.51100000000E-03 0.  1.
         11   -1    0    0    0    0 -0.00000000000E+00 -0.00000000000E+00 -0.45593999997E+02  0.45594000000E+02  0.51100000000E-03 0. -1.
    9900012    2    1    2    0    0  0.75679273045E+01 -0.18869983283E+02 -0.24563606272E+02  0.59301944335E+02  0.50000000560E+02 0.  0.
        -12    1    1    2    0    0 -0.75679273045E+01  0.18869983283E+02  0.24563606272E+02  0.31886055665E+02  0.00000000000E+00 0.  1.
         11    1    3    3    0    0 -0.92338010639E+01 -0.40363892100E+01 -0.49733030555E+01  0.11237849593E+02  0.51100000000E-03 0. -1.
        -11    1    3    3    0    0  0.12029253855E+02  0.74653861173E+01  0.45358035030E+01  0.14866353011E+02  0.51100000000E-03 0.  1.
        -12    1    3    3    0    0  0.47724745138E+01 -0.22298980190E+02 -0.24126106720E+02  0.33197741730E+02  0.00000000000E+00 0.  1.
</event>
<event>
 7    1  0.6055092E-013  0.5930189E+02  0.7816164E-02  0.1266605E+00
        -11   -1    0    0    0    0  0.00000000000E+00  0.00000000000E+00  0.45593999997E+02  0.45594000000E+02  0.51100000000E-03 0.  1.
         11   -1    0    0    0    0 -0.00000000000E+00 -0.00000000000E+00 -0.45593999997E+02  0.45594000000E+02  0.51100000000E-03 0. -1.
    9900012    2    1    2    0    0  0.25050191192E+02  0.19151774845E+02  0.47351348717E+01  0.59301889220E+02  0.49999900043E+02 0.  0.
        -12    1    1    2    0    0 -0.25050191192E+02 -0.19151774845E+02 -0.47351348717E+01  0.31886110780E+02  0.00000000000E+00 0.  1.
         11    1    3    3    0    0  0.82415979057E+01  0.23176162040E+02  0.19682607307E+02  0.31503387970E+02  0.51100000000E-03 0. -1.
        -11    1    3    3    0    0  0.68843869185E+01 -0.79708082817E+01 -0.13342411932E+02  0.16998485942E+02  0.51100000000E-03 0.  1.
        -12    1    3    3    0    0  0.99242063674E+01  0.39464210865E+01 -0.16050605032E+01  0.10800015307E+02  0.00000000000E+00 0.  1.
</event>
<event>
 7    1  0.6055092E-013  0.5930199E+02  0.7816164E-02  0.1266605E+00
        -11   -1    0    0    0    0  0.00000000000E+00  0.00000000000E+00  0.45593999997E+02  0.45594000000E+02  0.51100000000E-03 0. -1.
         11   -1    0    0    0    0 -0.00000000000E+00 -0.00000000000E+00 -0.45593999997E+02  0.45594000000E+02  0.51100000000E-03 0.  1.
    9900012    2    1    2    0    0 -0.15241044937E+02 -0.26831645678E+02  0.80306269117E+01  0.59301990072E+02  0.50000083974E+02 0.  0.
        -12    1    1    2    0    0  0.15241044937E+02  0.26831645678E+02 -0.80306269117E+01  0.31886009928E+02  0.00000000000E+00 0.  1.
         11    1    3    3    0    0 -0.37994545184E+01  0.39296414694E+01  0.19808943782E+02  0.20549262535E+02  0.51100000000E-03 0. -1.
        -11    1    3    3    0    0 -0.49139243793E+01  0.30304491700E+00 -0.31979746800E+01  0.58707351620E+01  0.51100000000E-03 0.  1.
         12    1    3    3    0    0 -0.65276660388E+01 -0.31064332064E+02 -0.85803421898E+01  0.32881992376E+02  0.00000000000E+00 0. -1.
</event>
<event>
 7    1  0.6055092E-013  0.5930192E+02  0.7816164E-02  0.1266605E+00
        -11   -1    0    0    0    0  0.00000000000E+00  0.00000000000E+00  0.45593999997E+02  0.45594000000E+02  0.51100000000E-03 0. -1.
         11   -1    0    0    0    0 -0.00000000000E+00 -0.00000000000E+00 -0.45593999997E+02  0.45594000000E+02  0.51100000000E-03 0.  1.
    9900012    2    1    2    0    0  0.23528955578E+02 -0.20551254822E+02  0.63840624340E+01  0.59301920302E+02  0.49999956730E+02 0.  0.
        -12    1    1    2    0    0 -0.23528955578E+02  0.20551254822E+02 -0.63840624340E+01  0.31886079698E+02  0.00000000000E+00 0.  1.
         11    1    3    3    0    0 -0.61270786869E+01 -0.20526434661E+01  0.87026207028E+01  0.10839282531E+02  0.51100000000E-03 0. -1.
        -11    1    3    3    0    0  0.12569355007E+02  0.13011676818E+01 -0.14819333590E+02  0.19475481276E+02  0.51100000000E-03 0.  1.
         12    1    3    3    0    0  0.17086679258E+02 -0.19799779038E+02  0.12500775321E+02  0.28987156494E+02  0.00000000000E+00 0. -1.
</event>
<event>
 7    1  0.6055092E-013  0.5930195E+02  0.7816164E-02  0.1266605E+00
        -11   -1    0    0    0    0  0.00000000000E+00  0.00000000000E+00  0.45593999997E+02  0.45594000000E+02  0.51100000000E-03 0.  1.
         11   -1    0    0    0    0 -0.00000000000E+00 -0.00000000000E+00 -0.45593999997E+02  0.45594000000E+02  0.51100000000E-03 0. -1.
    9900012    2    1    2    0    0  0.21936614223E+02 -0.15110271732E+02 -0.17526695251E+02  0.59301946594E+02  0.50000004681E+02 0.  0.
        -12    1    1    2    0    0 -0.21936614223E+02  0.15110271732E+02  0.17526695251E+02  0.31886053406E+02  0.00000000000E+00 0.  1.
         11    1    3    3    0    0 -0.27328154021E+01 -0.53534403840E+00 -0.66944828974E+01  0.72505844445E+01  0.51100000000E-03 0. -1.
        -11    1    3    3    0    0  0.77498819235E+01  0.93955740230E+01  0.10252987106E+02  0.15920465631E+02  0.51100000000E-03 0.  1.
        -12    1    3    3    0    0  0.16919547701E+02 -0.23970501717E+02 -0.21085199460E+02  0.36130896519E+02  0.00000000000E+00 0.  1.
</event>
<event>
 7    1  0.7098614E-013  0.5930192E+02  0.7816164E-02  0.1266605E+00
        -11   -1    0    0    0    0  0.00000000000E+00  0.00000000000E+00  0.45593999997E+02  0.45594000000E+02  0.51100000000E-03 0.  1.
         11   -1    0    0    0    0 -0.00000000000E+00 -0.00000000000E+00 -0.45593999997E+02  0.45594000000E+02  0.51100000000E-03 0. -1.
    9900012    2    1    2    0    0 -0.28292909632E+02  0.48399496309E+01 -0.13885544346E+02  0.59301918559E+02  0.49999953552E+02 0.  0.
        -12    1    1    2    0    0  0.28292909632E+02 -0.48399496309E+01  0.13885544346E+02  0.31886081441E+02  0.00000000000E+00 0.  1.
         11    1    3    3    0    0 -0.22095367263E+02 -0.71154449717E+00 -0.19512097695E+02  0.29486157885E+02  0.51100000000E-03 0. -1.
        -11    1    3    3    0    0  0.61496399808E+01  0.12272883042E+02 -0.19186165328E+01  0.13860837627E+02  0.51100000000E-03 0.  1.
        -12    1    3    3    0    0 -0.12347182350E+02 -0.67213889138E+01  0.75451698825E+01  0.15954923048E+02  0.00000000000E+00 0.  1.
</event>
<event>
 7    1  0.6055092E-013  0.5930194E+02  0.7816164E-02  0.1266605E+00
        -11   -1    0    0    0    0  0.00000000000E+00  0.00000000000E+00  0.45593999997E+02  0.45594000000E+02  0.51100000000E-03 0.  1.
         11   -1    0    0    0    0 -0.00000000000E+00 -0.00000000000E+00 -0.45593999997E+02  0.45594000000E+02  0.51100000000E-03 0. -1.
    9900012    2    1    2    0    0 -0.28929867943E+02  0.74734313868E+01 -0.11132435050E+02  0.59301944333E+02  0.50000000556E+02 0.  0.
        -12    1    1    2    0    0  0.28929867943E+02 -0.74734313868E+01  0.11132435050E+02  0.31886055667E+02  0.00000000000E+00 0.  1.
         11    1    3    3    0    0 -0.48938226285E+01  0.44943986372E+01 -0.10584654867E+02  0.12497361239E+02  0.51100000000E-03 0. -1.
        -11    1    3    3    0    0 -0.13680801979E+02  0.12062766755E+02  0.16700984948E+02  0.24730499046E+02  0.51100000000E-03 0.  1.
        -12    1    3    3    0    0 -0.10355243336E+02 -0.90837340055E+01 -0.17248765131E+02  0.22074084048E+02  0.00000000000E+00 0.  1.
</event>
<event>
 7    1  0.6055092E-013  0.5930191E+02  0.7816164E-02  0.1266605E+00
        -11   -1    0    0    0    0  0.00000000000E+00  0.00000000000E+00  0.45593999997E+02  0.45594000000E+02  0.51100000000E-03 0.  1.
         11   -1    0    0    0    0 -0.00000000000E+00 -0.00000000000E+00 -0.45593999997E+02  0.45594000000E+02  0.51100000000E-03 0. -1.
    9900012    2    1    2    0    0  0.22735972145E+02  0.15672888337E+02 -0.15942361675E+02  0.59301909710E+02  0.49999937413E+02 0.  0.
        -12    1    1    2    0    0 -0.22735972145E+02 -0.15672888337E+02  0.15942361675E+02  0.31886090290E+02  0.00000000000E+00 0.  1.
         11    1    3    3    0    0  0.89731507407E+01  0.86936442581E+01 -0.16922419463E+02  0.21034855964E+02  0.51100000000E-03 0. -1.
        -11    1    3    3    0    0 -0.49861138721E+01 -0.11042046457E+02  0.17998184305E+01  0.12248570045E+02  0.51100000000E-03 0.  1.
        -12    1    3    3    0    0  0.18748935277E+02  0.18021290536E+02 -0.81976064291E+00  0.26018483701E+02  0.00000000000E+00 0.  1.
</event>
<event>
 7    1  0.6055092E-013  0.5930194E+02  0.7816164E-02  0.1266605E+00
        -11   -1    0    0    0    0  0.00000000000E+00  0.00000000000E+00  0.45593999997E+02  0.45594000000E+02  0.51100000000E-03 0. -1.
         11   -1    0    0    0    0 -0.00000000000E+00 -0.00000000000E+00 -0.45593999997E+02  0.45594000000E+02  0.51100000000E-03 0.  1.
    9900012    2    1    2    0    0  0.14437639046E+02  0.26108111632E+02  0.11253537148E+02  0.59301937017E+02  0.49999987215E+02 0.  0.
        -12    1    1    2    0    0 -0.14437639046E+02 -0.26108111632E+02 -0.11253537148E+02  0.31886062983E+02  0.00000000000E+00 0.  1.
         11    1    3    3    0    0 -0.91847268718E+01  0.29337971830E+02  0.62147762327E+01  0.31363980019E+02  0.51100000000E-03 0. -1.
        -11    1    3    3    0    0  0.22177728480E+02  0.12409822608E+01  0.19127792195E+01  0.22294627203E+02  0.51100000000E-03 0.  1.
         12    1    3    3    0    0  0.14446374373E+01 -0.44708424586E+01  0.31259816956E+01  0.56433297951E+01  0.00000000000E+00 0. -1.
</event>
<event>
 7    1  0.6055092E-013  0.5930195E+02  0.7816164E-02  0.1266605E+00
        -11   -1    0    0    0    0  0.00000000000E+00  0.00000000000E+00  0.45593999997E+02  0.45594000000E+02  0.51100000000E-03 0.  1.
         11   -1    0    0    0    0 -0.00000000000E+00 -0.00000000000E+00 -0.45593999997E+02  0.45594000000E+02  0.51100000000E-03 0. -1.
    9900012    2    1    2    0    0 -0.14310052592E+02  0.28457479363E+02 -0.14541605011E+01  0.59301947883E+02  0.50000007031E+02 0.  0.
        -12    1    1    2    0    0  0.14310052592E+02 -0.28457479363E+02  0.14541605011E+01  0.31886052117E+02  0.00000000000E+00 0.  1.
         11    1    3    3    0    0  0.12326888957E+02  0.17451616561E+02 -0.32408229286E+01  0.21610507755E+02  0.51100000000E-03 0. -1.
        -11    1    3    3    0    0 -0.62629466851E+01 -0.76405162119E+01 -0.10136491344E+01  0.99312372841E+01  0.51100000000E-03 0.  1.
         12    1    3    3    0    0 -0.20373994864E+02  0.18646379014E+02  0.28003115619E+01  0.27760202843E+02  0.00000000000E+00 0. -1.
</event>
<event>
 7    1  0.6055092E-013  0.5930198E+02  0.7816164E-02  0.1266605E+00
        -11   -1    0    0    0    0  0.00000000000E+00  0.00000000000E+00  0.45593999997E+02  0.45594000000E+02  0.51100000000E-03 0.  1.
         11   -1    0    0    0    0 -0.00000000000E+00 -0.00000000000E+00 -0.45593999997E+02  0.45594000000E+02  0.51100000000E-03 0. -1.
    9900012    2    1    2    0    0 -0.10555661615E+01 -0.84645966319E+01 -0.30723849250E+02  0.59301975965E+02  0.50000058245E+02 0.  0.
        -12    1    1    2    0    0  0.10555661615E+01  0.84645966319E+01  0.30723849250E+02  0.31886024035E+02  0.00000000000E+00 0.  1.
         11    1    3    3    0    0  0.42614553424E+01  0.18785305445E+02 -0.18658135283E+02  0.26817414395E+02  0.51100000000E-03 0. -1.
        -11    1    3    3    0    0  0.69528959698E+00 -0.87567092572E+01 -0.93850760370E+01  0.12854689305E+02  0.51100000000E-03 0.  1.
         12    1    3    3    0    0 -0.60123111010E+01 -0.18493192820E+02 -0.26806379295E+01  0.19629872265E+02  0.00000000000E+00 0. -1.
</event>
<event>
 7    1  0.6055092E-013  0.5930195E+02  0.7816164E-02  0.1266605E+00
        -11   -1    0    0    0    0  0.00000000000E+00  0.00000000000E+00  0.45593999997E+02  0.45594000000E+02  0.51100000000E-03 0. -1.
         11   -1    0    0    0    0 -0.00000000000E+00 -0.00000000000E+00 -0.45593999997E+02  0.45594000000E+02  0.51100000000E-03 0.  1.
    9900012    2    1    2    0    0  0.20641646928E+01 -0.30185661804E+02 -0.10064044493E+02  0.59301953742E+02  0.50000017716E+02 0.  0.
        -12    1    1    2    0    0 -0.20641646928E+01  0.30185661804E+02  0.10064044493E+02  0.31886046258E+02  0.00000000000E+00 0.  1.
         11    1    3    3    0    0  0.30983766414E+01 -0.34178342584E+02 -0.60040771113E+01  0.34839747155E+02  0.51100000000E-03 0. -1.
        -11    1    3    3    0    0 -0.69380627691E+01  0.93981040376E+01 -0.92687058707E+01  0.14912075083E+02  0.51100000000E-03 0.  1.
         12    1    3    3    0    0  0.59038508206E+01 -0.54054232576E+01  0.52087384892E+01  0.95501315045E+01  0.00000000000E+00 0. -1.
</event>
<event>
 7    1  0.6055092E-013  0.5930195E+02  0.7816164E-02  0.1266605E+00
        -11   -1    0    0    0    0  0.00000000000E+00  0.00000000000E+00  0.45593999997E+02  0.45594000000E+02  0.51100000000E-03 0. -1.
         11   -1    0    0    0    0 -0.00000000000E+00 -0.00000000000E+00 -0.45593999997E+02  0.45594000000E+02  0.51100000000E-03 0.  1.
    9900012    2    1    2    0    0  0.16685435248E+02  0.19662285016E+02  0.18753951436E+02  0.59301954527E+02  0.50000019148E+02 0.  0.
        -12    1    1    2    0    0 -0.16685435248E+02 -0.19662285016E+02 -0.18753951436E+02  0.31886045473E+02  0.00000000000E+00 0.  1.
         11    1    3    3    0    0 -0.65558122102E+00  0.24266858880E+02 -0.56800458757E+01  0.24931368756E+02  0.51100000000E-03 0.  1.
        -11    1    3    3    0    0  0.34597988075E+01 -0.10437138937E+01  0.18517151102E+02  0.18866489649E+02  0.51100000000E-03 0. -1.
         12    1    3    3    0    0  0.13881217661E+02 -0.35608599706E+01  0.59168462102E+01  0.15504096122E+02  0.00000000000E+00 0. -1.
</event>
<event>
 7    1  0.6055092E-013  0.5930192E+02  0.7816164E-02  0.1266605E+00
        -11   -1    0    0    0    0  0.00000000000E+00  0.00000000000E+00  0.45593999997E+02  0.45594000000E+02  0.51100000000E-03 0.  1.
         11   -1    0    0    0    0 -0.00000000000E+00 -0.00000000000E+00 -0.45593999997E+02  0.45594000000E+02  0.51100000000E-03 0. -1.
    9900012    2    1    2    0    0 -0.70090248983E+01 -0.30686877201E+02 -0.50902819997E+01  0.59301924149E+02  0.49999963746E+02 0.  0.
        -12    1    1    2    0    0  0.70090248983E+01  0.30686877201E+02  0.50902819997E+01  0.31886075851E+02  0.00000000000E+00 0.  1.
         11    1    3    3    0    0 -0.69666272030E+01 -0.13628154602E+02 -0.10199423551E+02  0.18392627150E+02  0.51100000000E-03 0. -1.
        -11    1    3    3    0    0  0.14170214826E+02 -0.21366621471E+02  0.18521876371E+01  0.25705215436E+02  0.51100000000E-03 0.  1.
        -12    1    3    3    0    0 -0.14212612521E+02  0.43078988721E+01  0.32569539145E+01  0.15204081563E+02  0.00000000000E+00 0.  1.
</event>
<event>
 7    1  0.6055092E-013  0.5930189E+02  0.7816164E-02  0.1266605E+00
        -11   -1    0    0    0    0  0.00000000000E+00  0.00000000000E+00  0.45593999997E+02  0.45594000000E+02  0.51100000000E-03 0.  1.
         11   -1    0    0    0    0 -0.00000000000E+00 -0.00000000000E+00 -0.45593999997E+02  0.45594000000E+02  0.51100000000E-03 0. -1.
    9900012    2    1    2    0    0  0.40571059184E+01  0.29277934147E+02  0.11961040851E+02  0.59301889629E+02  0.49999900789E+02 0.  0.
        -12    1    1    2    0    0 -0.40571059184E+01 -0.29277934147E+02 -0.11961040851E+02  0.31886110371E+02  0.00000000000E+00 0.  1.
         11    1    3    3    0    0  0.60923705090E+01  0.27795833535E+02  0.17002904188E+02  0.33148515674E+02  0.51100000000E-03 0. -1.
        -11    1    3    3    0    0  0.10905262020E+02  0.30510644401E+01  0.17440364202E+01  0.11457547610E+02  0.51100000000E-03 0.  1.
         12    1    3    3    0    0 -0.12940526610E+02 -0.15689638278E+01 -0.67858997568E+01  0.14695826345E+02  0.00000000000E+00 0. -1.
</event>
<event>
 7    1  0.6055092E-013  0.5930194E+02  0.7816164E-02  0.1266605E+00
        -11   -1    0    0    0    0  0.00000000000E+00  0.00000000000E+00  0.45593999997E+02  0.45594000000E+02  0.51100000000E-03 0.  1.
         11   -1    0    0    0    0 -0.00000000000E+00 -0.00000000000E+00 -0.45593999997E+02  0.45594000000E+02  0.51100000000E-03 0. -1.
    9900012    2    1    2    0    0 -0.11105062744E+02 -0.13815838441E+02 -0.26505115471E+02  0.59301937896E+02  0.49999988817E+02 0.  0.
        -12    1    1    2    0    0  0.11105062744E+02  0.13815838441E+02  0.26505115471E+02  0.31886062104E+02  0.00000000000E+00 0.  1.
         11    1    3    3    0    0 -0.14910427990E+02 -0.26373332456E+02 -0.83394516089E+01  0.31423239506E+02  0.51100000000E-03 0. -1.
        -11    1    3    3    0    0  0.73795065046E+01  0.21138485562E+01 -0.13959984996E+01  0.78021973855E+01  0.51100000000E-03 0.  1.
         12    1    3    3    0    0 -0.35741412592E+01  0.10443645459E+02 -0.16769665362E+02  0.20076501004E+02  0.00000000000E+00 0. -1.
</event>
<event>
 7    1  0.6055092E-013  0.5930195E+02  0.7816164E-02  0.1266605E+00
        -11   -1    0    0    0    0  0.00000000000E+00  0.00000000000E+00  0.45593999997E+02  0.45594000000E+02  0.51100000000E-03 0.  1.
         11   -1    0    0    0    0 -0.00000000000E+00 -0.00000000000E+00 -0.45593999997E+02  0.45594000000E+02  0.51100000000E-03 0. -1.
    9900012    2    1    2    0    0 -0.27522679652E+02  0.10251221992E+02 -0.12415100531E+02  0.59301950249E+02  0.50000011345E+02 0.  0.
        -12    1    1    2    0    0  0.27522679652E+02 -0.10251221992E+02  0.12415100531E+02  0.31886049751E+02  0.00000000000E+00 0.  1.
         11    1    3    3    0    0  0.82333173187E+01  0.10946692114E+02 -0.89813470183E+01  0.16379321623E+02  0.51100000000E-03 0.  1.
        -11    1    3    3    0    0 -0.19842651212E+02  0.28287511272E+01 -0.13126799562E+02  0.23959246797E+02  0.51100000000E-03 0. -1.
         12    1    3    3    0    0 -0.15913345759E+02 -0.35242212494E+01  0.96930460497E+01  0.18963381829E+02  0.00000000000E+00 0. -1.
</event>
<event>
 7    1  0.6055092E-013  0.5930196E+02  0.7816164E-02  0.1266605E+00
        -11   -1    0    0    0    0  0.00000000000E+00  0.00000000000E+00  0.45593999997E+02  0.45594000000E+02  0.51100000000E-03 0.  1.
         11   -1    0    0    0    0 -0.00000000000E+00 -0.00000000000E+00 -0.45593999997E+02  0.45594000000E+02  0.51100000000E-03 0. -1.
    9900012    2    1    2    0    0  0.20888492925E+02  0.10241474825E+02 -0.21806027887E+02  0.59301956102E+02  0.50000022020E+02 0.  0.
        -12    1    1    2    0    0 -0.20888492925E+02 -0.10241474825E+02  0.21806027887E+02  0.31886043898E+02  0.00000000000E+00 0.  1.
         11    1    3    3    0    0  0.11835863969E+02  0.15759390915E+02 -0.22226149339E+02  0.29706022834E+02  0.51100000000E-03 0. -1.
        -11    1    3    3    0    0 -0.67039848097E+01  0.55783993602E+01  0.46235514938E+01  0.98711286298E+01  0.51100000000E-03 0.  1.
        -12    1    3    3    0    0  0.15756613765E+02 -0.11096315450E+02 -0.42034300417E+01  0.19724804638E+02  0.00000000000E+00 0.  1.
</event>
<event>
 7    1  0.6055092E-013  0.5930195E+02  0.7816164E-02  0.1266605E+00
        -11   -1    0    0    0    0  0.00000000000E+00  0.00000000000E+00  0.45593999997E+02  0.45594000000E+02  0.51100000000E-03 0. -1.
         11   -1    0    0    0    0 -0.00000000000E+00 -0.00000000000E+00 -0.45593999997E+02  0.45594000000E+02  0.51100000000E-03 0.  1.
    9900012    2    1    2    0    0  0.21283491822E+01  0.22137813095E+02  0.22849672843E+02  0.59301949948E+02  0.50000010798E+02 0.  0.
        -12    1    1    2    0    0 -0.21283491822E+01 -0.22137813095E+02 -0.22849672843E+02  0.31886050052E+02  0.00000000000E+00 0.  1.
         11    1    3    3    0    0  0.41283456305E+01  0.19979231042E+02  0.33131775405E+02  0.38909220661E+02  0.51100000000E-03 0. -1.
        -11    1    3    3    0    0  0.19868044625E+01  0.21435299275E+01 -0.14380834921E+02  0.14674826261E+02  0.51100000000E-03 0.  1.
        -12    1    3    3    0    0 -0.39868009109E+01  0.15052125192E-01  0.40987323590E+01  0.57179030265E+01  0.00000000000E+00 0.  1.
</event>
<event>
 7    1  0.6055092E-013  0.5930196E+02  0.7816164E-02  0.1266605E+00
        -11   -1    0    0    0    0  0.00000000000E+00  0.00000000000E+00  0.45593999997E+02  0.45594000000E+02  0.51100000000E-03 0. -1.
         11   -1    0    0    0    0 -0.00000000000E+00 -0.00000000000E+00 -0.45593999997E+02  0.45594000000E+02  0.51100000000E-03 0.  1.
    9900012    2    1    2    0    0 -0.20175423902E+02 -0.22456663587E+02  0.10265007120E+02  0.59301955400E+02  0.50000020740E+02 0.  0.
        -12    1    1    2    0    0  0.20175423902E+02  0.22456663587E+02 -0.10265007120E+02  0.31886044600E+02  0.00000000000E+00 0.  1.
         11    1    3    3    0    0 -0.26012868209E+02  0.53974227383E+01  0.13150766992E+02  0.29643619169E+02  0.51100000000E-03 0. -1.
        -11    1    3    3    0    0  0.71978378985E+01 -0.25082208438E+02 -0.11583238730E+01  0.26120255837E+02  0.51100000000E-03 0.  1.
        -12    1    3    3    0    0 -0.13603935916E+01 -0.27718778871E+01 -0.17274359998E+01  0.35380803946E+01  0.00000000000E+00 0.  1.
</event>
<event>
 7    1  0.6055092E-013  0.5930157E+02  0.7816164E-02  0.1266606E+00
        -11   -1    0    0    0    0  0.00000000000E+00  0.00000000000E+00  0.45593999997E+02  0.45594000000E+02  0.51100000000E-03 0. -1.
         11   -1    0    0    0    0 -0.00000000000E+00 -0.00000000000E+00 -0.45593999997E+02  0.45594000000E+02  0.51100000000E-03 0.  1.
    9900012    2    1    2    0    0  0.19905604592E+02 -0.16698708171E+02  0.18484164218E+02  0.59301572235E+02  0.49999321935E+02 0.  0.
        -12    1    1    2    0    0 -0.19905604592E+02  0.16698708171E+02 -0.18484164218E+02  0.31886427765E+02  0.00000000000E+00 0.  1.
         11    1    3    3    0    0 -0.44207346522E+01 -0.46413854491E+01  0.22078604883E+02  0.22990218520E+02  0.51100000000E-03 0. -1.
        -11    1    3    3    0    0  0.19782840087E+02  0.27033920568E+01 -0.56009411123E+01  0.20737396947E+02  0.51100000000E-03 0.  1.
         12    1    3    3    0    0  0.45434991567E+01 -0.14760714778E+02  0.20065004473E+01  0.15573956768E+02  0.00000000000E+00 0. -1.
</event>
<event>
 7    1  0.6055092E-013  0.5930197E+02  0.7816164E-02  0.1266605E+00
        -11   -1    0    0    0    0  0.00000000000E+00  0.00000000000E+00  0.45593999997E+02  0.45594000000E+02  0.51100000000E-03 0.  1.
         11   -1    0    0    0    0 -0.00000000000E+00 -0.00000000000E+00 -0.45593999997E+02  0.45594000000E+02  0.51100000000E-03 0. -1.
    9900012    2    1    2    0    0  0.12177672976E+02 -0.57051323527E+01 -0.28911497063E+02  0.59301969882E+02  0.50000047152E+02 0.  0.
        -12    1    1    2    0    0 -0.12177672976E+02  0.57051323527E+01  0.28911497063E+02  0.31886030118E+02  0.00000000000E+00 0.  1.
         11    1    3    3    0    0  0.11204553323E+02 -0.16378793269E+01 -0.18708006669E+02  0.21868108689E+02  0.51100000000E-03 0. -1.
        -11    1    3    3    0    0  0.49866800135E+01 -0.88294223363E+01  0.11220111427E+02  0.15123378493E+02  0.51100000000E-03 0.  1.
        -12    1    3    3    0    0 -0.40135603600E+01  0.47621693105E+01 -0.21423601821E+02  0.22310482699E+02  0.00000000000E+00 0.  1.
</event>
<event>
 7    1  0.6055092E-013  0.5930194E+02  0.7816164E-02  0.1266605E+00
        -11   -1    0    0    0    0  0.00000000000E+00  0.00000000000E+00  0.45593999997E+02  0.45594000000E+02  0.51100000000E-03 0. -1.
         11   -1    0    0    0    0 -0.00000000000E+00 -0.00000000000E+00 -0.45593999997E+02  0.45594000000E+02  0.51100000000E-03 0.  1.
    9900012    2    1    2    0    0 -0.26465087115E+02 -0.66001221234E+01  0.16515391482E+02  0.59301943426E+02  0.49999998903E+02 0.  0.
        -12    1    1    2    0    0  0.26465087115E+02  0.66001221234E+01 -0.16515391482E+02  0.31886056574E+02  0.00000000000E+00 0.  1.
         11    1    3    3    0    0 -0.32392972097E+01  0.31500205714E+01  0.10775374716E+02  0.11684364619E+02  0.51100000000E-03 0. -1.
        -11    1    3    3    0    0 -0.19585483494E+01 -0.20306759723E+02 -0.58127832765E+01  0.21212940668E+02  0.51100000000E-03 0.  1.
        -12    1    3    3    0    0 -0.21267241556E+02  0.10556617028E+02  0.11552800042E+02  0.26404638139E+02  0.00000000000E+00 0.  1.
</event>
<event>
 7    1  0.6055092E-013  0.5930190E+02  0.7816164E-02  0.1266605E+00
        -11   -1    0    0    0    0  0.00000000000E+00  0.00000000000E+00  0.45593999997E+02  0.45594000000E+02  0.51100000000E-03 0. -1.
         11   -1    0    0    0    0 -0.00000000000E+00 -0.00000000000E+00 -0.45593999997E+02  0.45594000000E+02  0.51100000000E-03 0.  1.
    9900012    2    1    2    0    0 -0.31689862194E+02 -0.35281770304E+01  0.16675709567E+00  0.59301902607E+02  0.49999924459E+02 0.  0.
        -12    1    1    2    0    0  0.31689862194E+02  0.35281770304E+01 -0.16675709567E+00  0.31886097393E+02  0.00000000000E+00 0.  1.
         11    1    3    3    0    0 -0.38901620465E+02  0.10233756757E+02  0.65955090518E+01  0.40762318287E+02  0.51100000000E-03 0. -1.
        -11    1    3    3    0    0  0.66360266941E+01 -0.44631279237E+01 -0.38313931132E+01  0.88676904883E+01  0.51100000000E-03 0.  1.
         12    1    3    3    0    0  0.57573157748E+00 -0.92988058640E+01 -0.25973588430E+01  0.96718938324E+01  0.00000000000E+00 0. -1.
</event>
<event>
 7    1  0.6055092E-013  0.5930197E+02  0.7816164E-02  0.1266605E+00
        -11   -1    0    0    0    0  0.00000000000E+00  0.00000000000E+00  0.45593999997E+02  0.45594000000E+02  0.51100000000E-03 0.  1.
         11   -1    0    0    0    0 -0.00000000000E+00 -0.00000000000E+00 -0.45593999997E+02  0.45594000000E+02  0.51100000000E-03 0. -1.
    9900012    2    1    2    0    0 -0.30423278670E+02 -0.77149186068E-01  0.95465587546E+01  0.59301974517E+02  0.50000055606E+02 0.  0.
        -12    1    1    2    0    0  0.30423278670E+02  0.77149186068E-01 -0.95465587546E+01  0.31886025483E+02  0.00000000000E+00 0.  1.
         11    1    3    3    0    0 -0.21451837075E+02 -0.12849394395E+02 -0.10606573337E+02  0.27162246748E+02  0.51100000000E-03 0. -1.
        -11    1    3    3    0    0 -0.11001393071E+02  0.14865182581E+02  0.21959926086E+02  0.28709626550E+02  0.51100000000E-03 0.  1.
        -12    1    3    3    0    0  0.20299514758E+01 -0.20929373720E+01 -0.18067939943E+01  0.34301012194E+01  0.00000000000E+00 0.  1.
</event>
<event>
 7    1  0.6055092E-013  0.5930194E+02  0.7816164E-02  0.1266605E+00
        -11   -1    0    0    0    0  0.00000000000E+00  0.00000000000E+00  0.45593999997E+02  0.45594000000E+02  0.51100000000E-03 0. -1.
         11   -1    0    0    0    0 -0.00000000000E+00 -0.00000000000E+00 -0.45593999997E+02  0.45594000000E+02  0.51100000000E-03 0.  1.
    9900012    2    1    2    0    0  0.80531321631E+01  0.63495440875E+01  0.30191904901E+02  0.59301940831E+02  0.49999994170E+02 0.  0.
        -12    1    1    2    0    0 -0.80531321631E+01 -0.63495440875E+01 -0.30191904901E+02  0.31886059169E+02  0.00000000000E+00 0.  1.
         11    1    3    3    0    0  0.18053690015E+02 -0.11268641602E+02  0.50204885952E+00  0.21287791338E+02  0.51100000000E-03 0.  1.
        -11    1    3    3    0    0 -0.59068596798E+01  0.12352252927E+02  0.27946141133E+02  0.31120024874E+02  0.51100000000E-03 0. -1.
        -12    1    3    3    0    0 -0.40936981726E+01  0.52659327627E+01  0.17437149085E+01  0.68941246197E+01  0.00000000000E+00 0.  1.
</event>
<event>
 7    1  0.6055092E-013  0.5930195E+02  0.7816164E-02  0.1266605E+00
        -11   -1    0    0    0    0  0.00000000000E+00  0.00000000000E+00  0.45593999997E+02  0.45594000000E+02  0.51100000000E-03 0.  1.
         11   -1    0    0    0    0 -0.00000000000E+00 -0.00000000000E+00 -0.45593999997E+02  0.45594000000E+02  0.51100000000E-03 0. -1.
    9900012    2    1    2    0    0 -0.21094254422E+02  0.18499722240E+02  0.15149683747E+02  0.59301949599E+02  0.50000010160E+02 0.  0.
        -12    1    1    2    0    0  0.21094254422E+02 -0.18499722240E+02 -0.15149683747E+02  0.31886050401E+02  0.00000000000E+00 0.  1.
         11    1    3    3    0    0 -0.59084734102E+00 -0.51913569219E+01 -0.40891512050E+01  0.66347905099E+01  0.51100000000E-03 0. -1.
        -11    1    3    3    0    0 -0.17892290214E+01  0.22327722771E+01  0.23678436083E+02  0.23850680245E+02  0.51100000000E-03 0.  1.
        -12    1    3    3    0    0 -0.18714178059E+02  0.21458306885E+02 -0.44396011310E+01  0.28816478844E+02  0.00000000000E+00 0.  1.
</event>
<event>
 7    1  0.6055092E-013  0.5930193E+02  0.7816164E-02  0.1266605E+00
        -11   -1    0    0    0    0  0.00000000000E+00  0.00000000000E+00  0.45593999997E+02  0.45594000000E+02  0.51100000000E-03 0.  1.
         11   -1    0    0    0    0 -0.00000000000E+00 -0.00000000000E+00 -0.45593999997E+02  0.45594000000E+02  0.51100000000E-03 0. -1.
    9900012    2    1    2    0    0 -0.26289688092E+02  0.16959352302E+02 -0.61606789160E+01  0.59301932586E+02  0.49999979132E+02 0.  0.
        -12    1    1    2    0    0  0.26289688092E+02 -0.16959352302E+02  0.61606789160E+01  0.31886067414E+02  0.00000000000E+00 0.  1.
         11    1    3    3    0    0 -0.20755202732E+02 -0.13526749402E+02  0.54322403955E+01  0.25362583185E+02  0.51100000000E-03 0.  1.
        -11    1    3    3    0    0 -0.32166088083E+01  0.23572157591E+02 -0.11980508884E+02  0.26636925106E+02  0.51100000000E-03 0. -1.
         12    1    3    3    0    0 -0.23178765511E+01  0.69139441124E+01  0.38758957257E+00  0.73024242942E+01  0.00000000000E+00 0. -1.
</event>
<event>
 7    1  0.6055092E-013  0.5930195E+02  0.7816164E-02  0.1266605E+00
        -11   -1    0    0    0    0  0.00000000000E+00  0.00000000000E+00  0.45593999997E+02  0.45594000000E+02  0.51100000000E-03 0.  1.
         11   -1    0    0    0    0 -0.00000000000E+00 -0.00000000000E+00 -0.45593999997E+02  0.45594000000E+02  0.51100000000E-03 0. -1.
    9900012    2    1    2    0    0  0.29452997154E+02 -0.70233447943E+01  0.99956751765E+01  0.59301953903E+02  0.50000018011E+02 0.  0.
        -12    1    1    2    0    0 -0.29452997154E+02  0.70233447943E+01 -0.99956751765E+01  0.31886046097E+02  0.00000000000E+00 0.  1.
         11    1    3    3    0    0  0.21676457245E+02 -0.18468198696E+02  0.17919850204E+02  0.33646161644E+02  0.51100000000E-03 0. -1.
        -11    1    3    3    0    0 -0.27478589526E+01  0.12462513716E+02 -0.80369672974E+01  0.15081704829E+02  0.51100000000E-03 0.  1.
        -12    1    3    3    0    0  0.10524398861E+02 -0.10176598138E+01  0.11279226994E+00  0.10574087430E+02  0.00000000000E+00 0.  1.
</event>
<event>
 7    1  0.6055092E-013  0.5930195E+02  0.7816164E-02  0.1266605E+00
        -11   -1    0    0    0    0  0.00000000000E+00  0.00000000000E+00  0.45593999997E+02  0.45594000000E+02  0.51100000000E-03 0. -1.
         11   -1    0    0    0    0 -0.00000000000E+00 -0.00000000000E+00 -0.45593999997E+02  0.45594000000E+02  0.51100000000E-03 0.  1.
    9900012    2    1    2    0    0 -0.31690422890E+01  0.31297469547E+02 -0.52101666817E+01  0.59301948725E+02  0.50000008566E+02 0.  0.
        -12    1    1    2    0    0  0.31690422890E+01 -0.31297469547E+02  0.52101666817E+01  0.31886051275E+02  0.00000000000E+00 0.  1.
         11    1    3    3    0    0  0.48409296161E+01  0.18938866230E+02  0.12496432693E+02  0.23200777659E+02  0.51100000000E-03 0. -1.
        -11    1    3    3    0    0 -0.37653616144E+01  0.18440309673E+02 -0.20812739773E+02  0.28060525762E+02  0.51100000000E-03 0.  1.
         12    1    3    3    0    0 -0.42446102907E+01 -0.60817063566E+01  0.31061403984E+01  0.80406453039E+01  0.00000000000E+00 0. -1.
</event>
<event>
 7    1  0.6055092E-013  0.5930194E+02  0.7816164E-02  0.1266605E+00
        -11   -1    0    0    0    0  0.00000000000E+00  0.00000000000E+00  0.45593999997E+02  0.45594000000E+02  0.51100000000E-03 0. -1.
         11   -1    0    0    0    0 -0.00000000000E+00 -0.00000000000E+00 -0.45593999997E+02  0.45594000000E+02  0.51100000000E-03 0.  1.
    9900012    2    1    2    0    0 -0.14517164202E+02  0.28257496648E+02 -0.27362270913E+01  0.59301935457E+02  0.49999984370E+02 0.  0.
        -12    1    1    2    0    0  0.14517164202E+02 -0.28257496648E+02  0.27362270913E+01  0.31886064543E+02  0.00000000000E+00 0.  1.
         11    1    3    3    0    0  0.88731911067E+01 -0.80678862566E+00  0.78369788254E+01  0.11866029904E+02  0.51100000000E-03 0. -1.
        -11    1    3    3    0    0 -0.70266961583E+01  0.26987297855E+02 -0.12991351083E+02  0.30764653544E+02  0.51100000000E-03 0.  1.
         12    1    3    3    0    0 -0.16363659151E+02  0.20769874187E+01  0.24181451664E+01  0.16671252010E+02  0.00000000000E+00 0. -1.
</event>
<event>
 7    1  0.6055092E-013  0.5930193E+02  0.7816164E-02  0.1266605E+00
        -11   -1    0    0    0    0  0.00000000000E+00  0.00000000000E+00  0.45593999997E+02  0.45594000000E+02  0.51100000000E-03 0.  1.
         11   -1    0    0    0    0 -0.00000000000E+00 -0.00000000000E+00 -0.45593999997E+02  0.45594000000E+02  0.51100000000E-03 0. -1.
    9900012    2    1    2    0    0 -0.20579839120E+02  0.19064785772E+02 -0.15156705634E+02  0.59301928427E+02  0.49999971548E+02 0.  0.
        -12    1    1    2    0    0  0.20579839120E+02 -0.19064785772E+02  0.15156705634E+02  0.31886071573E+02  0.00000000000E+00 0.  1.
         11    1    3    3    0    0  0.45143228536E+01  0.16000007162E+02 -0.13361845390E+02  0.21328812731E+02  0.51100000000E-03 0. -1.
        -11    1    3    3    0    0 -0.30776804473E+02  0.26021594520E+01 -0.52160905556E+01  0.31323960929E+02  0.51100000000E-03 0.  1.
        -12    1    3    3    0    0  0.56826424994E+01  0.46261915749E+00  0.34212303121E+01  0.66491547665E+01  0.00000000000E+00 0.  1.
</event>
<event>
 7    1  0.6055092E-013  0.5930185E+02  0.7816164E-02  0.1266605E+00
        -11   -1    0    0    0    0  0.00000000000E+00  0.00000000000E+00  0.45593999997E+02  0.45594000000E+02  0.51100000000E-03 0.  1.
         11   -1    0    0    0    0 -0.00000000000E+00 -0.00000000000E+00 -0.45593999997E+02  0.45594000000E+02  0.51100000000E-03 0. -1.
    9900012    2    1    2    0    0  0.16916801163E+01 -0.29936009696E+02  0.10848968016E+02  0.59301849948E+02  0.49999828421E+02 0.  0.
        -12    1    1    2    0    0 -0.16916801163E+01  0.29936009696E+02 -0.10848968016E+02  0.31886150052E+02  0.00000000000E+00 0.  1.
         11    1    3    3    0    0  0.31676718571E+01  0.99517508109E+01 -0.56426134818E+01  0.11870576075E+02  0.51100000000E-03 0. -1.
        -11    1    3    3    0    0  0.53437161220E+01 -0.86589734120E+01  0.11024384860E+02  0.15002339295E+02  0.51100000000E-03 0.  1.
         12    1    3    3    0    0 -0.68197078629E+01 -0.31228787095E+02  0.54671966385E+01  0.32428934577E+02  0.00000000000E+00 0. -1.
</event>
<event>
 7    1  0.6055092E-013  0.5930195E+02  0.7816164E-02  0.1266605E+00
        -11   -1    0    0    0    0  0.00000000000E+00  0.00000000000E+00  0.45593999997E+02  0.45594000000E+02  0.51100000000E-03 0.  1.
         11   -1    0    0    0    0 -0.00000000000E+00 -0.00000000000E+00 -0.45593999997E+02  0.45594000000E+02  0.51100000000E-03 0. -1.
    9900012    2    1    2    0    0 -0.93179920679E+00 -0.34783236101E+01 -0.31682059434E+02  0.59301954857E+02  0.50000019750E+02 0.  0.
        -12    1    1    2    0    0  0.93179920679E+00  0.34783236101E+01  0.31682059434E+02  0.31886045143E+02  0.00000000000E+00 0.  1.
         11    1    3    3    0    0 -0.19886007526E+02 -0.16186271536E+01 -0.19143575455E+02  0.27650492413E+02  0.51100000000E-03 0. -1.
        -11    1    3    3    0    0  0.22053286098E+02 -0.66443413629E+01 -0.11871615996E+02  0.25911965701E+02  0.51100000000E-03 0.  1.
        -12    1    3    3    0    0 -0.30990777788E+01  0.47846449063E+01 -0.66686798275E+00  0.57394967432E+01  0.00000000000E+00 0.  1.
</event>
<event>
 7    1  0.6055092E-013  0.5930196E+02  0.7816164E-02  0.1266605E+00
        -11   -1    0    0    0    0  0.00000000000E+00  0.00000000000E+00  0.45593999997E+02  0.45594000000E+02  0.51100000000E-03 0.  1.
         11   -1    0    0    0    0 -0.00000000000E+00 -0.00000000000E+00 -0.45593999997E+02  0.45594000000E+02  0.51100000000E-03 0. -1.
    9900012    2    1    2    0    0  0.11010968970E+02  0.12294832261E+02 -0.27282146165E+02  0.59301955445E+02  0.50000020822E+02 0.  0.
        -12    1    1    2    0    0 -0.11010968970E+02 -0.12294832261E+02  0.27282146165E+02  0.31886044555E+02  0.00000000000E+00 0.  1.
         11    1    3    3    0    0  0.19331837058E+02  0.16309984000E+02 -0.16524154458E+02  0.30212301848E+02  0.51100000000E-03 0. -1.
        -11    1    3    3    0    0 -0.12316287112E+02 -0.82660265112E+01 -0.15586780783E+02  0.21516641419E+02  0.51100000000E-03 0.  1.
        -12    1    3    3    0    0  0.39954190240E+01  0.42508747730E+01  0.48287890762E+01  0.75730121785E+01  0.00000000000E+00 0.  1.
</event>
<event>
 7    1  0.6055092E-013  0.5930193E+02  0.7816164E-02  0.1266605E+00
        -11   -1    0    0    0    0  0.00000000000E+00  0.00000000000E+00  0.45593999997E+02  0.45594000000E+02  0.51100000000E-03 0.  1.
         11   -1    0    0    0    0 -0.00000000000E+00 -0.00000000000E+00 -0.45593999997E+02  0.45594000000E+02  0.51100000000E-03 0. -1.
    9900012    2    1    2    0    0 -0.20210558365E+02  0.24436381186E+02  0.33343575117E+01  0.59301931962E+02  0.49999977996E+02 0.  0.
        -12    1    1    2    0    0  0.20210558365E+02 -0.24436381186E+02 -0.33343575117E+01  0.31886068038E+02  0.00000000000E+00 0.  1.
         11    1    3    3    0    0  0.60381497331E+01  0.27111503645E+02 -0.26821289952E+00  0.27777055649E+02  0.51100000000E-03 0. -1.
        -11    1    3    3    0    0 -0.28696160581E+02 -0.22410818845E+01  0.28319495511E+01  0.28922517501E+02  0.51100000000E-03 0.  1.
         12    1    3    3    0    0  0.24474524831E+01 -0.43404057461E+00  0.77062086008E+00  0.26023588122E+01  0.00000000000E+00 0. -1.
</event>
<event>
 7    1  0.6055092E-013  0.5930202E+02  0.7816164E-02  0.1266604E+00
        -11   -1    0    0    0    0  0.00000000000E+00  0.00000000000E+00  0.45593999997E+02  0.45594000000E+02  0.51100000000E-03 0. -1.
         11   -1    0    0    0    0 -0.00000000000E+00 -0.00000000000E+00 -0.45593999997E+02  0.45594000000E+02  0.51100000000E-03 0.  1.
    9900012    2    1    2    0    0  0.30556645015E+01  0.31578980856E+02 -0.31853604210E+01  0.59302021287E+02  0.50000140903E+02 0.  0.
        -12    1    1    2    0    0 -0.30556645015E+01 -0.31578980856E+02  0.31853604210E+01  0.31885978713E+02  0.00000000000E+00 0.  1.
         11    1    3    3    0    0  0.21501817533E+02  0.15693807315E+02 -0.77205843467E+01  0.27716983389E+02  0.51100000000E-03 0.  1.
        -11    1    3    3    0    0 -0.10086228711E+02  0.96648203740E+01  0.12281932444E+02  0.18600715774E+02  0.51100000000E-03 0. -1.
        -12    1    3    3    0    0 -0.83599243202E+01  0.62203531671E+01 -0.77467085188E+01  0.12984322125E+02  0.00000000000E+00 0.  1.
</event>
<event>
 7    1  0.6055092E-013  0.5930198E+02  0.7816164E-02  0.1266605E+00
        -11   -1    0    0    0    0  0.00000000000E+00  0.00000000000E+00  0.45593999997E+02  0.45594000000E+02  0.51100000000E-03 0.  1.
         11   -1    0    0    0    0 -0.00000000000E+00 -0.00000000000E+00 -0.45593999997E+02  0.45594000000E+02  0.51100000000E-03 0. -1.
    9900012    2    1    2    0    0 -0.78516538706E+01 -0.23729407888E+02 -0.19798617067E+02  0.59301976338E+02  0.50000058927E+02 0.  0.
        -12    1    1    2    0    0  0.78516538706E+01  0.23729407888E+02  0.19798617067E+02  0.31886023662E+02  0.00000000000E+00 0.  1.
         11    1    3    3    0    0 -0.16415700449E+01  0.68479951191E+01 -0.13552624921E+02  0.15272964083E+02  0.51100000000E-03 0. -1.
        -11    1    3    3    0    0  0.12422123278E+02 -0.12532862649E+02 -0.25438871309E+01  0.17828436693E+02  0.51100000000E-03 0.  1.
        -12    1    3    3    0    0 -0.18632207104E+02 -0.18044540358E+02 -0.37021050145E+01  0.26200575563E+02  0.00000000000E+00 0.  1.
</event>
<event>
 7    1  0.6055092E-013  0.5930199E+02  0.7816164E-02  0.1266605E+00
        -11   -1    0    0    0    0  0.00000000000E+00  0.00000000000E+00  0.45593999997E+02  0.45594000000E+02  0.51100000000E-03 0. -1.
         11   -1    0    0    0    0 -0.00000000000E+00 -0.00000000000E+00 -0.45593999997E+02  0.45594000000E+02  0.51100000000E-03 0.  1.
    9900012    2    1    2    0    0 -0.23789014847E+02  0.31088944313E+01  0.21003220624E+02  0.59301988513E+02  0.50000081130E+02 0.  0.
        -12    1    1    2    0    0  0.23789014847E+02 -0.31088944313E+01 -0.21003220624E+02  0.31886011487E+02  0.00000000000E+00 0.  1.
         11    1    3    3    0    0 -0.95421775223E+01  0.14866832534E+02 -0.10165103551E+02  0.20381491406E+02  0.51100000000E-03 0. -1.
        -11    1    3    3    0    0  0.13623887922E+01 -0.32239020361E+01  0.59795340254E+00  0.35506613599E+01  0.51100000000E-03 0.  1.
         12    1    3    3    0    0 -0.15609226117E+02 -0.85340360665E+01  0.30570370773E+02  0.35369835747E+02  0.00000000000E+00 0. -1.
</event>
<event>
 7    1  0.6055092E-013  0.5930195E+02  0.7816164E-02  0.1266605E+00
        -11   -1    0    0    0    0  0.00000000000E+00  0.00000000000E+00  0.45593999997E+02  0.45594000000E+02  0.51100000000E-03 0. -1.
         11   -1    0    0    0    0 -0.00000000000E+00 -0.00000000000E+00 -0.45593999997E+02  0.45594000000E+02  0.51100000000E-03 0.  1.
    9900012    2    1    2    0    0  0.11814500840E+02 -0.12043218756E+02  0.27057316913E+02  0.59301953732E+02  0.50000017698E+02 0.  0.
        -12    1    1    2    0    0 -0.11814500840E+02  0.12043218756E+02 -0.27057316913E+02  0.31886046268E+02  0.00000000000E+00 0.  1.
         11    1    3    3    0    0  0.33635914188E+01  0.22106245783E+01  0.16986452994E+02  0.17456809383E+02  0.51100000000E-03 0. -1.
        -11    1    3    3    0    0  0.13344332741E+01 -0.26306542374E+02  0.42271960089E+01  0.26677407486E+02  0.51100000000E-03 0.  1.
        -12    1    3    3    0    0  0.71164761472E+01  0.12052699039E+02  0.58436679096E+01  0.15167736862E+02  0.00000000000E+00 0.  1.
</event>
<event>
 7    1  0.6055092E-013  0.5930193E+02  0.7816164E-02  0.1266605E+00
        -11   -1    0    0    0    0  0.00000000000E+00  0.00000000000E+00  0.45593999997E+02  0.45594000000E+02  0.51100000000E-03 0.  1.
         11   -1    0    0    0    0 -0.00000000000E+00 -0.00000000000E+00 -0.45593999997E+02  0.45594000000E+02  0.51100000000E-03 0. -1.
    9900012    2    1    2    0    0  0.32162542564E+01 -0.25445810520E+02 -0.18944338978E+02  0.59301928687E+02  0.49999972023E+02 0.  0.
        -12    1    1    2    0    0 -0.32162542564E+01  0.25445810520E+02  0.18944338978E+02  0.31886071313E+02  0.00000000000E+00 0.  1.
         11    1    3    3    0    0 -0.99694846708E+01 -0.51668793810E+01 -0.26254275890E+02  0.28554759146E+02  0.51100000000E-03 0. -1.
        -11    1    3    3    0    0  0.15758677647E+02 -0.18521104666E+02  0.17592068029E+01  0.24381592403E+02  0.51100000000E-03 0.  1.
         12    1    3    3    0    0 -0.25729387200E+01 -0.17578264725E+01  0.55507301089E+01  0.63655771385E+01  0.00000000000E+00 0. -1.
</event>
<event>
 7    1  0.6055092E-013  0.5930195E+02  0.7816164E-02  0.1266605E+00
        -11   -1    0    0    0    0  0.00000000000E+00  0.00000000000E+00  0.45593999997E+02  0.45594000000E+02  0.51100000000E-03 0. -1.
         11   -1    0    0    0    0 -0.00000000000E+00 -0.00000000000E+00 -0.45593999997E+02  0.45594000000E+02  0.51100000000E-03 0.  1.
    9900012    2    1    2    0    0  0.14686086348E+01 -0.19395870829E+00  0.31851623046E+02  0.59301947846E+02  0.50000006964E+02 0.  0.
        -12    1    1    2    0    0 -0.14686086348E+01  0.19395870829E+00 -0.31851623046E+02  0.31886052154E+02  0.00000000000E+00 0.  1.
         11    1    3    3    0    0  0.17403348125E+02 -0.52223240278E+01  0.28033009354E+01  0.18384985466E+02  0.51100000000E-03 0. -1.
        -11    1    3    3    0    0 -0.12037179112E+02 -0.82260391480E+01  0.11418532675E+02  0.18518755081E+02  0.51100000000E-03 0.  1.
        -12    1    3    3    0    0 -0.38975603782E+01  0.13254404468E+02  0.17629789435E+02  0.22398207299E+02  0.00000000000E+00 0.  1.
</event>
<event>
 7    1  0.6055092E-013  0.5930195E+02  0.7816164E-02  0.1266605E+00
        -11   -1    0    0    0    0  0.00000000000E+00  0.00000000000E+00  0.45593999997E+02  0.45594000000E+02  0.51100000000E-03 0. -1.
         11   -1    0    0    0    0 -0.00000000000E+00 -0.00000000000E+00 -0.45593999997E+02  0.45594000000E+02  0.51100000000E-03 0.  1.
    9900012    2    1    2    0    0 -0.14738513560E+02 -0.24148694171E+02 -0.14708401719E+02  0.59301948297E+02  0.50000007786E+02 0.  0.
        -12    1    1    2    0    0  0.14738513560E+02  0.24148694171E+02  0.14708401719E+02  0.31886051703E+02  0.00000000000E+00 0.  1.
         11    1    3    3    0    0 -0.97884274029E+01  0.10151690883E+02 -0.42683101716E+01  0.14733927202E+02  0.51100000000E-03 0.  1.
        -11    1    3    3    0    0 -0.13412833962E+02 -0.31757939545E+02 -0.77991786472E+01  0.35345410266E+02  0.51100000000E-03 0. -1.
         12    1    3    3    0    0  0.84627478048E+01 -0.25424455082E+01 -0.26409128998E+01  0.92226108296E+01  0.00000000000E+00 0. -1.
</event>
<event>
 7    1  0.6055092E-013  0.5930199E+02  0.7816164E-02  0.1266605E+00
        -11   -1    0    0    0    0  0.00000000000E+00  0.00000000000E+00  0.45593999997E+02  0.45594000000E+02  0.51100000000E-03 0. -1.
         11   -1    0    0    0    0 -0.00000000000E+00 -0.00000000000E+00 -0.45593999997E+02  0.45594000000E+02  0.51100000000E-03 0.  1.
    9900012    2    1    2    0    0 -0.27410759839E+02 -0.14652095842E+02 -0.71192752513E+01  0.59301988214E+02  0.50000080585E+02 0.  0.
        -12    1    1    2    0    0  0.27410759839E+02  0.14652095842E+02  0.71192752513E+01  0.31886011786E+02  0.00000000000E+00 0.  1.
         11    1    3    3    0    0 -0.13946404352E+02  0.12029218069E+01  0.11318077689E+02  0.18001336007E+02  0.51100000000E-03 0.  1.
        -11    1    3    3    0    0  0.81753698235E+01 -0.10972742043E+02 -0.23166865856E+01  0.13878212302E+02  0.51100000000E-03 0. -1.
        -12    1    3    3    0    0 -0.21639725311E+02 -0.48822756054E+01 -0.16120666354E+02  0.27422439905E+02  0.00000000000E+00 0.  1.
</event>
<event>
 7    1  0.6055092E-013  0.5930195E+02  0.7816164E-02  0.1266605E+00
        -11   -1    0    0    0    0  0.00000000000E+00  0.00000000000E+00  0.45593999997E+02  0.45594000000E+02  0.51100000000E-03 0.  1.
         11   -1    0    0    0    0 -0.00000000000E+00 -0.00000000000E+00 -0.45593999997E+02  0.45594000000E+02  0.51100000000E-03 0. -1.
    9900012    2    1    2    0    0  0.30102357065E+02  0.10141077785E+01 -0.10466124531E+02  0.59301951669E+02  0.50000013937E+02 0.  0.
        -12    1    1    2    0    0 -0.30102357065E+02 -0.10141077785E+01  0.10466124531E+02  0.31886048331E+02  0.00000000000E+00 0.  1.
         11    1    3    3    0    0  0.10500391571E+02 -0.76352925217E+00 -0.72865711439E+01  0.12803722871E+02  0.51100000000E-03 0. -1.
        -11    1    3    3    0    0 -0.22682966045E+01  0.14554823103E+02  0.10137400985E+02  0.17881692986E+02  0.51100000000E-03 0.  1.
        -12    1    3    3    0    0  0.21870262099E+02 -0.12777186072E+02 -0.13316954373E+02  0.28616535813E+02  0.00000000000E+00 0.  1.
</event>
<event>
 7    1  0.6055092E-013  0.5930195E+02  0.7816164E-02  0.1266605E+00
        -11   -1    0    0    0    0  0.00000000000E+00  0.00000000000E+00  0.45593999997E+02  0.45594000000E+02  0.51100000000E-03 0.  1.
         11   -1    0    0    0    0 -0.00000000000E+00 -0.00000000000E+00 -0.45593999997E+02  0.45594000000E+02  0.51100000000E-03 0. -1.
    9900012    2    1    2    0    0  0.94592523672E+01 -0.29717564724E+02 -0.66414871895E+01  0.59301945673E+02  0.50000003001E+02 0.  0.
        -12    1    1    2    0    0 -0.94592523672E+01  0.29717564724E+02  0.66414871895E+01  0.31886054327E+02  0.00000000000E+00 0.  1.
         11    1    3    3    0    0 -0.12983549161E+01 -0.30231246515E+02 -0.46283654031E+01  0.30611039805E+02  0.51100000000E-03 0. -1.
        -11    1    3    3    0    0 -0.87392217416E+00  0.89347745681E+01  0.73038706252E+01  0.11573265007E+02  0.51100000000E-03 0.  1.
        -12    1    3    3    0    0  0.11631529458E+02 -0.84210927764E+01 -0.93169924116E+01  0.17117640862E+02  0.00000000000E+00 0.  1.
</event>
<event>
 7    1  0.6055092E-013  0.5930196E+02  0.7816164E-02  0.1266605E+00
        -11   -1    0    0    0    0  0.00000000000E+00  0.00000000000E+00  0.45593999997E+02  0.45594000000E+02  0.51100000000E-03 0. -1.
         11   -1    0    0    0    0 -0.00000000000E+00 -0.00000000000E+00 -0.45593999997E+02  0.45594000000E+02  0.51100000000E-03 0.  1.
    9900012    2    1    2    0    0 -0.28785720816E+01  0.31245419271E+02  0.56707358114E+01  0.59301958426E+02  0.50000026259E+02 0.  0.
        -12    1    1    2    0    0  0.28785720816E+01 -0.31245419271E+02 -0.56707358114E+01  0.31886041574E+02  0.00000000000E+00 0.  1.
         11    1    3    3    0    0 -0.14304439356E+02  0.16621823907E+02  0.14232208742E+02  0.26143025480E+02  0.51100000000E-03 0. -1.
        -11    1    3    3    0    0  0.17140540607E+01  0.16360769456E+01 -0.15383793502E+02  0.15565212234E+02  0.51100000000E-03 0.  1.
        -12    1    3    3    0    0  0.97118132133E+01  0.12987518418E+02  0.68223205711E+01  0.17593720713E+02  0.00000000000E+00 0.  1.
</event>
<event>
 7    1  0.6055092E-013  0.5930195E+02  0.7816164E-02  0.1266605E+00
        -11   -1    0    0    0    0  0.00000000000E+00  0.00000000000E+00  0.45593999997E+02  0.45594000000E+02  0.51100000000E-03 0.  1.
         11   -1    0    0    0    0 -0.00000000000E+00 -0.00000000000E+00 -0.45593999997E+02  0.45594000000E+02  0.51100000000E-03 0. -1.
    9900012    2    1    2    0    0  0.28280730408E+02  0.78833457302E+01 -0.12440790221E+02  0.59301951113E+02  0.50000012921E+02 0.  0.
        -12    1    1    2    0    0 -0.28280730408E+02 -0.78833457302E+01  0.12440790221E+02  0.31886048887E+02  0.00000000000E+00 0.  1.
         11    1    3    3    0    0  0.10049508138E+02  0.18459759663E+02 -0.24681563424E+02  0.32418126317E+02  0.51100000000E-03 0. -1.
        -11    1    3    3    0    0  0.13811893591E+02 -0.88744460811E+01  0.14250414307E+02  0.21739330855E+02  0.51100000000E-03 0.  1.
        -12    1    3    3    0    0  0.44193286782E+01 -0.17019678518E+01 -0.20096411047E+01  0.51444939405E+01  0.00000000000E+00 0.  1.
</event>
<event>
 7    1  0.6055092E-013  0.5930194E+02  0.7816164E-02  0.1266605E+00
        -11   -1    0    0    0    0  0.00000000000E+00  0.00000000000E+00  0.45593999997E+02  0.45594000000E+02  0.51100000000E-03 0.  1.
         11   -1    0    0    0    0 -0.00000000000E+00 -0.00000000000E+00 -0.45593999997E+02  0.45594000000E+02  0.51100000000E-03 0. -1.
    9900012    2    1    2    0    0 -0.29804063665E+02  0.22500404093E+00 -0.11330833853E+02  0.59301942960E+02  0.49999998053E+02 0.  0.
        -12    1    1    2    0    0  0.29804063665E+02 -0.22500404093E+00  0.11330833853E+02  0.31886057040E+02  0.00000000000E+00 0.  1.
         11    1    3    3    0    0  0.14922832257E+01  0.48257627747E+01 -0.11563672260E+02  0.12618772205E+02  0.51100000000E-03 0. -1.
        -11    1    3    3    0    0 -0.12173907068E+02 -0.62976237727E+01  0.16549465046E+02  0.21488342702E+02  0.51100000000E-03 0.  1.
        -12    1    3    3    0    0 -0.19122439822E+02  0.16968650390E+01 -0.16316626640E+02  0.25194828053E+02  0.00000000000E+00 0.  1.
</event>
<event>
 7    1  0.6055092E-013  0.5930198E+02  0.7816164E-02  0.1266605E+00
        -11   -1    0    0    0    0  0.00000000000E+00  0.00000000000E+00  0.45593999997E+02  0.45594000000E+02  0.51100000000E-03 0.  1.
         11   -1    0    0    0    0 -0.00000000000E+00 -0.00000000000E+00 -0.45593999997E+02  0.45594000000E+02  0.51100000000E-03 0. -1.
    9900012    2    1    2    0    0 -0.59111455140E+01  0.11724637266E+02 -0.29057000193E+02  0.59301983934E+02  0.50000072780E+02 0.  0.
        -12    1    1    2    0    0  0.59111455140E+01 -0.11724637266E+02  0.29057000193E+02  0.31886016066E+02  0.00000000000E+00 0.  1.
         11    1    3    3    0    0  0.15295599399E+02 -0.52320704914E+00 -0.12600831679E+02  0.19824481478E+02  0.51100000000E-03 0. -1.
        -11    1    3    3    0    0 -0.63783912333E+01  0.72409428388E+01  0.65426533693E+01  0.11658535126E+02  0.51100000000E-03 0.  1.
         12    1    3    3    0    0 -0.14828353680E+02  0.50069014763E+01 -0.22998821884E+02  0.27818967330E+02  0.00000000000E+00 0. -1.
</event>
<event>
 7    1  0.6055092E-013  0.5930197E+02  0.7816164E-02  0.1266605E+00
        -11   -1    0    0    0    0  0.00000000000E+00  0.00000000000E+00  0.45593999997E+02  0.45594000000E+02  0.51100000000E-03 0. -1.
         11   -1    0    0    0    0 -0.00000000000E+00 -0.00000000000E+00 -0.45593999997E+02  0.45594000000E+02  0.51100000000E-03 0.  1.
    9900012    2    1    2    0    0  0.29767803046E+02 -0.27697137911E+01  0.11087179541E+02  0.59301969159E+02  0.50000045833E+02 0.  0.
        -12    1    1    2    0    0 -0.29767803046E+02  0.27697137911E+01 -0.11087179541E+02  0.31886030841E+02  0.00000000000E+00 0.  1.
         11    1    3    3    0    0  0.76887902019E+01  0.37899323254E+01  0.20413954233E+02  0.22140700293E+02  0.51100000000E-03 0. -1.
        -11    1    3    3    0    0  0.54615220472E+00 -0.11813984763E+02 -0.92207454444E+01  0.14996355058E+02  0.51100000000E-03 0.  1.
         12    1    3    3    0    0  0.21532860639E+02  0.52543386462E+01 -0.10602924747E+00  0.22164913808E+02  0.00000000000E+00 0. -1.
</event>
<event>
 7    1  0.6055092E-013  0.5930194E+02  0.7816164E-02  0.1266605E+00
        -11   -1    0    0    0    0  0.00000000000E+00  0.00000000000E+00  0.45593999997E+02  0.45594000000E+02  0.51100000000E-03 0.  1.
         11   -1    0    0    0    0 -0.00000000000E+00 -0.00000000000E+00 -0.45593999997E+02  0.45594000000E+02  0.51100000000E-03 0. -1.
    9900012    2    1    2    0    0  0.13650356034E+02 -0.26800153276E+01 -0.28691564175E+02  0.59301944163E+02  0.50000000247E+02 0.  0.
        -12    1    1    2    0    0 -0.13650356034E+02  0.26800153276E+01  0.28691564175E+02  0.31886055837E+02  0.00000000000E+00 0.  1.
         11    1    3    3    0    0  0.84760800899E+01  0.48158979335E+01 -0.36066650091E+02  0.37360942917E+02  0.51100000000E-03 0. -1.
        -11    1    3    3    0    0  0.49289635021E+00 -0.11069611064E+02 -0.16107870408E+01  0.11197047426E+02  0.51100000000E-03 0.  1.
         12    1    3    3    0    0  0.46813795943E+01  0.35736978025E+01  0.89858729567E+01  0.10743953820E+02  0.00000000000E+00 0. -1.
</event>
<event>
 7    1  0.6055092E-013  0.5930195E+02  0.7816164E-02  0.1266605E+00
        -11   -1    0    0    0    0  0.00000000000E+00  0.00000000000E+00  0.45593999997E+02  0.45594000000E+02  0.51100000000E-03 0. -1.
         11   -1    0    0    0    0 -0.00000000000E+00 -0.00000000000E+00 -0.45593999997E+02  0.45594000000E+02  0.51100000000E-03 0.  1.
    9900012    2    1    2    0    0 -0.29903004844E+02  0.96231129080E+00  0.11027434434E+02  0.59301952080E+02  0.50000014686E+02 0.  0.
        -12    1    1    2    0    0  0.29903004844E+02 -0.96231129080E+00 -0.11027434434E+02  0.31886047920E+02  0.00000000000E+00 0.  1.
         11    1    3    3    0    0 -0.54845743827E+01  0.99886326915E+01 -0.14194205175E+02  0.18202439398E+02  0.51100000000E-03 0. -1.
        -11    1    3    3    0    0  0.29407621236E+01  0.93294903445E+00  0.40926748989E+01  0.51252769543E+01  0.51100000000E-03 0.  1.
         12    1    3    3    0    0 -0.27359192585E+02 -0.99592704351E+01  0.21128964710E+02  0.35974235728E+02  0.00000000000E+00 0. -1.
</event>
<event>
 7    1  0.6055092E-013  0.5930192E+02  0.7816164E-02  0.1266605E+00
        -11   -1    0    0    0    0  0.00000000000E+00  0.00000000000E+00  0.45593999997E+02  0.45594000000E+02  0.51100000000E-03 0.  1.
         11   -1    0    0    0    0 -0.00000000000E+00 -0.00000000000E+00 -0.45593999997E+02  0.45594000000E+02  0.51100000000E-03 0. -1.
    9900012    2    1    2    0    0 -0.19208970079E+02 -0.24993295161E+02 -0.48034416632E+01  0.59301915475E+02  0.49999947927E+02 0.  0.
        -12    1    1    2    0    0  0.19208970079E+02  0.24993295161E+02  0.48034416632E+01  0.31886084525E+02  0.00000000000E+00 0.  1.
         11    1    3    3    0    0 -0.24551151587E+02  0.51172590106E+01  0.36043440094E+01  0.25336469367E+02  0.51100000000E-03 0. -1.
        -11    1    3    3    0    0 -0.15484078214E+01 -0.15606952225E+02  0.32541020512E+00  0.15686950520E+02  0.51100000000E-03 0.  1.
         12    1    3    3    0    0  0.68905893290E+01 -0.14503601947E+02 -0.87331958777E+01  0.18278495588E+02  0.00000000000E+00 0. -1.
</event>
<event>
 7    1  0.6055092E-013  0.5930192E+02  0.7816164E-02  0.1266605E+00
        -11   -1    0    0    0    0  0.00000000000E+00  0.00000000000E+00  0.45593999997E+02  0.45594000000E+02  0.51100000000E-03 0. -1.
         11   -1    0    0    0    0 -0.00000000000E+00 -0.00000000000E+00 -0.45593999997E+02  0.45594000000E+02  0.51100000000E-03 0.  1.
    9900012    2    1    2    0    0 -0.61365828328E+01 -0.31271045499E+02  0.10890817394E+01  0.59301920993E+02  0.49999957989E+02 0.  0.
        -12    1    1    2    0    0  0.61365828328E+01  0.31271045499E+02 -0.10890817394E+01  0.31886079007E+02  0.00000000000E+00 0.  1.
         11    1    3    3    0    0 -0.16931525039E+02 -0.20740010186E+02 -0.84038719213E+01  0.28061532856E+02  0.51100000000E-03 0. -1.
        -11    1    3    3    0    0  0.12542703632E+02 -0.27436225550E+01  0.16300892082E+02  0.20750083423E+02  0.51100000000E-03 0.  1.
        -12    1    3    3    0    0 -0.17477614258E+01 -0.77874127570E+01 -0.68079384212E+01  0.10490304714E+02  0.00000000000E+00 0.  1.
</event>
<event>
 7    1  0.6055092E-013  0.5930194E+02  0.7816164E-02  0.1266605E+00
        -11   -1    0    0    0    0  0.00000000000E+00  0.00000000000E+00  0.45593999997E+02  0.45594000000E+02  0.51100000000E-03 0.  1.
         11   -1    0    0    0    0 -0.00000000000E+00 -0.00000000000E+00 -0.45593999997E+02  0.45594000000E+02  0.51100000000E-03 0. -1.
    9900012    2    1    2    0    0 -0.10295922280E+02 -0.17563159057E+02 -0.24540782980E+02  0.59301943472E+02  0.49999998987E+02 0.  0.
        -12    1    1    2    0    0  0.10295922280E+02  0.17563159057E+02  0.24540782980E+02  0.31886056528E+02  0.00000000000E+00 0.  1.
         11    1    3    3    0    0 -0.72213120850E+01  0.15933416846E+02 -0.13268901992E+02  0.21956431426E+02  0.51100000000E-03 0. -1.
        -11    1    3    3    0    0  0.17635672397E+01 -0.24918957062E+02 -0.44730879059E+01  0.25378595432E+02  0.51100000000E-03 0.  1.
         12    1    3    3    0    0 -0.48381774349E+01 -0.85776188411E+01 -0.67987930820E+01  0.11966916614E+02  0.00000000000E+00 0. -1.
</event>
<event>
 7    1  0.6055092E-013  0.5930195E+02  0.7816164E-02  0.1266605E+00
        -11   -1    0    0    0    0  0.00000000000E+00  0.00000000000E+00  0.45593999997E+02  0.45594000000E+02  0.51100000000E-03 0. -1.
         11   -1    0    0    0    0 -0.00000000000E+00 -0.00000000000E+00 -0.45593999997E+02  0.45594000000E+02  0.51100000000E-03 0.  1.
    9900012    2    1    2    0    0  0.16879873607E+01 -0.22276028434E+02  0.22751909658E+02  0.59301950743E+02  0.50000012248E+02 0.  0.
        -12    1    1    2    0    0 -0.16879873607E+01  0.22276028434E+02 -0.22751909658E+02  0.31886049257E+02  0.00000000000E+00 0.  1.
         11    1    3    3    0    0 -0.30193044930E+01 -0.19617689277E+02 -0.51609943842E+01  0.20508676102E+02  0.51100000000E-03 0.  1.
        -11    1    3    3    0    0 -0.17063409064E+01 -0.21255878793E+01  0.31369726161E+02  0.31487925349E+02  0.51100000000E-03 0. -1.
         12    1    3    3    0    0  0.64136327601E+01 -0.53275127842E+00 -0.34568221195E+01  0.73053492916E+01  0.00000000000E+00 0. -1.
</event>
<event>
 7    1  0.6055092E-013  0.5930193E+02  0.7816164E-02  0.1266605E+00
        -11   -1    0    0    0    0  0.00000000000E+00  0.00000000000E+00  0.45593999997E+02  0.45594000000E+02  0.51100000000E-03 0.  1.
         11   -1    0    0    0    0 -0.00000000000E+00 -0.00000000000E+00 -0.45593999997E+02  0.45594000000E+02  0.51100000000E-03 0. -1.
    9900012    2    1    2    0    0  0.88607891497E+01  0.28899942080E+02 -0.10148939929E+02  0.59301933791E+02  0.49999981331E+02 0.  0.
        -12    1    1    2    0    0 -0.88607891497E+01 -0.28899942080E+02  0.10148939929E+02  0.31886066209E+02  0.00000000000E+00 0.  1.
         11    1    3    3    0    0 -0.12966095926E+02  0.24882849244E+02 -0.41583081706E+01  0.28364896566E+02  0.51100000000E-03 0. -1.
        -11    1    3    3    0    0  0.18983037221E+02 -0.48069978959E+01  0.55181382454E+00  0.19589982891E+02  0.51100000000E-03 0.  1.
         12    1    3    3    0    0  0.28438478540E+01  0.88240907318E+01 -0.65424455830E+01  0.11347054334E+02  0.00000000000E+00 0. -1.
</event>
<event>
 7    1  0.6055092E-013  0.5930194E+02  0.7816164E-02  0.1266605E+00
        -11   -1    0    0    0    0  0.00000000000E+00  0.00000000000E+00  0.45593999997E+02  0.45594000000E+02  0.51100000000E-03 0.  1.
         11   -1    0    0    0    0 -0.00000000000E+00 -0.00000000000E+00 -0.45593999997E+02  0.45594000000E+02  0.51100000000E-03 0. -1.
    9900012    2    1    2    0    0 -0.14690336563E+02  0.45912719203E+01 -0.27925523459E+02  0.59301943069E+02  0.49999998251E+02 0.  0.
        -12    1    1    2    0    0  0.14690336563E+02 -0.45912719203E+01  0.27925523459E+02  0.31886056931E+02  0.00000000000E+00 0.  1.
         11    1    3    3    0    0 -0.15977320396E+02 -0.76728198499E+01 -0.20400263080E+02  0.27024390196E+02  0.51100000000E-03 0. -1.
        -11    1    3    3    0    0 -0.14386721484E+01  0.19953774709E+02  0.15606104108E+01  0.20066350137E+02  0.51100000000E-03 0.  1.
        -12    1    3    3    0    0  0.27256559820E+01 -0.76896829392E+01 -0.90858707897E+01  0.12211202735E+02  0.00000000000E+00 0.  1.
</event>
<event>
 7    1  0.6055092E-013  0.5930197E+02  0.7816164E-02  0.1266605E+00
        -11   -1    0    0    0    0  0.00000000000E+00  0.00000000000E+00  0.45593999997E+02  0.45594000000E+02  0.51100000000E-03 0. -1.
         11   -1    0    0    0    0 -0.00000000000E+00 -0.00000000000E+00 -0.45593999997E+02  0.45594000000E+02  0.51100000000E-03 0.  1.
    9900012    2    1    2    0    0 -0.40303105344E+01  0.16668953853E+02  0.26881620289E+02  0.59301969596E+02  0.50000046630E+02 0.  0.
        -12    1    1    2    0    0  0.40303105344E+01 -0.16668953853E+02 -0.26881620289E+02  0.31886030404E+02  0.00000000000E+00 0.  1.
         11    1    3    3    0    0 -0.44238025779E+01  0.20268661182E+02  0.27214254586E+02  0.34219940215E+02  0.51100000000E-03 0. -1.
        -11    1    3    3    0    0  0.18633078648E+01  0.70797046911E+01 -0.87473509616E+01  0.11406589491E+02  0.51100000000E-03 0.  1.
         12    1    3    3    0    0 -0.14698158213E+01 -0.10679412020E+02  0.84147166640E+01  0.13675439890E+02  0.00000000000E+00 0. -1.
</event>
<event>
 7    1  0.6055092E-013  0.5930197E+02  0.7816164E-02  0.1266605E+00
        -11   -1    0    0    0    0  0.00000000000E+00  0.00000000000E+00  0.45593999997E+02  0.45594000000E+02  0.51100000000E-03 0.  1.
         11   -1    0    0    0    0 -0.00000000000E+00 -0.00000000000E+00 -0.45593999997E+02  0.45594000000E+02  0.51100000000E-03 0. -1.
    9900012    2    1    2    0    0 -0.23164925823E+02 -0.16868218957E+02 -0.13984578583E+02  0.59301967991E+02  0.50000043704E+02 0.  0.
        -12    1    1    2    0    0  0.23164925823E+02  0.16868218957E+02  0.13984578583E+02  0.31886032009E+02  0.00000000000E+00 0.  1.
         11    1    3    3    0    0  0.89877043424E+01 -0.29359301639E+01 -0.34526203069E+01  0.10065739045E+02  0.51100000000E-03 0. -1.
        -11    1    3    3    0    0 -0.77725520755E+01 -0.19442946419E+02 -0.12114720602E+02  0.24191055924E+02  0.51100000000E-03 0.  1.
        -12    1    3    3    0    0 -0.24380078089E+02  0.55106576265E+01  0.15827623259E+01  0.25045173022E+02  0.00000000000E+00 0.  1.
</event>
<event>
 7    1  0.6055092E-013  0.5930195E+02  0.7816164E-02  0.1266605E+00
        -11   -1    0    0    0    0  0.00000000000E+00  0.00000000000E+00  0.45593999997E+02  0.45594000000E+02  0.51100000000E-03 0.  1.
         11   -1    0    0    0    0 -0.00000000000E+00 -0.00000000000E+00 -0.45593999997E+02  0.45594000000E+02  0.51100000000E-03 0. -1.
    9900012    2    1    2    0    0  0.91049380713E+01 -0.25158854145E+02 -0.17345093202E+02  0.59301951369E+02  0.50000013388E+02 0.  0.
        -12    1    1    2    0    0 -0.91049380713E+01  0.25158854145E+02  0.17345093202E+02  0.31886048631E+02  0.00000000000E+00 0.  1.
         11    1    3    3    0    0 -0.57104993733E+01 -0.20342810996E+02 -0.60829322298E+01  0.21987310593E+02  0.51100000000E-03 0. -1.
        -11    1    3    3    0    0 -0.20755357447E+01  0.81654952355E+01  0.56247607156E+01  0.10130207028E+02  0.51100000000E-03 0.  1.
        -12    1    3    3    0    0  0.16890973189E+02 -0.12981538384E+02 -0.16886921687E+02  0.27184433748E+02  0.00000000000E+00 0.  1.
</event>
<event>
 7    1  0.6055092E-013  0.5930194E+02  0.7816164E-02  0.1266605E+00
        -11   -1    0    0    0    0  0.00000000000E+00  0.00000000000E+00  0.45593999997E+02  0.45594000000E+02  0.51100000000E-03 0. -1.
         11   -1    0    0    0    0 -0.00000000000E+00 -0.00000000000E+00 -0.45593999997E+02  0.45594000000E+02  0.51100000000E-03 0.  1.
    9900012    2    1    2    0    0 -0.98449693272E+01  0.18258380017E+02  0.24216296174E+02  0.59301939374E+02  0.49999991512E+02 0.  0.
        -12    1    1    2    0    0  0.98449693272E+01 -0.18258380017E+02 -0.24216296174E+02  0.31886060626E+02  0.00000000000E+00 0.  1.
         11    1    3    3    0    0 -0.36201961913E+01 -0.16196576997E+02  0.46924449002E+01  0.17246853808E+02  0.51100000000E-03 0.  1.
        -11    1    3    3    0    0 -0.84530705886E+01  0.22768716627E+02  0.82095236329E+01  0.25637182719E+02  0.51100000000E-03 0. -1.
        -12    1    3    3    0    0  0.22282974527E+01  0.11686240386E+02  0.11314327641E+02  0.16417902846E+02  0.00000000000E+00 0.  1.
</event>
<event>
 7    1  0.6055092E-013  0.5930194E+02  0.7816164E-02  0.1266605E+00
        -11   -1    0    0    0    0  0.00000000000E+00  0.00000000000E+00  0.45593999997E+02  0.45594000000E+02  0.51100000000E-03 0. -1.
         11   -1    0    0    0    0 -0.00000000000E+00 -0.00000000000E+00 -0.45593999997E+02  0.45594000000E+02  0.51100000000E-03 0.  1.
    9900012    2    1    2    0    0  0.11845554673E+02 -0.23799164884E+02  0.17606911029E+02  0.59301941437E+02  0.49999995275E+02 0.  0.
        -12    1    1    2    0    0 -0.11845554673E+02  0.23799164884E+02 -0.17606911029E+02  0.31886058563E+02  0.00000000000E+00 0.  1.
         11    1    3    3    0    0 -0.92188446740E+01  0.95640264537E+01  0.51961196814E+00  0.13293896945E+02  0.51100000000E-03 0. -1.
        -11    1    3    3    0    0  0.14486075629E+02 -0.13648457553E+02  0.13685075179E+01  0.19949927163E+02  0.51100000000E-03 0.  1.
         12    1    3    3    0    0  0.65783237182E+01 -0.19714733785E+02  0.15718791543E+02  0.26058117329E+02  0.00000000000E+00 0. -1.
</event>
<event>
 7    1  0.6055092E-013  0.5930183E+02  0.7816164E-02  0.1266605E+00
        -11   -1    0    0    0    0  0.00000000000E+00  0.00000000000E+00  0.45593999997E+02  0.45594000000E+02  0.51100000000E-03 0. -1.
         11   -1    0    0    0    0 -0.00000000000E+00 -0.00000000000E+00 -0.45593999997E+02  0.45594000000E+02  0.51100000000E-03 0.  1.
    9900012    2    1    2    0    0  0.29452536848E+02 -0.10671134805E+02 -0.59500051466E+01  0.59301833625E+02  0.49999798652E+02 0.  0.
        -12    1    1    2    0    0 -0.29452536848E+02  0.10671134805E+02  0.59500051466E+01  0.31886166375E+02  0.00000000000E+00 0.  1.
         11    1    3    3    0    0  0.38712959357E+02 -0.10324513847E+02 -0.61170280145E+00  0.40070724837E+02  0.51100000000E-03 0. -1.
        -11    1    3    3    0    0 -0.14968613245E+00 -0.92857982805E-01 -0.92938381519E+01  0.92955073233E+01  0.51100000000E-03 0.  1.
         12    1    3    3    0    0 -0.91107363759E+01 -0.25376297500E+00  0.39555358068E+01  0.99356014653E+01  0.00000000000E+00 0. -1.
</event>
<event>
 7    1  0.6055092E-013  0.5930195E+02  0.7816164E-02  0.1266605E+00
        -11   -1    0    0    0    0  0.00000000000E+00  0.00000000000E+00  0.45593999997E+02  0.45594000000E+02  0.51100000000E-03 0. -1.
         11   -1    0    0    0    0 -0.00000000000E+00 -0.00000000000E+00 -0.45593999997E+02  0.45594000000E+02  0.51100000000E-03 0.  1.
    9900012    2    1    2    0    0  0.19656861801E+01 -0.86452517878E+01  0.30628677829E+02  0.59301949662E+02  0.50000010276E+02 0.  0.
        -12    1    1    2    0    0 -0.19656861801E+01  0.86452517878E+01 -0.30628677829E+02  0.31886050338E+02  0.00000000000E+00 0.  1.
         11    1    3    3    0    0 -0.22230480684E+02  0.16264193998E+01  0.14457893190E+02  0.26568217615E+02  0.51100000000E-03 0. -1.
        -11    1    3    3    0    0  0.17607026456E+02 -0.93878100187E+01  0.64751631845E+01  0.20977752408E+02  0.51100000000E-03 0.  1.
         12    1    3    3    0    0  0.65891404076E+01 -0.88386116890E+00  0.96956214537E+01  0.11755979638E+02  0.00000000000E+00 0. -1.
</event>
<event>
 7    1  0.6055092E-013  0.5930195E+02  0.7816164E-02  0.1266605E+00
        -11   -1    0    0    0    0  0.00000000000E+00  0.00000000000E+00  0.45593999997E+02  0.45594000000E+02  0.51100000000E-03 0.  1.
         11   -1    0    0    0    0 -0.00000000000E+00 -0.00000000000E+00 -0.45593999997E+02  0.45594000000E+02  0.51100000000E-03 0. -1.
    9900012    2    1    2    0    0 -0.16830875705E+02 -0.27081367573E+02 -0.20383449457E+00  0.59301946699E+02  0.50000004872E+02 0.  0.
        -12    1    1    2    0    0  0.16830875705E+02  0.27081367573E+02  0.20383449457E+00  0.31886053301E+02  0.00000000000E+00 0.  1.
         11    1    3    3    0    0 -0.27828365567E+02 -0.22880011096E+02  0.80018439381E+01  0.36904503039E+02  0.51100000000E-03 0. -1.
        -11    1    3    3    0    0  0.62422987372E-01  0.70304006571E-01 -0.10445474342E+02  0.10445897461E+02  0.51100000000E-03 0.  1.
         12    1    3    3    0    0  0.10935066875E+02 -0.42716604836E+01  0.22397959093E+01  0.11951546199E+02  0.00000000000E+00 0. -1.
</event>
<event>
 7    1  0.6055092E-013  0.5930195E+02  0.7816164E-02  0.1266605E+00
        -11   -1    0    0    0    0  0.00000000000E+00  0.00000000000E+00  0.45593999997E+02  0.45594000000E+02  0.51100000000E-03 0.  1.
         11   -1    0    0    0    0 -0.00000000000E+00 -0.00000000000E+00 -0.45593999997E+02  0.45594000000E+02  0.51100000000E-03 0. -1.
    9900012    2    1    2    0    0 -0.28498308480E+02 -0.13698307352E+02 -0.41137573817E+01  0.59301949597E+02  0.50000010156E+02 0.  0.
        -12    1    1    2    0    0  0.28498308480E+02  0.13698307352E+02  0.41137573817E+01  0.31886050403E+02  0.00000000000E+00 0.  1.
         11    1    3    3    0    0 -0.48289876116E+01  0.10037460411E+02 -0.14423369442E+01  0.11231654775E+02  0.51100000000E-03 0. -1.
        -11    1    3    3    0    0 -0.34502620342E+00 -0.16609612448E+02  0.11178065704E+02  0.20023671539E+02  0.51100000000E-03 0.  1.
        -12    1    3    3    0    0 -0.23324294665E+02 -0.71261553156E+01 -0.13849486141E+02  0.28046623283E+02  0.00000000000E+00 0.  1.
</event>
<event>
 7    1  0.6055092E-013  0.5930194E+02  0.7816164E-02  0.1266605E+00
        -11   -1    0    0    0    0  0.00000000000E+00  0.00000000000E+00  0.45593999997E+02  0.45594000000E+02  0.51100000000E-03 0.  1.
         11   -1    0    0    0    0 -0.00000000000E+00 -0.00000000000E+00 -0.45593999997E+02  0.45594000000E+02  0.51100000000E-03 0. -1.
    9900012    2    1    2    0    0  0.11631405495E+02  0.22720616572E+02  0.19110330413E+02  0.59301941295E+02  0.49999995017E+02 0.  0.
        -12    1    1    2    0    0 -0.11631405495E+02 -0.22720616572E+02 -0.19110330413E+02  0.31886058705E+02  0.00000000000E+00 0.  1.
         11    1    3    3    0    0 -0.13870446203E+02  0.89009008882E+01 -0.75609083964E+01  0.18132364725E+02  0.51100000000E-03 0. -1.
        -11    1    3    3    0    0  0.33872968666E+01  0.62753637149E+01  0.10730210460E+02  0.12883764458E+02  0.51100000000E-03 0.  1.
         12    1    3    3    0    0  0.22114554832E+02  0.75443519690E+01  0.15941028350E+02  0.28285812113E+02  0.00000000000E+00 0. -1.
</event>
<event>
 7    1  0.6055092E-013  0.5930190E+02  0.7816164E-02  0.1266605E+00
        -11   -1    0    0    0    0  0.00000000000E+00  0.00000000000E+00  0.45593999997E+02  0.45594000000E+02  0.51100000000E-03 0.  1.
         11   -1    0    0    0    0 -0.00000000000E+00 -0.00000000000E+00 -0.45593999997E+02  0.45594000000E+02  0.51100000000E-03 0. -1.
    9900012    2    1    2    0    0 -0.41576826060E+01 -0.19023264603E+02 -0.25249802523E+02  0.59301898824E+02  0.49999917558E+02 0.  0.
        -12    1    1    2    0    0  0.41576826060E+01  0.19023264603E+02  0.25249802523E+02  0.31886101176E+02  0.00000000000E+00 0.  1.
         11    1    3    3    0    0 -0.36916810234E+01 -0.27004412949E+02 -0.30769787154E+02  0.41105311448E+02  0.51100000000E-03 0. -1.
        -11    1    3    3    0    0  0.27643865347E+01 -0.34367873383E+01  0.44771134964E+01  0.62847343335E+01  0.51100000000E-03 0.  1.
         12    1    3    3    0    0 -0.32303881173E+01  0.11417935685E+02  0.10428711349E+01  0.11911853042E+02  0.00000000000E+00 0. -1.
</event>
<event>
 7    1  0.6055092E-013  0.5930196E+02  0.7816164E-02  0.1266605E+00
        -11   -1    0    0    0    0  0.00000000000E+00  0.00000000000E+00  0.45593999997E+02  0.45594000000E+02  0.51100000000E-03 0. -1.
         11   -1    0    0    0    0 -0.00000000000E+00 -0.00000000000E+00 -0.45593999997E+02  0.45594000000E+02  0.51100000000E-03 0.  1.
    9900012    2    1    2    0    0  0.10830487706E+02 -0.67803332904E+00  0.29982667272E+02  0.59301960266E+02  0.50000029615E+02 0.  0.
        -12    1    1    2    0    0 -0.10830487706E+02  0.67803332904E+00 -0.29982667272E+02  0.31886039734E+02  0.00000000000E+00 0.  1.
         11    1    3    3    0    0  0.21040441779E+02 -0.87055750088E+01  0.32424205862E+02  0.39620908022E+02  0.51100000000E-03 0. -1.
        -11    1    3    3    0    0 -0.35490050264E+01 -0.17475569012E+01 -0.61254948248E+01  0.72918501706E+01  0.51100000000E-03 0.  1.
         12    1    3    3    0    0 -0.66609490463E+01  0.97750985810E+01  0.36839562357E+01  0.12389202073E+02  0.00000000000E+00 0. -1.
</event>
<event>
 7    1  0.6055092E-013  0.5930194E+02  0.7816164E-02  0.1266605E+00
        -11   -1    0    0    0    0  0.00000000000E+00  0.00000000000E+00  0.45593999997E+02  0.45594000000E+02  0.51100000000E-03 0.  1.
         11   -1    0    0    0    0 -0.00000000000E+00 -0.00000000000E+00 -0.45593999997E+02  0.45594000000E+02  0.51100000000E-03 0. -1.
    9900012    2    1    2    0    0 -0.14862248152E+02 -0.27030992424E+02 -0.80721833051E+01  0.59301935412E+02  0.49999984288E+02 0.  0.
        -12    1    1    2    0    0  0.14862248152E+02  0.27030992424E+02  0.80721833051E+01  0.31886064588E+02  0.00000000000E+00 0.  1.
         11    1    3    3    0    0 -0.12403962316E+02 -0.16835453249E+02 -0.47824499819E+01  0.21451400777E+02  0.51100000000E-03 0. -1.
        -11    1    3    3    0    0 -0.10465540424E+02  0.96746031738E+01 -0.73662248220E+01  0.16043277450E+02  0.51100000000E-03 0.  1.
        -12    1    3    3    0    0  0.80072545875E+01 -0.19870142349E+02  0.40764914987E+01  0.21807257185E+02  0.00000000000E+00 0.  1.
</event>
<event>
 7    1  0.6055092E-013  0.5930191E+02  0.7816164E-02  0.1266605E+00
        -11   -1    0    0    0    0  0.00000000000E+00  0.00000000000E+00  0.45593999997E+02  0.45594000000E+02  0.51100000000E-03 0. -1.
         11   -1    0    0    0    0 -0.00000000000E+00 -0.00000000000E+00 -0.45593999997E+02  0.45594000000E+02  0.51100000000E-03 0.  1.
    9900012    2    1    2    0    0  0.16135863417E+02 -0.17325087931E+02  0.21358795681E+02  0.59301907217E+02  0.49999932866E+02 0.  0.
        -12    1    1    2    0    0 -0.16135863417E+02  0.17325087931E+02 -0.21358795681E+02  0.31886092783E+02  0.00000000000E+00 0.  1.
         11    1    3    3    0    0 -0.21063817871E+01  0.40223666732E+01  0.14822568342E+00  0.45429339639E+01  0.51100000000E-03 0. -1.
        -11    1    3    3    0    0  0.29792813665E+02 -0.60399693179E+01  0.17962977819E+02  0.35309510727E+02  0.51100000000E-03 0.  1.
        -12    1    3    3    0    0 -0.11550568461E+02 -0.15307485287E+02  0.32475921787E+01  0.19449462526E+02  0.00000000000E+00 0.  1.
</event>
<event>
 7    1  0.6055092E-013  0.5930194E+02  0.7816164E-02  0.1266605E+00
        -11   -1    0    0    0    0  0.00000000000E+00  0.00000000000E+00  0.45593999997E+02  0.45594000000E+02  0.51100000000E-03 0.  1.
         11   -1    0    0    0    0 -0.00000000000E+00 -0.00000000000E+00 -0.45593999997E+02  0.45594000000E+02  0.51100000000E-03 0. -1.
    9900012    2    1    2    0    0 -0.22958818129E+01 -0.82345234942E+01 -0.30718764832E+02  0.59301937790E+02  0.49999988624E+02 0.  0.
        -12    1    1    2    0    0  0.22958818129E+01  0.82345234942E+01  0.30718764832E+02  0.31886062210E+02  0.00000000000E+00 0.  1.
         11    1    3    3    0    0  0.12069245660E+02 -0.12776335892E+02 -0.24269019517E+02  0.29964758604E+02  0.51100000000E-03 0. -1.
        -11    1    3    3    0    0 -0.18230744510E+02 -0.36635629160E+01 -0.78037750502E+01  0.20166324502E+02  0.51100000000E-03 0.  1.
         12    1    3    3    0    0  0.38656170370E+01  0.82053753137E+01  0.13540297354E+01  0.91708546843E+01  0.00000000000E+00 0. -1.
</event>
<event>
 7    1  0.6055092E-013  0.5930194E+02  0.7816164E-02  0.1266605E+00
        -11   -1    0    0    0    0  0.00000000000E+00  0.00000000000E+00  0.45593999997E+02  0.45594000000E+02  0.51100000000E-03 0.  1.
         11   -1    0    0    0    0 -0.00000000000E+00 -0.00000000000E+00 -0.45593999997E+02  0.45594000000E+02  0.51100000000E-03 0. -1.
    9900012    2    1    2    0    0 -0.82326849976E+01  0.29446752639E+02 -0.90461190214E+01  0.59301943289E+02  0.49999998652E+02 0.  0.
        -12    1    1    2    0    0  0.82326849976E+01 -0.29446752639E+02  0.90461190214E+01  0.31886056711E+02  0.00000000000E+00 0.  1.
         11    1    3    3    0    0 -0.26578928983E+02  0.26438242320E+02 -0.54590718037E+00  0.37492907833E+02  0.51100000000E-03 0. -1.
        -11    1    3    3    0    0  0.11457120544E+02  0.49013866968E+01 -0.30670665439E+01  0.12833397841E+02  0.51100000000E-03 0.  1.
         12    1    3    3    0    0  0.68891234414E+01 -0.18928763779E+01 -0.54331452971E+01  0.89756376148E+01  0.00000000000E+00 0. -1.
</event>
<event>
 7    1  0.6055092E-013  0.5930194E+02  0.7816164E-02  0.1266605E+00
        -11   -1    0    0    0    0  0.00000000000E+00  0.00000000000E+00  0.45593999997E+02  0.45594000000E+02  0.51100000000E-03 0. -1.
         11   -1    0    0    0    0 -0.00000000000E+00 -0.00000000000E+00 -0.45593999997E+02  0.45594000000E+02  0.51100000000E-03 0.  1.
    9900012    2    1    2    0    0 -0.15165809528E+02  0.27913643498E+02 -0.27472470641E+01  0.59301942884E+02  0.49999997914E+02 0.  0.
        -12    1    1    2    0    0  0.15165809528E+02 -0.27913643498E+02  0.27472470641E+01  0.31886057116E+02  0.00000000000E+00 0.  1.
         11    1    3    3    0    0 -0.13975272188E+02  0.18495417265E+02 -0.42705447019E+01  0.23571725538E+02  0.51100000000E-03 0. -1.
        -11    1    3    3    0    0  0.15502229032E+02  0.78597294076E+01 -0.44346344011E+01  0.17937681953E+02  0.51100000000E-03 0.  1.
        -12    1    3    3    0    0 -0.16692766372E+02  0.15584968253E+01  0.59579320389E+01  0.17792535392E+02  0.00000000000E+00 0.  1.
</event>
<event>
 7    1  0.6055092E-013  0.5930194E+02  0.7816164E-02  0.1266605E+00
        -11   -1    0    0    0    0  0.00000000000E+00  0.00000000000E+00  0.45593999997E+02  0.45594000000E+02  0.51100000000E-03 0.  1.
         11   -1    0    0    0    0 -0.00000000000E+00 -0.00000000000E+00 -0.45593999997E+02  0.45594000000E+02  0.51100000000E-03 0. -1.
    9900012    2    1    2    0    0 -0.13364734318E+02  0.21929095567E+02 -0.18900245158E+02  0.59301943129E+02  0.49999998360E+02 0.  0.
        -12    1    1    2    0    0  0.13364734318E+02 -0.21929095567E+02  0.18900245158E+02  0.31886056871E+02  0.00000000000E+00 0.  1.
         11    1    3    3    0    0 -0.15161491344E+02  0.14005082036E+02  0.46788276683E+01  0.21163756075E+02  0.51100000000E-03 0.  1.
        -11    1    3    3    0    0  0.93411204200E+00  0.14172747410E+02 -0.27329121806E+02  0.30799679112E+02  0.51100000000E-03 0. -1.
        -12    1    3    3    0    0  0.86264498406E+00 -0.62487338787E+01  0.37500489800E+01  0.73385079415E+01  0.00000000000E+00 0.  1.
</event>
<event>
 7    1  0.6055092E-013  0.5930194E+02  0.7816164E-02  0.1266605E+00
        -11   -1    0    0    0    0  0.00000000000E+00  0.00000000000E+00  0.45593999997E+02  0.45594000000E+02  0.51100000000E-03 0. -1.
         11   -1    0    0    0    0 -0.00000000000E+00 -0.00000000000E+00 -0.45593999997E+02  0.45594000000E+02  0.51100000000E-03 0.  1.
    9900012    2    1    2    0    0 -0.24345534940E+02 -0.17376066161E+02  0.11049353771E+02  0.59301937755E+02  0.49999988560E+02 0.  0.
        -12    1    1    2    0    0  0.24345534940E+02  0.17376066161E+02 -0.11049353771E+02  0.31886062245E+02  0.00000000000E+00 0.  1.
         11    1    3    3    0    0 -0.82749027130E+01  0.72979093197E+01  0.22956335520E+02  0.25470116531E+02  0.51100000000E-03 0. -1.
        -11    1    3    3    0    0 -0.16846736751E+02 -0.18658689625E+02 -0.71854771088E+01  0.26145560220E+02  0.51100000000E-03 0.  1.
         12    1    3    3    0    0  0.77610452431E+00 -0.60152858553E+01 -0.47215046400E+01  0.76862610038E+01  0.00000000000E+00 0. -1.
</event>
<event>
 7    1  0.6055092E-013  0.5930195E+02  0.7816164E-02  0.1266605E+00
        -11   -1    0    0    0    0  0.00000000000E+00  0.00000000000E+00  0.45593999997E+02  0.45594000000E+02  0.51100000000E-03 0.  1.
         11   -1    0    0    0    0 -0.00000000000E+00 -0.00000000000E+00 -0.45593999997E+02  0.45594000000E+02  0.51100000000E-03 0. -1.
    9900012    2    1    2    0    0 -0.10679957616E+02  0.27580628681E+02 -0.11915025338E+02  0.59301946592E+02  0.50000004677E+02 0.  0.
        -12    1    1    2    0    0  0.10679957616E+02 -0.27580628681E+02  0.11915025338E+02  0.31886053408E+02  0.00000000000E+00 0.  1.
         11    1    3    3    0    0 -0.17865902398E+02  0.68765388193E+01 -0.95975006653E+01  0.21414697614E+02  0.51100000000E-03 0. -1.
        -11    1    3    3    0    0  0.72135294134E+01  0.13778496260E+02 -0.16148010803E+02  0.22419639135E+02  0.51100000000E-03 0.  1.
        -12    1    3    3    0    0 -0.27584630782E-01  0.69255936015E+01  0.13830486130E+02  0.15467609843E+02  0.00000000000E+00 0.  1.
</event>
<event>
 7    1  0.6055092E-013  0.5930189E+02  0.7816164E-02  0.1266605E+00
        -11   -1    0    0    0    0  0.00000000000E+00  0.00000000000E+00  0.45593999997E+02  0.45594000000E+02  0.51100000000E-03 0.  1.
         11   -1    0    0    0    0 -0.00000000000E+00 -0.00000000000E+00 -0.45593999997E+02  0.45594000000E+02  0.51100000000E-03 0. -1.
    9900012    2    1    2    0    0 -0.42037638012E+01 -0.11720999061E+02 -0.29354228822E+02  0.59301887054E+02  0.49999896093E+02 0.  0.
        -12    1    1    2    0    0  0.42037638012E+01  0.11720999061E+02  0.29354228822E+02  0.31886112946E+02  0.00000000000E+00 0.  1.
         11    1    3    3    0    0 -0.83642278261E+00  0.48158170030E+01 -0.26934324820E+02  0.27374249766E+02  0.51100000000E-03 0. -1.
        -11    1    3    3    0    0  0.55167442613E+01 -0.18787478236E+02  0.49161040226E+01  0.20188409663E+02  0.51100000000E-03 0.  1.
        -12    1    3    3    0    0 -0.88840852799E+01  0.22506621723E+01 -0.73360080249E+01  0.11739227624E+02  0.00000000000E+00 0.  1.
</event>
<event>
 7    1  0.6055092E-013  0.5930196E+02  0.7816164E-02  0.1266605E+00
        -11   -1    0    0    0    0  0.00000000000E+00  0.00000000000E+00  0.45593999997E+02  0.45594000000E+02  0.51100000000E-03 0. -1.
         11   -1    0    0    0    0 -0.00000000000E+00 -0.00000000000E+00 -0.45593999997E+02  0.45594000000E+02  0.51100000000E-03 0.  1.
    9900012    2    1    2    0    0 -0.10799919609E+02  0.24711111584E+02  0.17013003567E+02  0.59301959329E+02  0.50000027906E+02 0.  0.
        -12    1    1    2    0    0  0.10799919609E+02 -0.24711111584E+02 -0.17013003567E+02  0.31886040671E+02  0.00000000000E+00 0.  1.
         11    1    3    3    0    0 -0.18278668782E+02  0.14271124345E+02  0.99496038640E+01  0.25234288970E+02  0.51100000000E-03 0. -1.
        -11    1    3    3    0    0  0.10239132928E+02 -0.44921650446E+01 -0.71471806937E+01  0.13270327126E+02  0.51100000000E-03 0.  1.
         12    1    3    3    0    0 -0.27603837543E+01  0.14932152284E+02  0.14210580397E+02  0.20797343232E+02  0.00000000000E+00 0. -1.
</event>
<event>
 7    1  0.6055092E-013  0.5930196E+02  0.7816164E-02  0.1266605E+00
        -11   -1    0    0    0    0  0.00000000000E+00  0.00000000000E+00  0.45593999997E+02  0.45594000000E+02  0.51100000000E-03 0.  1.
         11   -1    0    0    0    0 -0.00000000000E+00 -0.00000000000E+00 -0.45593999997E+02  0.45594000000E+02  0.51100000000E-03 0. -1.
    9900012    2    1    2    0    0  0.72379793498E+01  0.14850452373E+02 -0.27272614601E+02  0.59301956220E+02  0.50000022236E+02 0.  0.
        -12    1    1    2    0    0 -0.72379793498E+01 -0.14850452373E+02  0.27272614601E+02  0.31886043780E+02  0.00000000000E+00 0.  1.
         11    1    3    3    0    0 -0.17874617400E+02  0.65189239912E+01 -0.22012936225E+02  0.29095836106E+02  0.51100000000E-03 0. -1.
        -11    1    3    3    0    0  0.20660912978E+02  0.12065761803E+02 -0.39512982215E+01  0.24250127646E+02  0.51100000000E-03 0.  1.
         12    1    3    3    0    0  0.44516837717E+01 -0.37342334209E+01 -0.13083801550E+01  0.59559924677E+01  0.00000000000E+00 0. -1.
</event>
<event>
 7    1  0.6055092E-013  0.5930194E+02  0.7816164E-02  0.1266605E+00
        -11   -1    0    0    0    0  0.00000000000E+00  0.00000000000E+00  0.45593999997E+02  0.45594000000E+02  0.51100000000E-03 0.  1.
         11   -1    0    0    0    0 -0.00000000000E+00 -0.00000000000E+00 -0.45593999997E+02  0.45594000000E+02  0.51100000000E-03 0. -1.
    9900012    2    1    2    0    0 -0.26455978602E+02  0.27205128029E+01 -0.17589785089E+02  0.59301944534E+02  0.50000000923E+02 0.  0.
        -12    1    1    2    0    0  0.26455978602E+02 -0.27205128029E+01  0.17589785089E+02  0.31886055466E+02  0.00000000000E+00 0.  1.
         11    1    3    3    0    0 -0.18404706601E+02 -0.89824746070E+01 -0.31831765334E+02  0.37850751111E+02  0.51100000000E-03 0. -1.
        -11    1    3    3    0    0 -0.15391682897E+01  0.76607982682E+00  0.61080901356E+01  0.63454458228E+01  0.51100000000E-03 0.  1.
         12    1    3    3    0    0 -0.65121037114E+01  0.10936907583E+02  0.81338901095E+01  0.15105747600E+02  0.00000000000E+00 0. -1.
</event>
<event>
 7    1  0.6055092E-013  0.5930195E+02  0.7816164E-02  0.1266605E+00
        -11   -1    0    0    0    0  0.00000000000E+00  0.00000000000E+00  0.45593999997E+02  0.45594000000E+02  0.51100000000E-03 0.  1.
         11   -1    0    0    0    0 -0.00000000000E+00 -0.00000000000E+00 -0.45593999997E+02  0.45594000000E+02  0.51100000000E-03 0. -1.
    9900012    2    1    2    0    0 -0.16230160948E+02  0.99713870827E+01 -0.25570950837E+02  0.59301949578E+02  0.50000010123E+02 0.  0.
        -12    1    1    2    0    0  0.16230160948E+02 -0.99713870827E+01  0.25570950837E+02  0.31886050422E+02  0.00000000000E+00 0.  1.
         11    1    3    3    0    0 -0.26718586731E+02  0.57370291122E+01 -0.18698228308E+02  0.33112235232E+02  0.51100000000E-03 0. -1.
        -11    1    3    3    0    0 -0.22009101045E+01 -0.36319449239E+01  0.53952457193E+01  0.68661274276E+01  0.51100000000E-03 0.  1.
         12    1    3    3    0    0  0.12689335887E+02  0.78663028944E+01 -0.12267968248E+02  0.19323586919E+02  0.00000000000E+00 0. -1.
</event>
<event>
 7    1  0.6055092E-013  0.5930226E+02  0.7816164E-02  0.1266604E+00
        -11   -1    0    0    0    0  0.00000000000E+00  0.00000000000E+00  0.45593999997E+02  0.45594000000E+02  0.51100000000E-03 0.  1.
         11   -1    0    0    0    0 -0.00000000000E+00 -0.00000000000E+00 -0.45593999997E+02  0.45594000000E+02  0.51100000000E-03 0. -1.
    9900012    2    1    2    0    0 -0.30578902743E+02 -0.88952365415E+01 -0.15829663117E+01  0.59302261676E+02  0.50000579312E+02 0.  0.
        -12    1    1    2    0    0  0.30578902743E+02  0.88952365415E+01  0.15829663117E+01  0.31885738324E+02  0.00000000000E+00 0.  1.
         11    1    3    3    0    0 -0.27800708067E+02 -0.78750542921E+01 -0.76008193242E+01  0.29877555184E+02  0.51100000000E-03 0. -1.
        -11    1    3    3    0    0 -0.21766413363E+01 -0.13183610772E+02  0.99140684917E+01  0.16638332694E+02  0.51100000000E-03 0.  1.
         12    1    3    3    0    0 -0.60155333954E+00  0.12163428523E+02 -0.38962154793E+01  0.12786373798E+02  0.00000000000E+00 0. -1.
</event>
<event>
 7    1  0.6055092E-013  0.5930190E+02  0.7816164E-02  0.1266605E+00
        -11   -1    0    0    0    0  0.00000000000E+00  0.00000000000E+00  0.45593999997E+02  0.45594000000E+02  0.51100000000E-03 0.  1.
         11   -1    0    0    0    0 -0.00000000000E+00 -0.00000000000E+00 -0.45593999997E+02  0.45594000000E+02  0.51100000000E-03 0. -1.
    9900012    2    1    2    0    0 -0.11224436919E+02 -0.15055202487E+02 -0.25769671464E+02  0.59301904700E+02  0.49999928276E+02 0.  0.
        -12    1    1    2    0    0  0.11224436919E+02  0.15055202487E+02  0.25769671464E+02  0.31886095300E+02  0.00000000000E+00 0.  1.
         11    1    3    3    0    0 -0.45949538429E+01 -0.12396243528E+02 -0.20265723582E+02  0.24196694134E+02  0.51100000000E-03 0. -1.
        -11    1    3    3    0    0 -0.14434196368E+02 -0.12609591674E+02  0.36277226470E+01  0.19506619360E+02  0.51100000000E-03 0.  1.
        -12    1    3    3    0    0  0.78047132918E+01  0.99506327147E+01 -0.91316705293E+01  0.15598591207E+02  0.00000000000E+00 0.  1.
</event>
<event>
 7    1  0.6055092E-013  0.5930200E+02  0.7816164E-02  0.1266605E+00
        -11   -1    0    0    0    0  0.00000000000E+00  0.00000000000E+00  0.45593999997E+02  0.45594000000E+02  0.51100000000E-03 0.  1.
         11   -1    0    0    0    0 -0.00000000000E+00 -0.00000000000E+00 -0.45593999997E+02  0.45594000000E+02  0.51100000000E-03 0. -1.
    9900012    2    1    2    0    0  0.24682899775E+02 -0.18554675123E+02 -0.79495685908E+01  0.59301997569E+02  0.50000097647E+02 0.  0.
        -12    1    1    2    0    0 -0.24682899775E+02  0.18554675123E+02  0.79495685908E+01  0.31886002431E+02  0.00000000000E+00 0.  1.
         11    1    3    3    0    0  0.21320898842E+02 -0.14051325152E+02 -0.25300663134E+02  0.35946404844E+02  0.51100000000E-03 0. -1.
        -11    1    3    3    0    0 -0.36689665214E+01 -0.70193966794E+01  0.10985507427E+02  0.13543065338E+02  0.51100000000E-03 0.  1.
         12    1    3    3    0    0  0.70309674541E+01  0.25160467079E+01  0.63655871160E+01  0.98125273864E+01  0.00000000000E+00 0. -1.
</event>
<event>
 7    1  0.6055092E-013  0.5930194E+02  0.7816164E-02  0.1266605E+00
        -11   -1    0    0    0    0  0.00000000000E+00  0.00000000000E+00  0.45593999997E+02  0.45594000000E+02  0.51100000000E-03 0.  1.
         11   -1    0    0    0    0 -0.00000000000E+00 -0.00000000000E+00 -0.45593999997E+02  0.45594000000E+02  0.51100000000E-03 0. -1.
    9900012    2    1    2    0    0  0.12671185408E+02 -0.35641193529E+01 -0.29042362567E+02  0.59301941763E+02  0.49999995870E+02 0.  0.
        -12    1    1    2    0    0 -0.12671185408E+02  0.35641193529E+01  0.29042362567E+02  0.31886058237E+02  0.00000000000E+00 0.  1.
         11    1    3    3    0    0  0.89108353939E+01  0.17485851167E+02 -0.65567978758E+01  0.20691775591E+02  0.51100000000E-03 0.  1.
        -11    1    3    3    0    0 -0.30480361516E+01 -0.52128384043E+01 -0.20365277796E+02  0.21241674806E+02  0.51100000000E-03 0. -1.
        -12    1    3    3    0    0  0.68083861653E+01 -0.15837132115E+02 -0.21202868956E+01  0.17368491366E+02  0.00000000000E+00 0.  1.
</event>
<event>
 7    1  0.6055092E-013  0.5930194E+02  0.7816164E-02  0.1266605E+00
        -11   -1    0    0    0    0  0.00000000000E+00  0.00000000000E+00  0.45593999997E+02  0.45594000000E+02  0.51100000000E-03 0. -1.
         11   -1    0    0    0    0 -0.00000000000E+00 -0.00000000000E+00 -0.45593999997E+02  0.45594000000E+02  0.51100000000E-03 0.  1.
    9900012    2    1    2    0    0 -0.19246211543E+02 -0.19132956839E+02  0.16740195124E+02  0.59301939896E+02  0.49999992464E+02 0.  0.
        -12    1    1    2    0    0  0.19246211543E+02  0.19132956839E+02 -0.16740195124E+02  0.31886060104E+02  0.00000000000E+00 0.  1.
         11    1    3    3    0    0 -0.30007541941E+00  0.98557106518E+01 -0.26080272865E+01  0.10199357053E+02  0.51100000000E-03 0.  1.
        -11    1    3    3    0    0 -0.12474300170E+02 -0.15343452010E+02  0.25945679349E+02  0.32622200438E+02  0.51100000000E-03 0. -1.
         12    1    3    3    0    0 -0.64718359537E+01 -0.13645215481E+02 -0.65974569379E+01  0.16480382404E+02  0.00000000000E+00 0. -1.
</event>
<event>
 7    1  0.6055092E-013  0.5930191E+02  0.7816164E-02  0.1266605E+00
        -11   -1    0    0    0    0  0.00000000000E+00  0.00000000000E+00  0.45593999997E+02  0.45594000000E+02  0.51100000000E-03 0. -1.
         11   -1    0    0    0    0 -0.00000000000E+00 -0.00000000000E+00 -0.45593999997E+02  0.45594000000E+02  0.51100000000E-03 0.  1.
    9900012    2    1    2    0    0 -0.16619841697E+02 -0.23208037918E+02  0.14208827041E+02  0.59301906982E+02  0.49999932438E+02 0.  0.
        -12    1    1    2    0    0  0.16619841697E+02  0.23208037918E+02 -0.14208827041E+02  0.31886093018E+02  0.00000000000E+00 0.  1.
         11    1    3    3    0    0 -0.27685065432E+02 -0.12582879362E+02  0.89857265145E+00  0.30423660761E+02  0.51100000000E-03 0. -1.
        -11    1    3    3    0    0  0.84384139135E+01 -0.28737176023E+01  0.17532715034E+02  0.19668786921E+02  0.51100000000E-03 0.  1.
         12    1    3    3    0    0  0.26268098215E+01 -0.77514409540E+01 -0.42224606444E+01  0.92094592999E+01  0.00000000000E+00 0. -1.
</event>
<event>
 7    1  0.6055092E-013  0.5930193E+02  0.7816164E-02  0.1266605E+00
        -11   -1    0    0    0    0  0.00000000000E+00  0.00000000000E+00  0.45593999997E+02  0.45594000000E+02  0.51100000000E-03 0.  1.
         11   -1    0    0    0    0 -0.00000000000E+00 -0.00000000000E+00 -0.45593999997E+02  0.45594000000E+02  0.51100000000E-03 0. -1.
    9900012    2    1    2    0    0  0.71577405474E+00 -0.20348692615E+02 -0.24538539996E+02  0.59301928295E+02  0.49999971308E+02 0.  0.
        -12    1    1    2    0    0 -0.71577405474E+00  0.20348692615E+02  0.24538539996E+02  0.31886071705E+02  0.00000000000E+00 0.  1.
         11    1    3    3    0    0 -0.12815121615E+02  0.54910631148E+01 -0.11566933624E+01  0.13989891205E+02  0.51100000000E-03 0. -1.
        -11    1    3    3    0    0  0.74206869824E+01 -0.29952706788E+02 -0.15528440246E+02  0.34545096554E+02  0.51100000000E-03 0.  1.
        -12    1    3    3    0    0  0.61102086874E+01  0.41129510580E+01 -0.78534063876E+01  0.10766940536E+02  0.00000000000E+00 0.  1.
</event>
<event>
 7    1  0.6055092E-013  0.5930195E+02  0.7816164E-02  0.1266605E+00
        -11   -1    0    0    0    0  0.00000000000E+00  0.00000000000E+00  0.45593999997E+02  0.45594000000E+02  0.51100000000E-03 0. -1.
         11   -1    0    0    0    0 -0.00000000000E+00 -0.00000000000E+00 -0.45593999997E+02  0.45594000000E+02  0.51100000000E-03 0.  1.
    9900012    2    1    2    0    0  0.18297177808E+02 -0.96080450543E-02  0.26113853526E+02  0.59301950480E+02  0.50000011767E+02 0.  0.
        -12    1    1    2    0    0 -0.18297177808E+02  0.96080450543E-02 -0.26113853526E+02  0.31886049520E+02  0.00000000000E+00 0.  1.
         11    1    3    3    0    0  0.15985511821E+02  0.29080452382E+01 -0.49778836367E+01  0.16993311656E+02  0.51100000000E-03 0. -1.
        -11    1    3    3    0    0  0.11350852769E+02 -0.91641376386E+01  0.26798751600E+02  0.30512233036E+02  0.51100000000E-03 0.  1.
         12    1    3    3    0    0 -0.90391867812E+01  0.62464843554E+01  0.42929855620E+01  0.11796405788E+02  0.00000000000E+00 0. -1.
</event>
<event>
 7    1  0.6055092E-013  0.5930194E+02  0.7816164E-02  0.1266605E+00
        -11   -1    0    0    0    0  0.00000000000E+00  0.00000000000E+00  0.45593999997E+02  0.45594000000E+02  0.51100000000E-03 0.  1.
         11   -1    0    0    0    0 -0.00000000000E+00 -0.00000000000E+00 -0.45593999997E+02  0.45594000000E+02  0.51100000000E-03 0. -1.
    9900012    2    1    2    0    0  0.15266865898E+02  0.16398923982E+02 -0.22687417466E+02  0.59301940140E+02  0.49999992910E+02 0.  0.
        -12    1    1    2    0    0 -0.15266865898E+02 -0.16398923982E+02  0.22687417466E+02  0.31886059860E+02  0.00000000000E+00 0.  1.
         11    1    3    3    0    0  0.20589284992E+02  0.21566478734E+02 -0.10867629096E+02  0.31735422227E+02  0.51100000000E-03 0. -1.
        -11    1    3    3    0    0 -0.31629621291E+01 -0.11773794134E+02 -0.15485725366E+02  0.19708735325E+02  0.51100000000E-03 0.  1.
        -12    1    3    3    0    0 -0.21594569657E+01  0.66062393813E+01  0.36659369956E+01  0.78577825883E+01  0.00000000000E+00 0.  1.
</event>
<event>
 7    1  0.6055092E-013  0.5930194E+02  0.7816164E-02  0.1266605E+00
        -11   -1    0    0    0    0  0.00000000000E+00  0.00000000000E+00  0.45593999997E+02  0.45594000000E+02  0.51100000000E-03 0. -1.
         11   -1    0    0    0    0 -0.00000000000E+00 -0.00000000000E+00 -0.45593999997E+02  0.45594000000E+02  0.51100000000E-03 0.  1.
    9900012    2    1    2    0    0 -0.16215442457E+02  0.21822947501E+02  0.16659515843E+02  0.59301935962E+02  0.49999985290E+02 0.  0.
        -12    1    1    2    0    0  0.16215442457E+02 -0.21822947501E+02 -0.16659515843E+02  0.31886064038E+02  0.00000000000E+00 0.  1.
         11    1    3    3    0    0 -0.95569491383E+01 -0.58337613679E+00  0.48679568885E+00  0.95871046126E+01  0.51100000000E-03 0. -1.
        -11    1    3    3    0    0 -0.43985737576E+01  0.28969280860E+02  0.24977894125E+02  0.38502751588E+02  0.51100000000E-03 0.  1.
        -12    1    3    3    0    0 -0.22599195608E+01 -0.65629572219E+01 -0.88051739711E+01  0.11212079762E+02  0.00000000000E+00 0.  1.
</event>
<event>
 7    1  0.6055092E-013  0.5930193E+02  0.7816164E-02  0.1266605E+00
        -11   -1    0    0    0    0  0.00000000000E+00  0.00000000000E+00  0.45593999997E+02  0.45594000000E+02  0.51100000000E-03 0. -1.
         11   -1    0    0    0    0 -0.00000000000E+00 -0.00000000000E+00 -0.45593999997E+02  0.45594000000E+02  0.51100000000E-03 0.  1.
    9900012    2    1    2    0    0 -0.90446263375E+01  0.17592751568E+02  0.25008219596E+02  0.59301933753E+02  0.49999981262E+02 0.  0.
        -12    1    1    2    0    0  0.90446263375E+01 -0.17592751568E+02 -0.25008219596E+02  0.31886066247E+02  0.00000000000E+00 0.  1.
         11    1    3    3    0    0  0.95312725849E+01  0.12310696366E+02  0.40303771471E+01  0.16082361217E+02  0.51100000000E-03 0. -1.
        -11    1    3    3    0    0 -0.27872464217E+02  0.35273712730E+01  0.17707738464E+02  0.33209646361E+02  0.51100000000E-03 0.  1.
        -12    1    3    3    0    0  0.92965652946E+01  0.17546839290E+01  0.32701039852E+01  0.10009926176E+02  0.00000000000E+00 0.  1.
</event>
<event>
 7    1  0.6055092E-013  0.5930194E+02  0.7816164E-02  0.1266605E+00
        -11   -1    0    0    0    0  0.00000000000E+00  0.00000000000E+00  0.45593999997E+02  0.45594000000E+02  0.51100000000E-03 0. -1.
         11   -1    0    0    0    0 -0.00000000000E+00 -0.00000000000E+00 -0.45593999997E+02  0.45594000000E+02  0.51100000000E-03 0.  1.
    9900012    2    1    2    0    0 -0.17709931911E+02 -0.17417073162E+02  0.19993113274E+02  0.59301941852E+02  0.49999996033E+02 0.  0.
        -12    1    1    2    0    0  0.17709931911E+02  0.17417073162E+02 -0.19993113274E+02  0.31886058148E+02  0.00000000000E+00 0.  1.
         11    1    3    3    0    0 -0.37857260156E+01 -0.30120540943E+02  0.10477428201E+01  0.30375590092E+02  0.51100000000E-03 0. -1.
        -11    1    3    3    0    0 -0.88085171825E+01  0.13721583770E+02  0.16385070907E+02  0.23115847053E+02  0.51100000000E-03 0.  1.
         12    1    3    3    0    0 -0.51156887133E+01 -0.10181159892E+01  0.25602995469E+01  0.58105047069E+01  0.00000000000E+00 0. -1.
</event>
<event>
 7    1  0.6055092E-013  0.5930196E+02  0.7816164E-02  0.1266605E+00
        -11   -1    0    0    0    0  0.00000000000E+00  0.00000000000E+00  0.45593999997E+02  0.45594000000E+02  0.51100000000E-03 0.  1.
         11   -1    0    0    0    0 -0.00000000000E+00 -0.00000000000E+00 -0.45593999997E+02  0.45594000000E+02  0.51100000000E-03 0. -1.
    9900012    2    1    2    0    0 -0.38082002124E+01 -0.16006162302E+02 -0.27313362409E+02  0.59301962514E+02  0.50000033714E+02 0.  0.
        -12    1    1    2    0    0  0.38082002124E+01  0.16006162302E+02  0.27313362409E+02  0.31886037486E+02  0.00000000000E+00 0.  1.
         11    1    3    3    0    0  0.28861868678E+01 -0.32048256900E+02 -0.23060851724E+02  0.39588176612E+02  0.51100000000E-03 0. -1.
        -11    1    3    3    0    0  0.47177474300E+00  0.91536697599E+01 -0.32430134499E+01  0.97226219704E+01  0.51100000000E-03 0.  1.
         12    1    3    3    0    0 -0.71661618232E+01  0.68884248383E+01 -0.10094972355E+01  0.99911639311E+01  0.00000000000E+00 0. -1.
</event>
<event>
 7    1  0.6055092E-013  0.5930193E+02  0.7816164E-02  0.1266605E+00
        -11   -1    0    0    0    0  0.00000000000E+00  0.00000000000E+00  0.45593999997E+02  0.45594000000E+02  0.51100000000E-03 0.  1.
         11   -1    0    0    0    0 -0.00000000000E+00 -0.00000000000E+00 -0.45593999997E+02  0.45594000000E+02  0.51100000000E-03 0. -1.
    9900012    2    1    2    0    0  0.20868152396E+02 -0.21628515902E+02 -0.10651245953E+02  0.59301928983E+02  0.49999972562E+02 0.  0.
        -12    1    1    2    0    0 -0.20868152396E+02  0.21628515902E+02  0.10651245953E+02  0.31886071017E+02  0.00000000000E+00 0.  1.
         11    1    3    3    0    0  0.11179592506E+02 -0.16002894699E+02 -0.85045639336E+01  0.21293274415E+02  0.51100000000E-03 0. -1.
        -11    1    3    3    0    0  0.19507959650E+02  0.19738531924E+01  0.87662051596E+01  0.21477964040E+02  0.51100000000E-03 0.  1.
        -12    1    3    3    0    0 -0.98193997609E+01 -0.75994743956E+01 -0.10912887179E+02  0.16530690528E+02  0.00000000000E+00 0.  1.
</event>
<event>
 7    1  0.6055092E-013  0.5930195E+02  0.7816164E-02  0.1266605E+00
        -11   -1    0    0    0    0  0.00000000000E+00  0.00000000000E+00  0.45593999997E+02  0.45594000000E+02  0.51100000000E-03 0. -1.
         11   -1    0    0    0    0 -0.00000000000E+00 -0.00000000000E+00 -0.45593999997E+02  0.45594000000E+02  0.51100000000E-03 0.  1.
    9900012    2    1    2    0    0 -0.15611950645E+02 -0.17202716294E+02  0.21841566463E+02  0.59301945425E+02  0.50000002548E+02 0.  0.
        -12    1    1    2    0    0  0.15611950645E+02  0.17202716294E+02 -0.21841566463E+02  0.31886054575E+02  0.00000000000E+00 0.  1.
         11    1    3    3    0    0  0.34014712951E+01  0.56329264400E+01  0.18693193041E+01  0.68406302466E+01  0.51100000000E-03 0. -1.
        -11    1    3    3    0    0  0.11168202692E+00 -0.25489775788E+02  0.21142970738E+02  0.33117462984E+02  0.51100000000E-03 0.  1.
        -12    1    3    3    0    0 -0.19125103967E+02  0.26541330543E+01 -0.11707235789E+01  0.19343852194E+02  0.00000000000E+00 0.  1.
</event>
<event>
 7    1  0.6055092E-013  0.5930207E+02  0.7816164E-02  0.1266604E+00
        -11   -1    0    0    0    0  0.00000000000E+00  0.00000000000E+00  0.45593999997E+02  0.45594000000E+02  0.51100000000E-03 0. -1.
         11   -1    0    0    0    0 -0.00000000000E+00 -0.00000000000E+00 -0.45593999997E+02  0.45594000000E+02  0.51100000000E-03 0.  1.
    9900012    2    1    2    0    0 -0.54055935210E+01 -0.29923782524E+02  0.95947699193E+01  0.59302065614E+02  0.50000221744E+02 0.  0.
        -12    1    1    2    0    0  0.54055935210E+01  0.29923782524E+02 -0.95947699193E+01  0.31885934386E+02  0.00000000000E+00 0.  1.
         11    1    3    3    0    0 -0.52185292228E+01 -0.22202799335E+02  0.24613977260E+02  0.33556597300E+02  0.51100000000E-03 0. -1.
        -11    1    3    3    0    0 -0.76345090044E+01  0.10533284795E+01 -0.11247107332E+02  0.13634245569E+02  0.51100000000E-03 0.  1.
        -12    1    3    3    0    0  0.74474447063E+01 -0.87743116684E+01 -0.37721000085E+01  0.12111222745E+02  0.00000000000E+00 0.  1.
</event>
<event>
 7    1  0.6055092E-013  0.5930196E+02  0.7816164E-02  0.1266605E+00
        -11   -1    0    0    0    0  0.00000000000E+00  0.00000000000E+00  0.45593999997E+02  0.45594000000E+02  0.51100000000E-03 0.  1.
         11   -1    0    0    0    0 -0.00000000000E+00 -0.00000000000E+00 -0.45593999997E+02  0.45594000000E+02  0.51100000000E-03 0. -1.
    9900012    2    1    2    0    0 -0.64307016927E+01  0.29739049596E+02 -0.95370189620E+01  0.59301957194E+02  0.50000024012E+02 0.  0.
        -12    1    1    2    0    0  0.64307016927E+01 -0.29739049596E+02  0.95370189620E+01  0.31886042806E+02  0.00000000000E+00 0.  1.
         11    1    3    3    0    0  0.54235729510E+01  0.38319413941E+02 -0.80879255863E+01  0.39537414798E+02  0.51100000000E-03 0. -1.
        -11    1    3    3    0    0  0.95050727263E+00 -0.57868037737E+01  0.20281077151E+01  0.62051416709E+01  0.51100000000E-03 0.  1.
         12    1    3    3    0    0 -0.12804781916E+02 -0.27935605715E+01 -0.34772010908E+01  0.13559400725E+02  0.00000000000E+00 0. -1.
</event>
<event>
 7    1  0.6055092E-013  0.5930194E+02  0.7816164E-02  0.1266605E+00
        -11   -1    0    0    0    0  0.00000000000E+00  0.00000000000E+00  0.45593999997E+02  0.45594000000E+02  0.51100000000E-03 0.  1.
         11   -1    0    0    0    0 -0.00000000000E+00 -0.00000000000E+00 -0.45593999997E+02  0.45594000000E+02  0.51100000000E-03 0. -1.
    9900012    2    1    2    0    0 -0.12681952617E+02 -0.15672759591E+02 -0.24703309114E+02  0.59301940404E+02  0.49999993392E+02 0.  0.
        -12    1    1    2    0    0  0.12681952617E+02  0.15672759591E+02  0.24703309114E+02  0.31886059596E+02  0.00000000000E+00 0.  1.
         11    1    3    3    0    0 -0.11249541951E+02 -0.18024286634E+01 -0.13321345823E+02  0.17528810513E+02  0.51100000000E-03 0. -1.
        -11    1    3    3    0    0  0.99620308215E+01 -0.61705277340E+01  0.10628089939E+02  0.15820043193E+02  0.51100000000E-03 0.  1.
        -12    1    3    3    0    0 -0.11394441488E+02 -0.76998031936E+01 -0.22010053229E+02  0.25953086699E+02  0.00000000000E+00 0.  1.
</event>
<event>
 7    1  0.6055092E-013  0.5930188E+02  0.7816164E-02  0.1266605E+00
        -11   -1    0    0    0    0  0.00000000000E+00  0.00000000000E+00  0.45593999997E+02  0.45594000000E+02  0.51100000000E-03 0. -1.
         11   -1    0    0    0    0 -0.00000000000E+00 -0.00000000000E+00 -0.45593999997E+02  0.45594000000E+02  0.51100000000E-03 0.  1.
    9900012    2    1    2    0    0  0.17791286125E+02  0.13953847684E+02  0.22482990449E+02  0.59301880971E+02  0.49999885000E+02 0.  0.
        -12    1    1    2    0    0 -0.17791286125E+02 -0.13953847684E+02 -0.22482990449E+02  0.31886119029E+02  0.00000000000E+00 0.  1.
         11    1    3    3    0    0  0.26599335686E+01  0.23447643231E+02  0.19689863116E+02  0.30733661179E+02  0.51100000000E-03 0.  1.
        -11    1    3    3    0    0  0.10790120291E+02 -0.27619937635E+01 -0.89946377902E+01  0.14316382737E+02  0.51100000000E-03 0. -1.
         12    1    3    3    0    0  0.43412322656E+01 -0.67318017832E+01  0.11787765124E+02  0.14251837055E+02  0.00000000000E+00 0. -1.
</event>
<event>
 7    1  0.6055092E-013  0.5930197E+02  0.7816164E-02  0.1266605E+00
        -11   -1    0    0    0    0  0.00000000000E+00  0.00000000000E+00  0.45593999997E+02  0.45594000000E+02  0.51100000000E-03 0.  1.
         11   -1    0    0    0    0 -0.00000000000E+00 -0.00000000000E+00 -0.45593999997E+02  0.45594000000E+02  0.51100000000E-03 0. -1.
    9900012    2    1    2    0    0 -0.31169353483E+02 -0.16682241458E+01 -0.65120688000E+01  0.59301974716E+02  0.50000055968E+02 0.  0.
        -12    1    1    2    0    0  0.31169353483E+02  0.16682241458E+01  0.65120688000E+01  0.31886025284E+02  0.00000000000E+00 0.  1.
         11    1    3    3    0    0 -0.12424314663E+02 -0.57934003675E+01  0.24446739036E+01  0.13924924180E+02  0.51100000000E-03 0. -1.
        -11    1    3    3    0    0 -0.85056723714E+01 -0.50455224671E+01 -0.23420830575E+02  0.25423199337E+02  0.51100000000E-03 0.  1.
        -12    1    3    3    0    0 -0.10239366449E+02  0.91706986888E+01  0.14464087871E+02  0.19953851199E+02  0.00000000000E+00 0.  1.
</event>
<event>
 7    1  0.6055092E-013  0.5930190E+02  0.7816164E-02  0.1266605E+00
        -11   -1    0    0    0    0  0.00000000000E+00  0.00000000000E+00  0.45593999997E+02  0.45594000000E+02  0.51100000000E-03 0.  1.
         11   -1    0    0    0    0 -0.00000000000E+00 -0.00000000000E+00 -0.45593999997E+02  0.45594000000E+02  0.51100000000E-03 0. -1.
    9900012    2    1    2    0    0  0.24297466399E+02  0.77892141283E+01 -0.19122883629E+02  0.59301899448E+02  0.49999918697E+02 0.  0.
        -12    1    1    2    0    0 -0.24297466399E+02 -0.77892141283E+01  0.19122883629E+02  0.31886100552E+02  0.00000000000E+00 0.  1.
         11    1    3    3    0    0  0.31339301992E+02  0.82146060275E+01 -0.32400985958E+01  0.32559635144E+02  0.51100000000E-03 0. -1.
        -11    1    3    3    0    0 -0.11059795456E+02  0.45731109999E+01 -0.16406444301E+02  0.20307728445E+02  0.51100000000E-03 0.  1.
        -12    1    3    3    0    0  0.40179598623E+01 -0.49985028992E+01  0.52365926828E+00  0.64345358587E+01  0.00000000000E+00 0.  1.
</event>
<event>
 7    1  0.6055092E-013  0.5930194E+02  0.7816164E-02  0.1266605E+00
        -11   -1    0    0    0    0  0.00000000000E+00  0.00000000000E+00  0.45593999997E+02  0.45594000000E+02  0.51100000000E-03 0. -1.
         11   -1    0    0    0    0 -0.00000000000E+00 -0.00000000000E+00 -0.45593999997E+02  0.45594000000E+02  0.51100000000E-03 0.  1.
    9900012    2    1    2    0    0  0.16920666519E+02 -0.22063139848E+02  0.15608650904E+02  0.59301935984E+02  0.49999985330E+02 0.  0.
        -12    1    1    2    0    0 -0.16920666519E+02  0.22063139848E+02 -0.15608650904E+02  0.31886064016E+02  0.00000000000E+00 0.  1.
         11    1    3    3    0    0  0.18836347196E+02 -0.12611258530E+02  0.28197566699E+02  0.36179477407E+02  0.51100000000E-03 0. -1.
        -11    1    3    3    0    0 -0.57486248983E+01  0.28178066094E+01 -0.29147313236E+01  0.70343714189E+01  0.51100000000E-03 0.  1.
         12    1    3    3    0    0  0.38329442208E+01 -0.12269687927E+02 -0.96741844713E+01  0.16088087158E+02  0.00000000000E+00 0. -1.
</event>
<event>
 7    1  0.6055092E-013  0.5930194E+02  0.7816164E-02  0.1266605E+00
        -11   -1    0    0    0    0  0.00000000000E+00  0.00000000000E+00  0.45593999997E+02  0.45594000000E+02  0.51100000000E-03 0.  1.
         11   -1    0    0    0    0 -0.00000000000E+00 -0.00000000000E+00 -0.45593999997E+02  0.45594000000E+02  0.51100000000E-03 0. -1.
    9900012    2    1    2    0    0 -0.29571156867E+02 -0.19243419920E+01 -0.11771329300E+02  0.59301943423E+02  0.49999998898E+02 0.  0.
        -12    1    1    2    0    0  0.29571156867E+02  0.19243419920E+01  0.11771329300E+02  0.31886056577E+02  0.00000000000E+00 0.  1.
         11    1    3    3    0    0 -0.18469089972E+02  0.75897088184E+01 -0.11268386036E+02  0.22927875795E+02  0.51100000000E-03 0. -1.
        -11    1    3    3    0    0  0.36971987213E+01 -0.15352030927E+02 -0.91667904440E+01  0.18258811004E+02  0.51100000000E-03 0.  1.
        -12    1    3    3    0    0 -0.14799265616E+02  0.58379801166E+01  0.86638471806E+01  0.18115256625E+02  0.00000000000E+00 0.  1.
</event>
<event>
 7    1  0.6055092E-013  0.5930195E+02  0.7816164E-02  0.1266605E+00
        -11   -1    0    0    0    0  0.00000000000E+00  0.00000000000E+00  0.45593999997E+02  0.45594000000E+02  0.51100000000E-03 0.  1.
         11   -1    0    0    0    0 -0.00000000000E+00 -0.00000000000E+00 -0.45593999997E+02  0.45594000000E+02  0.51100000000E-03 0. -1.
    9900012    2    1    2    0    0  0.61082932941E+01 -0.30624114430E+02 -0.64476898947E+01  0.59301947617E+02  0.50000006545E+02 0.  0.
        -12    1    1    2    0    0 -0.61082932941E+01  0.30624114430E+02  0.64476898947E+01  0.31886052383E+02  0.00000000000E+00 0.  1.
         11    1    3    3    0    0  0.17661439703E+02 -0.29511155987E+02  0.93873296983E+01  0.35650480210E+02  0.51100000000E-03 0. -1.
        -11    1    3    3    0    0 -0.73983400817E+01 -0.25772808295E+00 -0.15145779843E+00  0.74043770471E+01  0.51100000000E-03 0.  1.
         12    1    3    3    0    0 -0.41548063271E+01 -0.85523036031E+00 -0.15683561795E+02  0.16247090359E+02  0.00000000000E+00 0. -1.
</event>
<event>
 7    1  0.6055092E-013  0.5930194E+02  0.7816164E-02  0.1266605E+00
        -11   -1    0    0    0    0  0.00000000000E+00  0.00000000000E+00  0.45593999997E+02  0.45594000000E+02  0.51100000000E-03 0. -1.
         11   -1    0    0    0    0 -0.00000000000E+00 -0.00000000000E+00 -0.45593999997E+02  0.45594000000E+02  0.51100000000E-03 0.  1.
    9900012    2    1    2    0    0 -0.18189216198E+02 -0.17311661794E+02  0.19651454918E+02  0.59301938776E+02  0.49999990422E+02 0.  0.
        -12    1    1    2    0    0  0.18189216198E+02  0.17311661794E+02 -0.19651454918E+02  0.31886061224E+02  0.00000000000E+00 0.  1.
         11    1    3    3    0    0 -0.30449193567E+02 -0.14520673740E+02  0.14622464629E+02  0.36767102508E+02  0.51100000000E-03 0. -1.
        -11    1    3    3    0    0  0.27380563949E+01  0.84965500991E-01 -0.66511959039E+01  0.71932314832E+01  0.51100000000E-03 0.  1.
         12    1    3    3    0    0  0.95219209736E+01 -0.28759535553E+01  0.11680186193E+02  0.15341604785E+02  0.00000000000E+00 0. -1.
</event>
<event>
 7    1  0.6055092E-013  0.5930207E+02  0.7816164E-02  0.1266604E+00
        -11   -1    0    0    0    0  0.00000000000E+00  0.00000000000E+00  0.45593999997E+02  0.45594000000E+02  0.51100000000E-03 0.  1.
         11   -1    0    0    0    0 -0.00000000000E+00 -0.00000000000E+00 -0.45593999997E+02  0.45594000000E+02  0.51100000000E-03 0. -1.
    9900012    2    1    2    0    0  0.28506697795E+02  0.10133445955E+02 -0.10069459832E+02  0.59302069444E+02  0.50000228729E+02 0.  0.
        -12    1    1    2    0    0 -0.28506697795E+02 -0.10133445955E+02  0.10069459832E+02  0.31885930556E+02  0.00000000000E+00 0.  1.
         11    1    3    3    0    0  0.24545531957E+01 -0.83625029843E+01 -0.87924030333E+01  0.12379928874E+02  0.51100000000E-03 0. -1.
        -11    1    3    3    0    0  0.92540796105E+01  0.25583931893E+02 -0.64697525459E+01  0.27964857569E+02  0.51100000000E-03 0.  1.
        -12    1    3    3    0    0  0.16798064988E+02 -0.70879829537E+01  0.51926957468E+01  0.18957283002E+02  0.00000000000E+00 0.  1.
</event>
<event>
 7    1  0.1096538E-012  0.5930193E+02  0.7816164E-02  0.1266605E+00
        -11   -1    0    0    0    0  0.00000000000E+00  0.00000000000E+00  0.45593999997E+02  0.45594000000E+02  0.51100000000E-03 0. -1.
         11   -1    0    0    0    0 -0.00000000000E+00 -0.00000000000E+00 -0.45593999997E+02  0.45594000000E+02  0.51100000000E-03 0.  1.
    9900012    2    1    2    0    0 -0.12896156538E+02  0.13176331889E+02  0.26015278818E+02  0.59301932393E+02  0.49999978780E+02 0.  0.
        -12    1    1    2    0    0  0.12896156538E+02 -0.13176331889E+02 -0.26015278818E+02  0.31886067607E+02  0.00000000000E+00 0.  1.
         11    1    3    3    0    0 -0.10276859317E+02  0.82114581701E+00  0.20519963325E+02  0.22964255115E+02  0.51100000000E-03 0. -1.
        -11    1    3    3    0    0  0.32412085537E+01  0.22941801882E+02  0.30666514599E+00  0.23171658340E+02  0.51100000000E-03 0.  1.
        -12    1    3    3    0    0 -0.58605057743E+01 -0.10586615810E+02  0.51886503473E+01  0.13166018938E+02  0.00000000000E+00 0.  1.
</event>
<event>
 7    1  0.6055092E-013  0.5930194E+02  0.7816164E-02  0.1266605E+00
        -11   -1    0    0    0    0  0.00000000000E+00  0.00000000000E+00  0.45593999997E+02  0.45594000000E+02  0.51100000000E-03 0.  1.
         11   -1    0    0    0    0 -0.00000000000E+00 -0.00000000000E+00 -0.45593999997E+02  0.45594000000E+02  0.51100000000E-03 0. -1.
    9900012    2    1    2    0    0 -0.15369613144E+02 -0.27937026462E+02  0.13608354093E+00  0.59301937615E+02  0.49999988304E+02 0.  0.
        -12    1    1    2    0    0  0.15369613144E+02  0.27937026462E+02 -0.13608354093E+00  0.31886062385E+02  0.00000000000E+00 0.  1.
         11    1    3    3    0    0 -0.18341076485E+02 -0.10849659219E+02  0.15004270703E+01  0.21362618600E+02  0.51100000000E-03 0. -1.
        -11    1    3    3    0    0  0.52431245887E+01 -0.18246473702E+02 -0.14919890048E+02  0.24145957784E+02  0.51100000000E-03 0.  1.
        -12    1    3    3    0    0 -0.22716612475E+01  0.11591064593E+01  0.13555546519E+02  0.13793361230E+02  0.00000000000E+00 0.  1.
</event>
<event>
 7    1  0.6055092E-013  0.5930197E+02  0.7816164E-02  0.1266605E+00
        -11   -1    0    0    0    0  0.00000000000E+00  0.00000000000E+00  0.45593999997E+02  0.45594000000E+02  0.51100000000E-03 0. -1.
         11   -1    0    0    0    0 -0.00000000000E+00 -0.00000000000E+00 -0.45593999997E+02  0.45594000000E+02  0.51100000000E-03 0.  1.
    9900012    2    1    2    0    0  0.19148500116E+01  0.28666829107E+02 -0.13829869170E+02  0.59301968217E+02  0.50000044115E+02 0.  0.
        -12    1    1    2    0    0 -0.19148500116E+01 -0.28666829107E+02  0.13829869170E+02  0.31886031783E+02  0.00000000000E+00 0.  1.
         11    1    3    3    0    0  0.14102411982E+02  0.25635150189E+02 -0.95499673171E+00  0.29273724873E+02  0.51100000000E-03 0. -1.
        -11    1    3    3    0    0 -0.16115691168E+02 -0.18700110205E+01 -0.16194774982E+02  0.22923419902E+02  0.51100000000E-03 0.  1.
        -12    1    3    3    0    0  0.39281291977E+01  0.49016899378E+01  0.33199025430E+01  0.71048234415E+01  0.00000000000E+00 0.  1.
</event>
<event>
 7    1  0.6055092E-013  0.5930194E+02  0.7816164E-02  0.1266605E+00
        -11   -1    0    0    0    0  0.00000000000E+00  0.00000000000E+00  0.45593999997E+02  0.45594000000E+02  0.51100000000E-03 0.  1.
         11   -1    0    0    0    0 -0.00000000000E+00 -0.00000000000E+00 -0.45593999997E+02  0.45594000000E+02  0.51100000000E-03 0. -1.
    9900012    2    1    2    0    0  0.12573777062E+02 -0.28165982764E+02 -0.80807266087E+01  0.59301943531E+02  0.49999999094E+02 0.  0.
        -12    1    1    2    0    0 -0.12573777062E+02  0.28165982764E+02  0.80807266087E+01  0.31886056469E+02  0.00000000000E+00 0.  1.
         11    1    3    3    0    0  0.92211417355E+01 -0.13457204851E+02 -0.21414264420E+02  0.26920188302E+02  0.51100000000E-03 0. -1.
        -11    1    3    3    0    0  0.85800035810E+01 -0.76767237138E+01  0.18806584000E+02  0.22050763035E+02  0.51100000000E-03 0.  1.
        -12    1    3    3    0    0 -0.52273682549E+01 -0.70320541984E+01 -0.54730461882E+01  0.10330992193E+02  0.00000000000E+00 0.  1.
</event>
<event>
 7    1  0.6055092E-013  0.5930198E+02  0.7816164E-02  0.1266605E+00
        -11   -1    0    0    0    0  0.00000000000E+00  0.00000000000E+00  0.45593999997E+02  0.45594000000E+02  0.51100000000E-03 0.  1.
         11   -1    0    0    0    0 -0.00000000000E+00 -0.00000000000E+00 -0.45593999997E+02  0.45594000000E+02  0.51100000000E-03 0. -1.
    9900012    2    1    2    0    0  0.32544655511E+01  0.78738387740E+00 -0.31709724158E+02  0.59301982287E+02  0.50000069776E+02 0.  0.
        -12    1    1    2    0    0 -0.32544655511E+01 -0.78738387740E+00  0.31709724158E+02  0.31886017713E+02  0.00000000000E+00 0.  1.
         11    1    3    3    0    0  0.23399860034E+01  0.85997083130E+01 -0.46170982173E+01  0.10037335990E+02  0.51100000000E-03 0. -1.
        -11    1    3    3    0    0 -0.61943713557E+01 -0.22041587854E+02 -0.23792944610E+02  0.33019782633E+02  0.51100000000E-03 0.  1.
        -12    1    3    3    0    0  0.71088509035E+01  0.14229263418E+02 -0.32996813307E+01  0.16244863664E+02  0.00000000000E+00 0.  1.
</event>
<event>
 7    1  0.6055092E-013  0.5930226E+02  0.7816164E-02  0.1266604E+00
        -11   -1    0    0    0    0  0.00000000000E+00  0.00000000000E+00  0.45593999997E+02  0.45594000000E+02  0.51100000000E-03 0.  1.
         11   -1    0    0    0    0 -0.00000000000E+00 -0.00000000000E+00 -0.45593999997E+02  0.45594000000E+02  0.51100000000E-03 0. -1.
    9900012    2    1    2    0    0 -0.26563338262E+02  0.16222564414E+02  0.69222830410E+01  0.59302258072E+02  0.50000572738E+02 0.  0.
        -12    1    1    2    0    0  0.26563338262E+02 -0.16222564414E+02 -0.69222830410E+01  0.31885741928E+02  0.00000000000E+00 0.  1.
         11    1    3    3    0    0 -0.26975611043E+00  0.10292391270E+02 -0.18280664524E+02  0.20980676398E+02  0.51100000000E-03 0. -1.
        -11    1    3    3    0    0 -0.19567310924E+02  0.81290074348E-03  0.14472277158E+02  0.24337757987E+02  0.51100000000E-03 0.  1.
         12    1    3    3    0    0 -0.67262712284E+01  0.59293602435E+01  0.10730670406E+02  0.13983823687E+02  0.00000000000E+00 0. -1.
</event>
<event>
 7    1  0.6055092E-013  0.5930194E+02  0.7816164E-02  0.1266605E+00
        -11   -1    0    0    0    0  0.00000000000E+00  0.00000000000E+00  0.45593999997E+02  0.45594000000E+02  0.51100000000E-03 0.  1.
         11   -1    0    0    0    0 -0.00000000000E+00 -0.00000000000E+00 -0.45593999997E+02  0.45594000000E+02  0.51100000000E-03 0. -1.
    9900012    2    1    2    0    0 -0.24522797773E+02  0.20366955486E+02  0.73509095202E+00  0.59301939643E+02  0.49999992003E+02 0.  0.
        -12    1    1    2    0    0  0.24522797773E+02 -0.20366955486E+02 -0.73509095202E+00  0.31886060357E+02  0.00000000000E+00 0.  1.
         11    1    3    3    0    0 -0.11558002357E+02  0.78320487378E+01 -0.67204835607E+01  0.15494944513E+02  0.51100000000E-03 0. -1.
        -11    1    3    3    0    0  0.48523471153E+01  0.15389417253E+02  0.16962278629E+02  0.23411500005E+02  0.51100000000E-03 0.  1.
        -12    1    3    3    0    0 -0.17817142532E+02 -0.28545105054E+01 -0.95067041164E+01  0.20395495125E+02  0.00000000000E+00 0.  1.
</event>
<event>
 7    1  0.6055092E-013  0.5930196E+02  0.7816164E-02  0.1266605E+00
        -11   -1    0    0    0    0  0.00000000000E+00  0.00000000000E+00  0.45593999997E+02  0.45594000000E+02  0.51100000000E-03 0. -1.
         11   -1    0    0    0    0 -0.00000000000E+00 -0.00000000000E+00 -0.45593999997E+02  0.45594000000E+02  0.51100000000E-03 0.  1.
    9900012    2    1    2    0    0  0.20643824425E+02 -0.23404851500E+02  0.65395084732E+01  0.59301957102E+02  0.50000023845E+02 0.  0.
        -12    1    1    2    0    0 -0.20643824425E+02  0.23404851500E+02 -0.65395084732E+01  0.31886042898E+02  0.00000000000E+00 0.  1.
         11    1    3    3    0    0  0.20269480209E+02  0.89056379971E+01  0.32574584346E+01  0.22377963531E+02  0.51100000000E-03 0. -1.
        -11    1    3    3    0    0 -0.98589612362E+00 -0.82645221965E+01  0.89079594152E+01  0.12191228794E+02  0.51100000000E-03 0.  1.
        -12    1    3    3    0    0  0.13602403390E+01 -0.24045967301E+02 -0.56259093766E+01  0.24732764777E+02  0.00000000000E+00 0.  1.
</event>
<event>
 7    1  0.6055092E-013  0.5930199E+02  0.7816164E-02  0.1266605E+00
        -11   -1    0    0    0    0  0.00000000000E+00  0.00000000000E+00  0.45593999997E+02  0.45594000000E+02  0.51100000000E-03 0. -1.
         11   -1    0    0    0    0 -0.00000000000E+00 -0.00000000000E+00 -0.45593999997E+02  0.45594000000E+02  0.51100000000E-03 0.  1.
    9900012    2    1    2    0    0  0.20432415656E+02 -0.16800739471E+02  0.17803627252E+02  0.59301990534E+02  0.50000084816E+02 0.  0.
        -12    1    1    2    0    0 -0.20432415656E+02  0.16800739471E+02 -0.17803627252E+02  0.31886009466E+02  0.00000000000E+00 0.  1.
         11    1    3    3    0    0 -0.28730461065E+01 -0.17719950976E+02  0.28127252504E+02  0.33367549958E+02  0.51100000000E-03 0. -1.
        -11    1    3    3    0    0  0.20588428869E+02  0.20929028633E+01 -0.80615509718E+01  0.22209282969E+02  0.51100000000E-03 0.  1.
         12    1    3    3    0    0  0.27170328939E+01 -0.11736913585E+01 -0.22620742795E+01  0.37251576071E+01  0.00000000000E+00 0. -1.
</event>
<event>
 7    1  0.6055092E-013  0.5930200E+02  0.7816164E-02  0.1266605E+00
        -11   -1    0    0    0    0  0.00000000000E+00  0.00000000000E+00  0.45593999997E+02  0.45594000000E+02  0.51100000000E-03 0.  1.
         11   -1    0    0    0    0 -0.00000000000E+00 -0.00000000000E+00 -0.45593999997E+02  0.45594000000E+02  0.51100000000E-03 0. -1.
    9900012    2    1    2    0    0 -0.30000569477E+02 -0.10722435016E+02 -0.13084523845E+01  0.59302002615E+02  0.50000106849E+02 0.  0.
        -12    1    1    2    0    0  0.30000569477E+02  0.10722435016E+02  0.13084523845E+01  0.31885997385E+02  0.00000000000E+00 0.  1.
         11    1    3    3    0    0  0.80314435457E+01 -0.37216938928E+01 -0.10139458614E+02  0.13459706985E+02  0.51100000000E-03 0. -1.
        -11    1    3    3    0    0 -0.27040086204E+02  0.56504926846E+01  0.18466219917E+01  0.27685814825E+02  0.51100000000E-03 0.  1.
         12    1    3    3    0    0 -0.10991926819E+02 -0.12651233808E+02  0.69843842380E+01  0.18156480805E+02  0.00000000000E+00 0. -1.
</event>
<event>
 7    1  0.6055092E-013  0.5930196E+02  0.7816164E-02  0.1266605E+00
        -11   -1    0    0    0    0  0.00000000000E+00  0.00000000000E+00  0.45593999997E+02  0.45594000000E+02  0.51100000000E-03 0. -1.
         11   -1    0    0    0    0 -0.00000000000E+00 -0.00000000000E+00 -0.45593999997E+02  0.45594000000E+02  0.51100000000E-03 0.  1.
    9900012    2    1    2    0    0 -0.19066954332E+02 -0.56494629254E+01  0.24924976438E+02  0.59301958708E+02  0.50000026774E+02 0.  0.
        -12    1    1    2    0    0  0.19066954332E+02  0.56494629254E+01 -0.24924976438E+02  0.31886041292E+02  0.00000000000E+00 0.  1.
         11    1    3    3    0    0 -0.10377370929E+02 -0.19773763955E+02  0.27392076753E+02  0.35341440795E+02  0.51100000000E-03 0. -1.
        -11    1    3    3    0    0  0.22466327219E+01  0.12549621980E+02 -0.67373502926E+00  0.12766921696E+02  0.51100000000E-03 0.  1.
         12    1    3    3    0    0 -0.10936216125E+02  0.15746790495E+01 -0.17933652860E+01  0.11193596218E+02  0.00000000000E+00 0. -1.
</event>
<event>
 7    1  0.6055092E-013  0.5930194E+02  0.7816164E-02  0.1266605E+00
        -11   -1    0    0    0    0  0.00000000000E+00  0.00000000000E+00  0.45593999997E+02  0.45594000000E+02  0.51100000000E-03 0. -1.
         11   -1    0    0    0    0 -0.00000000000E+00 -0.00000000000E+00 -0.45593999997E+02  0.45594000000E+02  0.51100000000E-03 0.  1.
    9900012    2    1    2    0    0  0.13424222264E+02  0.27466101168E+02  0.90622346298E+01  0.59301944219E+02  0.50000000349E+02 0.  0.
        -12    1    1    2    0    0 -0.13424222264E+02 -0.27466101168E+02 -0.90622346298E+01  0.31886055781E+02  0.00000000000E+00 0.  1.
         11    1    3    3    0    0  0.10150059397E+02  0.17111457395E+01  0.10957620318E+02  0.15034000426E+02  0.51100000000E-03 0. -1.
        -11    1    3    3    0    0 -0.98474806513E+01  0.18361605308E+02 -0.13867126318E+02  0.25028356263E+02  0.51100000000E-03 0.  1.
        -12    1    3    3    0    0  0.13121643518E+02  0.73933501203E+01  0.11971740629E+02  0.19239587530E+02  0.00000000000E+00 0.  1.
</event>
<event>
 7    1  0.6055092E-013  0.5930195E+02  0.7816164E-02  0.1266605E+00
        -11   -1    0    0    0    0  0.00000000000E+00  0.00000000000E+00  0.45593999997E+02  0.45594000000E+02  0.51100000000E-03 0. -1.
         11   -1    0    0    0    0 -0.00000000000E+00 -0.00000000000E+00 -0.45593999997E+02  0.45594000000E+02  0.51100000000E-03 0.  1.
    9900012    2    1    2    0    0  0.21576605900E+02  0.55340847661E+01 -0.22815440606E+02  0.59301947463E+02  0.50000006265E+02 0.  0.
        -12    1    1    2    0    0 -0.21576605900E+02 -0.55340847661E+01  0.22815440606E+02  0.31886052537E+02  0.00000000000E+00 0.  1.
         11    1    3    3    0    0  0.31481251938E+02  0.93878586242E+01 -0.19377348470E+01  0.32908295758E+02  0.51100000000E-03 0.  1.
        -11    1    3    3    0    0 -0.11624574887E+02 -0.59071383781E+01 -0.14638783869E+02  0.19604056175E+02  0.51100000000E-03 0. -1.
         12    1    3    3    0    0  0.17199288490E+01  0.20533645200E+01 -0.62389218905E+01  0.67895955294E+01  0.00000000000E+00 0. -1.
</event>
<event>
 7    1  0.6055092E-013  0.5930196E+02  0.7816164E-02  0.1266605E+00
        -11   -1    0    0    0    0  0.00000000000E+00  0.00000000000E+00  0.45593999997E+02  0.45594000000E+02  0.51100000000E-03 0.  1.
         11   -1    0    0    0    0 -0.00000000000E+00 -0.00000000000E+00 -0.45593999997E+02  0.45594000000E+02  0.51100000000E-03 0. -1.
    9900012    2    1    2    0    0 -0.12632718993E+02 -0.23106664020E+02 -0.17978207277E+02  0.59301961548E+02  0.50000031952E+02 0.  0.
        -12    1    1    2    0    0  0.12632718993E+02  0.23106664020E+02  0.17978207277E+02  0.31886038452E+02  0.00000000000E+00 0.  1.
         11    1    3    3    0    0 -0.67074983316E+01 -0.11765187436E+00 -0.30411854350E+02  0.31142980928E+02  0.51100000000E-03 0. -1.
        -11    1    3    3    0    0 -0.57786578753E+00 -0.14933471241E+02  0.10588878251E+02  0.18315753739E+02  0.51100000000E-03 0.  1.
        -12    1    3    3    0    0 -0.53473548735E+01 -0.80555409050E+01  0.18447688214E+01  0.98432268804E+01  0.00000000000E+00 0.  1.
</event>
<event>
 7    1  0.6055092E-013  0.5930191E+02  0.7816164E-02  0.1266605E+00
        -11   -1    0    0    0    0  0.00000000000E+00  0.00000000000E+00  0.45593999997E+02  0.45594000000E+02  0.51100000000E-03 0.  1.
         11   -1    0    0    0    0 -0.00000000000E+00 -0.00000000000E+00 -0.45593999997E+02  0.45594000000E+02  0.51100000000E-03 0. -1.
    9900012    2    1    2    0    0  0.28167591470E+02  0.14436522489E+02 -0.38595761857E+01  0.59301910256E+02  0.49999938409E+02 0.  0.
        -12    1    1    2    0    0 -0.28167591470E+02 -0.14436522489E+02  0.38595761857E+01  0.31886089744E+02  0.00000000000E+00 0.  1.
         11    1    3    3    0    0  0.14830418847E+01  0.17161781845E+02 -0.21179302135E+02  0.27299981841E+02  0.51100000000E-03 0. -1.
        -11    1    3    3    0    0  0.70372532271E+01 -0.33340825831E+00  0.35347268555E+01  0.78821563200E+01  0.51100000000E-03 0.  1.
         12    1    3    3    0    0  0.19647296359E+02 -0.23918510976E+01  0.13784999094E+02  0.24119772095E+02  0.00000000000E+00 0. -1.
</event>
<event>
 7    1  0.6055092E-013  0.5930195E+02  0.7816164E-02  0.1266605E+00
        -11   -1    0    0    0    0  0.00000000000E+00  0.00000000000E+00  0.45593999997E+02  0.45594000000E+02  0.51100000000E-03 0.  1.
         11   -1    0    0    0    0 -0.00000000000E+00 -0.00000000000E+00 -0.45593999997E+02  0.45594000000E+02  0.51100000000E-03 0. -1.
    9900012    2    1    2    0    0 -0.25711881372E+02  0.16366239339E+02 -0.93683115095E+01  0.59301954552E+02  0.50000019194E+02 0.  0.
        -12    1    1    2    0    0  0.25711881372E+02 -0.16366239339E+02  0.93683115095E+01  0.31886045448E+02  0.00000000000E+00 0.  1.
         11    1    3    3    0    0  0.57923043047E+01  0.48883858940E+01  0.40008053054E+01  0.85705046036E+01  0.51100000000E-03 0. -1.
        -11    1    3    3    0    0 -0.24591013812E+02  0.14399686053E+02  0.67265905914E+01  0.29279957991E+02  0.51100000000E-03 0.  1.
        -12    1    3    3    0    0 -0.69131718650E+01 -0.29218326083E+01 -0.20095707406E+02  0.21451491957E+02  0.00000000000E+00 0.  1.
</event>
<event>
 7    1  0.6055092E-013  0.5930193E+02  0.7816164E-02  0.1266605E+00
        -11   -1    0    0    0    0  0.00000000000E+00  0.00000000000E+00  0.45593999997E+02  0.45594000000E+02  0.51100000000E-03 0.  1.
         11   -1    0    0    0    0 -0.00000000000E+00 -0.00000000000E+00 -0.45593999997E+02  0.45594000000E+02  0.51100000000E-03 0. -1.
    9900012    2    1    2    0    0 -0.41276414485E+01 -0.15288096127E+02 -0.27675948644E+02  0.59301930307E+02  0.49999974976E+02 0.  0.
        -12    1    1    2    0    0  0.41276414485E+01  0.15288096127E+02  0.27675948644E+02  0.31886069693E+02  0.00000000000E+00 0.  1.
         11    1    3    3    0    0 -0.11858664323E+02 -0.11593283122E+02 -0.35017010253E+02  0.38745620919E+02  0.51100000000E-03 0. -1.
        -11    1    3    3    0    0  0.59912983872E+01 -0.95696355747E+01  0.87323647905E+01  0.14273323947E+02  0.51100000000E-03 0.  1.
         12    1    3    3    0    0  0.17397244871E+01  0.58748225690E+01 -0.13913031815E+01  0.62829854409E+01  0.00000000000E+00 0. -1.
</event>
<event>
 7    1  0.6055092E-013  0.5930192E+02  0.7816164E-02  0.1266605E+00
        -11   -1    0    0    0    0  0.00000000000E+00  0.00000000000E+00  0.45593999997E+02  0.45594000000E+02  0.51100000000E-03 0.  1.
         11   -1    0    0    0    0 -0.00000000000E+00 -0.00000000000E+00 -0.45593999997E+02  0.45594000000E+02  0.51100000000E-03 0. -1.
    9900012    2    1    2    0    0 -0.19067438645E+02 -0.62800235746E+01 -0.24773298173E+02  0.59301918162E+02  0.49999952828E+02 0.  0.
        -12    1    1    2    0    0  0.19067438645E+02  0.62800235746E+01  0.24773298173E+02  0.31886081838E+02  0.00000000000E+00 0.  1.
         11    1    3    3    0    0 -0.17768780381E+02  0.50741832787E+01 -0.11588499904E+02  0.21812157676E+02  0.51100000000E-03 0. -1.
        -11    1    3    3    0    0  0.34138881698E+01 -0.15912400870E+02 -0.21459380870E+02  0.26932585495E+02  0.51100000000E-03 0.  1.
        -12    1    3    3    0    0 -0.47125464334E+01  0.45581940168E+01  0.82745826007E+01  0.10557174991E+02  0.00000000000E+00 0.  1.
</event>
<event>
 7    1  0.6055092E-013  0.5930194E+02  0.7816164E-02  0.1266605E+00
        -11   -1    0    0    0    0  0.00000000000E+00  0.00000000000E+00  0.45593999997E+02  0.45594000000E+02  0.51100000000E-03 0.  1.
         11   -1    0    0    0    0 -0.00000000000E+00 -0.00000000000E+00 -0.45593999997E+02  0.45594000000E+02  0.51100000000E-03 0. -1.
    9900012    2    1    2    0    0 -0.30168034227E+02 -0.29215716326E+01 -0.99032942596E+01  0.59301935534E+02  0.49999984510E+02 0.  0.
        -12    1    1    2    0    0  0.30168034227E+02  0.29215716326E+01  0.99032942596E+01  0.31886064466E+02  0.00000000000E+00 0.  1.
         11    1    3    3    0    0  0.87274501734E+01 -0.31005987174E+00 -0.29115184572E+01  0.92055126767E+01  0.51100000000E-03 0. -1.
        -11    1    3    3    0    0 -0.12413570383E+02  0.62918110063E+01  0.10233608684E+02  0.17274558239E+02  0.51100000000E-03 0.  1.
         12    1    3    3    0    0 -0.26481914017E+02 -0.89033227672E+01 -0.17225384487E+02  0.32821864618E+02  0.00000000000E+00 0. -1.
</event>
<event>
 7    1  0.6055092E-013  0.5930198E+02  0.7816164E-02  0.1266605E+00
        -11   -1    0    0    0    0  0.00000000000E+00  0.00000000000E+00  0.45593999997E+02  0.45594000000E+02  0.51100000000E-03 0. -1.
         11   -1    0    0    0    0 -0.00000000000E+00 -0.00000000000E+00 -0.45593999997E+02  0.45594000000E+02  0.51100000000E-03 0.  1.
    9900012    2    1    2    0    0  0.12306724713E+02 -0.28723816510E+02  0.63407444897E+01  0.59301981924E+02  0.50000069114E+02 0.  0.
        -12    1    1    2    0    0 -0.12306724713E+02  0.28723816510E+02 -0.63407444897E+01  0.31886018076E+02  0.00000000000E+00 0.  1.
         11    1    3    3    0    0  0.11408475773E+02 -0.30258769339E+02  0.15833716645E+02  0.36006291457E+02  0.51100000000E-03 0. -1.
        -11    1    3    3    0    0 -0.69762449093E+01  0.17540004937E+01 -0.12854954988E+02  0.14730729064E+02  0.51100000000E-03 0.  1.
        -12    1    3    3    0    0  0.78744938499E+01 -0.21904766413E+00  0.33619828324E+01  0.85649614031E+01  0.00000000000E+00 0.  1.
</event>
<event>
 7    1  0.6055092E-013  0.5930193E+02  0.7816164E-02  0.1266605E+00
        -11   -1    0    0    0    0  0.00000000000E+00  0.00000000000E+00  0.45593999997E+02  0.45594000000E+02  0.51100000000E-03 0.  1.
         11   -1    0    0    0    0 -0.00000000000E+00 -0.00000000000E+00 -0.45593999997E+02  0.45594000000E+02  0.51100000000E-03 0. -1.
    9900012    2    1    2    0    0  0.30736320579E+02 -0.52161576916E+01 -0.66926423849E+01  0.59301934613E+02  0.49999982830E+02 0.  0.
        -12    1    1    2    0    0 -0.30736320579E+02  0.52161576916E+01  0.66926423849E+01  0.31886065387E+02  0.00000000000E+00 0.  1.
         11    1    3    3    0    0  0.12762264453E+02 -0.18637533810E+02  0.33548940829E+01  0.22836119965E+02  0.51100000000E-03 0. -1.
        -11    1    3    3    0    0  0.16706729941E+02  0.17920092594E+02  0.94793732064E+00  0.24518220354E+02  0.51100000000E-03 0.  1.
         12    1    3    3    0    0  0.12673261846E+01 -0.44987164751E+01 -0.10995473788E+02  0.11947594294E+02  0.00000000000E+00 0. -1.
</event>
<event>
 7    1  0.6055092E-013  0.5930192E+02  0.7816164E-02  0.1266605E+00
        -11   -1    0    0    0    0  0.00000000000E+00  0.00000000000E+00  0.45593999997E+02  0.45594000000E+02  0.51100000000E-03 0.  1.
         11   -1    0    0    0    0 -0.00000000000E+00 -0.00000000000E+00 -0.45593999997E+02  0.45594000000E+02  0.51100000000E-03 0. -1.
    9900012    2    1    2    0    0  0.18444767026E+02 -0.23648764974E+02 -0.10828127665E+02  0.59301923663E+02  0.49999962860E+02 0.  0.
        -12    1    1    2    0    0 -0.18444767026E+02  0.23648764974E+02  0.10828127665E+02  0.31886076337E+02  0.00000000000E+00 0.  1.
         11    1    3    3    0    0  0.17191710982E+02  0.16115025089E+01 -0.51857750694E+01  0.18028980286E+02  0.51100000000E-03 0. -1.
        -11    1    3    3    0    0 -0.50088597684E+01 -0.28158610515E+02  0.45543424483E+01  0.28960974737E+02  0.51100000000E-03 0.  1.
        -12    1    3    3    0    0  0.62619158132E+01  0.28983430329E+01 -0.10196695044E+02  0.12311968640E+02  0.00000000000E+00 0.  1.
</event>
<event>
 7    1  0.6055092E-013  0.5930194E+02  0.7816164E-02  0.1266605E+00
        -11   -1    0    0    0    0  0.00000000000E+00  0.00000000000E+00  0.45593999997E+02  0.45594000000E+02  0.51100000000E-03 0.  1.
         11   -1    0    0    0    0 -0.00000000000E+00 -0.00000000000E+00 -0.45593999997E+02  0.45594000000E+02  0.51100000000E-03 0. -1.
    9900012    2    1    2    0    0  0.36336022910E+00 -0.23009785035E+02 -0.22071212407E+02  0.59301942621E+02  0.49999997435E+02 0.  0.
        -12    1    1    2    0    0 -0.36336022910E+00  0.23009785035E+02  0.22071212407E+02  0.31886057379E+02  0.00000000000E+00 0.  1.
         11    1    3    3    0    0 -0.83148302105E+01  0.64115420897E+01 -0.12115076026E+02  0.16031822753E+02  0.51100000000E-03 0. -1.
        -11    1    3    3    0    0  0.13824002990E+01 -0.20279860747E+02  0.79968569759E+01  0.21843385824E+02  0.51100000000E-03 0.  1.
         12    1    3    3    0    0  0.72957901407E+01 -0.91414663782E+01 -0.17952993358E+02  0.21426734045E+02  0.00000000000E+00 0. -1.
</event>
<event>
 7    1  0.6055092E-013  0.5930194E+02  0.7816164E-02  0.1266605E+00
        -11   -1    0    0    0    0  0.00000000000E+00  0.00000000000E+00  0.45593999997E+02  0.45594000000E+02  0.51100000000E-03 0. -1.
         11   -1    0    0    0    0 -0.00000000000E+00 -0.00000000000E+00 -0.45593999997E+02  0.45594000000E+02  0.51100000000E-03 0.  1.
    9900012    2    1    2    0    0 -0.19653960057E+02  0.11388788223E+02  0.22377177093E+02  0.59301941953E+02  0.49999996216E+02 0.  0.
        -12    1    1    2    0    0  0.19653960057E+02 -0.11388788223E+02 -0.22377177093E+02  0.31886058047E+02  0.00000000000E+00 0.  1.
         11    1    3    3    0    0  0.82173699302E+01  0.18401672743E+02  0.66478069651E+01  0.21221217354E+02  0.51100000000E-03 0. -1.
        -11    1    3    3    0    0 -0.17971633750E+02  0.47181295863E+01  0.46607748148E+01  0.19156283266E+02  0.51100000000E-03 0.  1.
         12    1    3    3    0    0 -0.98996962368E+01 -0.11731014106E+02  0.11068595313E+02  0.18924441332E+02  0.00000000000E+00 0. -1.
</event>
<event>
 7    1  0.6055092E-013  0.5930194E+02  0.7816164E-02  0.1266605E+00
        -11   -1    0    0    0    0  0.00000000000E+00  0.00000000000E+00  0.45593999997E+02  0.45594000000E+02  0.51100000000E-03 0. -1.
         11   -1    0    0    0    0 -0.00000000000E+00 -0.00000000000E+00 -0.45593999997E+02  0.45594000000E+02  0.51100000000E-03 0.  1.
    9900012    2    1    2    0    0  0.23538488068E+02 -0.87437422031E+01  0.19652158664E+02  0.59301940532E+02  0.49999993624E+02 0.  0.
        -12    1    1    2    0    0 -0.23538488068E+02  0.87437422031E+01 -0.19652158664E+02  0.31886059468E+02  0.00000000000E+00 0.  1.
         11    1    3    3    0    0  0.95579072997E+01  0.94769701967E+00 -0.11478761559E+02  0.14967086850E+02  0.51100000000E-03 0. -1.
        -11    1    3    3    0    0  0.86704723717E+01 -0.13491226111E+02  0.41366179936E+01  0.16562061521E+02  0.51100000000E-03 0.  1.
         12    1    3    3    0    0  0.53101083968E+01  0.37997868883E+01  0.26994302229E+02  0.27772792161E+02  0.00000000000E+00 0. -1.
</event>
<event>
 7    1  0.6055092E-013  0.5930195E+02  0.7816164E-02  0.1266605E+00
        -11   -1    0    0    0    0  0.00000000000E+00  0.00000000000E+00  0.45593999997E+02  0.45594000000E+02  0.51100000000E-03 0. -1.
         11   -1    0    0    0    0 -0.00000000000E+00 -0.00000000000E+00 -0.45593999997E+02  0.45594000000E+02  0.51100000000E-03 0.  1.
    9900012    2    1    2    0    0 -0.26307528178E+02 -0.19726413207E+01  0.17909303186E+02  0.59301945160E+02  0.50000002066E+02 0.  0.
        -12    1    1    2    0    0  0.26307528178E+02  0.19726413207E+01 -0.17909303186E+02  0.31886054840E+02  0.00000000000E+00 0.  1.
         11    1    3    3    0    0 -0.24166058757E+01 -0.21160096445E+02  0.17714318062E+02  0.27701745977E+02  0.51100000000E-03 0. -1.
        -11    1    3    3    0    0 -0.92875346154E+01  0.50839947299E+01 -0.31004519067E+01  0.11032592802E+02  0.51100000000E-03 0.  1.
        -12    1    3    3    0    0 -0.14603387687E+02  0.14103460395E+02  0.32954370314E+01  0.20567606381E+02  0.00000000000E+00 0.  1.
</event>
<event>
 7    1  0.6071489E-013  0.5930191E+02  0.7816164E-02  0.1266605E+00
        -11   -1    0    0    0    0  0.00000000000E+00  0.00000000000E+00  0.45593999997E+02  0.45594000000E+02  0.51100000000E-03 0. -1.
         11   -1    0    0    0    0 -0.00000000000E+00 -0.00000000000E+00 -0.45593999997E+02  0.45594000000E+02  0.51100000000E-03 0.  1.
    9900012    2    1    2    0    0 -0.29328308687E+02  0.33652467830E+01  0.12051899514E+02  0.59301908075E+02  0.49999934430E+02 0.  0.
        -12    1    1    2    0    0  0.29328308687E+02 -0.33652467830E+01 -0.12051899514E+02  0.31886091925E+02  0.00000000000E+00 0.  1.
         11    1    3    3    0    0  0.38795314325E+00 -0.71259342718E+01  0.13981137489E+02  0.15697186138E+02  0.51100000000E-03 0. -1.
        -11    1    3    3    0    0 -0.26698174311E+02  0.12952796636E+02  0.97960885541E+01  0.31249492851E+02  0.51100000000E-03 0.  1.
        -12    1    3    3    0    0 -0.30180875198E+01 -0.24616155815E+01 -0.11725326529E+02  0.12355229086E+02  0.00000000000E+00 0.  1.
</event>
<event>
 7    1  0.6055092E-013  0.5930194E+02  0.7816164E-02  0.1266605E+00
        -11   -1    0    0    0    0  0.00000000000E+00  0.00000000000E+00  0.45593999997E+02  0.45594000000E+02  0.51100000000E-03 0.  1.
         11   -1    0    0    0    0 -0.00000000000E+00 -0.00000000000E+00 -0.45593999997E+02  0.45594000000E+02  0.51100000000E-03 0. -1.
    9900012    2    1    2    0    0  0.30260099317E+01  0.13581984312E+02 -0.28689605962E+02  0.59301944674E+02  0.50000001179E+02 0.  0.
        -12    1    1    2    0    0 -0.30260099317E+01 -0.13581984312E+02  0.28689605962E+02  0.31886055326E+02  0.00000000000E+00 0.  1.
         11    1    3    3    0    0  0.43184570124E+01 -0.12283950337E+02 -0.14174975674E+02  0.19247712656E+02  0.51100000000E-03 0. -1.
        -11    1    3    3    0    0 -0.13912460739E+02  0.10404685097E+02 -0.69165749465E+01  0.18699011874E+02  0.51100000000E-03 0.  1.
        -12    1    3    3    0    0  0.12620013659E+02  0.15461249552E+02 -0.75980553420E+01  0.21355220145E+02  0.00000000000E+00 0.  1.
</event>
<event>
 7    1  0.6055092E-013  0.5930194E+02  0.7816164E-02  0.1266605E+00
        -11   -1    0    0    0    0  0.00000000000E+00  0.00000000000E+00  0.45593999997E+02  0.45594000000E+02  0.51100000000E-03 0. -1.
         11   -1    0    0    0    0 -0.00000000000E+00 -0.00000000000E+00 -0.45593999997E+02  0.45594000000E+02  0.51100000000E-03 0.  1.
    9900012    2    1    2    0    0  0.78610388045E+00  0.25724611545E+02  0.18824116718E+02  0.59301937706E+02  0.49999988470E+02 0.  0.
        -12    1    1    2    0    0 -0.78610388045E+00 -0.25724611545E+02 -0.18824116718E+02  0.31886062294E+02  0.00000000000E+00 0.  1.
         11    1    3    3    0    0  0.28042921276E+01 -0.61503256000E+00  0.71157178493E+01  0.76730541611E+01  0.51100000000E-03 0. -1.
        -11    1    3    3    0    0 -0.85534775379E+01 -0.16237249541E+01 -0.11697382808E+02  0.14581742884E+02  0.51100000000E-03 0.  1.
        -12    1    3    3    0    0  0.65352892907E+01  0.27963369059E+02  0.23405781676E+02  0.37047140661E+02  0.00000000000E+00 0.  1.
</event>
<event>
 7    1  0.6055092E-013  0.5930196E+02  0.7816164E-02  0.1266605E+00
        -11   -1    0    0    0    0  0.00000000000E+00  0.00000000000E+00  0.45593999997E+02  0.45594000000E+02  0.51100000000E-03 0. -1.
         11   -1    0    0    0    0 -0.00000000000E+00 -0.00000000000E+00 -0.45593999997E+02  0.45594000000E+02  0.51100000000E-03 0.  1.
    9900012    2    1    2    0    0 -0.17236380657E+02  0.92472279065E+01  0.25181646798E+02  0.59301962655E+02  0.50000033972E+02 0.  0.
        -12    1    1    2    0    0  0.17236380657E+02 -0.92472279065E+01 -0.25181646798E+02  0.31886037345E+02  0.00000000000E+00 0.  1.
         11    1    3    3    0    0 -0.10101516950E+02 -0.46633332054E+01  0.30843094648E+02  0.32788470672E+02  0.51100000000E-03 0. -1.
        -11    1    3    3    0    0 -0.14946383049E+01  0.58855928761E+01 -0.12943461987E+02  0.14297110045E+02  0.51100000000E-03 0.  1.
         12    1    3    3    0    0 -0.56402254018E+01  0.80249682357E+01  0.72820141367E+01  0.12216381938E+02  0.00000000000E+00 0. -1.
</event>
<event>
 7    1  0.6055092E-013  0.5930195E+02  0.7816164E-02  0.1266605E+00
        -11   -1    0    0    0    0  0.00000000000E+00  0.00000000000E+00  0.45593999997E+02  0.45594000000E+02  0.51100000000E-03 0.  1.
         11   -1    0    0    0    0 -0.00000000000E+00 -0.00000000000E+00 -0.45593999997E+02  0.45594000000E+02  0.51100000000E-03 0. -1.
    9900012    2    1    2    0    0 -0.10631123090E+01  0.31591782569E+02 -0.41891493137E+01  0.59301954375E+02  0.50000018870E+02 0.  0.
        -12    1    1    2    0    0  0.10631123090E+01 -0.31591782569E+02  0.41891493137E+01  0.31886045625E+02  0.00000000000E+00 0.  1.
         11    1    3    3    0    0 -0.51030032270E+01  0.14569695746E+01 -0.17630390202E+02  0.18411791363E+02  0.51100000000E-03 0. -1.
        -11    1    3    3    0    0  0.69969455639E+01  0.13845830103E+02  0.17957006071E+02  0.23730114322E+02  0.51100000000E-03 0.  1.
        -12    1    3    3    0    0 -0.29570546460E+01  0.16288982891E+02 -0.45157651827E+01  0.17160048689E+02  0.00000000000E+00 0.  1.
</event>
<event>
 7    1  0.6055092E-013  0.5930195E+02  0.7816164E-02  0.1266605E+00
        -11   -1    0    0    0    0  0.00000000000E+00  0.00000000000E+00  0.45593999997E+02  0.45594000000E+02  0.51100000000E-03 0.  1.
         11   -1    0    0    0    0 -0.00000000000E+00 -0.00000000000E+00 -0.45593999997E+02  0.45594000000E+02  0.51100000000E-03 0. -1.
    9900012    2    1    2    0    0 -0.21864141832E+02  0.12775898828E+01 -0.23174276984E+02  0.59301952147E+02  0.50000014808E+02 0.  0.
        -12    1    1    2    0    0  0.21864141832E+02 -0.12775898828E+01  0.23174276984E+02  0.31886047853E+02  0.00000000000E+00 0.  1.
         11    1    3    3    0    0 -0.37832711478E+01  0.19538702417E+02 -0.92192187685E+01  0.21933263042E+02  0.51100000000E-03 0. -1.
        -11    1    3    3    0    0 -0.20168153554E+02 -0.19388478517E+02 -0.54022948343E+01  0.28493022071E+02  0.51100000000E-03 0.  1.
        -12    1    3    3    0    0  0.20872828706E+01  0.11273659831E+01 -0.85527633812E+01  0.88756670339E+01  0.00000000000E+00 0.  1.
</event>
<event>
 7    1  0.6055092E-013  0.5930194E+02  0.7816164E-02  0.1266605E+00
        -11   -1    0    0    0    0  0.00000000000E+00  0.00000000000E+00  0.45593999997E+02  0.45594000000E+02  0.51100000000E-03 0.  1.
         11   -1    0    0    0    0 -0.00000000000E+00 -0.00000000000E+00 -0.45593999997E+02  0.45594000000E+02  0.51100000000E-03 0. -1.
    9900012    2    1    2    0    0  0.26026576921E+02 -0.18377537064E+02 -0.12665875486E+01  0.59301940055E+02  0.49999992756E+02 0.  0.
        -12    1    1    2    0    0 -0.26026576921E+02  0.18377537064E+02  0.12665875486E+01  0.31886059945E+02  0.00000000000E+00 0.  1.
         11    1    3    3    0    0 -0.60458851546E+01  0.87444914232E+01 -0.62144896919E+01  0.12314168260E+02  0.51100000000E-03 0. -1.
        -11    1    3    3    0    0  0.21213529661E+02 -0.45755894851E+01  0.23021838826E+01  0.21823150797E+02  0.51100000000E-03 0.  1.
         12    1    3    3    0    0  0.10858932415E+02 -0.22546439002E+02  0.26457182607E+01  0.25164620998E+02  0.00000000000E+00 0. -1.
</event>
<event>
 7    1  0.6055092E-013  0.5930194E+02  0.7816164E-02  0.1266605E+00
        -11   -1    0    0    0    0  0.00000000000E+00  0.00000000000E+00  0.45593999997E+02  0.45594000000E+02  0.51100000000E-03 0. -1.
         11   -1    0    0    0    0 -0.00000000000E+00 -0.00000000000E+00 -0.45593999997E+02  0.45594000000E+02  0.51100000000E-03 0.  1.
    9900012    2    1    2    0    0 -0.59148979346E+01  0.25851173758E+02  0.17704558471E+02  0.59301943598E+02  0.49999999216E+02 0.  0.
        -12    1    1    2    0    0  0.59148979346E+01 -0.25851173758E+02 -0.17704558471E+02  0.31886056402E+02  0.00000000000E+00 0.  1.
         11    1    3    3    0    0  0.17377086459E+02  0.22388842158E+01  0.46802230181E+01  0.18135055117E+02  0.51100000000E-03 0. -1.
        -11    1    3    3    0    0 -0.24611142097E+02  0.20052611342E+02  0.47977076025E+01  0.32106596448E+02  0.51100000000E-03 0.  1.
        -12    1    3    3    0    0  0.13191577037E+01  0.35596782003E+01  0.82266278504E+01  0.90602920332E+01  0.00000000000E+00 0.  1.
</event>
<event>
 7    1  0.6055092E-013  0.5930201E+02  0.7816164E-02  0.1266605E+00
        -11   -1    0    0    0    0  0.00000000000E+00  0.00000000000E+00  0.45593999997E+02  0.45594000000E+02  0.51100000000E-03 0.  1.
         11   -1    0    0    0    0 -0.00000000000E+00 -0.00000000000E+00 -0.45593999997E+02  0.45594000000E+02  0.51100000000E-03 0. -1.
    9900012    2    1    2    0    0 -0.77615380865E+01 -0.11700955345E+02 -0.28628007642E+02  0.59302005410E+02  0.50000111946E+02 0.  0.
        -12    1    1    2    0    0  0.77615380865E+01  0.11700955345E+02  0.28628007642E+02  0.31885994590E+02  0.00000000000E+00 0.  1.
         11    1    3    3    0    0  0.13399143754E+02  0.84019102628E+01 -0.45946584356E+01  0.16469366588E+02  0.51100000000E-03 0. -1.
        -11    1    3    3    0    0 -0.89978303239E+01 -0.12176333986E+02 -0.23926702355E+02  0.28314504158E+02  0.51100000000E-03 0.  1.
         12    1    3    3    0    0 -0.12162851517E+02 -0.79265316224E+01 -0.10664685120E+00  0.14518134664E+02  0.00000000000E+00 0. -1.
</event>
<event>
 7    1  0.6055092E-013  0.5930183E+02  0.7816164E-02  0.1266605E+00
        -11   -1    0    0    0    0  0.00000000000E+00  0.00000000000E+00  0.45593999997E+02  0.45594000000E+02  0.51100000000E-03 0. -1.
         11   -1    0    0    0    0 -0.00000000000E+00 -0.00000000000E+00 -0.45593999997E+02  0.45594000000E+02  0.51100000000E-03 0.  1.
    9900012    2    1    2    0    0  0.11235690197E+02  0.29748559513E+02  0.23473731551E+01  0.59301832340E+02  0.49999796308E+02 0.  0.
        -12    1    1    2    0    0 -0.11235690197E+02 -0.29748559513E+02 -0.23473731551E+01  0.31886167660E+02  0.00000000000E+00 0.  1.
         11    1    3    3    0    0  0.99432617768E+01 -0.95930679908E+01  0.70447015834E+01  0.15508811331E+02  0.51100000000E-03 0.  1.
        -11    1    3    3    0    0 -0.66840951332E+01  0.31947368631E+02 -0.41603805807E+01  0.32903195240E+02  0.51100000000E-03 0. -1.
         12    1    3    3    0    0  0.79765235534E+01  0.73942588735E+01 -0.53694784756E+00  0.10889825769E+02  0.00000000000E+00 0. -1.
</event>
<event>
 7    1  0.6055092E-013  0.5930195E+02  0.7816164E-02  0.1266605E+00
        -11   -1    0    0    0    0  0.00000000000E+00  0.00000000000E+00  0.45593999997E+02  0.45594000000E+02  0.51100000000E-03 0.  1.
         11   -1    0    0    0    0 -0.00000000000E+00 -0.00000000000E+00 -0.45593999997E+02  0.45594000000E+02  0.51100000000E-03 0. -1.
    9900012    2    1    2    0    0 -0.10485371202E+02  0.18785712085E+02 -0.23534530575E+02  0.59301951057E+02  0.50000012820E+02 0.  0.
        -12    1    1    2    0    0  0.10485371202E+02 -0.18785712085E+02  0.23534530575E+02  0.31886048943E+02  0.00000000000E+00 0.  1.
         11    1    3    3    0    0 -0.14724892549E+02  0.30865911086E+01 -0.11497207269E+02  0.18935027872E+02  0.51100000000E-03 0. -1.
        -11    1    3    3    0    0  0.11039794397E+02  0.13917782659E+02  0.77399024926E+01  0.19377508233E+02  0.51100000000E-03 0.  1.
        -12    1    3    3    0    0 -0.68002730503E+01  0.17813383166E+01 -0.19777225798E+02  0.20989414952E+02  0.00000000000E+00 0.  1.
</event>
<event>
 7    1  0.6055092E-013  0.5930192E+02  0.7816164E-02  0.1266605E+00
        -11   -1    0    0    0    0  0.00000000000E+00  0.00000000000E+00  0.45593999997E+02  0.45594000000E+02  0.51100000000E-03 0.  1.
         11   -1    0    0    0    0 -0.00000000000E+00 -0.00000000000E+00 -0.45593999997E+02  0.45594000000E+02  0.51100000000E-03 0. -1.
    9900012    2    1    2    0    0  0.73183096113E+00 -0.29488385296E+02  0.12108747462E+02  0.59301918255E+02  0.49999952997E+02 0.  0.
        -12    1    1    2    0    0 -0.73183096113E+00  0.29488385296E+02 -0.12108747462E+02  0.31886081745E+02  0.00000000000E+00 0.  1.
         11    1    3    3    0    0 -0.47317083323E+01 -0.27731717027E+02 -0.55666716914E+01  0.28677953675E+02  0.51100000000E-03 0. -1.
        -11    1    3    3    0    0 -0.91525733235E+01 -0.35882080746E+01  0.99631094257E+01  0.13996727665E+02  0.51100000000E-03 0.  1.
         12    1    3    3    0    0  0.14616112617E+02  0.18315398058E+01  0.77123097281E+01  0.16627236915E+02  0.00000000000E+00 0. -1.
</event>
<event>
 7    1  0.6055092E-013  0.5930204E+02  0.7816164E-02  0.1266604E+00
        -11   -1    0    0    0    0  0.00000000000E+00  0.00000000000E+00  0.45593999997E+02  0.45594000000E+02  0.51100000000E-03 0.  1.
         11   -1    0    0    0    0 -0.00000000000E+00 -0.00000000000E+00 -0.45593999997E+02  0.45594000000E+02  0.51100000000E-03 0. -1.
    9900012    2    1    2    0    0 -0.11941659484E+01 -0.17480749283E+02 -0.26640415770E+02  0.59302041018E+02  0.50000176886E+02 0.  0.
        -12    1    1    2    0    0  0.11941659484E+01  0.17480749283E+02  0.26640415770E+02  0.31885958982E+02  0.00000000000E+00 0.  1.
         11    1    3    3    0    0  0.71580904955E+01 -0.27303229380E+02 -0.23141452658E+02  0.36499745553E+02  0.51100000000E-03 0. -1.
        -11    1    3    3    0    0  0.90582157417E+00  0.33556472575E+01  0.67241209419E+01  0.75693251973E+01  0.51100000000E-03 0.  1.
         12    1    3    3    0    0 -0.92580780180E+01  0.64668328396E+01 -0.10223084055E+02  0.15232970267E+02  0.00000000000E+00 0. -1.
</event>
<event>
 7    1  0.6055092E-013  0.5930194E+02  0.7816164E-02  0.1266605E+00
        -11   -1    0    0    0    0  0.00000000000E+00  0.00000000000E+00  0.45593999997E+02  0.45594000000E+02  0.51100000000E-03 0.  1.
         11   -1    0    0    0    0 -0.00000000000E+00 -0.00000000000E+00 -0.45593999997E+02  0.45594000000E+02  0.51100000000E-03 0. -1.
    9900012    2    1    2    0    0 -0.10519364599E+02  0.30100533405E+02 -0.14682335990E+00  0.59301941919E+02  0.49999996155E+02 0.  0.
        -12    1    1    2    0    0  0.10519364599E+02 -0.30100533405E+02  0.14682335990E+00  0.31886058081E+02  0.00000000000E+00 0.  1.
         11    1    3    3    0    0 -0.12248893418E+01  0.21215322543E+02  0.28680621534E+01  0.21443321694E+02  0.51100000000E-03 0. -1.
        -11    1    3    3    0    0  0.82292604290E+01 -0.74965507758E+01  0.54837019151E+01  0.12409270232E+02  0.51100000000E-03 0.  1.
        -12    1    3    3    0    0 -0.17523735687E+02  0.16381761637E+02 -0.84985874284E+01  0.25449349993E+02  0.00000000000E+00 0.  1.
</event>
<event>
 7    1  0.6055092E-013  0.5930193E+02  0.7816164E-02  0.1266605E+00
        -11   -1    0    0    0    0  0.00000000000E+00  0.00000000000E+00  0.45593999997E+02  0.45594000000E+02  0.51100000000E-03 0.  1.
         11   -1    0    0    0    0 -0.00000000000E+00 -0.00000000000E+00 -0.45593999997E+02  0.45594000000E+02  0.51100000000E-03 0. -1.
    9900012    2    1    2    0    0 -0.26284493371E+02 -0.12217164598E+02 -0.13288630803E+02  0.59301930765E+02  0.49999975812E+02 0.  0.
        -12    1    1    2    0    0  0.26284493371E+02  0.12217164598E+02  0.13288630803E+02  0.31886069235E+02  0.00000000000E+00 0.  1.
         11    1    3    3    0    0 -0.82686785230E+01  0.14383403701E+02 -0.36062682991E+00  0.16594679825E+02  0.51100000000E-03 0. -1.
        -11    1    3    3    0    0 -0.12164214669E+02 -0.18479986612E+02  0.45302845448E+01  0.22583212837E+02  0.51100000000E-03 0.  1.
         12    1    3    3    0    0 -0.58516001793E+01 -0.81205816867E+01 -0.17458288518E+02  0.20124038103E+02  0.00000000000E+00 0. -1.
</event>
<event>
 7    1  0.6055092E-013  0.5930199E+02  0.7816164E-02  0.1266605E+00
        -11   -1    0    0    0    0  0.00000000000E+00  0.00000000000E+00  0.45593999997E+02  0.45594000000E+02  0.51100000000E-03 0.  1.
         11   -1    0    0    0    0 -0.00000000000E+00 -0.00000000000E+00 -0.45593999997E+02  0.45594000000E+02  0.51100000000E-03 0. -1.
    9900012    2    1    2    0    0  0.29877027795E+02 -0.27385153357E+01  0.10797272850E+02  0.59301994338E+02  0.50000091754E+02 0.  0.
        -12    1    1    2    0    0 -0.29877027795E+02  0.27385153357E+01 -0.10797272850E+02  0.31886005662E+02  0.00000000000E+00 0.  1.
         11    1    3    3    0    0  0.10667494345E+02 -0.46964607421E+01  0.18298954905E+01  0.11798334496E+02  0.51100000000E-03 0. -1.
        -11    1    3    3    0    0 -0.55431412514E+01 -0.84552811585E+01  0.16732355742E+02  0.19549678344E+02  0.51100000000E-03 0.  1.
        -12    1    3    3    0    0  0.24752674701E+02  0.10413226565E+02 -0.77649783823E+01  0.27953981498E+02  0.00000000000E+00 0.  1.
</event>
<event>
 7    1  0.6055092E-013  0.5930194E+02  0.7816164E-02  0.1266605E+00
        -11   -1    0    0    0    0  0.00000000000E+00  0.00000000000E+00  0.45593999997E+02  0.45594000000E+02  0.51100000000E-03 0.  1.
         11   -1    0    0    0    0 -0.00000000000E+00 -0.00000000000E+00 -0.45593999997E+02  0.45594000000E+02  0.51100000000E-03 0. -1.
    9900012    2    1    2    0    0 -0.24643359042E+02 -0.34455976925E+01 -0.19938750239E+02  0.59301936439E+02  0.49999986160E+02 0.  0.
        -12    1    1    2    0    0  0.24643359042E+02  0.34455976925E+01  0.19938750239E+02  0.31886063561E+02  0.00000000000E+00 0.  1.
         11    1    3    3    0    0 -0.17859047933E+02 -0.14932757431E-01 -0.31859567779E+02  0.36523661856E+02  0.51100000000E-03 0. -1.
        -11    1    3    3    0    0 -0.64336377137E+01  0.47367587036E+01  0.12217660749E+02  0.14597938611E+02  0.51100000000E-03 0.  1.
         12    1    3    3    0    0 -0.35067339485E+00 -0.81674236386E+01 -0.29684320992E+00  0.81803359720E+01  0.00000000000E+00 0. -1.
</event>
<event>
 7    1  0.6055092E-013  0.5930191E+02  0.7816164E-02  0.1266605E+00
        -11   -1    0    0    0    0  0.00000000000E+00  0.00000000000E+00  0.45593999997E+02  0.45594000000E+02  0.51100000000E-03 0.  1.
         11   -1    0    0    0    0 -0.00000000000E+00 -0.00000000000E+00 -0.45593999997E+02  0.45594000000E+02  0.51100000000E-03 0. -1.
    9900012    2    1    2    0    0  0.11529492203E+02 -0.14496275587E+02 -0.25954799456E+02  0.59301908814E+02  0.49999935778E+02 0.  0.
        -12    1    1    2    0    0 -0.11529492203E+02  0.14496275587E+02  0.25954799456E+02  0.31886091186E+02  0.00000000000E+00 0.  1.
         11    1    3    3    0    0 -0.64101462366E+01 -0.26737654645E+02 -0.99236444426E+01  0.29231333701E+02  0.51100000000E-03 0. -1.
        -11    1    3    3    0    0  0.11919013274E+02  0.11385738480E+02 -0.17260136344E+02  0.23866508438E+02  0.51100000000E-03 0.  1.
        -12    1    3    3    0    0  0.60206251658E+01  0.85564057718E+00  0.12289813310E+01  0.62040666741E+01  0.00000000000E+00 0.  1.
</event>
<event>
 7    1  0.6055092E-013  0.5930215E+02  0.7816164E-02  0.1266604E+00
        -11   -1    0    0    0    0  0.00000000000E+00  0.00000000000E+00  0.45593999997E+02  0.45594000000E+02  0.51100000000E-03 0.  1.
         11   -1    0    0    0    0 -0.00000000000E+00 -0.00000000000E+00 -0.45593999997E+02  0.45594000000E+02  0.51100000000E-03 0. -1.
    9900012    2    1    2    0    0  0.17645353490E+02  0.22705930509E+02 -0.13776419046E+02  0.59302148877E+02  0.50000373595E+02 0.  0.
        -12    1    1    2    0    0 -0.17645353490E+02 -0.22705930509E+02  0.13776419046E+02  0.31885851123E+02  0.00000000000E+00 0.  1.
         11    1    3    3    0    0  0.99133218732E+01  0.66053536605E+01  0.11816941104E+02  0.16779295124E+02  0.51100000000E-03 0. -1.
        -11    1    3    3    0    0  0.16604811930E+02  0.95215423852E+01 -0.60507963158E+01  0.20074652798E+02  0.51100000000E-03 0.  1.
         12    1    3    3    0    0 -0.88727803132E+01  0.65790344637E+01 -0.19542563834E+02  0.22448200956E+02  0.00000000000E+00 0. -1.
</event>
<event>
 7    1  0.6055092E-013  0.5930191E+02  0.7816164E-02  0.1266605E+00
        -11   -1    0    0    0    0  0.00000000000E+00  0.00000000000E+00  0.45593999997E+02  0.45594000000E+02  0.51100000000E-03 0.  1.
         11   -1    0    0    0    0 -0.00000000000E+00 -0.00000000000E+00 -0.45593999997E+02  0.45594000000E+02  0.51100000000E-03 0. -1.
    9900012    2    1    2    0    0 -0.45884269786E+01  0.22409497722E+02 -0.22214483916E+02  0.59301912972E+02  0.49999943362E+02 0.  0.
        -12    1    1    2    0    0  0.45884269786E+01 -0.22409497722E+02  0.22214483916E+02  0.31886087028E+02  0.00000000000E+00 0.  1.
         11    1    3    3    0    0 -0.16997814401E+02  0.17121441034E+02 -0.33408194036E+02  0.41208941584E+02  0.51100000000E-03 0. -1.
        -11    1    3    3    0    0  0.74963243085E+01  0.45411997814E+01  0.92883942639E+01  0.12770733803E+02  0.51100000000E-03 0.  1.
         12    1    3    3    0    0  0.49130631139E+01  0.74685690637E+00  0.19053158558E+01  0.53222375849E+01  0.00000000000E+00 0. -1.
</event>
<event>
 7    1  0.6055092E-013  0.5930192E+02  0.7816164E-02  0.1266605E+00
        -11   -1    0    0    0    0  0.00000000000E+00  0.00000000000E+00  0.45593999997E+02  0.45594000000E+02  0.51100000000E-03 0.  1.
         11   -1    0    0    0    0 -0.00000000000E+00 -0.00000000000E+00 -0.45593999997E+02  0.45594000000E+02  0.51100000000E-03 0. -1.
    9900012    2    1    2    0    0  0.11751646748E+02  0.26733297051E+02 -0.12804372601E+02  0.59301916355E+02  0.49999949532E+02 0.  0.
        -12    1    1    2    0    0 -0.11751646748E+02 -0.26733297051E+02  0.12804372601E+02  0.31886083645E+02  0.00000000000E+00 0.  1.
         11    1    3    3    0    0 -0.53355564200E+01  0.11487090259E+02 -0.21019392410E+02  0.24540502490E+02  0.51100000000E-03 0. -1.
        -11    1    3    3    0    0  0.69902920967E+01  0.45805658173E+01  0.16064615508E+02  0.18108496306E+02  0.51100000000E-03 0.  1.
        -12    1    3    3    0    0  0.10096911071E+02  0.10665640975E+02 -0.78495956991E+01  0.16652917559E+02  0.00000000000E+00 0.  1.
</event>
<event>
 7    1  0.6055092E-013  0.5930195E+02  0.7816164E-02  0.1266605E+00
        -11   -1    0    0    0    0  0.00000000000E+00  0.00000000000E+00  0.45593999997E+02  0.45594000000E+02  0.51100000000E-03 0. -1.
         11   -1    0    0    0    0 -0.00000000000E+00 -0.00000000000E+00 -0.45593999997E+02  0.45594000000E+02  0.51100000000E-03 0.  1.
    9900012    2    1    2    0    0 -0.79321943993E+01  0.30684116247E+02 -0.35050294827E+01  0.59301954000E+02  0.50000018186E+02 0.  0.
        -12    1    1    2    0    0  0.79321943993E+01 -0.30684116247E+02  0.35050294827E+01  0.31886046000E+02  0.00000000000E+00 0.  1.
         11    1    3    3    0    0 -0.54795389147E+01  0.35834817473E+02  0.16706347308E+01  0.36289812767E+02  0.51100000000E-03 0. -1.
        -11    1    3    3    0    0 -0.80982885464E+01 -0.98397191441E+01  0.18201373750E+01  0.12873043562E+02  0.51100000000E-03 0.  1.
        -12    1    3    3    0    0  0.56456330618E+01  0.46890179186E+01 -0.69958015885E+01  0.10139097671E+02  0.00000000000E+00 0.  1.
</event>
<event>
 7    1  0.6055092E-013  0.5930195E+02  0.7816164E-02  0.1266605E+00
        -11   -1    0    0    0    0  0.00000000000E+00  0.00000000000E+00  0.45593999997E+02  0.45594000000E+02  0.51100000000E-03 0. -1.
         11   -1    0    0    0    0 -0.00000000000E+00 -0.00000000000E+00 -0.45593999997E+02  0.45594000000E+02  0.51100000000E-03 0.  1.
    9900012    2    1    2    0    0 -0.17606684168E+02 -0.20233691237E+02  0.17243053711E+02  0.59301945215E+02  0.50000002165E+02 0.  0.
        -12    1    1    2    0    0  0.17606684168E+02  0.20233691237E+02 -0.17243053711E+02  0.31886054785E+02  0.00000000000E+00 0.  1.
         11    1    3    3    0    0  0.13784304023E+02 -0.54316342174E+01  0.14983137086E+01  0.14891428135E+02  0.51100000000E-03 0.  1.
        -11    1    3    3    0    0 -0.24947079657E+02  0.46427165180E+00  0.91643759458E+01  0.26581160966E+02  0.51100000000E-03 0. -1.
        -12    1    3    3    0    0 -0.64439085345E+01 -0.15266328672E+02  0.65803640570E+01  0.17829356114E+02  0.00000000000E+00 0.  1.
</event>
<event>
 7    1  0.6055092E-013  0.5930192E+02  0.7816164E-02  0.1266605E+00
        -11   -1    0    0    0    0  0.00000000000E+00  0.00000000000E+00  0.45593999997E+02  0.45594000000E+02  0.51100000000E-03 0.  1.
         11   -1    0    0    0    0 -0.00000000000E+00 -0.00000000000E+00 -0.45593999997E+02  0.45594000000E+02  0.51100000000E-03 0. -1.
    9900012    2    1    2    0    0 -0.10260097919E+02 -0.11221318325E+02 -0.28027393104E+02  0.59301915912E+02  0.49999948724E+02 0.  0.
        -12    1    1    2    0    0  0.10260097919E+02  0.11221318325E+02  0.28027393104E+02  0.31886084088E+02  0.00000000000E+00 0.  1.
         11    1    3    3    0    0  0.86977184318E+01  0.57510415726E+01 -0.19694552154E+02  0.22284527590E+02  0.51100000000E-03 0. -1.
        -11    1    3    3    0    0 -0.94475150816E+01 -0.13666027801E+02  0.75207484197E+01  0.18236707875E+02  0.51100000000E-03 0.  1.
         12    1    3    3    0    0 -0.95103012693E+01 -0.33063320966E+01 -0.15853589369E+02  0.18780680447E+02  0.00000000000E+00 0. -1.
</event>
<event>
 7    1  0.6055092E-013  0.5930195E+02  0.7816164E-02  0.1266605E+00
        -11   -1    0    0    0    0  0.00000000000E+00  0.00000000000E+00  0.45593999997E+02  0.45594000000E+02  0.51100000000E-03 0.  1.
         11   -1    0    0    0    0 -0.00000000000E+00 -0.00000000000E+00 -0.45593999997E+02  0.45594000000E+02  0.51100000000E-03 0. -1.
    9900012    2    1    2    0    0  0.31203450605E+02  0.55799408304E+01  0.34538696943E+01  0.59301948422E+02  0.50000008015E+02 0.  0.
        -12    1    1    2    0    0 -0.31203450605E+02 -0.55799408304E+01 -0.34538696943E+01  0.31886051578E+02  0.00000000000E+00 0.  1.
         11    1    3    3    0    0  0.28223096595E+02  0.70881238730E+01  0.87516197551E+01  0.30387094795E+02  0.51100000000E-03 0. -1.
        -11    1    3    3    0    0 -0.65451442635E+01  0.51329234248E+00  0.92899668387E+01  0.11375669940E+02  0.51100000000E-03 0.  1.
         12    1    3    3    0    0  0.95254982737E+01 -0.20214753851E+01 -0.14587716900E+02  0.17539183688E+02  0.00000000000E+00 0. -1.
</event>
<event>
 7    1  0.6055092E-013  0.5930194E+02  0.7816164E-02  0.1266605E+00
        -11   -1    0    0    0    0  0.00000000000E+00  0.00000000000E+00  0.45593999997E+02  0.45594000000E+02  0.51100000000E-03 0.  1.
         11   -1    0    0    0    0 -0.00000000000E+00 -0.00000000000E+00 -0.45593999997E+02  0.45594000000E+02  0.51100000000E-03 0. -1.
    9900012    2    1    2    0    0  0.12124229798E+02  0.29490491372E+02  0.18658933058E+00  0.59301939642E+02  0.49999992002E+02 0.  0.
        -12    1    1    2    0    0 -0.12124229798E+02 -0.29490491372E+02 -0.18658933058E+00  0.31886060358E+02  0.00000000000E+00 0.  1.
         11    1    3    3    0    0  0.51732531475E+01 -0.10078542519E+00  0.17429587760E+02  0.18181398064E+02  0.51100000000E-03 0.  1.
        -11    1    3    3    0    0  0.86979208588E+01  0.18694975051E+02 -0.21031388532E+02  0.29452932338E+02  0.51100000000E-03 0. -1.
        -12    1    3    3    0    0 -0.17469442086E+01  0.10896301746E+02  0.37883901030E+01  0.11667609240E+02  0.00000000000E+00 0.  1.
</event>
<event>
 7    1  0.6055092E-013  0.5930200E+02  0.7816164E-02  0.1266605E+00
        -11   -1    0    0    0    0  0.00000000000E+00  0.00000000000E+00  0.45593999997E+02  0.45594000000E+02  0.51100000000E-03 0. -1.
         11   -1    0    0    0    0 -0.00000000000E+00 -0.00000000000E+00 -0.45593999997E+02  0.45594000000E+02  0.51100000000E-03 0.  1.
    9900012    2    1    2    0    0 -0.30109596772E+02 -0.53273783436E+01 -0.90414663296E+01  0.59302001644E+02  0.50000105078E+02 0.  0.
        -12    1    1    2    0    0  0.30109596772E+02  0.53273783436E+01  0.90414663296E+01  0.31885998356E+02  0.00000000000E+00 0.  1.
         11    1    3    3    0    0 -0.19477990109E+02  0.38917847902E+01 -0.23444375242E+02  0.30727460330E+02  0.51100000000E-03 0. -1.
        -11    1    3    3    0    0 -0.14181774697E+02 -0.34254579206E+01  0.15939118793E+02  0.21608146697E+02  0.51100000000E-03 0.  1.
        -12    1    3    3    0    0  0.35501680340E+01 -0.57937052133E+01 -0.15362098805E+01  0.69663946174E+01  0.00000000000E+00 0.  1.
</event>
<event>
 7    1  0.6055092E-013  0.5930194E+02  0.7816164E-02  0.1266605E+00
        -11   -1    0    0    0    0  0.00000000000E+00  0.00000000000E+00  0.45593999997E+02  0.45594000000E+02  0.51100000000E-03 0.  1.
         11   -1    0    0    0    0 -0.00000000000E+00 -0.00000000000E+00 -0.45593999997E+02  0.45594000000E+02  0.51100000000E-03 0. -1.
    9900012    2    1    2    0    0 -0.14519262815E+02 -0.22811803586E+02 -0.16897734163E+02  0.59301940423E+02  0.49999993425E+02 0.  0.
        -12    1    1    2    0    0  0.14519262815E+02  0.22811803586E+02  0.16897734163E+02  0.31886059577E+02  0.00000000000E+00 0.  1.
         11    1    3    3    0    0  0.65381316257E+01 -0.25838169073E+02 -0.13514670355E+02  0.29883180240E+02  0.51100000000E-03 0. -1.
        -11    1    3    3    0    0 -0.58400559286E+01 -0.39878271561E+01  0.68003486088E+01  0.98109000677E+01  0.51100000000E-03 0.  1.
         12    1    3    3    0    0 -0.15217338512E+02  0.70141926437E+01 -0.10183412418E+02  0.19607860115E+02  0.00000000000E+00 0. -1.
</event>
<event>
 7    1  0.6578706E-013  0.5930192E+02  0.7816164E-02  0.1266605E+00
        -11   -1    0    0    0    0  0.00000000000E+00  0.00000000000E+00  0.45593999997E+02  0.45594000000E+02  0.51100000000E-03 0. -1.
         11   -1    0    0    0    0 -0.00000000000E+00 -0.00000000000E+00 -0.45593999997E+02  0.45594000000E+02  0.51100000000E-03 0.  1.
    9900012    2    1    2    0    0  0.26644046507E+02  0.16198285196E+02  0.66657720310E+01  0.59301918799E+02  0.49999953989E+02 0.  0.
        -12    1    1    2    0    0 -0.26644046507E+02 -0.16198285196E+02 -0.66657720310E+01  0.31886081201E+02  0.00000000000E+00 0.  1.
         11    1    3    3    0    0  0.30251554720E+02  0.19852448279E+02  0.11776917823E+02  0.38052228047E+02  0.51100000000E-03 0. -1.
        -11    1    3    3    0    0 -0.18435199259E+01 -0.99025585886E+01  0.33223567674E+01  0.10606473828E+02  0.51100000000E-03 0.  1.
        -12    1    3    3    0    0 -0.17639882874E+01  0.62483955062E+01 -0.84335025592E+01  0.10643216924E+02  0.00000000000E+00 0.  1.
</event>
<event>
 7    1  0.6055092E-013  0.5930193E+02  0.7816164E-02  0.1266605E+00
        -11   -1    0    0    0    0  0.00000000000E+00  0.00000000000E+00  0.45593999997E+02  0.45594000000E+02  0.51100000000E-03 0.  1.
         11   -1    0    0    0    0 -0.00000000000E+00 -0.00000000000E+00 -0.45593999997E+02  0.45594000000E+02  0.51100000000E-03 0. -1.
    9900012    2    1    2    0    0  0.13483599856E+02  0.28474947736E+02  0.49082924832E+01  0.59301930177E+02  0.49999974740E+02 0.  0.
        -12    1    1    2    0    0 -0.13483599856E+02 -0.28474947736E+02 -0.49082924832E+01  0.31886069823E+02  0.00000000000E+00 0.  1.
         11    1    3    3    0    0 -0.26603659078E+01 -0.11701846482E+01 -0.34073224696E+01  0.44784735734E+01  0.51100000000E-03 0. -1.
        -11    1    3    3    0    0 -0.74324827331E+01  0.18554573741E+02  0.18126260976E+02  0.26982871299E+02  0.51100000000E-03 0.  1.
        -12    1    3    3    0    0  0.23576448497E+02  0.11090558643E+02 -0.98106460236E+01  0.27840585305E+02  0.00000000000E+00 0.  1.
</event>
<event>
 7    1  0.6055092E-013  0.5930196E+02  0.7816164E-02  0.1266605E+00
        -11   -1    0    0    0    0  0.00000000000E+00  0.00000000000E+00  0.45593999997E+02  0.45594000000E+02  0.51100000000E-03 0. -1.
         11   -1    0    0    0    0 -0.00000000000E+00 -0.00000000000E+00 -0.45593999997E+02  0.45594000000E+02  0.51100000000E-03 0.  1.
    9900012    2    1    2    0    0  0.20700055925E+02  0.35927093303E+01  0.23985816249E+02  0.59301964549E+02  0.50000037427E+02 0.  0.
        -12    1    1    2    0    0 -0.20700055925E+02 -0.35927093303E+01 -0.23985816249E+02  0.31886035451E+02  0.00000000000E+00 0.  1.
         11    1    3    3    0    0 -0.44473568075E+01 -0.22528954442E+01  0.11572057522E+02  0.12600279204E+02  0.51100000000E-03 0. -1.
        -11    1    3    3    0    0  0.28412011741E+02  0.57209116730E+01  0.22120828250E+02  0.36459597972E+02  0.51100000000E-03 0.  1.
        -12    1    3    3    0    0 -0.32645990090E+01  0.12469310153E+00 -0.97070695226E+01  0.10242087374E+02  0.00000000000E+00 0.  1.
</event>
<event>
 7    1  0.6055092E-013  0.5930195E+02  0.7816164E-02  0.1266605E+00
        -11   -1    0    0    0    0  0.00000000000E+00  0.00000000000E+00  0.45593999997E+02  0.45594000000E+02  0.51100000000E-03 0.  1.
         11   -1    0    0    0    0 -0.00000000000E+00 -0.00000000000E+00 -0.45593999997E+02  0.45594000000E+02  0.51100000000E-03 0. -1.
    9900012    2    1    2    0    0  0.23281144112E+02  0.21625217647E+02 -0.26567901906E+01  0.59301949075E+02  0.50000009206E+02 0.  0.
        -12    1    1    2    0    0 -0.23281144112E+02 -0.21625217647E+02  0.26567901906E+01  0.31886050925E+02  0.00000000000E+00 0.  1.
         11    1    3    3    0    0 -0.19935677714E+01  0.23303980901E+02 -0.15609978988E+02  0.28119766758E+02  0.51100000000E-03 0. -1.
        -11    1    3    3    0    0  0.19352789949E+02  0.36487716149E+01  0.12233438132E+02  0.23184068278E+02  0.51100000000E-03 0.  1.
        -12    1    3    3    0    0  0.59219219340E+01 -0.53275348684E+01  0.71975066482E+00  0.79981140393E+01  0.00000000000E+00 0.  1.
</event>
<event>
 7    1  0.6055092E-013  0.5930196E+02  0.7816164E-02  0.1266605E+00
        -11   -1    0    0    0    0  0.00000000000E+00  0.00000000000E+00  0.45593999997E+02  0.45594000000E+02  0.51100000000E-03 0. -1.
         11   -1    0    0    0    0 -0.00000000000E+00 -0.00000000000E+00 -0.45593999997E+02  0.45594000000E+02  0.51100000000E-03 0.  1.
    9900012    2    1    2    0    0  0.29364340850E+02 -0.72852033668E+01  0.10068800995E+02  0.59301961439E+02  0.50000031754E+02 0.  0.
        -12    1    1    2    0    0 -0.29364340850E+02  0.72852033668E+01 -0.10068800995E+02  0.31886038561E+02  0.00000000000E+00 0.  1.
         11    1    3    3    0    0  0.18049442844E+02 -0.10321318245E+02 -0.45744620463E+01  0.21289379995E+02  0.51100000000E-03 0. -1.
        -11    1    3    3    0    0  0.26855807849E+01  0.12509790985E+02  0.20307322783E+02  0.24001970200E+02  0.51100000000E-03 0.  1.
        -12    1    3    3    0    0  0.86293172208E+01 -0.94736761066E+01 -0.56640597409E+01  0.14010611244E+02  0.00000000000E+00 0.  1.
</event>
<event>
 7    1  0.6055092E-013  0.5930195E+02  0.7816164E-02  0.1266605E+00
        -11   -1    0    0    0    0  0.00000000000E+00  0.00000000000E+00  0.45593999997E+02  0.45594000000E+02  0.51100000000E-03 0.  1.
         11   -1    0    0    0    0 -0.00000000000E+00 -0.00000000000E+00 -0.45593999997E+02  0.45594000000E+02  0.51100000000E-03 0. -1.
    9900012    2    1    2    0    0 -0.28336206777E+02 -0.12691461650E+02 -0.72599006249E+01  0.59301953359E+02  0.50000017018E+02 0.  0.
        -12    1    1    2    0    0  0.28336206777E+02  0.12691461650E+02  0.72599006249E+01  0.31886046641E+02  0.00000000000E+00 0.  1.
         11    1    3    3    0    0 -0.17898433709E+02 -0.16392502454E+02 -0.10552363787E+02  0.26465457633E+02  0.51100000000E-03 0. -1.
        -11    1    3    3    0    0  0.52579278685E+01  0.32937346899E+01  0.12980541942E+02  0.14387111004E+02  0.51100000000E-03 0.  1.
        -12    1    3    3    0    0 -0.15695700936E+02  0.40730611459E+00 -0.96880787802E+01  0.18449384722E+02  0.00000000000E+00 0.  1.
</event>
<event>
 7    1  0.6055092E-013  0.5930195E+02  0.7816164E-02  0.1266605E+00
        -11   -1    0    0    0    0  0.00000000000E+00  0.00000000000E+00  0.45593999997E+02  0.45594000000E+02  0.51100000000E-03 0. -1.
         11   -1    0    0    0    0 -0.00000000000E+00 -0.00000000000E+00 -0.45593999997E+02  0.45594000000E+02  0.51100000000E-03 0.  1.
    9900012    2    1    2    0    0  0.20204006151E+01  0.28191883507E+02  0.14759933650E+02  0.59301953590E+02  0.50000017440E+02 0.  0.
        -12    1    1    2    0    0 -0.20204006151E+01 -0.28191883507E+02 -0.14759933650E+02  0.31886046410E+02  0.00000000000E+00 0.  1.
         11    1    3    3    0    0  0.55533020614E+01 -0.11716074176E+02  0.14143753987E+02  0.19187270129E+02  0.51100000000E-03 0. -1.
        -11    1    3    3    0    0 -0.23866254162E+01  0.16672822244E+02  0.53076646739E+00  0.16851133367E+02  0.51100000000E-03 0.  1.
         12    1    3    3    0    0 -0.11462760301E+01  0.23235135438E+02  0.85413195220E-01  0.23263550094E+02  0.00000000000E+00 0. -1.
</event>
<event>
 7    1  0.6055092E-013  0.5930186E+02  0.7816164E-02  0.1266605E+00
        -11   -1    0    0    0    0  0.00000000000E+00  0.00000000000E+00  0.45593999997E+02  0.45594000000E+02  0.51100000000E-03 0.  1.
         11   -1    0    0    0    0 -0.00000000000E+00 -0.00000000000E+00 -0.45593999997E+02  0.45594000000E+02  0.51100000000E-03 0. -1.
    9900012    2    1    2    0    0  0.18904984031E+02 -0.17413449651E+02  0.18870587315E+02  0.59301863270E+02  0.49999852716E+02 0.  0.
        -12    1    1    2    0    0 -0.18904984031E+02  0.17413449651E+02 -0.18870587315E+02  0.31886136730E+02  0.00000000000E+00 0.  1.
         11    1    3    3    0    0  0.23340235701E+02 -0.10343161419E+01  0.13316263744E+02  0.26891621238E+02  0.51100000000E-03 0. -1.
        -11    1    3    3    0    0 -0.57821534863E+01 -0.19796375963E+02  0.12809795745E+02  0.24277987303E+02  0.51100000000E-03 0.  1.
         12    1    3    3    0    0  0.13469018168E+01  0.34172424535E+01 -0.72554721745E+01  0.81322547282E+01  0.00000000000E+00 0. -1.
</event>
<event>
 7    1  0.6055092E-013  0.5930199E+02  0.7816164E-02  0.1266605E+00
        -11   -1    0    0    0    0  0.00000000000E+00  0.00000000000E+00  0.45593999997E+02  0.45594000000E+02  0.51100000000E-03 0. -1.
         11   -1    0    0    0    0 -0.00000000000E+00 -0.00000000000E+00 -0.45593999997E+02  0.45594000000E+02  0.51100000000E-03 0.  1.
    9900012    2    1    2    0    0  0.22756329634E+01 -0.26858936919E+02  0.17033397218E+02  0.59301990237E+02  0.50000084274E+02 0.  0.
        -12    1    1    2    0    0 -0.22756329634E+01  0.26858936919E+02 -0.17033397218E+02  0.31886009763E+02  0.00000000000E+00 0.  1.
         11    1    3    3    0    0  0.73287333130E+01 -0.12411523523E+02  0.59788694961E-01  0.14413876061E+02  0.51100000000E-03 0. -1.
        -11    1    3    3    0    0 -0.18901114908E+02 -0.19131830583E+02  0.11961156951E+02  0.29433796257E+02  0.51100000000E-03 0.  1.
        -12    1    3    3    0    0  0.13848014558E+02  0.46844171874E+01  0.50124515728E+01  0.15454317920E+02  0.00000000000E+00 0.  1.
</event>
<event>
 7    1  0.6055092E-013  0.5930194E+02  0.7816164E-02  0.1266605E+00
        -11   -1    0    0    0    0  0.00000000000E+00  0.00000000000E+00  0.45593999997E+02  0.45594000000E+02  0.51100000000E-03 0.  1.
         11   -1    0    0    0    0 -0.00000000000E+00 -0.00000000000E+00 -0.45593999997E+02  0.45594000000E+02  0.51100000000E-03 0. -1.
    9900012    2    1    2    0    0 -0.21598902314E+02  0.19121286213E+02 -0.13586200913E+02  0.59301936855E+02  0.49999986919E+02 0.  0.
        -12    1    1    2    0    0  0.21598902314E+02 -0.19121286213E+02  0.13586200913E+02  0.31886063145E+02  0.00000000000E+00 0.  1.
         11    1    3    3    0    0 -0.73861656159E+01  0.13177978922E+02 -0.80847190367E+01  0.17134096216E+02  0.51100000000E-03 0. -1.
        -11    1    3    3    0    0  0.13571904769E+02  0.24134116349E+01 -0.12907187101E+01  0.13845111405E+02  0.51100000000E-03 0.  1.
        -12    1    3    3    0    0 -0.27784641467E+02  0.35298956564E+01 -0.42107631663E+01  0.28322729234E+02  0.00000000000E+00 0.  1.
</event>
<event>
 7    1  0.6055092E-013  0.5930198E+02  0.7816164E-02  0.1266605E+00
        -11   -1    0    0    0    0  0.00000000000E+00  0.00000000000E+00  0.45593999997E+02  0.45594000000E+02  0.51100000000E-03 0.  1.
         11   -1    0    0    0    0 -0.00000000000E+00 -0.00000000000E+00 -0.45593999997E+02  0.45594000000E+02  0.51100000000E-03 0. -1.
    9900012    2    1    2    0    0  0.16560958907E+02 -0.74349781634E+01 -0.26214009943E+02  0.59301975201E+02  0.50000056853E+02 0.  0.
        -12    1    1    2    0    0 -0.16560958907E+02  0.74349781634E+01  0.26214009943E+02  0.31886024799E+02  0.00000000000E+00 0.  1.
         11    1    3    3    0    0  0.20406212796E+02 -0.12391016910E+01 -0.26767017201E+02  0.33681183230E+02  0.51100000000E-03 0. -1.
        -11    1    3    3    0    0  0.72963538416E+01  0.60943505130E-01  0.80025228076E+01  0.10829629035E+02  0.51100000000E-03 0.  1.
         12    1    3    3    0    0 -0.11141607731E+02 -0.62568199775E+01 -0.74495155495E+01  0.14791162936E+02  0.00000000000E+00 0. -1.
</event>
<event>
 7    1  0.6055092E-013  0.5930195E+02  0.7816164E-02  0.1266605E+00
        -11   -1    0    0    0    0  0.00000000000E+00  0.00000000000E+00  0.45593999997E+02  0.45594000000E+02  0.51100000000E-03 0.  1.
         11   -1    0    0    0    0 -0.00000000000E+00 -0.00000000000E+00 -0.45593999997E+02  0.45594000000E+02  0.51100000000E-03 0. -1.
    9900012    2    1    2    0    0 -0.16945369041E+02 -0.10685650028E+02 -0.24807089370E+02  0.59301947696E+02  0.50000006691E+02 0.  0.
        -12    1    1    2    0    0  0.16945369041E+02  0.10685650028E+02  0.24807089370E+02  0.31886052304E+02  0.00000000000E+00 0.  1.
         11    1    3    3    0    0 -0.26221434916E+01 -0.18236933257E+02 -0.26143922071E+02  0.31983840179E+02  0.51100000000E-03 0. -1.
        -11    1    3    3    0    0  0.81328127540E-01  0.11793197230E+02  0.31126122964E+01  0.12197314078E+02  0.51100000000E-03 0.  1.
        -12    1    3    3    0    0 -0.14404553677E+02 -0.42419140010E+01 -0.17757795957E+01  0.15120793439E+02  0.00000000000E+00 0.  1.
</event>
<event>
 7    1  0.6055092E-013  0.5930198E+02  0.7816164E-02  0.1266605E+00
        -11   -1    0    0    0    0  0.00000000000E+00  0.00000000000E+00  0.45593999997E+02  0.45594000000E+02  0.51100000000E-03 0.  1.
         11   -1    0    0    0    0 -0.00000000000E+00 -0.00000000000E+00 -0.45593999997E+02  0.45594000000E+02  0.51100000000E-03 0. -1.
    9900012    2    1    2    0    0 -0.16016179677E+01 -0.23382612181E+02 -0.21619589683E+02  0.59301978132E+02  0.50000062197E+02 0.  0.
        -12    1    1    2    0    0  0.16016179677E+01  0.23382612181E+02  0.21619589683E+02  0.31886021868E+02  0.00000000000E+00 0.  1.
         11    1    3    3    0    0 -0.12452601236E+02 -0.38761967587E+01  0.94718496968E+01  0.16118564322E+02  0.51100000000E-03 0. -1.
        -11    1    3    3    0    0  0.75441685223E+01 -0.23070526465E+02 -0.21479949134E+02  0.32412218146E+02  0.51100000000E-03 0.  1.
         12    1    3    3    0    0  0.33068147461E+01  0.35641110426E+01 -0.96114902457E+01  0.10771195664E+02  0.00000000000E+00 0. -1.
</event>
<event>
 7    1  0.6055092E-013  0.5930193E+02  0.7816164E-02  0.1266605E+00
        -11   -1    0    0    0    0  0.00000000000E+00  0.00000000000E+00  0.45593999997E+02  0.45594000000E+02  0.51100000000E-03 0.  1.
         11   -1    0    0    0    0 -0.00000000000E+00 -0.00000000000E+00 -0.45593999997E+02  0.45594000000E+02  0.51100000000E-03 0. -1.
    9900012    2    1    2    0    0  0.65631872728E+01  0.21239341674E+01 -0.31130928729E+02  0.59301933340E+02  0.49999980508E+02 0.  0.
        -12    1    1    2    0    0 -0.65631872728E+01 -0.21239341674E+01  0.31130928729E+02  0.31886066660E+02  0.00000000000E+00 0.  1.
         11    1    3    3    0    0  0.19118402947E+02  0.15143685475E+02 -0.30667147968E+02  0.39183140581E+02  0.51100000000E-03 0. -1.
        -11    1    3    3    0    0 -0.13653298941E+02 -0.11542733674E+02  0.78291782364E+00  0.17895816081E+02  0.51100000000E-03 0.  1.
        -12    1    3    3    0    0  0.10980832661E+01 -0.14770176336E+01 -0.12466985845E+01  0.22229766777E+01  0.00000000000E+00 0.  1.
</event>
<event>
 7    1  0.6055092E-013  0.5930229E+02  0.7816164E-02  0.1266604E+00
        -11   -1    0    0    0    0  0.00000000000E+00  0.00000000000E+00  0.45593999997E+02  0.45594000000E+02  0.51100000000E-03 0.  1.
         11   -1    0    0    0    0 -0.00000000000E+00 -0.00000000000E+00 -0.45593999997E+02  0.45594000000E+02  0.51100000000E-03 0. -1.
    9900012    2    1    2    0    0  0.27502120192E+02 -0.39917989307E+01 -0.15633212645E+02  0.59302291424E+02  0.50000633564E+02 0.  0.
        -12    1    1    2    0    0 -0.27502120192E+02  0.39917989307E+01  0.15633212645E+02  0.31885708576E+02  0.00000000000E+00 0.  1.
         11    1    3    3    0    0  0.12552955371E+02  0.13810189933E+02 -0.25186069684E+02  0.31347027624E+02  0.51100000000E-03 0.  1.
        -11    1    3    3    0    0  0.99578451755E+01 -0.92114956160E+01  0.11556097626E+02  0.17820037167E+02  0.51100000000E-03 0. -1.
        -12    1    3    3    0    0  0.49913196463E+01 -0.85904932472E+01 -0.20032405877E+01  0.10135226633E+02  0.00000000000E+00 0.  1.
</event>
<event>
 7    1  0.6055092E-013  0.5930194E+02  0.7816164E-02  0.1266605E+00
        -11   -1    0    0    0    0  0.00000000000E+00  0.00000000000E+00  0.45593999997E+02  0.45594000000E+02  0.51100000000E-03 0. -1.
         11   -1    0    0    0    0 -0.00000000000E+00 -0.00000000000E+00 -0.45593999997E+02  0.45594000000E+02  0.51100000000E-03 0.  1.
    9900012    2    1    2    0    0  0.16489456629E+01  0.21273357106E+01  0.31772256107E+02  0.59301939767E+02  0.49999992230E+02 0.  0.
        -12    1    1    2    0    0 -0.16489456629E+01 -0.21273357106E+01 -0.31772256107E+02  0.31886060233E+02  0.00000000000E+00 0.  1.
         11    1    3    3    0    0  0.37488531431E+01  0.13145855846E+02  0.28338698617E+02  0.31463459208E+02  0.51100000000E-03 0. -1.
        -11    1    3    3    0    0  0.68821225820E+01 -0.15799336995E+02  0.38377369767E+01  0.17655335910E+02  0.51100000000E-03 0.  1.
        -12    1    3    3    0    0 -0.89820300622E+01  0.47808168603E+01 -0.40417948599E+00  0.10183144649E+02  0.00000000000E+00 0.  1.
</event>
<event>
 7    1  0.6758597E-013  0.5930194E+02  0.7816164E-02  0.1266605E+00
        -11   -1    0    0    0    0  0.00000000000E+00  0.00000000000E+00  0.45593999997E+02  0.45594000000E+02  0.51100000000E-03 0.  1.
         11   -1    0    0    0    0 -0.00000000000E+00 -0.00000000000E+00 -0.45593999997E+02  0.45594000000E+02  0.51100000000E-03 0. -1.
    9900012    2    1    2    0    0  0.29102973794E+02 -0.24717090628E+01 -0.12791725456E+02  0.59301942397E+02  0.49999997026E+02 0.  0.
        -12    1    1    2    0    0 -0.29102973794E+02  0.24717090628E+01  0.12791725456E+02  0.31886057603E+02  0.00000000000E+00 0.  1.
         11    1    3    3    0    0  0.16159494188E+02  0.29582091946E+01 -0.27245458054E+02  0.31815015934E+02  0.51100000000E-03 0.  1.
        -11    1    3    3    0    0  0.10715421233E+02  0.40552034094E+01  0.13486015844E+02  0.17695692993E+02  0.51100000000E-03 0. -1.
        -12    1    3    3    0    0  0.22280583730E+01 -0.94851216667E+01  0.96771675444E+00  0.97912334699E+01  0.00000000000E+00 0.  1.
</event>
<event>
 7    1  0.6055092E-013  0.5930193E+02  0.7816164E-02  0.1266605E+00
        -11   -1    0    0    0    0  0.00000000000E+00  0.00000000000E+00  0.45593999997E+02  0.45594000000E+02  0.51100000000E-03 0.  1.
         11   -1    0    0    0    0 -0.00000000000E+00 -0.00000000000E+00 -0.45593999997E+02  0.45594000000E+02  0.51100000000E-03 0. -1.
    9900012    2    1    2    0    0 -0.17384057663E+02 -0.44759957821E+01 -0.26353011736E+02  0.59301933660E+02  0.49999981091E+02 0.  0.
        -12    1    1    2    0    0  0.17384057663E+02  0.44759957821E+01  0.26353011736E+02  0.31886066340E+02  0.00000000000E+00 0.  1.
         11    1    3    3    0    0 -0.19565481371E+02  0.68704661577E+01  0.40873201958E+01  0.21135693818E+02  0.51100000000E-03 0.  1.
        -11    1    3    3    0    0  0.96894621070E+00  0.35798492285E+01 -0.18898966321E+02  0.19259416022E+02  0.51100000000E-03 0. -1.
         12    1    3    3    0    0  0.12124774978E+01 -0.14926311168E+02 -0.11541365611E+02  0.18906823820E+02  0.00000000000E+00 0. -1.
</event>
<event>
 7    1  0.6055092E-013  0.5930195E+02  0.7816164E-02  0.1266605E+00
        -11   -1    0    0    0    0  0.00000000000E+00  0.00000000000E+00  0.45593999997E+02  0.45594000000E+02  0.51100000000E-03 0.  1.
         11   -1    0    0    0    0 -0.00000000000E+00 -0.00000000000E+00 -0.45593999997E+02  0.45594000000E+02  0.51100000000E-03 0. -1.
    9900012    2    1    2    0    0  0.65545403327E+01 -0.80690556029E+01 -0.30143802321E+02  0.59301945436E+02  0.50000002568E+02 0.  0.
        -12    1    1    2    0    0 -0.65545403327E+01  0.80690556029E+01  0.30143802321E+02  0.31886054564E+02  0.00000000000E+00 0.  1.
         11    1    3    3    0    0 -0.79952763715E+01 -0.24793249929E+01 -0.28263784907E+02  0.29477330853E+02  0.51100000000E-03 0. -1.
        -11    1    3    3    0    0  0.17092667639E+02  0.58339325396E+01 -0.10097706135E+01  0.18089048976E+02  0.51100000000E-03 0.  1.
         12    1    3    3    0    0 -0.25428509346E+01 -0.11423663150E+02 -0.87024680069E+00  0.11735565607E+02  0.00000000000E+00 0. -1.
</event>
<event>
 7    1  0.6055092E-013  0.5930199E+02  0.7816164E-02  0.1266605E+00
        -11   -1    0    0    0    0  0.00000000000E+00  0.00000000000E+00  0.45593999997E+02  0.45594000000E+02  0.51100000000E-03 0.  1.
         11   -1    0    0    0    0 -0.00000000000E+00 -0.00000000000E+00 -0.45593999997E+02  0.45594000000E+02  0.51100000000E-03 0. -1.
    9900012    2    1    2    0    0 -0.14168066742E+02  0.24408108797E+01 -0.28460957151E+02  0.59301988100E+02  0.50000080377E+02 0.  0.
        -12    1    1    2    0    0  0.14168066742E+02 -0.24408108797E+01  0.28460957151E+02  0.31886011900E+02  0.00000000000E+00 0.  1.
         11    1    3    3    0    0 -0.17518880149E+02 -0.33751261296E+01 -0.34717797240E+02  0.39033678837E+02  0.51100000000E-03 0. -1.
        -11    1    3    3    0    0 -0.69554133046E+01  0.39535693553E+01  0.56173937760E+01  0.97756635571E+01  0.51100000000E-03 0.  1.
         12    1    3    3    0    0  0.10306226712E+02  0.18623676540E+01  0.63944631317E+00  0.10492645706E+02  0.00000000000E+00 0. -1.
</event>
<event>
 7    1  0.6055092E-013  0.5930195E+02  0.7816164E-02  0.1266605E+00
        -11   -1    0    0    0    0  0.00000000000E+00  0.00000000000E+00  0.45593999997E+02  0.45594000000E+02  0.51100000000E-03 0. -1.
         11   -1    0    0    0    0 -0.00000000000E+00 -0.00000000000E+00 -0.45593999997E+02  0.45594000000E+02  0.51100000000E-03 0.  1.
    9900012    2    1    2    0    0 -0.19711097298E+02 -0.16278884992E+02  0.19057569443E+02  0.59301946522E+02  0.50000004550E+02 0.  0.
        -12    1    1    2    0    0  0.19711097298E+02  0.16278884992E+02 -0.19057569443E+02  0.31886053478E+02  0.00000000000E+00 0.  1.
         11    1    3    3    0    0 -0.71232120889E+01  0.16375361676E+02  0.56585731741E+01  0.18732647200E+02  0.51100000000E-03 0. -1.
        -11    1    3    3    0    0 -0.14408014180E+02 -0.19218240298E+02  0.12247685846E+02  0.26961777419E+02  0.51100000000E-03 0.  1.
         12    1    3    3    0    0  0.18201289705E+01 -0.13436006370E+02  0.11513104231E+01  0.13607521903E+02  0.00000000000E+00 0. -1.
</event>
<event>
 7    1  0.6055092E-013  0.5930193E+02  0.7816164E-02  0.1266605E+00
        -11   -1    0    0    0    0  0.00000000000E+00  0.00000000000E+00  0.45593999997E+02  0.45594000000E+02  0.51100000000E-03 0.  1.
         11   -1    0    0    0    0 -0.00000000000E+00 -0.00000000000E+00 -0.45593999997E+02  0.45594000000E+02  0.51100000000E-03 0. -1.
    9900012    2    1    2    0    0  0.28312920925E+02  0.67758868714E+01 -0.13007195630E+02  0.59301932943E+02  0.49999979784E+02 0.  0.
        -12    1    1    2    0    0 -0.28312920925E+02 -0.67758868714E+01  0.13007195630E+02  0.31886067057E+02  0.00000000000E+00 0.  1.
         11    1    3    3    0    0  0.26903887022E+02  0.21151483989E+02 -0.13519364130E+02  0.36796434862E+02  0.51100000000E-03 0. -1.
        -11    1    3    3    0    0 -0.45561494857E+01 -0.49312527136E+00  0.49615900564E+01  0.67541873544E+01  0.51100000000E-03 0.  1.
         12    1    3    3    0    0  0.59651833882E+01 -0.13882471846E+02 -0.44494215562E+01  0.15751310726E+02  0.00000000000E+00 0. -1.
</event>
<event>
 7    1  0.6055092E-013  0.5930196E+02  0.7816164E-02  0.1266605E+00
        -11   -1    0    0    0    0  0.00000000000E+00  0.00000000000E+00  0.45593999997E+02  0.45594000000E+02  0.51100000000E-03 0. -1.
         11   -1    0    0    0    0 -0.00000000000E+00 -0.00000000000E+00 -0.45593999997E+02  0.45594000000E+02  0.51100000000E-03 0.  1.
    9900012    2    1    2    0    0 -0.99367709091E+01  0.14825251873E+02  0.26423322866E+02  0.59301960727E+02  0.50000030456E+02 0.  0.
        -12    1    1    2    0    0  0.99367709091E+01 -0.14825251873E+02 -0.26423322866E+02  0.31886039273E+02  0.00000000000E+00 0.  1.
         11    1    3    3    0    0 -0.85358197453E+01  0.98421128872E+01  0.18094665265E+02  0.22296733306E+02  0.51100000000E-03 0. -1.
        -11    1    3    3    0    0  0.97529524062E+01 -0.64063271898E+01 -0.80291335611E+01  0.14164324718E+02  0.51100000000E-03 0.  1.
        -12    1    3    3    0    0 -0.11153903570E+02  0.11389466176E+02  0.16357791163E+02  0.22840902704E+02  0.00000000000E+00 0.  1.
</event>
<event>
 7    1  0.6055092E-013  0.5930194E+02  0.7816164E-02  0.1266605E+00
        -11   -1    0    0    0    0  0.00000000000E+00  0.00000000000E+00  0.45593999997E+02  0.45594000000E+02  0.51100000000E-03 0.  1.
         11   -1    0    0    0    0 -0.00000000000E+00 -0.00000000000E+00 -0.45593999997E+02  0.45594000000E+02  0.51100000000E-03 0. -1.
    9900012    2    1    2    0    0  0.24411257410E+02  0.69091666891E+01 -0.19315148024E+02  0.59301936965E+02  0.49999987119E+02 0.  0.
        -12    1    1    2    0    0 -0.24411257410E+02 -0.69091666891E+01  0.19315148024E+02  0.31886063035E+02  0.00000000000E+00 0.  1.
         11    1    3    3    0    0  0.85642787842E+01 -0.17566072287E+02 -0.20589449202E+02  0.28387306765E+02  0.51100000000E-03 0. -1.
        -11    1    3    3    0    0  0.11743974530E+02  0.10456519259E+02  0.35802038872E+01  0.16126921372E+02  0.51100000000E-03 0.  1.
         12    1    3    3    0    0  0.41030040955E+01  0.14018719716E+02 -0.23059027099E+01  0.14787708829E+02  0.00000000000E+00 0. -1.
</event>
<event>
 7    1  0.6055092E-013  0.5930209E+02  0.7816164E-02  0.1266604E+00
        -11   -1    0    0    0    0  0.00000000000E+00  0.00000000000E+00  0.45593999997E+02  0.45594000000E+02  0.51100000000E-03 0.  1.
         11   -1    0    0    0    0 -0.00000000000E+00 -0.00000000000E+00 -0.45593999997E+02  0.45594000000E+02  0.51100000000E-03 0. -1.
    9900012    2    1    2    0    0  0.21651593089E+02  0.77101553312E+01 -0.22101429944E+02  0.59302091135E+02  0.50000268288E+02 0.  0.
        -12    1    1    2    0    0 -0.21651593089E+02 -0.77101553312E+01  0.22101429944E+02  0.31885908865E+02  0.00000000000E+00 0.  1.
         11    1    3    3    0    0  0.20873641731E+02  0.18516929549E+02 -0.31650325304E+02  0.42193941403E+02  0.51100000000E-03 0. -1.
        -11    1    3    3    0    0  0.26343681669E+01 -0.53094849082E+01  0.96270567973E+01  0.11305341590E+02  0.51100000000E-03 0.  1.
         12    1    3    3    0    0 -0.18564168087E+01 -0.54972893097E+01 -0.78161438073E-01  0.58028081420E+01  0.00000000000E+00 0. -1.
</event>
<event>
 7    1  0.6055092E-013  0.5930208E+02  0.7816164E-02  0.1266604E+00
        -11   -1    0    0    0    0  0.00000000000E+00  0.00000000000E+00  0.45593999997E+02  0.45594000000E+02  0.51100000000E-03 0. -1.
         11   -1    0    0    0    0 -0.00000000000E+00 -0.00000000000E+00 -0.45593999997E+02  0.45594000000E+02  0.51100000000E-03 0.  1.
    9900012    2    1    2    0    0  0.28525639027E+02 -0.13259644151E+02 -0.52136250491E+01  0.59302076286E+02  0.50000241207E+02 0.  0.
        -12    1    1    2    0    0 -0.28525639027E+02  0.13259644151E+02  0.52136250491E+01  0.31885923714E+02  0.00000000000E+00 0.  1.
         11    1    3    3    0    0 -0.75841282921E+00  0.37577380201E+01  0.82423917043E+01  0.90902588695E+01  0.51100000000E-03 0. -1.
        -11    1    3    3    0    0  0.34216419343E+02 -0.84085141213E+01 -0.17688251684E+02  0.39425127904E+02  0.51100000000E-03 0.  1.
        -12    1    3    3    0    0 -0.49323674865E+01 -0.86088680502E+01  0.42322349301E+01  0.10786689512E+02  0.00000000000E+00 0.  1.
</event>
<event>
 7    1  0.6055092E-013  0.5930184E+02  0.7816164E-02  0.1266605E+00
        -11   -1    0    0    0    0  0.00000000000E+00  0.00000000000E+00  0.45593999997E+02  0.45594000000E+02  0.51100000000E-03 0. -1.
         11   -1    0    0    0    0 -0.00000000000E+00 -0.00000000000E+00 -0.45593999997E+02  0.45594000000E+02  0.51100000000E-03 0.  1.
    9900012    2    1    2    0    0 -0.22236972140E+02 -0.19377838973E+02  0.12113777854E+02  0.59301840195E+02  0.49999810633E+02 0.  0.
        -12    1    1    2    0    0  0.22236972140E+02  0.19377838973E+02 -0.12113777854E+02  0.31886159805E+02  0.00000000000E+00 0.  1.
         11    1    3    3    0    0 -0.49073903988E+00 -0.25610884972E+01  0.15128608407E+02  0.15351703218E+02  0.51100000000E-03 0. -1.
        -11    1    3    3    0    0 -0.27743368382E+02 -0.10538060346E+02 -0.11483297526E+02  0.31821554446E+02  0.51100000000E-03 0.  1.
        -12    1    3    3    0    0  0.59971352810E+01 -0.62786901303E+01  0.84684669733E+01  0.12128582531E+02  0.00000000000E+00 0.  1.
</event>
<event>
 7    1  0.6055092E-013  0.5930193E+02  0.7816164E-02  0.1266605E+00
        -11   -1    0    0    0    0  0.00000000000E+00  0.00000000000E+00  0.45593999997E+02  0.45594000000E+02  0.51100000000E-03 0.  1.
         11   -1    0    0    0    0 -0.00000000000E+00 -0.00000000000E+00 -0.45593999997E+02  0.45594000000E+02  0.51100000000E-03 0. -1.
    9900012    2    1    2    0    0  0.18683109483E+02 -0.25646521554E+02 -0.31494079772E+01  0.59301930653E+02  0.49999975609E+02 0.  0.
        -12    1    1    2    0    0 -0.18683109483E+02  0.25646521554E+02  0.31494079772E+01  0.31886069347E+02  0.00000000000E+00 0.  1.
         11    1    3    3    0    0  0.26846922080E+02 -0.30849365717E+02 -0.68902586635E+01  0.41471873059E+02  0.51100000000E-03 0. -1.
        -11    1    3    3    0    0  0.31673505616E+01  0.24075972225E+01  0.46549174452E+01  0.61234704742E+01  0.51100000000E-03 0.  1.
         12    1    3    3    0    0 -0.11331163158E+02  0.27952469409E+01 -0.91406675895E+00  0.11706587121E+02  0.00000000000E+00 0. -1.
</event>
<event>
 7    1  0.6055092E-013  0.5930189E+02  0.7816164E-02  0.1266605E+00
        -11   -1    0    0    0    0  0.00000000000E+00  0.00000000000E+00  0.45593999997E+02  0.45594000000E+02  0.51100000000E-03 0. -1.
         11   -1    0    0    0    0 -0.00000000000E+00 -0.00000000000E+00 -0.45593999997E+02  0.45594000000E+02  0.51100000000E-03 0.  1.
    9900012    2    1    2    0    0 -0.21203316860E+02  0.23090795077E+02 -0.58273904770E+01  0.59301891066E+02  0.49999903411E+02 0.  0.
        -12    1    1    2    0    0  0.21203316860E+02 -0.23090795077E+02  0.58273904770E+01  0.31886108934E+02  0.00000000000E+00 0.  1.
         11    1    3    3    0    0 -0.30452530444E+01  0.25662428878E+02 -0.10164651531E+02  0.27769659038E+02  0.51100000000E-03 0.  1.
        -11    1    3    3    0    0 -0.51661717304E+01 -0.12527522779E+02  0.64872006292E+01  0.15023712244E+02  0.51100000000E-03 0. -1.
        -12    1    3    3    0    0 -0.12991892085E+02  0.99558889781E+01 -0.21499395747E+01  0.16508519784E+02  0.00000000000E+00 0.  1.
</event>
<event>
 7    1  0.6055092E-013  0.5930193E+02  0.7816164E-02  0.1266605E+00
        -11   -1    0    0    0    0  0.00000000000E+00  0.00000000000E+00  0.45593999997E+02  0.45594000000E+02  0.51100000000E-03 0. -1.
         11   -1    0    0    0    0 -0.00000000000E+00 -0.00000000000E+00 -0.45593999997E+02  0.45594000000E+02  0.51100000000E-03 0.  1.
    9900012    2    1    2    0    0 -0.22432307074E+02 -0.84261852764E+01  0.21035982573E+02  0.59301928405E+02  0.49999971507E+02 0.  0.
        -12    1    1    2    0    0  0.22432307074E+02  0.84261852764E+01 -0.21035982573E+02  0.31886071595E+02  0.00000000000E+00 0.  1.
         11    1    3    3    0    0 -0.21281340748E+02  0.11631249548E+02 -0.63984543845E+01  0.25082297520E+02  0.51100000000E-03 0.  1.
        -11    1    3    3    0    0  0.54339296563E+00 -0.10548750171E+02  0.16884205456E+02  0.19916018685E+02  0.51100000000E-03 0. -1.
        -12    1    3    3    0    0 -0.16943592917E+01 -0.95086846537E+01  0.10550231501E+02  0.14303612200E+02  0.00000000000E+00 0.  1.
</event>
<event>
 7    1  0.6055092E-013  0.5930192E+02  0.7816164E-02  0.1266605E+00
        -11   -1    0    0    0    0  0.00000000000E+00  0.00000000000E+00  0.45593999997E+02  0.45594000000E+02  0.51100000000E-03 0. -1.
         11   -1    0    0    0    0 -0.00000000000E+00 -0.00000000000E+00 -0.45593999997E+02  0.45594000000E+02  0.51100000000E-03 0.  1.
    9900012    2    1    2    0    0 -0.21373126878E+02  0.19228310650E+02  0.13790700499E+02  0.59301923050E+02  0.49999961742E+02 0.  0.
        -12    1    1    2    0    0  0.21373126878E+02 -0.19228310650E+02 -0.13790700499E+02  0.31886076950E+02  0.00000000000E+00 0.  1.
         11    1    3    3    0    0 -0.50764482941E+00  0.17587233713E+02  0.23941269333E+02  0.29711157340E+02  0.51100000000E-03 0. -1.
        -11    1    3    3    0    0 -0.16327739592E+02 -0.63965574620E+01 -0.10342374004E+02  0.20358676967E+02  0.51100000000E-03 0.  1.
        -12    1    3    3    0    0 -0.45377424561E+01  0.80376343991E+01  0.19180517000E+00  0.92320887428E+01  0.00000000000E+00 0.  1.
</event>
<event>
 7    1  0.6055092E-013  0.5930198E+02  0.7816164E-02  0.1266605E+00
        -11   -1    0    0    0    0  0.00000000000E+00  0.00000000000E+00  0.45593999997E+02  0.45594000000E+02  0.51100000000E-03 0.  1.
         11   -1    0    0    0    0 -0.00000000000E+00 -0.00000000000E+00 -0.45593999997E+02  0.45594000000E+02  0.51100000000E-03 0. -1.
    9900012    2    1    2    0    0 -0.74303723579E+01  0.20299195088E+02 -0.23440355928E+02  0.59301983619E+02  0.50000072205E+02 0.  0.
        -12    1    1    2    0    0  0.74303723579E+01 -0.20299195088E+02  0.23440355928E+02  0.31886016381E+02  0.00000000000E+00 0.  1.
         11    1    3    3    0    0 -0.10918949311E+02  0.98984926305E+01 -0.58763265040E+01  0.15866153404E+02  0.51100000000E-03 0. -1.
        -11    1    3    3    0    0  0.41257262917E+01  0.22288851971E+01  0.11932908926E+02  0.12821227022E+02  0.51100000000E-03 0.  1.
        -12    1    3    3    0    0 -0.63714933889E+00  0.81718172603E+01 -0.29496938350E+02  0.30614603193E+02  0.00000000000E+00 0.  1.
</event>
<event>
 7    1  0.6055092E-013  0.5930195E+02  0.7816164E-02  0.1266605E+00
        -11   -1    0    0    0    0  0.00000000000E+00  0.00000000000E+00  0.45593999997E+02  0.45594000000E+02  0.51100000000E-03 0. -1.
         11   -1    0    0    0    0 -0.00000000000E+00 -0.00000000000E+00 -0.45593999997E+02  0.45594000000E+02  0.51100000000E-03 0.  1.
    9900012    2    1    2    0    0  0.23067330983E+02 -0.21633196011E+02  0.40771553446E+01  0.59301950950E+02  0.50000012624E+02 0.  0.
        -12    1    1    2    0    0 -0.23067330983E+02  0.21633196011E+02 -0.40771553446E+01  0.31886049050E+02  0.00000000000E+00 0.  1.
         11    1    3    3    0    0  0.12537103925E+02 -0.87259739565E+01  0.18947252306E+02  0.24337624504E+02  0.51100000000E-03 0. -1.
        -11    1    3    3    0    0 -0.83219624264E+00 -0.17746498167E+02 -0.13934746675E+02  0.22578926301E+02  0.51100000000E-03 0.  1.
         12    1    3    3    0    0  0.11362423302E+02  0.48392761122E+01 -0.93535028678E+00  0.12385400144E+02  0.00000000000E+00 0. -1.
</event>
<event>
 7    1  0.6055092E-013  0.5930195E+02  0.7816164E-02  0.1266605E+00
        -11   -1    0    0    0    0  0.00000000000E+00  0.00000000000E+00  0.45593999997E+02  0.45594000000E+02  0.51100000000E-03 0.  1.
         11   -1    0    0    0    0 -0.00000000000E+00 -0.00000000000E+00 -0.45593999997E+02  0.45594000000E+02  0.51100000000E-03 0. -1.
    9900012    2    1    2    0    0 -0.23727542387E+02  0.21267322244E+02 -0.11936004236E+01  0.59301953755E+02  0.50000017741E+02 0.  0.
        -12    1    1    2    0    0  0.23727542387E+02 -0.21267322244E+02  0.11936004236E+01  0.31886046245E+02  0.00000000000E+00 0.  1.
         11    1    3    3    0    0  0.10208306184E+02  0.11404938173E+02  0.78274443221E+01  0.17191597213E+02  0.51100000000E-03 0.  1.
        -11    1    3    3    0    0 -0.17791691495E+02  0.74029486280E+01 -0.15308937923E+02  0.24611207106E+02  0.51100000000E-03 0. -1.
         12    1    3    3    0    0 -0.16144157075E+02  0.24594354429E+01  0.62878931773E+01  0.17499149436E+02  0.00000000000E+00 0. -1.
</event>
<event>
 7    1  0.6055092E-013  0.5930194E+02  0.7816164E-02  0.1266605E+00
        -11   -1    0    0    0    0  0.00000000000E+00  0.00000000000E+00  0.45593999997E+02  0.45594000000E+02  0.51100000000E-03 0.  1.
         11   -1    0    0    0    0 -0.00000000000E+00 -0.00000000000E+00 -0.45593999997E+02  0.45594000000E+02  0.51100000000E-03 0. -1.
    9900012    2    1    2    0    0  0.19340533525E+02 -0.15161264153E+02 -0.20317490962E+02  0.59301943380E+02  0.49999998820E+02 0.  0.
        -12    1    1    2    0    0 -0.19340533525E+02  0.15161264153E+02  0.20317490962E+02  0.31886056620E+02  0.00000000000E+00 0.  1.
         11    1    3    3    0    0 -0.46787504032E+01 -0.25754958991E+02 -0.17434251436E+02  0.31450941820E+02  0.51100000000E-03 0. -1.
        -11    1    3    3    0    0  0.23448148803E+02  0.11195547172E+02 -0.41736874601E+01  0.26316831611E+02  0.51100000000E-03 0.  1.
        -12    1    3    3    0    0  0.57113512613E+00 -0.60185233415E+00  0.12904479343E+01  0.15341699500E+01  0.00000000000E+00 0.  1.
</event>
<event>
 7    1  0.6055092E-013  0.5930196E+02  0.7816164E-02  0.1266605E+00
        -11   -1    0    0    0    0  0.00000000000E+00  0.00000000000E+00  0.45593999997E+02  0.45594000000E+02  0.51100000000E-03 0. -1.
         11   -1    0    0    0    0 -0.00000000000E+00 -0.00000000000E+00 -0.45593999997E+02  0.45594000000E+02  0.51100000000E-03 0.  1.
    9900012    2    1    2    0    0  0.19212462182E+02  0.53156740187E+01  0.24886634689E+02  0.59301957920E+02  0.50000025336E+02 0.  0.
        -12    1    1    2    0    0 -0.19212462182E+02 -0.53156740187E+01 -0.24886634689E+02  0.31886042080E+02  0.00000000000E+00 0.  1.
         11    1    3    3    0    0  0.47331776859E+01 -0.14209485420E+02  0.23013623273E+02  0.27457955192E+02  0.51100000000E-03 0. -1.
        -11    1    3    3    0    0  0.27226636074E+01  0.19829176951E+02  0.73826398723E+00  0.20028833956E+02  0.51100000000E-03 0.  1.
         12    1    3    3    0    0  0.11756620889E+02 -0.30401751203E+00  0.11347474295E+01  0.11815168772E+02  0.00000000000E+00 0. -1.
</event>
<event>
 7    1  0.6055092E-013  0.5930195E+02  0.7816164E-02  0.1266605E+00
        -11   -1    0    0    0    0  0.00000000000E+00  0.00000000000E+00  0.45593999997E+02  0.45594000000E+02  0.51100000000E-03 0.  1.
         11   -1    0    0    0    0 -0.00000000000E+00 -0.00000000000E+00 -0.45593999997E+02  0.45594000000E+02  0.51100000000E-03 0. -1.
    9900012    2    1    2    0    0  0.97406476473E+01 -0.56179826101E+01 -0.29837535454E+02  0.59301945569E+02  0.50000002811E+02 0.  0.
        -12    1    1    2    0    0 -0.97406476473E+01  0.56179826101E+01  0.29837535454E+02  0.31886054431E+02  0.00000000000E+00 0.  1.
         11    1    3    3    0    0 -0.91721766693E+01 -0.54458036498E+01  0.92890147791E+01  0.14144659702E+02  0.51100000000E-03 0. -1.
        -11    1    3    3    0    0  0.51010579593E+01  0.55539296163E+01 -0.14604353415E+02  0.16436364118E+02  0.51100000000E-03 0.  1.
         12    1    3    3    0    0  0.13811766357E+02 -0.57261085767E+01 -0.24522196819E+02  0.28720921750E+02  0.00000000000E+00 0. -1.
</event>
<event>
 7    1  0.6055092E-013  0.5930194E+02  0.7816164E-02  0.1266605E+00
        -11   -1    0    0    0    0  0.00000000000E+00  0.00000000000E+00  0.45593999997E+02  0.45594000000E+02  0.51100000000E-03 0.  1.
         11   -1    0    0    0    0 -0.00000000000E+00 -0.00000000000E+00 -0.45593999997E+02  0.45594000000E+02  0.51100000000E-03 0. -1.
    9900012    2    1    2    0    0  0.26331685378E+02 -0.11682500426E+01 -0.17944306733E+02  0.59301943374E+02  0.49999998807E+02 0.  0.
        -12    1    1    2    0    0 -0.26331685378E+02  0.11682500426E+01  0.17944306733E+02  0.31886056626E+02  0.00000000000E+00 0.  1.
         11    1    3    3    0    0  0.65553737638E+01  0.22443621543E+02 -0.15018063470E+01  0.23429564565E+02  0.51100000000E-03 0. -1.
        -11    1    3    3    0    0  0.82937647196E+01 -0.43105658619E+01 -0.59801377950E+01  0.11096375966E+02  0.51100000000E-03 0.  1.
         12    1    3    3    0    0  0.11482546895E+02 -0.19301305724E+02 -0.10462362591E+02  0.24776002842E+02  0.00000000000E+00 0. -1.
</event>
<event>
 7    1  0.6055092E-013  0.5930195E+02  0.7816164E-02  0.1266605E+00
        -11   -1    0    0    0    0  0.00000000000E+00  0.00000000000E+00  0.45593999997E+02  0.45594000000E+02  0.51100000000E-03 0. -1.
         11   -1    0    0    0    0 -0.00000000000E+00 -0.00000000000E+00 -0.45593999997E+02  0.45594000000E+02  0.51100000000E-03 0.  1.
    9900012    2    1    2    0    0 -0.17260334273E+02 -0.71720565283E+01  0.25833360269E+02  0.59301952317E+02  0.50000015117E+02 0.  0.
        -12    1    1    2    0    0  0.17260334273E+02  0.71720565283E+01 -0.25833360269E+02  0.31886047683E+02  0.00000000000E+00 0.  1.
         11    1    3    3    0    0 -0.55999947439E+01  0.63076783651E+01  0.29505767439E+02  0.30687734682E+02  0.51100000000E-03 0. -1.
        -11    1    3    3    0    0  0.19115412116E+01 -0.51140625233E+01 -0.10054539528E+02  0.11441214563E+02  0.51100000000E-03 0.  1.
         12    1    3    3    0    0 -0.13571880741E+02 -0.83656723701E+01  0.63821323588E+01  0.17173003071E+02  0.00000000000E+00 0. -1.
</event>
<event>
 7    1  0.6055092E-013  0.5930193E+02  0.7816164E-02  0.1266605E+00
        -11   -1    0    0    0    0  0.00000000000E+00  0.00000000000E+00  0.45593999997E+02  0.45594000000E+02  0.51100000000E-03 0.  1.
         11   -1    0    0    0    0 -0.00000000000E+00 -0.00000000000E+00 -0.45593999997E+02  0.45594000000E+02  0.51100000000E-03 0. -1.
    9900012    2    1    2    0    0  0.24010643719E+02 -0.92431866692E+01 -0.18835449663E+02  0.59301926619E+02  0.49999968251E+02 0.  0.
        -12    1    1    2    0    0 -0.24010643719E+02  0.92431866692E+01  0.18835449663E+02  0.31886073381E+02  0.00000000000E+00 0.  1.
         11    1    3    3    0    0  0.23709955829E+02 -0.12757993993E+02 -0.29030291275E+02  0.39594017577E+02  0.51100000000E-03 0. -1.
        -11    1    3    3    0    0 -0.17016661892E+01 -0.61147775786E+01  0.13692153822E+01  0.64931443600E+01  0.51100000000E-03 0.  1.
         12    1    3    3    0    0  0.20023540794E+01  0.96295849024E+01  0.88256262295E+01  0.13214764682E+02  0.00000000000E+00 0. -1.
</event>
<event>
 7    1  0.6055092E-013  0.5930196E+02  0.7816164E-02  0.1266605E+00
        -11   -1    0    0    0    0  0.00000000000E+00  0.00000000000E+00  0.45593999997E+02  0.45594000000E+02  0.51100000000E-03 0.  1.
         11   -1    0    0    0    0 -0.00000000000E+00 -0.00000000000E+00 -0.45593999997E+02  0.45594000000E+02  0.51100000000E-03 0. -1.
    9900012    2    1    2    0    0  0.15795880973E+02  0.21663671456E+02 -0.17259629856E+02  0.59301963253E+02  0.50000035063E+02 0.  0.
        -12    1    1    2    0    0 -0.15795880973E+02 -0.21663671456E+02  0.17259629856E+02  0.31886036747E+02  0.00000000000E+00 0.  1.
         11    1    3    3    0    0  0.12996386348E+02  0.13843536852E+01 -0.20679830629E+02  0.24463807724E+02  0.51100000000E-03 0. -1.
        -11    1    3    3    0    0 -0.98277938031E+00  0.15692195323E+02  0.15057473674E+02  0.21770125472E+02  0.51100000000E-03 0.  1.
        -12    1    3    3    0    0  0.37822740049E+01  0.45871224476E+01 -0.11637272901E+02  0.13068030057E+02  0.00000000000E+00 0.  1.
</event>
<event>
 7    1  0.6055092E-013  0.5930193E+02  0.7816164E-02  0.1266605E+00
        -11   -1    0    0    0    0  0.00000000000E+00  0.00000000000E+00  0.45593999997E+02  0.45594000000E+02  0.51100000000E-03 0. -1.
         11   -1    0    0    0    0 -0.00000000000E+00 -0.00000000000E+00 -0.45593999997E+02  0.45594000000E+02  0.51100000000E-03 0.  1.
    9900012    2    1    2    0    0  0.15884699046E+02  0.13123729658E+02  0.24334447206E+02  0.59301933063E+02  0.49999980003E+02 0.  0.
        -12    1    1    2    0    0 -0.15884699046E+02 -0.13123729658E+02 -0.24334447206E+02  0.31886066937E+02  0.00000000000E+00 0.  1.
         11    1    3    3    0    0  0.10967835684E+01  0.91987267050E+01 -0.10854347451E+02  0.14270121445E+02  0.51100000000E-03 0. -1.
        -11    1    3    3    0    0  0.20021431360E+02 -0.17332072833E+01  0.22342744361E+02  0.30050955842E+02  0.51100000000E-03 0.  1.
        -12    1    3    3    0    0 -0.52335158828E+01  0.56582102359E+01  0.12846050296E+02  0.14980855776E+02  0.00000000000E+00 0.  1.
</event>
<event>
 7    1  0.6055092E-013  0.5930192E+02  0.7816164E-02  0.1266605E+00
        -11   -1    0    0    0    0  0.00000000000E+00  0.00000000000E+00  0.45593999997E+02  0.45594000000E+02  0.51100000000E-03 0.  1.
         11   -1    0    0    0    0 -0.00000000000E+00 -0.00000000000E+00 -0.45593999997E+02  0.45594000000E+02  0.51100000000E-03 0. -1.
    9900012    2    1    2    0    0 -0.21498405388E+02  0.13080972237E+02 -0.19581341720E+02  0.59301918202E+02  0.49999952900E+02 0.  0.
        -12    1    1    2    0    0  0.21498405388E+02 -0.13080972237E+02  0.19581341720E+02  0.31886081798E+02  0.00000000000E+00 0.  1.
         11    1    3    3    0    0 -0.32790693123E+02 -0.21926922642E+00 -0.92012868919E+01  0.34057911199E+02  0.51100000000E-03 0. -1.
        -11    1    3    3    0    0  0.88155048975E+01  0.77880183678E+01  0.15559604321E+01  0.11865385363E+02  0.51100000000E-03 0.  1.
         12    1    3    3    0    0  0.24767828382E+01  0.55122230960E+01 -0.11936015260E+02  0.13378621639E+02  0.00000000000E+00 0. -1.
</event>
<event>
 7    1  0.6055092E-013  0.5930194E+02  0.7816164E-02  0.1266605E+00
        -11   -1    0    0    0    0  0.00000000000E+00  0.00000000000E+00  0.45593999997E+02  0.45594000000E+02  0.51100000000E-03 0. -1.
         11   -1    0    0    0    0 -0.00000000000E+00 -0.00000000000E+00 -0.45593999997E+02  0.45594000000E+02  0.51100000000E-03 0.  1.
    9900012    2    1    2    0    0 -0.69261128422E+01  0.30491065654E+02  0.62486009907E+01  0.59301935047E+02  0.49999983622E+02 0.  0.
        -12    1    1    2    0    0  0.69261128422E+01 -0.30491065654E+02 -0.62486009907E+01  0.31886064953E+02  0.00000000000E+00 0.  1.
         11    1    3    3    0    0 -0.21860082974E+02  0.65078538294E+01  0.17044912324E+02  0.28473574161E+02  0.51100000000E-03 0. -1.
        -11    1    3    3    0    0  0.38373904315E+01  0.11681412921E+02 -0.50646839963E+01  0.13297819272E+02  0.51100000000E-03 0.  1.
         12    1    3    3    0    0  0.11096579701E+02  0.12301798904E+02 -0.57316273374E+01  0.17530541613E+02  0.00000000000E+00 0. -1.
</event>
<event>
 7    1  0.6055092E-013  0.5930195E+02  0.7816164E-02  0.1266605E+00
        -11   -1    0    0    0    0  0.00000000000E+00  0.00000000000E+00  0.45593999997E+02  0.45594000000E+02  0.51100000000E-03 0.  1.
         11   -1    0    0    0    0 -0.00000000000E+00 -0.00000000000E+00 -0.45593999997E+02  0.45594000000E+02  0.51100000000E-03 0. -1.
    9900012    2    1    2    0    0  0.10561046343E+02 -0.29526334057E+02 -0.57775347116E+01  0.59301952737E+02  0.50000015884E+02 0.  0.
        -12    1    1    2    0    0 -0.10561046343E+02  0.29526334057E+02  0.57775347116E+01  0.31886047263E+02  0.00000000000E+00 0.  1.
         11    1    3    3    0    0  0.10115649487E+02 -0.16375859844E+02 -0.15910909542E+02  0.24973029310E+02  0.51100000000E-03 0. -1.
        -11    1    3    3    0    0  0.13769700376E+00  0.74161440264E+01  0.11533110359E+02  0.13712431859E+02  0.51100000000E-03 0.  1.
        -12    1    3    3    0    0  0.30769985137E+00 -0.20566618240E+02 -0.13997355283E+01  0.20616491568E+02  0.00000000000E+00 0.  1.
</event>
<event>
 7    1  0.6055092E-013  0.5930197E+02  0.7816164E-02  0.1266605E+00
        -11   -1    0    0    0    0  0.00000000000E+00  0.00000000000E+00  0.45593999997E+02  0.45594000000E+02  0.51100000000E-03 0.  1.
         11   -1    0    0    0    0 -0.00000000000E+00 -0.00000000000E+00 -0.45593999997E+02  0.45594000000E+02  0.51100000000E-03 0. -1.
    9900012    2    1    2    0    0 -0.26484909942E+02 -0.14540887092E+01 -0.17696160069E+02  0.59301969990E+02  0.50000047348E+02 0.  0.
        -12    1    1    2    0    0  0.26484909942E+02  0.14540887092E+01  0.17696160069E+02  0.31886030010E+02  0.00000000000E+00 0.  1.
         11    1    3    3    0    0 -0.69233071216E+01  0.16038689601E+02 -0.19424653314E+02  0.26124488554E+02  0.51100000000E-03 0. -1.
        -11    1    3    3    0    0 -0.32112621993E+00 -0.13197960849E+02  0.25521541713E+01  0.13446292567E+02  0.51100000000E-03 0.  1.
         12    1    3    3    0    0 -0.19240476601E+02 -0.42948174610E+01 -0.82366092687E+00  0.19731188869E+02  0.00000000000E+00 0. -1.
</event>
<event>
 7    1  0.6055092E-013  0.5930195E+02  0.7816164E-02  0.1266605E+00
        -11   -1    0    0    0    0  0.00000000000E+00  0.00000000000E+00  0.45593999997E+02  0.45594000000E+02  0.51100000000E-03 0. -1.
         11   -1    0    0    0    0 -0.00000000000E+00 -0.00000000000E+00 -0.45593999997E+02  0.45594000000E+02  0.51100000000E-03 0.  1.
    9900012    2    1    2    0    0 -0.19645512562E+02 -0.24928557155E+02 -0.30563343402E+01  0.59301948108E+02  0.50000007441E+02 0.  0.
        -12    1    1    2    0    0  0.19645512562E+02  0.24928557155E+02  0.30563343402E+01  0.31886051892E+02  0.00000000000E+00 0.  1.
         11    1    3    3    0    0 -0.96464536388E+01 -0.29048892582E+02  0.51325096644E+00  0.30612998136E+02  0.51100000000E-03 0.  1.
        -11    1    3    3    0    0 -0.35129461341E+00  0.11866951083E+02  0.57572452695E+01  0.13194461310E+02  0.51100000000E-03 0. -1.
        -12    1    3    3    0    0 -0.96477643099E+01 -0.77466156563E+01 -0.93268305762E+01  0.15494488662E+02  0.00000000000E+00 0.  1.
</event>
<event>
 7    1  0.6055092E-013  0.5930192E+02  0.7816164E-02  0.1266605E+00
        -11   -1    0    0    0    0  0.00000000000E+00  0.00000000000E+00  0.45593999997E+02  0.45594000000E+02  0.51100000000E-03 0.  1.
         11   -1    0    0    0    0 -0.00000000000E+00 -0.00000000000E+00 -0.45593999997E+02  0.45594000000E+02  0.51100000000E-03 0. -1.
    9900012    2    1    2    0    0  0.35190441255E+01  0.30859761993E+02 -0.72120191437E+01  0.59301924638E+02  0.49999964639E+02 0.  0.
        -12    1    1    2    0    0 -0.35190441255E+01 -0.30859761993E+02  0.72120191437E+01  0.31886075362E+02  0.00000000000E+00 0.  1.
         11    1    3    3    0    0 -0.19409442053E+02  0.72355479646E+01  0.63925350185E+01  0.21678194098E+02  0.51100000000E-03 0. -1.
        -11    1    3    3    0    0  0.87392817242E+01  0.12778034030E+02 -0.53026417137E+00  0.15489815334E+02  0.51100000000E-03 0.  1.
         12    1    3    3    0    0  0.14189204454E+02  0.10846179999E+02 -0.13074289991E+02  0.22133915206E+02  0.00000000000E+00 0. -1.
</event>
<event>
 7    1  0.6055092E-013  0.5930194E+02  0.7816164E-02  0.1266605E+00
        -11   -1    0    0    0    0  0.00000000000E+00  0.00000000000E+00  0.45593999997E+02  0.45594000000E+02  0.51100000000E-03 0. -1.
         11   -1    0    0    0    0 -0.00000000000E+00 -0.00000000000E+00 -0.45593999997E+02  0.45594000000E+02  0.51100000000E-03 0.  1.
    9900012    2    1    2    0    0  0.10070028585E+02  0.82557551420E+01  0.29105979481E+02  0.59301937054E+02  0.49999987282E+02 0.  0.
        -12    1    1    2    0    0 -0.10070028585E+02 -0.82557551420E+01 -0.29105979481E+02  0.31886062946E+02  0.00000000000E+00 0.  1.
         11    1    3    3    0    0  0.19276237663E+02  0.13640086281E+01  0.38212135228E+02  0.42820569087E+02  0.51100000000E-03 0. -1.
        -11    1    3    3    0    0 -0.67343114729E+01  0.62759309815E+01 -0.27090352781E+01  0.95956830449E+01  0.51100000000E-03 0.  1.
         12    1    3    3    0    0 -0.24718976054E+01  0.61581553235E+00 -0.63971204695E+01  0.68856849218E+01  0.00000000000E+00 0. -1.
</event>
<event>
 7    1  0.6055092E-013  0.5930193E+02  0.7816164E-02  0.1266605E+00
        -11   -1    0    0    0    0  0.00000000000E+00  0.00000000000E+00  0.45593999997E+02  0.45594000000E+02  0.51100000000E-03 0. -1.
         11   -1    0    0    0    0 -0.00000000000E+00 -0.00000000000E+00 -0.45593999997E+02  0.45594000000E+02  0.51100000000E-03 0.  1.
    9900012    2    1    2    0    0  0.24908056742E+02 -0.32034966455E+01 -0.19648098912E+02  0.59301929808E+02  0.49999974066E+02 0.  0.
        -12    1    1    2    0    0 -0.24908056742E+02  0.32034966455E+01  0.19648098912E+02  0.31886070192E+02  0.00000000000E+00 0.  1.
         11    1    3    3    0    0  0.13497613302E+02  0.13184880826E+02 -0.23981848428E+02  0.30514843954E+02  0.51100000000E-03 0. -1.
        -11    1    3    3    0    0  0.11202671596E+02 -0.20998388797E+02  0.30312131953E+01  0.23992091127E+02  0.51100000000E-03 0.  1.
        -12    1    3    3    0    0  0.20777184399E+00  0.46100113256E+01  0.13025363208E+01  0.47949947266E+01  0.00000000000E+00 0.  1.
</event>
<event>
 7    1  0.6055092E-013  0.5930189E+02  0.7816164E-02  0.1266605E+00
        -11   -1    0    0    0    0  0.00000000000E+00  0.00000000000E+00  0.45593999997E+02  0.45594000000E+02  0.51100000000E-03 0.  1.
         11   -1    0    0    0    0 -0.00000000000E+00 -0.00000000000E+00 -0.45593999997E+02  0.45594000000E+02  0.51100000000E-03 0. -1.
    9900012    2    1    2    0    0  0.12420421444E+02 -0.26018565689E+00 -0.29366465899E+02  0.59301891978E+02  0.49999905073E+02 0.  0.
        -12    1    1    2    0    0 -0.12420421444E+02  0.26018565689E+00  0.29366465899E+02  0.31886108022E+02  0.00000000000E+00 0.  1.
         11    1    3    3    0    0  0.49575761946E+01  0.98048983232E+01 -0.10039764972E+02  0.14883227936E+02  0.51100000000E-03 0.  1.
        -11    1    3    3    0    0  0.15057818118E+02 -0.13100218324E+02  0.34168532684E+01  0.20249160306E+02  0.51100000000E-03 0. -1.
        -12    1    3    3    0    0 -0.75949728682E+01  0.30351343435E+01 -0.22743554196E+02  0.24169503735E+02  0.00000000000E+00 0.  1.
</event>
<event>
 7    1  0.6055092E-013  0.5930203E+02  0.7816164E-02  0.1266604E+00
        -11   -1    0    0    0    0  0.00000000000E+00  0.00000000000E+00  0.45593999997E+02  0.45594000000E+02  0.51100000000E-03 0.  1.
         11   -1    0    0    0    0 -0.00000000000E+00 -0.00000000000E+00 -0.45593999997E+02  0.45594000000E+02  0.51100000000E-03 0. -1.
    9900012    2    1    2    0    0  0.83927005306E+01  0.11321584810E+02 -0.28602438871E+02  0.59302027940E+02  0.50000153036E+02 0.  0.
        -12    1    1    2    0    0 -0.83927005306E+01 -0.11321584810E+02  0.28602438871E+02  0.31885972060E+02  0.00000000000E+00 0.  1.
         11    1    3    3    0    0 -0.13538477933E+02  0.71585681785E+01  0.68192485228E+01  0.16764177098E+02  0.51100000000E-03 0. -1.
        -11    1    3    3    0    0  0.14341001788E+02  0.11568071639E+01 -0.16271562674E+02  0.21720181565E+02  0.51100000000E-03 0.  1.
         12    1    3    3    0    0  0.75901766755E+01  0.30062094675E+01 -0.19150124720E+02  0.20817669277E+02  0.00000000000E+00 0. -1.
</event>
<event>
 7    1  0.6055092E-013  0.5930196E+02  0.7816164E-02  0.1266605E+00
        -11   -1    0    0    0    0  0.00000000000E+00  0.00000000000E+00  0.45593999997E+02  0.45594000000E+02  0.51100000000E-03 0. -1.
         11   -1    0    0    0    0 -0.00000000000E+00 -0.00000000000E+00 -0.45593999997E+02  0.45594000000E+02  0.51100000000E-03 0.  1.
    9900012    2    1    2    0    0 -0.13372239576E+02 -0.25147118075E+01  0.28837113577E+02  0.59301957815E+02  0.50000025144E+02 0.  0.
        -12    1    1    2    0    0  0.13372239576E+02  0.25147118075E+01 -0.28837113577E+02  0.31886042185E+02  0.00000000000E+00 0.  1.
         11    1    3    3    0    0 -0.19626180516E+02 -0.15563715067E+02  0.25530544439E+02  0.35766253479E+02  0.51100000000E-03 0. -1.
        -11    1    3    3    0    0  0.43949763471E+01  0.14529747095E+02  0.88028208863E+01  0.17547621592E+02  0.51100000000E-03 0.  1.
        -12    1    3    3    0    0  0.18589645925E+01 -0.14807438352E+01 -0.54962517479E+01  0.59880827431E+01  0.00000000000E+00 0.  1.
</event>
<event>
 7    1  0.6055092E-013  0.5930195E+02  0.7816164E-02  0.1266605E+00
        -11   -1    0    0    0    0  0.00000000000E+00  0.00000000000E+00  0.45593999997E+02  0.45594000000E+02  0.51100000000E-03 0.  1.
         11   -1    0    0    0    0 -0.00000000000E+00 -0.00000000000E+00 -0.45593999997E+02  0.45594000000E+02  0.51100000000E-03 0. -1.
    9900012    2    1    2    0    0  0.16958074935E+02 -0.67060604558E+01 -0.26156699472E+02  0.59301945374E+02  0.50000002455E+02 0.  0.
        -12    1    1    2    0    0 -0.16958074935E+02  0.67060604558E+01  0.26156699472E+02  0.31886054626E+02  0.00000000000E+00 0.  1.
         11    1    3    3    0    0  0.23384685834E+02 -0.36944913401E+01 -0.21850088213E+02  0.32216752676E+02  0.51100000000E-03 0. -1.
        -11    1    3    3    0    0 -0.15434999318E+02  0.19631172603E+01 -0.59614347377E+01  0.16662284889E+02  0.51100000000E-03 0.  1.
        -12    1    3    3    0    0  0.90083884187E+01 -0.49746863759E+01  0.16548234782E+01  0.10422907809E+02  0.00000000000E+00 0.  1.
</event>
<event>
 7    1  0.6055092E-013  0.5930195E+02  0.7816164E-02  0.1266605E+00
        -11   -1    0    0    0    0  0.00000000000E+00  0.00000000000E+00  0.45593999997E+02  0.45594000000E+02  0.51100000000E-03 0. -1.
         11   -1    0    0    0    0 -0.00000000000E+00 -0.00000000000E+00 -0.45593999997E+02  0.45594000000E+02  0.51100000000E-03 0.  1.
    9900012    2    1    2    0    0  0.12804087766E+02  0.17248781257E+02  0.23563846289E+02  0.59301953361E+02  0.50000017021E+02 0.  0.
        -12    1    1    2    0    0 -0.12804087766E+02 -0.17248781257E+02 -0.23563846289E+02  0.31886046639E+02  0.00000000000E+00 0.  1.
         11    1    3    3    0    0  0.11536815408E+02  0.10575006131E+02  0.14850371872E+02  0.21574577850E+02  0.51100000000E-03 0. -1.
        -11    1    3    3    0    0 -0.15442646513E+02  0.11564116806E+02  0.48561267635E+01  0.19894373482E+02  0.51100000000E-03 0.  1.
        -12    1    3    3    0    0  0.16709918871E+02 -0.48903416810E+01  0.38573476536E+01  0.17833002029E+02  0.00000000000E+00 0.  1.
</event>
<event>
 7    1  0.6055092E-013  0.5930190E+02  0.7816164E-02  0.1266605E+00
        -11   -1    0    0    0    0  0.00000000000E+00  0.00000000000E+00  0.45593999997E+02  0.45594000000E+02  0.51100000000E-03 0. -1.
         11   -1    0    0    0    0 -0.00000000000E+00 -0.00000000000E+00 -0.45593999997E+02  0.45594000000E+02  0.51100000000E-03 0.  1.
    9900012    2    1    2    0    0 -0.10119186347E+02 -0.17184723601E+02  0.24879932352E+02  0.59301895011E+02  0.49999910604E+02 0.  0.
        -12    1    1    2    0    0  0.10119186347E+02  0.17184723601E+02 -0.24879932352E+02  0.31886104989E+02  0.00000000000E+00 0.  1.
         11    1    3    3    0    0 -0.20733313576E+02 -0.14184210705E+02  0.33877783017E+02  0.42175423028E+02  0.51100000000E-03 0. -1.
        -11    1    3    3    0    0 -0.41683113462E+00  0.22437502051E+01 -0.80888262480E+00  0.24212506147E+01  0.51100000000E-03 0.  1.
         12    1    3    3    0    0  0.11030958364E+02 -0.52442631015E+01 -0.81889680405E+01  0.14705221368E+02  0.00000000000E+00 0. -1.
</event>
<event>
 7    1  0.6055092E-013  0.5930204E+02  0.7816164E-02  0.1266604E+00
        -11   -1    0    0    0    0  0.00000000000E+00  0.00000000000E+00  0.45593999997E+02  0.45594000000E+02  0.51100000000E-03 0.  1.
         11   -1    0    0    0    0 -0.00000000000E+00 -0.00000000000E+00 -0.45593999997E+02  0.45594000000E+02  0.51100000000E-03 0. -1.
    9900012    2    1    2    0    0  0.23310859377E+02  0.12365532815E+02 -0.17900052460E+02  0.59302040005E+02  0.50000175040E+02 0.  0.
        -12    1    1    2    0    0 -0.23310859377E+02 -0.12365532815E+02  0.17900052460E+02  0.31885959995E+02  0.00000000000E+00 0.  1.
         11    1    3    3    0    0  0.23842587932E+02  0.47907282950E+00 -0.85087074230E+01  0.25319885710E+02  0.51100000000E-03 0. -1.
        -11    1    3    3    0    0 -0.10574028157E+01  0.11251882179E+01  0.10899465996E+02  0.11008292715E+02  0.51100000000E-03 0.  1.
        -12    1    3    3    0    0  0.52567426065E+00  0.10761271768E+02 -0.20290811034E+02  0.22973861580E+02  0.00000000000E+00 0.  1.
</event>
<event>
 7    1  0.6055092E-013  0.5930193E+02  0.7816164E-02  0.1266605E+00
        -11   -1    0    0    0    0  0.00000000000E+00  0.00000000000E+00  0.45593999997E+02  0.45594000000E+02  0.51100000000E-03 0. -1.
         11   -1    0    0    0    0 -0.00000000000E+00 -0.00000000000E+00 -0.45593999997E+02  0.45594000000E+02  0.51100000000E-03 0.  1.
    9900012    2    1    2    0    0  0.30547011128E+02 -0.61262769997E+00  0.91228357945E+01  0.59301931969E+02  0.49999978008E+02 0.  0.
        -12    1    1    2    0    0 -0.30547011128E+02  0.61262769997E+00 -0.91228357945E+01  0.31886068031E+02  0.00000000000E+00 0.  1.
         11    1    3    3    0    0  0.61440262059E+01 -0.22216188893E+02 -0.21117890823E+01  0.23146657649E+02  0.51100000000E-03 0.  1.
        -11    1    3    3    0    0  0.23730694341E+02  0.22717277238E+02  0.99457837856E+01  0.34324031732E+02  0.51100000000E-03 0. -1.
         12    1    3    3    0    0  0.67229058140E+00 -0.11137160455E+01  0.12888410912E+01  0.18312425875E+01  0.00000000000E+00 0. -1.
</event>
<event>
 7    1  0.6055092E-013  0.5930195E+02  0.7816164E-02  0.1266605E+00
        -11   -1    0    0    0    0  0.00000000000E+00  0.00000000000E+00  0.45593999997E+02  0.45594000000E+02  0.51100000000E-03 0.  1.
         11   -1    0    0    0    0 -0.00000000000E+00 -0.00000000000E+00 -0.45593999997E+02  0.45594000000E+02  0.51100000000E-03 0. -1.
    9900012    2    1    2    0    0  0.27406026415E+02 -0.11654251763E+01  0.16256434227E+02  0.59301950488E+02  0.50000011782E+02 0.  0.
        -12    1    1    2    0    0 -0.27406026415E+02  0.11654251763E+01 -0.16256434227E+02  0.31886049512E+02  0.00000000000E+00 0.  1.
         11    1    3    3    0    0  0.21365276236E+02 -0.90681044396E+01  0.10059021096E+02  0.25296036299E+02  0.51100000000E-03 0. -1.
        -11    1    3    3    0    0 -0.32160087879E+00  0.19865931934E+02  0.42320352790E+01  0.20314251195E+02  0.51100000000E-03 0.  1.
        -12    1    3    3    0    0  0.63623510576E+01 -0.11963252671E+02  0.19653778528E+01  0.13691662994E+02  0.00000000000E+00 0.  1.
</event>
<event>
 7    1  0.6055092E-013  0.5930200E+02  0.7816164E-02  0.1266605E+00
        -11   -1    0    0    0    0  0.00000000000E+00  0.00000000000E+00  0.45593999997E+02  0.45594000000E+02  0.51100000000E-03 0.  1.
         11   -1    0    0    0    0 -0.00000000000E+00 -0.00000000000E+00 -0.45593999997E+02  0.45594000000E+02  0.51100000000E-03 0. -1.
    9900012    2    1    2    0    0 -0.11617793967E+02 -0.24087198120E+02 -0.17365220628E+02  0.59301997783E+02  0.50000098036E+02 0.  0.
        -12    1    1    2    0    0  0.11617793967E+02  0.24087198120E+02  0.17365220628E+02  0.31886002217E+02  0.00000000000E+00 0.  1.
         11    1    3    3    0    0 -0.26803003067E+02 -0.12621671892E+02 -0.16062322066E+02  0.33700233904E+02  0.51100000000E-03 0. -1.
        -11    1    3    3    0    0 -0.49605104022E+00 -0.47894905469E+01  0.54473790145E+01  0.72704349748E+01  0.51100000000E-03 0.  1.
         12    1    3    3    0    0  0.15681260141E+02 -0.66760356813E+01 -0.67502775771E+01  0.18331328904E+02  0.00000000000E+00 0. -1.
</event>
<event>
 7    1  0.6055092E-013  0.5930198E+02  0.7816164E-02  0.1266605E+00
        -11   -1    0    0    0    0  0.00000000000E+00  0.00000000000E+00  0.45593999997E+02  0.45594000000E+02  0.51100000000E-03 0. -1.
         11   -1    0    0    0    0 -0.00000000000E+00 -0.00000000000E+00 -0.45593999997E+02  0.45594000000E+02  0.51100000000E-03 0.  1.
    9900012    2    1    2    0    0  0.29494193242E+02 -0.12082954361E+02 -0.90167328031E+00  0.59301980559E+02  0.50000066624E+02 0.  0.
        -12    1    1    2    0    0 -0.29494193242E+02  0.12082954361E+02  0.90167328031E+00  0.31886019441E+02  0.00000000000E+00 0.  1.
         11    1    3    3    0    0  0.16594052357E+02 -0.26581899473E+02 -0.61013792367E+01  0.31924704886E+02  0.51100000000E-03 0.  1.
        -11    1    3    3    0    0  0.10669387939E+02  0.13493217187E+02  0.11450638541E+02  0.20664459159E+02  0.51100000000E-03 0. -1.
        -12    1    3    3    0    0  0.22307529466E+01  0.10057279256E+01 -0.62509325851E+01  0.67128165141E+01  0.00000000000E+00 0.  1.
</event>
<event>
 7    1  0.6055092E-013  0.5930176E+02  0.7816164E-02  0.1266605E+00
        -11   -1    0    0    0    0  0.00000000000E+00  0.00000000000E+00  0.45593999997E+02  0.45594000000E+02  0.51100000000E-03 0.  1.
         11   -1    0    0    0    0 -0.00000000000E+00 -0.00000000000E+00 -0.45593999997E+02  0.45594000000E+02  0.51100000000E-03 0. -1.
    9900012    2    1    2    0    0  0.21827634159E+02 -0.20307099650E+02 -0.11309663173E+02  0.59301758606E+02  0.49999661834E+02 0.  0.
        -12    1    1    2    0    0 -0.21827634159E+02  0.20307099650E+02  0.11309663173E+02  0.31886241394E+02  0.00000000000E+00 0.  1.
         11    1    3    3    0    0  0.19733663128E+02  0.14815067838E+01 -0.17393565756E+02  0.26346697189E+02  0.51100000000E-03 0. -1.
        -11    1    3    3    0    0  0.41413597655E+01 -0.82395797941E+01  0.14272074555E+02  0.16992164319E+02  0.51100000000E-03 0.  1.
         12    1    3    3    0    0 -0.20473887347E+01 -0.13549026640E+02 -0.81881719716E+01  0.15962897097E+02  0.00000000000E+00 0. -1.
</event>
<event>
 7    1  0.6055092E-013  0.5930191E+02  0.7816164E-02  0.1266605E+00
        -11   -1    0    0    0    0  0.00000000000E+00  0.00000000000E+00  0.45593999997E+02  0.45594000000E+02  0.51100000000E-03 0.  1.
         11   -1    0    0    0    0 -0.00000000000E+00 -0.00000000000E+00 -0.45593999997E+02  0.45594000000E+02  0.51100000000E-03 0. -1.
    9900012    2    1    2    0    0  0.87102940293E+01  0.14645740863E+02 -0.26950991626E+02  0.59301907465E+02  0.49999933319E+02 0.  0.
        -12    1    1    2    0    0 -0.87102940293E+01 -0.14645740863E+02  0.26950991626E+02  0.31886092535E+02  0.00000000000E+00 0.  1.
         11    1    3    3    0    0  0.92627828019E+01  0.55314623740E+01  0.41520042855E+01  0.11560076171E+02  0.51100000000E-03 0. -1.
        -11    1    3    3    0    0 -0.15676442562E+02  0.19150810710E+01 -0.25658236353E+02  0.30129113493E+02  0.51100000000E-03 0.  1.
        -12    1    3    3    0    0  0.15123953789E+02  0.71991974180E+01 -0.54447595590E+01  0.17612717801E+02  0.00000000000E+00 0.  1.
</event>
<event>
 7    1  0.6055092E-013  0.5930194E+02  0.7816164E-02  0.1266605E+00
        -11   -1    0    0    0    0  0.00000000000E+00  0.00000000000E+00  0.45593999997E+02  0.45594000000E+02  0.51100000000E-03 0. -1.
         11   -1    0    0    0    0 -0.00000000000E+00 -0.00000000000E+00 -0.45593999997E+02  0.45594000000E+02  0.51100000000E-03 0.  1.
    9900012    2    1    2    0    0 -0.16026993654E+02  0.24698555055E+02  0.12240830746E+02  0.59301935885E+02  0.49999985149E+02 0.  0.
        -12    1    1    2    0    0  0.16026993654E+02 -0.24698555055E+02 -0.12240830746E+02  0.31886064115E+02  0.00000000000E+00 0.  1.
         11    1    3    3    0    0 -0.58056209222E+01  0.26284237623E+02  0.22720590324E+02  0.35224871989E+02  0.51100000000E-03 0. -1.
        -11    1    3    3    0    0 -0.20743288856E+01 -0.86917848919E+01  0.12023657380E+00  0.89366896571E+01  0.51100000000E-03 0.  1.
         12    1    3    3    0    0 -0.81470438466E+01  0.71061023238E+01 -0.10599996152E+02  0.15140374239E+02  0.00000000000E+00 0. -1.
</event>
<event>
 7    1  0.6055092E-013  0.5930192E+02  0.7816164E-02  0.1266605E+00
        -11   -1    0    0    0    0  0.00000000000E+00  0.00000000000E+00  0.45593999997E+02  0.45594000000E+02  0.51100000000E-03 0.  1.
         11   -1    0    0    0    0 -0.00000000000E+00 -0.00000000000E+00 -0.45593999997E+02  0.45594000000E+02  0.51100000000E-03 0. -1.
    9900012    2    1    2    0    0  0.39776670191E+01  0.30546816124E+02 -0.82336036414E+01  0.59301920919E+02  0.49999957856E+02 0.  0.
        -12    1    1    2    0    0 -0.39776670191E+01 -0.30546816124E+02  0.82336036414E+01  0.31886079081E+02  0.00000000000E+00 0.  1.
         11    1    3    3    0    0  0.12584579589E+02  0.61592425839E+00 -0.14783938512E+02  0.19424619541E+02  0.51100000000E-03 0. -1.
        -11    1    3    3    0    0 -0.14132042158E+02  0.97630800925E+01  0.79345121091E+01  0.18920592779E+02  0.51100000000E-03 0.  1.
        -12    1    3    3    0    0  0.55251295879E+01  0.20167811773E+02 -0.13841772387E+01  0.20956708599E+02  0.00000000000E+00 0.  1.
</event>
<event>
 7    1  0.6055092E-013  0.5930194E+02  0.7816164E-02  0.1266605E+00
        -11   -1    0    0    0    0  0.00000000000E+00  0.00000000000E+00  0.45593999997E+02  0.45594000000E+02  0.51100000000E-03 0.  1.
         11   -1    0    0    0    0 -0.00000000000E+00 -0.00000000000E+00 -0.45593999997E+02  0.45594000000E+02  0.51100000000E-03 0. -1.
    9900012    2    1    2    0    0 -0.58487704542E+01  0.57393440853E+01 -0.30815138041E+02  0.59301938487E+02  0.49999989895E+02 0.  0.
        -12    1    1    2    0    0  0.58487704542E+01 -0.57393440853E+01  0.30815138041E+02  0.31886061513E+02  0.00000000000E+00 0.  1.
         11    1    3    3    0    0  0.13198113748E+02 -0.10487666021E+02 -0.13028827269E+02  0.21305672610E+02  0.51100000000E-03 0. -1.
        -11    1    3    3    0    0 -0.91355254211E+01 -0.10420387817E+01  0.25434716695E+01  0.95400690740E+01  0.51100000000E-03 0.  1.
         12    1    3    3    0    0 -0.99113587816E+01  0.17269048888E+02 -0.20329782441E+02  0.28456196803E+02  0.00000000000E+00 0. -1.
</event>
<event>
 7    1  0.6055092E-013  0.5930194E+02  0.7816164E-02  0.1266605E+00
        -11   -1    0    0    0    0  0.00000000000E+00  0.00000000000E+00  0.45593999997E+02  0.45594000000E+02  0.51100000000E-03 0.  1.
         11   -1    0    0    0    0 -0.00000000000E+00 -0.00000000000E+00 -0.45593999997E+02  0.45594000000E+02  0.51100000000E-03 0. -1.
    9900012    2    1    2    0    0  0.11319309175E+02 -0.24859187785E+02 -0.16450367168E+02  0.59301944152E+02  0.50000000227E+02 0.  0.
        -12    1    1    2    0    0 -0.11319309175E+02  0.24859187785E+02  0.16450367168E+02  0.31886055848E+02  0.00000000000E+00 0.  1.
         11    1    3    3    0    0 -0.23538539087E+01 -0.20294717420E+02 -0.57274184338E+01  0.21218376601E+02  0.51100000000E-03 0. -1.
        -11    1    3    3    0    0  0.65297793825E+01  0.15632262874E+01 -0.22227700397E+02  0.23219654615E+02  0.51100000000E-03 0.  1.
        -12    1    3    3    0    0  0.71433837014E+01 -0.61276966524E+01  0.11504751663E+02  0.14863912937E+02  0.00000000000E+00 0.  1.
</event>
<event>
 7    1  0.6055092E-013  0.5930190E+02  0.7816164E-02  0.1266605E+00
        -11   -1    0    0    0    0  0.00000000000E+00  0.00000000000E+00  0.45593999997E+02  0.45594000000E+02  0.51100000000E-03 0.  1.
         11   -1    0    0    0    0 -0.00000000000E+00 -0.00000000000E+00 -0.45593999997E+02  0.45594000000E+02  0.51100000000E-03 0. -1.
    9900012    2    1    2    0    0  0.71905643119E+01  0.20704127487E+02 -0.23159406669E+02  0.59301902286E+02  0.49999923874E+02 0.  0.
        -12    1    1    2    0    0 -0.71905643119E+01 -0.20704127487E+02  0.23159406669E+02  0.31886097714E+02  0.00000000000E+00 0.  1.
         11    1    3    3    0    0  0.88732686850E+01  0.31437106652E+02 -0.82975588203E+01  0.33702760338E+02  0.51100000000E-03 0. -1.
        -11    1    3    3    0    0 -0.12944899612E+01 -0.12365331600E+02 -0.19573716774E+01  0.12586041235E+02  0.51100000000E-03 0.  1.
         12    1    3    3    0    0 -0.38821441200E+00  0.16323524351E+01 -0.12904476172E+02  0.13013100713E+02  0.00000000000E+00 0. -1.
</event>
<event>
 7    1  0.6055092E-013  0.5930191E+02  0.7816164E-02  0.1266605E+00
        -11   -1    0    0    0    0  0.00000000000E+00  0.00000000000E+00  0.45593999997E+02  0.45594000000E+02  0.51100000000E-03 0.  1.
         11   -1    0    0    0    0 -0.00000000000E+00 -0.00000000000E+00 -0.45593999997E+02  0.45594000000E+02  0.51100000000E-03 0. -1.
    9900012    2    1    2    0    0  0.16015939209E+02  0.17340211885E+02 -0.21436642741E+02  0.59301907279E+02  0.49999932980E+02 0.  0.
        -12    1    1    2    0    0 -0.16015939209E+02 -0.17340211885E+02  0.21436642741E+02  0.31886092721E+02  0.00000000000E+00 0.  1.
         11    1    3    3    0    0  0.17878608451E+02  0.82383097915E+01 -0.14604137522E+02  0.24511124442E+02  0.51100000000E-03 0.  1.
        -11    1    3    3    0    0 -0.15067941487E+02 -0.28397425542E+01 -0.72964904044E+01  0.16980747065E+02  0.51100000000E-03 0. -1.
         12    1    3    3    0    0  0.13205272245E+02  0.11941644648E+02  0.46398518555E+00  0.17810035772E+02  0.00000000000E+00 0. -1.
</event>
<event>
 7    1  0.6764325E-013  0.5930193E+02  0.7816164E-02  0.1266605E+00
        -11   -1    0    0    0    0  0.00000000000E+00  0.00000000000E+00  0.45593999997E+02  0.45594000000E+02  0.51100000000E-03 0. -1.
         11   -1    0    0    0    0 -0.00000000000E+00 -0.00000000000E+00 -0.45593999997E+02  0.45594000000E+02  0.51100000000E-03 0.  1.
    9900012    2    1    2    0    0  0.59928582057E+01 -0.18880856681E+02  0.24986403557E+02  0.59301929982E+02  0.49999974384E+02 0.  0.
        -12    1    1    2    0    0 -0.59928582057E+01  0.18880856681E+02 -0.24986403557E+02  0.31886070018E+02  0.00000000000E+00 0.  1.
         11    1    3    3    0    0  0.10726014653E+02 -0.43900716879E+01  0.13237890194E+02  0.17594370032E+02  0.51100000000E-03 0. -1.
        -11    1    3    3    0    0 -0.17812793888E+02 -0.18598420793E+01  0.14845889778E+02  0.23262740213E+02  0.51100000000E-03 0.  1.
        -12    1    3    3    0    0  0.13079637441E+02 -0.12630942914E+02 -0.30973764155E+01  0.18444819737E+02  0.00000000000E+00 0.  1.
</event>
<event>
 7    1  0.6055092E-013  0.5930189E+02  0.7816164E-02  0.1266605E+00
        -11   -1    0    0    0    0  0.00000000000E+00  0.00000000000E+00  0.45593999997E+02  0.45594000000E+02  0.51100000000E-03 0. -1.
         11   -1    0    0    0    0 -0.00000000000E+00 -0.00000000000E+00 -0.45593999997E+02  0.45594000000E+02  0.51100000000E-03 0.  1.
    9900012    2    1    2    0    0 -0.97847846235E+01 -0.21507008090E+02  0.21410992245E+02  0.59301890234E+02  0.49999901892E+02 0.  0.
        -12    1    1    2    0    0  0.97847846235E+01  0.21507008090E+02 -0.21410992245E+02  0.31886109766E+02  0.00000000000E+00 0.  1.
         11    1    3    3    0    0 -0.95949387678E+01  0.60021105259E+01  0.74588631270E+01  0.13554439130E+02  0.51100000000E-03 0. -1.
        -11    1    3    3    0    0  0.53709219528E+01 -0.29135027396E+02 -0.10716159257E+01  0.29645319781E+02  0.51100000000E-03 0.  1.
        -12    1    3    3    0    0 -0.55607678085E+01  0.16259087800E+01  0.15023745044E+02  0.16102131322E+02  0.00000000000E+00 0.  1.
</event>
<event>
 7    1  0.6055092E-013  0.5930193E+02  0.7816164E-02  0.1266605E+00
        -11   -1    0    0    0    0  0.00000000000E+00  0.00000000000E+00  0.45593999997E+02  0.45594000000E+02  0.51100000000E-03 0. -1.
         11   -1    0    0    0    0 -0.00000000000E+00 -0.00000000000E+00 -0.45593999997E+02  0.45594000000E+02  0.51100000000E-03 0.  1.
    9900012    2    1    2    0    0 -0.22437617029E+02 -0.12119606661E+02 -0.19141317037E+02  0.59301928723E+02  0.49999972088E+02 0.  0.
        -12    1    1    2    0    0  0.22437617029E+02  0.12119606661E+02  0.19141317037E+02  0.31886071277E+02  0.00000000000E+00 0.  1.
         11    1    3    3    0    0 -0.12134985280E+02 -0.77771551257E+01  0.83313059790E+01  0.16647902846E+02  0.51100000000E-03 0. -1.
        -11    1    3    3    0    0  0.45888114769E+01 -0.88387909202E+01 -0.24990489036E+02  0.26901783551E+02  0.51100000000E-03 0.  1.
        -12    1    3    3    0    0 -0.14891443226E+02  0.44963393844E+01 -0.24821339794E+01  0.15752242326E+02  0.00000000000E+00 0.  1.
</event>
<event>
 7    1  0.6055092E-013  0.5930196E+02  0.7816164E-02  0.1266605E+00
        -11   -1    0    0    0    0  0.00000000000E+00  0.00000000000E+00  0.45593999997E+02  0.45594000000E+02  0.51100000000E-03 0.  1.
         11   -1    0    0    0    0 -0.00000000000E+00 -0.00000000000E+00 -0.45593999997E+02  0.45594000000E+02  0.51100000000E-03 0. -1.
    9900012    2    1    2    0    0 -0.21019122611E+02  0.23665824739E+02 -0.38528778341E+01  0.59301961621E+02  0.50000032085E+02 0.  0.
        -12    1    1    2    0    0  0.21019122611E+02 -0.23665824739E+02  0.38528778341E+01  0.31886038379E+02  0.00000000000E+00 0.  1.
         11    1    3    3    0    0  0.10929148290E+02  0.46691177176E+01 -0.12649251851E+02  0.17356569801E+02  0.51100000000E-03 0. -1.
        -11    1    3    3    0    0 -0.22547402005E+02  0.19944362734E+02  0.11328265120E+02  0.32163527992E+02  0.51100000000E-03 0.  1.
         12    1    3    3    0    0 -0.94008688973E+01 -0.94765571243E+00 -0.25318911032E+01  0.97818638271E+01  0.00000000000E+00 0. -1.
</event>
<event>
 7    1  0.6055092E-013  0.5930191E+02  0.7816164E-02  0.1266605E+00
        -11   -1    0    0    0    0  0.00000000000E+00  0.00000000000E+00  0.45593999997E+02  0.45594000000E+02  0.51100000000E-03 0.  1.
         11   -1    0    0    0    0 -0.00000000000E+00 -0.00000000000E+00 -0.45593999997E+02  0.45594000000E+02  0.51100000000E-03 0. -1.
    9900012    2    1    2    0    0  0.13221576404E+02 -0.56968249360E+01 -0.28450985399E+02  0.59301914208E+02  0.49999945616E+02 0.  0.
        -12    1    1    2    0    0 -0.13221576404E+02  0.56968249360E+01  0.28450985399E+02  0.31886085792E+02  0.00000000000E+00 0.  1.
         11    1    3    3    0    0 -0.90150939383E+01  0.54874829872E+01 -0.63451043437E+01  0.12314411786E+02  0.51100000000E-03 0. -1.
        -11    1    3    3    0    0  0.26614494486E+02  0.27439905541E+01 -0.15897762628E+02  0.31122333746E+02  0.51100000000E-03 0.  1.
        -12    1    3    3    0    0 -0.43778241444E+01 -0.13928298477E+02 -0.62081184275E+01  0.15865168676E+02  0.00000000000E+00 0.  1.
</event>
<event>
 7    1  0.6055092E-013  0.5930193E+02  0.7816164E-02  0.1266605E+00
        -11   -1    0    0    0    0  0.00000000000E+00  0.00000000000E+00  0.45593999997E+02  0.45594000000E+02  0.51100000000E-03 0. -1.
         11   -1    0    0    0    0 -0.00000000000E+00 -0.00000000000E+00 -0.45593999997E+02  0.45594000000E+02  0.51100000000E-03 0.  1.
    9900012    2    1    2    0    0 -0.22996841240E+02  0.20472720807E+02 -0.82906107373E+01  0.59301933596E+02  0.49999980976E+02 0.  0.
        -12    1    1    2    0    0  0.22996841240E+02 -0.20472720807E+02  0.82906107373E+01  0.31886066404E+02  0.00000000000E+00 0.  1.
         11    1    3    3    0    0 -0.32844879474E+02 -0.76340163404E+00 -0.52876568599E+01  0.33276541362E+02  0.51100000000E-03 0. -1.
        -11    1    3    3    0    0 -0.11963637345E+01  0.64243457639E+01 -0.37497017534E+01  0.75341733574E+01  0.51100000000E-03 0.  1.
         12    1    3    3    0    0  0.11044401968E+02  0.14811776677E+02  0.74674787596E+00  0.18491218877E+02  0.00000000000E+00 0. -1.
</event>
<event>
 7    1  0.6055092E-013  0.5930192E+02  0.7816164E-02  0.1266605E+00
        -11   -1    0    0    0    0  0.00000000000E+00  0.00000000000E+00  0.45593999997E+02  0.45594000000E+02  0.51100000000E-03 0. -1.
         11   -1    0    0    0    0 -0.00000000000E+00 -0.00000000000E+00 -0.45593999997E+02  0.45594000000E+02  0.51100000000E-03 0.  1.
    9900012    2    1    2    0    0  0.46538559448E+01  0.22802812459E+02  0.21796678324E+02  0.59301924400E+02  0.49999964205E+02 0.  0.
        -12    1    1    2    0    0 -0.46538559448E+01 -0.22802812459E+02 -0.21796678324E+02  0.31886075600E+02  0.00000000000E+00 0.  1.
         11    1    3    3    0    0 -0.86975256188E+01  0.12433382610E+02  0.15711233454E+02  0.21842133868E+02  0.51100000000E-03 0. -1.
        -11    1    3    3    0    0  0.67280930897E+01  0.17112223008E+02 -0.83586860823E+01  0.20198095113E+02  0.51100000000E-03 0.  1.
        -12    1    3    3    0    0  0.66232884739E+01 -0.67427931589E+01  0.14444130952E+02  0.17261695420E+02  0.00000000000E+00 0.  1.
</event>
<event>
 7    1  0.6055092E-013  0.5930197E+02  0.7816164E-02  0.1266605E+00
        -11   -1    0    0    0    0  0.00000000000E+00  0.00000000000E+00  0.45593999997E+02  0.45594000000E+02  0.51100000000E-03 0. -1.
         11   -1    0    0    0    0 -0.00000000000E+00 -0.00000000000E+00 -0.45593999997E+02  0.45594000000E+02  0.51100000000E-03 0.  1.
    9900012    2    1    2    0    0  0.17335867301E+02 -0.26316768630E+02  0.48594461757E+01  0.59301971346E+02  0.50000049821E+02 0.  0.
        -12    1    1    2    0    0 -0.17335867301E+02  0.26316768630E+02 -0.48594461757E+01  0.31886028654E+02  0.00000000000E+00 0.  1.
         11    1    3    3    0    0  0.20934025317E+02 -0.92603721822E+01 -0.85882870585E+01  0.24448856493E+02  0.51100000000E-03 0. -1.
        -11    1    3    3    0    0 -0.27511862929E+01 -0.14620073577E+02  0.21642278626E+02  0.26262212432E+02  0.51100000000E-03 0.  1.
        -12    1    3    3    0    0 -0.84697172293E+00 -0.24363228710E+01 -0.81945453920E+01  0.85909024213E+01  0.00000000000E+00 0.  1.
</event>
<event>
 7    1  0.6055092E-013  0.5930193E+02  0.7816164E-02  0.1266605E+00
        -11   -1    0    0    0    0  0.00000000000E+00  0.00000000000E+00  0.45593999997E+02  0.45594000000E+02  0.51100000000E-03 0.  1.
         11   -1    0    0    0    0 -0.00000000000E+00 -0.00000000000E+00 -0.45593999997E+02  0.45594000000E+02  0.51100000000E-03 0. -1.
    9900012    2    1    2    0    0  0.28578749288E+02 -0.11479228366E+02 -0.82585441243E+01  0.59301934928E+02  0.49999983403E+02 0.  0.
        -12    1    1    2    0    0 -0.28578749288E+02  0.11479228366E+02  0.82585441243E+01  0.31886065072E+02  0.00000000000E+00 0.  1.
         11    1    3    3    0    0  0.34704411054E+02  0.21609607599E+01 -0.16486942729E+02  0.38482270968E+02  0.51100000000E-03 0. -1.
        -11    1    3    3    0    0 -0.67608038987E+01 -0.14683342001E+02  0.97428566394E+01  0.18874116071E+02  0.51100000000E-03 0.  1.
         12    1    3    3    0    0  0.63514213240E+00  0.10431528753E+01 -0.15144580349E+01  0.19455478892E+01  0.00000000000E+00 0. -1.
</event>
<event>
 7    1  0.6055092E-013  0.5930200E+02  0.7816164E-02  0.1266605E+00
        -11   -1    0    0    0    0  0.00000000000E+00  0.00000000000E+00  0.45593999997E+02  0.45594000000E+02  0.51100000000E-03 0. -1.
         11   -1    0    0    0    0 -0.00000000000E+00 -0.00000000000E+00 -0.45593999997E+02  0.45594000000E+02  0.51100000000E-03 0.  1.
    9900012    2    1    2    0    0  0.20921185574E+02  0.79995374045E+01  0.22694237384E+02  0.59301999703E+02  0.50000101537E+02 0.  0.
        -12    1    1    2    0    0 -0.20921185574E+02 -0.79995374045E+01 -0.22694237384E+02  0.31886000297E+02  0.00000000000E+00 0.  1.
         11    1    3    3    0    0  0.79228178971E+01 -0.13529106268E+01  0.25882170599E+02  0.27101442134E+02  0.51100000000E-03 0. -1.
        -11    1    3    3    0    0  0.88187603796E+01  0.18516124542E+02  0.24554639993E+01  0.20655428013E+02  0.51100000000E-03 0.  1.
         12    1    3    3    0    0  0.41796072977E+01 -0.91636765103E+01 -0.56433972138E+01  0.11545129556E+02  0.00000000000E+00 0. -1.
</event>
<event>
 7    1  0.6055092E-013  0.5930195E+02  0.7816164E-02  0.1266605E+00
        -11   -1    0    0    0    0  0.00000000000E+00  0.00000000000E+00  0.45593999997E+02  0.45594000000E+02  0.51100000000E-03 0.  1.
         11   -1    0    0    0    0 -0.00000000000E+00 -0.00000000000E+00 -0.45593999997E+02  0.45594000000E+02  0.51100000000E-03 0. -1.
    9900012    2    1    2    0    0  0.20077368556E+02 -0.23447133832E+02 -0.79907100128E+01  0.59301948824E+02  0.50000008748E+02 0.  0.
        -12    1    1    2    0    0 -0.20077368556E+02  0.23447133832E+02  0.79907100128E+01  0.31886051176E+02  0.00000000000E+00 0.  1.
         11    1    3    3    0    0 -0.11466622650E+02 -0.61777739398E+01 -0.25691710052E+01  0.13275879096E+02  0.51100000000E-03 0. -1.
        -11    1    3    3    0    0  0.33909568948E+02 -0.13113338355E+02 -0.11646162871E+02  0.38176584694E+02  0.51100000000E-03 0.  1.
        -12    1    3    3    0    0 -0.23655777412E+01 -0.41560215373E+01  0.62246238632E+01  0.78494850344E+01  0.00000000000E+00 0.  1.
</event>
<event>
 7    1  0.6055092E-013  0.5930194E+02  0.7816164E-02  0.1266605E+00
        -11   -1    0    0    0    0  0.00000000000E+00  0.00000000000E+00  0.45593999997E+02  0.45594000000E+02  0.51100000000E-03 0.  1.
         11   -1    0    0    0    0 -0.00000000000E+00 -0.00000000000E+00 -0.45593999997E+02  0.45594000000E+02  0.51100000000E-03 0. -1.
    9900012    2    1    2    0    0 -0.67551418554E+01  0.16408121727E+02 -0.26492689631E+02  0.59301937151E+02  0.49999987459E+02 0.  0.
        -12    1    1    2    0    0  0.67551418554E+01 -0.16408121727E+02  0.26492689631E+02  0.31886062849E+02  0.00000000000E+00 0.  1.
         11    1    3    3    0    0 -0.13086429393E+02  0.71158362725E+01 -0.54175781787E+01  0.15850549319E+02  0.51100000000E-03 0. -1.
        -11    1    3    3    0    0  0.92652696398E+01 -0.30825641142E+01  0.74088218884E+01  0.12257163826E+02  0.51100000000E-03 0.  1.
        -12    1    3    3    0    0 -0.29339821020E+01  0.12374849569E+02 -0.28483933341E+02  0.31194224007E+02  0.00000000000E+00 0.  1.
</event>
<event>
 7    1  0.6055092E-013  0.5930193E+02  0.7816164E-02  0.1266605E+00
        -11   -1    0    0    0    0  0.00000000000E+00  0.00000000000E+00  0.45593999997E+02  0.45594000000E+02  0.51100000000E-03 0.  1.
         11   -1    0    0    0    0 -0.00000000000E+00 -0.00000000000E+00 -0.45593999997E+02  0.45594000000E+02  0.51100000000E-03 0. -1.
    9900012    2    1    2    0    0 -0.19203062209E+01  0.58804494973E+01 -0.31280249906E+02  0.59301932565E+02  0.49999979096E+02 0.  0.
        -12    1    1    2    0    0  0.19203062209E+01 -0.58804494973E+01  0.31280249906E+02  0.31886067435E+02  0.00000000000E+00 0.  1.
         11    1    3    3    0    0  0.19359221987E+01  0.11045384489E+01 -0.14793892054E+02  0.14960850321E+02  0.51100000000E-03 0. -1.
        -11    1    3    3    0    0 -0.37026121284E+01 -0.83402484628E+01  0.10755968269E+02  0.14105315829E+02  0.51100000000E-03 0.  1.
        -12    1    3    3    0    0 -0.15361629125E+00  0.13116159511E+02 -0.27242326120E+02  0.30235766415E+02  0.00000000000E+00 0.  1.
</event>
<event>
 7    1  0.6055092E-013  0.5930193E+02  0.7816164E-02  0.1266605E+00
        -11   -1    0    0    0    0  0.00000000000E+00  0.00000000000E+00  0.45593999997E+02  0.45594000000E+02  0.51100000000E-03 0. -1.
         11   -1    0    0    0    0 -0.00000000000E+00 -0.00000000000E+00 -0.45593999997E+02  0.45594000000E+02  0.51100000000E-03 0.  1.
    9900012    2    1    2    0    0  0.68457797137E+01  0.17380894280E+01  0.31093986912E+02  0.59301926601E+02  0.49999968217E+02 0.  0.
        -12    1    1    2    0    0 -0.68457797137E+01 -0.17380894280E+01 -0.31093986912E+02  0.31886073399E+02  0.00000000000E+00 0.  1.
         11    1    3    3    0    0 -0.50543518592E+01  0.16925355058E+02  0.11570726411E+02  0.21116245558E+02  0.51100000000E-03 0. -1.
        -11    1    3    3    0    0  0.83895293188E+01 -0.17057055383E+02  0.77954247662E+00  0.19024590069E+02  0.51100000000E-03 0.  1.
         12    1    3    3    0    0  0.35106022541E+01  0.18697897535E+01  0.18743718025E+02  0.19161090974E+02  0.00000000000E+00 0. -1.
</event>
<event>
 7    1  0.6055092E-013  0.5930196E+02  0.7816164E-02  0.1266605E+00
        -11   -1    0    0    0    0  0.00000000000E+00  0.00000000000E+00  0.45593999997E+02  0.45594000000E+02  0.51100000000E-03 0. -1.
         11   -1    0    0    0    0 -0.00000000000E+00 -0.00000000000E+00 -0.45593999997E+02  0.45594000000E+02  0.51100000000E-03 0.  1.
    9900012    2    1    2    0    0 -0.14012509326E+02  0.13814573935E+02  0.25090373207E+02  0.59301957626E+02  0.50000024800E+02 0.  0.
        -12    1    1    2    0    0  0.14012509326E+02 -0.13814573935E+02 -0.25090373207E+02  0.31886042374E+02  0.00000000000E+00 0.  1.
         11    1    3    3    0    0 -0.67063593557E+01  0.15903620227E+02 -0.80353481748E+01  0.19038571708E+02  0.51100000000E-03 0. -1.
        -11    1    3    3    0    0  0.36669745320E+00 -0.94547668852E+01  0.61978683276E+01  0.11311085533E+02  0.51100000000E-03 0.  1.
         12    1    3    3    0    0 -0.76728474233E+01  0.73657205928E+01  0.26927853054E+02  0.28952300384E+02  0.00000000000E+00 0. -1.
</event>
<event>
 7    1  0.6055092E-013  0.5930194E+02  0.7816164E-02  0.1266605E+00
        -11   -1    0    0    0    0  0.00000000000E+00  0.00000000000E+00  0.45593999997E+02  0.45594000000E+02  0.51100000000E-03 0.  1.
         11   -1    0    0    0    0 -0.00000000000E+00 -0.00000000000E+00 -0.45593999997E+02  0.45594000000E+02  0.51100000000E-03 0. -1.
    9900012    2    1    2    0    0  0.29637187109E+02 -0.10355005685E+01 -0.11716888082E+02  0.59301943682E+02  0.49999999369E+02 0.  0.
        -12    1    1    2    0    0 -0.29637187109E+02  0.10355005685E+01  0.11716888082E+02  0.31886056318E+02  0.00000000000E+00 0.  1.
         11    1    3    3    0    0  0.27242880474E+02  0.10191624173E+02 -0.91171486441E+01  0.30482226616E+02  0.51100000000E-03 0. -1.
        -11    1    3    3    0    0 -0.11565515792E+02 -0.53716638342E+01 -0.45863813806E+01  0.13551782994E+02  0.51100000000E-03 0.  1.
        -12    1    3    3    0    0  0.13959822427E+02 -0.58554609075E+01  0.19866419425E+01  0.15267934073E+02  0.00000000000E+00 0.  1.
</event>
<event>
 7    1  0.6055092E-013  0.5930196E+02  0.7816164E-02  0.1266605E+00
        -11   -1    0    0    0    0  0.00000000000E+00  0.00000000000E+00  0.45593999997E+02  0.45594000000E+02  0.51100000000E-03 0.  1.
         11   -1    0    0    0    0 -0.00000000000E+00 -0.00000000000E+00 -0.45593999997E+02  0.45594000000E+02  0.51100000000E-03 0. -1.
    9900012    2    1    2    0    0 -0.19648978445E+02  0.17158513969E+02 -0.18336381751E+02  0.59301955227E+02  0.50000020424E+02 0.  0.
        -12    1    1    2    0    0  0.19648978445E+02 -0.17158513969E+02  0.18336381751E+02  0.31886044773E+02  0.00000000000E+00 0.  1.
         11    1    3    3    0    0  0.26659327697E+01  0.62336634476E+01 -0.99616646774E-02  0.67798124610E+01  0.51100000000E-03 0. -1.
        -11    1    3    3    0    0 -0.99963536178E+01 -0.16421251561E+02 -0.74824242942E+01  0.20629378616E+02  0.51100000000E-03 0.  1.
        -12    1    3    3    0    0 -0.12318557597E+02  0.27346102083E+02 -0.10843995792E+02  0.31892764150E+02  0.00000000000E+00 0.  1.
</event>
<event>
 7    1  0.6055092E-013  0.5930194E+02  0.7816164E-02  0.1266605E+00
        -11   -1    0    0    0    0  0.00000000000E+00  0.00000000000E+00  0.45593999997E+02  0.45594000000E+02  0.51100000000E-03 0. -1.
         11   -1    0    0    0    0 -0.00000000000E+00 -0.00000000000E+00 -0.45593999997E+02  0.45594000000E+02  0.51100000000E-03 0.  1.
    9900012    2    1    2    0    0 -0.20851968955E+02  0.50332803463E+01  0.23591992368E+02  0.59301943106E+02  0.49999998318E+02 0.  0.
        -12    1    1    2    0    0  0.20851968955E+02 -0.50332803463E+01 -0.23591992368E+02  0.31886056894E+02  0.00000000000E+00 0.  1.
         11    1    3    3    0    0 -0.27928856139E+02  0.33632292769E+01 -0.31844192960E+01  0.28310295705E+02  0.51100000000E-03 0.  1.
        -11    1    3    3    0    0  0.11205516598E+02  0.22447555344E+00  0.19990776764E+02  0.22918227405E+02  0.51100000000E-03 0. -1.
         12    1    3    3    0    0 -0.41286294145E+01  0.14455755160E+01  0.67856349007E+01  0.80734199953E+01  0.00000000000E+00 0. -1.
</event>
<event>
 7    1  0.6055092E-013  0.5930198E+02  0.7816164E-02  0.1266605E+00
        -11   -1    0    0    0    0  0.00000000000E+00  0.00000000000E+00  0.45593999997E+02  0.45594000000E+02  0.51100000000E-03 0. -1.
         11   -1    0    0    0    0 -0.00000000000E+00 -0.00000000000E+00 -0.45593999997E+02  0.45594000000E+02  0.51100000000E-03 0.  1.
    9900012    2    1    2    0    0 -0.15083834890E+02  0.19787289798E+02  0.19941398534E+02  0.59301979739E+02  0.50000065130E+02 0.  0.
        -12    1    1    2    0    0  0.15083834890E+02 -0.19787289798E+02 -0.19941398534E+02  0.31886020261E+02  0.00000000000E+00 0.  1.
         11    1    3    3    0    0  0.12486750106E+02 -0.44185896315E+01  0.14628752030E+02  0.19734316526E+02  0.51100000000E-03 0. -1.
        -11    1    3    3    0    0 -0.11553249453E+02  0.25105245271E+01 -0.10195695422E+01  0.11866753079E+02  0.51100000000E-03 0.  1.
         12    1    3    3    0    0 -0.16017335542E+02  0.21695354903E+02  0.63322160470E+01  0.27700910135E+02  0.00000000000E+00 0. -1.
</event>
<event>
 7    1  0.6055092E-013  0.5930191E+02  0.7816164E-02  0.1266605E+00
        -11   -1    0    0    0    0  0.00000000000E+00  0.00000000000E+00  0.45593999997E+02  0.45594000000E+02  0.51100000000E-03 0. -1.
         11   -1    0    0    0    0 -0.00000000000E+00 -0.00000000000E+00 -0.45593999997E+02  0.45594000000E+02  0.51100000000E-03 0.  1.
    9900012    2    1    2    0    0 -0.94824743634E+01 -0.21749877640E+02  0.21301362402E+02  0.59301913103E+02  0.49999943600E+02 0.  0.
        -12    1    1    2    0    0  0.94824743634E+01  0.21749877640E+02 -0.21301362402E+02  0.31886086897E+02  0.00000000000E+00 0.  1.
         11    1    3    3    0    0  0.11586933214E+02 -0.74662338926E+01  0.17199606210E+02  0.22041509111E+02  0.51100000000E-03 0. -1.
        -11    1    3    3    0    0 -0.18742880380E+02 -0.13632222619E+02 -0.83060439427E+01  0.24619574016E+02  0.51100000000E-03 0.  1.
        -12    1    3    3    0    0 -0.23265271974E+01 -0.65142112864E+00  0.12407800135E+02  0.12640829976E+02  0.00000000000E+00 0.  1.
</event>
<event>
 7    1  0.6055092E-013  0.5930208E+02  0.7816164E-02  0.1266604E+00
        -11   -1    0    0    0    0  0.00000000000E+00  0.00000000000E+00  0.45593999997E+02  0.45594000000E+02  0.51100000000E-03 0. -1.
         11   -1    0    0    0    0 -0.00000000000E+00 -0.00000000000E+00 -0.45593999997E+02  0.45594000000E+02  0.51100000000E-03 0.  1.
    9900012    2    1    2    0    0  0.57742735361E+01  0.28713673158E+02  0.12605351576E+02  0.59302075998E+02  0.50000240682E+02 0.  0.
        -12    1    1    2    0    0 -0.57742735361E+01 -0.28713673158E+02 -0.12605351576E+02  0.31885924002E+02  0.00000000000E+00 0.  1.
         11    1    3    3    0    0 -0.15931122849E+02  0.29736298187E+01  0.13454408122E+02  0.21063338950E+02  0.51100000000E-03 0. -1.
        -11    1    3    3    0    0  0.17844723975E+02  0.12997033192E+02 -0.75514556995E+01  0.23331985106E+02  0.51100000000E-03 0.  1.
         12    1    3    3    0    0  0.38606724098E+01  0.12743010147E+02  0.67023991527E+01  0.14906751942E+02  0.00000000000E+00 0. -1.
</event>
<event>
 7    1  0.6055092E-013  0.5930192E+02  0.7816164E-02  0.1266605E+00
        -11   -1    0    0    0    0  0.00000000000E+00  0.00000000000E+00  0.45593999997E+02  0.45594000000E+02  0.51100000000E-03 0. -1.
         11   -1    0    0    0    0 -0.00000000000E+00 -0.00000000000E+00 -0.45593999997E+02  0.45594000000E+02  0.51100000000E-03 0.  1.
    9900012    2    1    2    0    0 -0.98634945373E+00  0.97464613576E+01  0.30343958926E+02  0.59301917809E+02  0.49999952182E+02 0.  0.
        -12    1    1    2    0    0  0.98634945373E+00 -0.97464613576E+01 -0.30343958926E+02  0.31886082191E+02  0.00000000000E+00 0.  1.
         11    1    3    3    0    0  0.14582831729E+02 -0.79406462687E+01 -0.24078200584E+01  0.16778272918E+02  0.51100000000E-03 0.  1.
        -11    1    3    3    0    0 -0.17363460945E+02  0.14660701351E+02  0.31386555824E+02  0.38749733248E+02  0.51100000000E-03 0. -1.
         12    1    3    3    0    0  0.17942797616E+01  0.30264062753E+01  0.13652231603E+01  0.37739116423E+01  0.00000000000E+00 0. -1.
</event>
<event>
 7    1  0.6055092E-013  0.5930192E+02  0.7816164E-02  0.1266605E+00
        -11   -1    0    0    0    0  0.00000000000E+00  0.00000000000E+00  0.45593999997E+02  0.45594000000E+02  0.51100000000E-03 0. -1.
         11   -1    0    0    0    0 -0.00000000000E+00 -0.00000000000E+00 -0.45593999997E+02  0.45594000000E+02  0.51100000000E-03 0.  1.
    9900012    2    1    2    0    0 -0.22587372041E+02  0.13139639718E+02  0.18272454677E+02  0.59301919846E+02  0.49999955899E+02 0.  0.
        -12    1    1    2    0    0  0.22587372041E+02 -0.13139639718E+02 -0.18272454677E+02  0.31886080154E+02  0.00000000000E+00 0.  1.
         11    1    3    3    0    0 -0.15398231902E+02 -0.12798015434E+02  0.62872405303E+01  0.20986284533E+02  0.51100000000E-03 0. -1.
        -11    1    3    3    0    0 -0.62777410973E+01  0.30152673897E+02  0.13655881184E+02  0.33690901852E+02  0.51100000000E-03 0.  1.
        -12    1    3    3    0    0 -0.91139904202E+00 -0.42150187453E+01 -0.16706670381E+01  0.46247334614E+01  0.00000000000E+00 0.  1.
</event>
<event>
 7    1  0.6055092E-013  0.5930195E+02  0.7816164E-02  0.1266605E+00
        -11   -1    0    0    0    0  0.00000000000E+00  0.00000000000E+00  0.45593999997E+02  0.45594000000E+02  0.51100000000E-03 0. -1.
         11   -1    0    0    0    0 -0.00000000000E+00 -0.00000000000E+00 -0.45593999997E+02  0.45594000000E+02  0.51100000000E-03 0.  1.
    9900012    2    1    2    0    0 -0.28321068632E+02 -0.14642789871E+02 -0.47552653077E+00  0.59301947420E+02  0.50000006187E+02 0.  0.
        -12    1    1    2    0    0  0.28321068632E+02  0.14642789871E+02  0.47552653077E+00  0.31886052580E+02  0.00000000000E+00 0.  1.
         11    1    3    3    0    0 -0.11554316017E+02 -0.23508106615E+02  0.62529160680E+01  0.26930136555E+02  0.51100000000E-03 0. -1.
        -11    1    3    3    0    0 -0.22677772498E+02  0.85892581801E+01 -0.92303493016E+01  0.25947178460E+02  0.51100000000E-03 0.  1.
         12    1    3    3    0    0  0.59110198835E+01  0.27605856350E+00  0.25019067029E+01  0.64246324054E+01  0.00000000000E+00 0. -1.
</event>
<event>
 7    1  0.6055092E-013  0.5930195E+02  0.7816164E-02  0.1266605E+00
        -11   -1    0    0    0    0  0.00000000000E+00  0.00000000000E+00  0.45593999997E+02  0.45594000000E+02  0.51100000000E-03 0. -1.
         11   -1    0    0    0    0 -0.00000000000E+00 -0.00000000000E+00 -0.45593999997E+02  0.45594000000E+02  0.51100000000E-03 0.  1.
    9900012    2    1    2    0    0 -0.27907653513E+02  0.10888257398E+02  0.10923770543E+02  0.59301952320E+02  0.50000015123E+02 0.  0.
        -12    1    1    2    0    0  0.27907653513E+02 -0.10888257398E+02 -0.10923770543E+02  0.31886047680E+02  0.00000000000E+00 0.  1.
         11    1    3    3    0    0 -0.30477107294E+02  0.64439861400E+01  0.19387175847E+01  0.31211178326E+02  0.51100000000E-03 0. -1.
        -11    1    3    3    0    0  0.24615826792E+01 -0.87073442682E+01  0.11568911947E+02  0.14687305995E+02  0.51100000000E-03 0.  1.
         12    1    3    3    0    0  0.10787110096E+00  0.13151615526E+02 -0.25838589896E+01  0.13403467999E+02  0.00000000000E+00 0. -1.
</event>
<event>
 7    1  0.6055092E-013  0.5930194E+02  0.7816164E-02  0.1266605E+00
        -11   -1    0    0    0    0  0.00000000000E+00  0.00000000000E+00  0.45593999997E+02  0.45594000000E+02  0.51100000000E-03 0. -1.
         11   -1    0    0    0    0 -0.00000000000E+00 -0.00000000000E+00 -0.45593999997E+02  0.45594000000E+02  0.51100000000E-03 0.  1.
    9900012    2    1    2    0    0 -0.11506696030E+02  0.29306069481E+02  0.50468717771E+01  0.59301942284E+02  0.49999996819E+02 0.  0.
        -12    1    1    2    0    0  0.11506696030E+02 -0.29306069481E+02 -0.50468717771E+01  0.31886057716E+02  0.00000000000E+00 0.  1.
         11    1    3    3    0    0  0.62296056796E+00  0.11923572668E+02  0.90273723169E+01  0.14968403931E+02  0.51100000000E-03 0. -1.
        -11    1    3    3    0    0 -0.76857257689E+01 -0.48061330456E+01 -0.16238694647E+02  0.18597432606E+02  0.51100000000E-03 0.  1.
        -12    1    3    3    0    0 -0.44439308295E+01  0.22188629858E+02  0.12258194107E+02  0.25736105746E+02  0.00000000000E+00 0.  1.
</event>
<event>
 7    1  0.6055092E-013  0.5930194E+02  0.7816164E-02  0.1266605E+00
        -11   -1    0    0    0    0  0.00000000000E+00  0.00000000000E+00  0.45593999997E+02  0.45594000000E+02  0.51100000000E-03 0. -1.
         11   -1    0    0    0    0 -0.00000000000E+00 -0.00000000000E+00 -0.45593999997E+02  0.45594000000E+02  0.51100000000E-03 0.  1.
    9900012    2    1    2    0    0  0.14153149297E+02 -0.21202954315E+02  0.19153166935E+02  0.59301941756E+02  0.49999995857E+02 0.  0.
        -12    1    1    2    0    0 -0.14153149297E+02  0.21202954315E+02 -0.19153166935E+02  0.31886058244E+02  0.00000000000E+00 0.  1.
         11    1    3    3    0    0 -0.12299122908E+02 -0.20380880305E+02  0.11643685367E+02  0.26499511609E+02  0.51100000000E-03 0. -1.
        -11    1    3    3    0    0  0.18633649772E+02  0.59829814044E+01  0.10234154080E+02  0.22084992196E+02  0.51100000000E-03 0.  1.
        -12    1    3    3    0    0  0.78186224330E+01 -0.68050554139E+01 -0.27246725116E+01  0.10717437951E+02  0.00000000000E+00 0.  1.
</event>
<event>
 7    1  0.6055092E-013  0.5930175E+02  0.7816164E-02  0.1266605E+00
        -11   -1    0    0    0    0  0.00000000000E+00  0.00000000000E+00  0.45593999997E+02  0.45594000000E+02  0.51100000000E-03 0.  1.
         11   -1    0    0    0    0 -0.00000000000E+00 -0.00000000000E+00 -0.45593999997E+02  0.45594000000E+02  0.51100000000E-03 0. -1.
    9900012    2    1    2    0    0 -0.64759882427E+01  0.31209529605E+02  0.87156967015E+00  0.59301752250E+02  0.49999650243E+02 0.  0.
        -12    1    1    2    0    0  0.64759882427E+01 -0.31209529605E+02 -0.87156967015E+00  0.31886247750E+02  0.00000000000E+00 0.  1.
         11    1    3    3    0    0  0.16710467133E+01  0.69938841869E+00 -0.66562988410E+01  0.68983951612E+01  0.51100000000E-03 0. -1.
        -11    1    3    3    0    0  0.12114379899E+02  0.51482623773E+01  0.14093588679E+02  0.19284502792E+02  0.51100000000E-03 0.  1.
        -12    1    3    3    0    0 -0.20261414855E+02  0.25361878809E+02 -0.65657201678E+01  0.33118854297E+02  0.00000000000E+00 0.  1.
</event>
<event>
 7    1  0.6055092E-013  0.5930190E+02  0.7816164E-02  0.1266605E+00
        -11   -1    0    0    0    0  0.00000000000E+00  0.00000000000E+00  0.45593999997E+02  0.45594000000E+02  0.51100000000E-03 0.  1.
         11   -1    0    0    0    0 -0.00000000000E+00 -0.00000000000E+00 -0.45593999997E+02  0.45594000000E+02  0.51100000000E-03 0. -1.
    9900012    2    1    2    0    0  0.12697318571E+02 -0.59384862063E+01 -0.28639756991E+02  0.59301902750E+02  0.49999924720E+02 0.  0.
        -12    1    1    2    0    0 -0.12697318571E+02  0.59384862063E+01  0.28639756991E+02  0.31886097250E+02  0.00000000000E+00 0.  1.
         11    1    3    3    0    0  0.25775951063E+02 -0.15549979202E+02 -0.10759151470E+02  0.31968122357E+02  0.51100000000E-03 0. -1.
        -11    1    3    3    0    0 -0.25270170131E+01  0.26912914506E+01  0.16801926733E+01  0.40560957012E+01  0.51100000000E-03 0.  1.
         12    1    3    3    0    0 -0.10551615479E+02  0.69202015448E+01 -0.19560798195E+02  0.23277684692E+02  0.00000000000E+00 0. -1.
</event>
<event>
 7    1  0.6055092E-013  0.5930185E+02  0.7816164E-02  0.1266605E+00
        -11   -1    0    0    0    0  0.00000000000E+00  0.00000000000E+00  0.45593999997E+02  0.45594000000E+02  0.51100000000E-03 0.  1.
         11   -1    0    0    0    0 -0.00000000000E+00 -0.00000000000E+00 -0.45593999997E+02  0.45594000000E+02  0.51100000000E-03 0. -1.
    9900012    2    1    2    0    0 -0.68927615008E+01  0.66273658004E+01 -0.30418653342E+02  0.59301849250E+02  0.49999827147E+02 0.  0.
        -12    1    1    2    0    0  0.68927615008E+01 -0.66273658004E+01  0.30418653342E+02  0.31886150750E+02  0.00000000000E+00 0.  1.
         11    1    3    3    0    0 -0.43576738926E+01 -0.51843364106E+00 -0.11828521565E+02  0.12616339321E+02  0.51100000000E-03 0. -1.
        -11    1    3    3    0    0 -0.33115168666E+01  0.21336256337E+02  0.19812687328E+01  0.21682421555E+02  0.51100000000E-03 0.  1.
        -12    1    3    3    0    0  0.77642925843E+00 -0.14190456895E+02 -0.20571400509E+02  0.25003088373E+02  0.00000000000E+00 0.  1.
</event>
<event>
 7    1  0.6055092E-013  0.5930191E+02  0.7816164E-02  0.1266605E+00
        -11   -1    0    0    0    0  0.00000000000E+00  0.00000000000E+00  0.45593999997E+02  0.45594000000E+02  0.51100000000E-03 0.  1.
         11   -1    0    0    0    0 -0.00000000000E+00 -0.00000000000E+00 -0.45593999997E+02  0.45594000000E+02  0.51100000000E-03 0. -1.
    9900012    2    1    2    0    0 -0.30056664016E+02 -0.10392324255E+02  0.23063171991E+01  0.59301912843E+02  0.49999943126E+02 0.  0.
        -12    1    1    2    0    0  0.30056664016E+02  0.10392324255E+02 -0.23063171991E+01  0.31886087157E+02  0.00000000000E+00 0.  1.
         11    1    3    3    0    0 -0.19153705171E+02 -0.13510861494E+02 -0.85259491454E+01  0.24941924729E+02  0.51100000000E-03 0. -1.
        -11    1    3    3    0    0 -0.75222300479E+01 -0.69208966320E+01  0.18600168108E+02  0.21223784041E+02  0.51100000000E-03 0.  1.
        -12    1    3    3    0    0 -0.33807287972E+01  0.10039433871E+02 -0.77679017637E+01  0.13136204074E+02  0.00000000000E+00 0.  1.
</event>
<event>
 7    1  0.6055092E-013  0.5930194E+02  0.7816164E-02  0.1266605E+00
        -11   -1    0    0    0    0  0.00000000000E+00  0.00000000000E+00  0.45593999997E+02  0.45594000000E+02  0.51100000000E-03 0.  1.
         11   -1    0    0    0    0 -0.00000000000E+00 -0.00000000000E+00 -0.45593999997E+02  0.45594000000E+02  0.51100000000E-03 0. -1.
    9900012    2    1    2    0    0  0.19593533085E+02 -0.24859630793E+02 -0.38487922474E+01  0.59301937470E+02  0.49999988040E+02 0.  0.
        -12    1    1    2    0    0 -0.19593533085E+02  0.24859630793E+02  0.38487922474E+01  0.31886062530E+02  0.00000000000E+00 0.  1.
         11    1    3    3    0    0  0.24031292717E+02 -0.26572355010E+01  0.75709714199E+01  0.25335420633E+02  0.51100000000E-03 0. -1.
        -11    1    3    3    0    0  0.12201642921E+01 -0.19014286655E+02  0.18999762473E+01  0.19147893041E+02  0.51100000000E-03 0.  1.
         12    1    3    3    0    0 -0.56579239242E+01 -0.31881086365E+01 -0.13319739915E+02  0.14818623796E+02  0.00000000000E+00 0. -1.
</event>
<event>
 7    1  0.6055092E-013  0.5930197E+02  0.7816164E-02  0.1266605E+00
        -11   -1    0    0    0    0  0.00000000000E+00  0.00000000000E+00  0.45593999997E+02  0.45594000000E+02  0.51100000000E-03 0.  1.
         11   -1    0    0    0    0 -0.00000000000E+00 -0.00000000000E+00 -0.45593999997E+02  0.45594000000E+02  0.51100000000E-03 0. -1.
    9900012    2    1    2    0    0 -0.25240503447E+02 -0.19154294858E+02  0.35706021703E+01  0.59301965038E+02  0.50000038317E+02 0.  0.
        -12    1    1    2    0    0  0.25240503447E+02  0.19154294858E+02 -0.35706021703E+01  0.31886034962E+02  0.00000000000E+00 0.  1.
         11    1    3    3    0    0 -0.20261785659E+02  0.33445477089E+01 -0.41097439171E+01  0.20943160048E+02  0.51100000000E-03 0. -1.
        -11    1    3    3    0    0 -0.10996858911E+02 -0.20578119479E+02  0.15720304028E+02  0.28133927315E+02  0.51100000000E-03 0.  1.
        -12    1    3    3    0    0  0.60181411232E+01 -0.19207230877E+01 -0.80399579407E+01  0.10224877674E+02  0.00000000000E+00 0.  1.
</event>
<event>
 7    1  0.6055092E-013  0.5930198E+02  0.7816164E-02  0.1266605E+00
        -11   -1    0    0    0    0  0.00000000000E+00  0.00000000000E+00  0.45593999997E+02  0.45594000000E+02  0.51100000000E-03 0.  1.
         11   -1    0    0    0    0 -0.00000000000E+00 -0.00000000000E+00 -0.45593999997E+02  0.45594000000E+02  0.51100000000E-03 0. -1.
    9900012    2    1    2    0    0 -0.64636540766E+01 -0.84280583081E+01 -0.30065049951E+02  0.59301980816E+02  0.50000067093E+02 0.  0.
        -12    1    1    2    0    0  0.64636540766E+01  0.84280583081E+01  0.30065049951E+02  0.31886019184E+02  0.00000000000E+00 0.  1.
         11    1    3    3    0    0 -0.21299789739E+02 -0.81820574372E+01 -0.12816505147E+02  0.26170401435E+02  0.51100000000E-03 0. -1.
        -11    1    3    3    0    0  0.52174241023E+01  0.72140702766E+01 -0.18857088368E+02  0.20853155785E+02  0.51100000000E-03 0.  1.
         12    1    3    3    0    0  0.96187115603E+01 -0.74600711476E+01  0.16085435634E+01  0.12278423596E+02  0.00000000000E+00 0. -1.
</event>
<event>
 7    1  0.6055092E-013  0.5930189E+02  0.7816164E-02  0.1266605E+00
        -11   -1    0    0    0    0  0.00000000000E+00  0.00000000000E+00  0.45593999997E+02  0.45594000000E+02  0.51100000000E-03 0.  1.
         11   -1    0    0    0    0 -0.00000000000E+00 -0.00000000000E+00 -0.45593999997E+02  0.45594000000E+02  0.51100000000E-03 0. -1.
    9900012    2    1    2    0    0  0.25833904966E+01  0.20705804303E+02 -0.24110577956E+02  0.59301886914E+02  0.49999895839E+02 0.  0.
        -12    1    1    2    0    0 -0.25833904966E+01 -0.20705804303E+02  0.24110577956E+02  0.31886113086E+02  0.00000000000E+00 0.  1.
         11    1    3    3    0    0  0.12821825143E+02 -0.83238986770E+01 -0.72757781764E+01  0.16929956808E+02  0.51100000000E-03 0. -1.
        -11    1    3    3    0    0 -0.43695960417E+01  0.28998834032E+02 -0.58301594922E+01  0.29900108775E+02  0.51100000000E-03 0.  1.
         12    1    3    3    0    0 -0.58688386051E+01  0.30868948752E-01 -0.11004640288E+02  0.12471821332E+02  0.00000000000E+00 0. -1.
</event>
<event>
 7    1  0.6055092E-013  0.5930193E+02  0.7816164E-02  0.1266605E+00
        -11   -1    0    0    0    0  0.00000000000E+00  0.00000000000E+00  0.45593999997E+02  0.45594000000E+02  0.51100000000E-03 0.  1.
         11   -1    0    0    0    0 -0.00000000000E+00 -0.00000000000E+00 -0.45593999997E+02  0.45594000000E+02  0.51100000000E-03 0. -1.
    9900012    2    1    2    0    0 -0.21187712720E+02 -0.79364909479E+01 -0.22468073622E+02  0.59301931080E+02  0.49999976387E+02 0.  0.
        -12    1    1    2    0    0  0.21187712720E+02  0.79364909479E+01  0.22468073622E+02  0.31886068920E+02  0.00000000000E+00 0.  1.
         11    1    3    3    0    0 -0.86008905149E+01 -0.10155919193E+02 -0.21474395403E+02  0.25263959913E+02  0.51100000000E-03 0. -1.
        -11    1    3    3    0    0 -0.35621387573E+01 -0.98718022153E+01  0.10670878610E+02  0.14966928946E+02  0.51100000000E-03 0.  1.
        -12    1    3    3    0    0 -0.90246834480E+01  0.12091230460E+02 -0.11664556829E+02  0.19071042221E+02  0.00000000000E+00 0.  1.
</event>
<event>
 7    1  0.6055092E-013  0.5930195E+02  0.7816164E-02  0.1266605E+00
        -11   -1    0    0    0    0  0.00000000000E+00  0.00000000000E+00  0.45593999997E+02  0.45594000000E+02  0.51100000000E-03 0.  1.
         11   -1    0    0    0    0 -0.00000000000E+00 -0.00000000000E+00 -0.45593999997E+02  0.45594000000E+02  0.51100000000E-03 0. -1.
    9900012    2    1    2    0    0 -0.48891261538E+00  0.22466515877E+02 -0.22621600093E+02  0.59301950355E+02  0.50000011539E+02 0.  0.
        -12    1    1    2    0    0  0.48891261538E+00 -0.22466515877E+02  0.22621600093E+02  0.31886049645E+02  0.00000000000E+00 0.  1.
         11    1    3    3    0    0  0.65640653077E+01  0.15722158218E+02 -0.21230169250E+02  0.27221192095E+02  0.51100000000E-03 0. -1.
        -11    1    3    3    0    0 -0.47031232249E+01 -0.11480577260E+01  0.13896727200E+02  0.14715856473E+02  0.51100000000E-03 0.  1.
        -12    1    3    3    0    0 -0.23498546982E+01  0.78924153843E+01 -0.15288158043E+02  0.17364901787E+02  0.00000000000E+00 0.  1.
</event>
<event>
 7    1  0.6055092E-013  0.5930195E+02  0.7816164E-02  0.1266605E+00
        -11   -1    0    0    0    0  0.00000000000E+00  0.00000000000E+00  0.45593999997E+02  0.45594000000E+02  0.51100000000E-03 0. -1.
         11   -1    0    0    0    0 -0.00000000000E+00 -0.00000000000E+00 -0.45593999997E+02  0.45594000000E+02  0.51100000000E-03 0.  1.
    9900012    2    1    2    0    0  0.20215569093E+02  0.23564722659E+02  0.72632401149E+01  0.59301952194E+02  0.50000014893E+02 0.  0.
        -12    1    1    2    0    0 -0.20215569093E+02 -0.23564722659E+02 -0.72632401149E+01  0.31886047806E+02  0.00000000000E+00 0.  1.
         11    1    3    3    0    0  0.35644333668E+01  0.27069614188E+01  0.77801161962E+01  0.89756912624E+01  0.51100000000E-03 0. -1.
        -11    1    3    3    0    0  0.37449947661E+01  0.44735347911E+01 -0.20576976696E+02  0.21388068392E+02  0.51100000000E-03 0.  1.
        -12    1    3    3    0    0  0.12906140960E+02  0.16384226449E+02  0.20060100614E+02  0.28938192540E+02  0.00000000000E+00 0.  1.
</event>
<event>
 7    1  0.6055092E-013  0.5930195E+02  0.7816164E-02  0.1266605E+00
        -11   -1    0    0    0    0  0.00000000000E+00  0.00000000000E+00  0.45593999997E+02  0.45594000000E+02  0.51100000000E-03 0.  1.
         11   -1    0    0    0    0 -0.00000000000E+00 -0.00000000000E+00 -0.45593999997E+02  0.45594000000E+02  0.51100000000E-03 0. -1.
    9900012    2    1    2    0    0  0.28635058906E+02 -0.39881371612E+01 -0.13447990101E+02  0.59301948594E+02  0.50000008327E+02 0.  0.
        -12    1    1    2    0    0 -0.28635058906E+02  0.39881371612E+01  0.13447990101E+02  0.31886051406E+02  0.00000000000E+00 0.  1.
         11    1    3    3    0    0 -0.80408991912E+01 -0.14573438975E+02 -0.34142128232E+01  0.16991116291E+02  0.51100000000E-03 0. -1.
        -11    1    3    3    0    0  0.29745858202E+02  0.10685802210E+02 -0.19563785976E+01  0.31667489110E+02  0.51100000000E-03 0.  1.
         12    1    3    3    0    0  0.69300998946E+01 -0.10050039609E+00 -0.80773986799E+01  0.10643343192E+02  0.00000000000E+00 0. -1.
</event>
<event>
 7    1  0.6055092E-013  0.5930193E+02  0.7816164E-02  0.1266605E+00
        -11   -1    0    0    0    0  0.00000000000E+00  0.00000000000E+00  0.45593999997E+02  0.45594000000E+02  0.51100000000E-03 0.  1.
         11   -1    0    0    0    0 -0.00000000000E+00 -0.00000000000E+00 -0.45593999997E+02  0.45594000000E+02  0.51100000000E-03 0. -1.
    9900012    2    1    2    0    0  0.66193633998E+01  0.52579436303E+01 -0.30745069242E+02  0.59301933674E+02  0.49999981118E+02 0.  0.
        -12    1    1    2    0    0 -0.66193633998E+01 -0.52579436303E+01  0.30745069242E+02  0.31886066326E+02  0.00000000000E+00 0.  1.
         11    1    3    3    0    0 -0.75276829495E+01  0.54368929227E+01 -0.34417099291E+02  0.35647756439E+02  0.51100000000E-03 0. -1.
        -11    1    3    3    0    0  0.56736701861E+01 -0.33404575542E+01  0.10450721866E+02  0.12351792495E+02  0.51100000000E-03 0.  1.
         12    1    3    3    0    0  0.84733761632E+01  0.31615082618E+01 -0.67786918166E+01  0.11302384741E+02  0.00000000000E+00 0. -1.
</event>
<event>
 7    1  0.6055092E-013  0.5930197E+02  0.7816164E-02  0.1266605E+00
        -11   -1    0    0    0    0  0.00000000000E+00  0.00000000000E+00  0.45593999997E+02  0.45594000000E+02  0.51100000000E-03 0.  1.
         11   -1    0    0    0    0 -0.00000000000E+00 -0.00000000000E+00 -0.45593999997E+02  0.45594000000E+02  0.51100000000E-03 0. -1.
    9900012    2    1    2    0    0 -0.64827256442E+01 -0.29331816136E+02 -0.10692890736E+02  0.59301967292E+02  0.50000042428E+02 0.  0.
        -12    1    1    2    0    0  0.64827256442E+01  0.29331816136E+02  0.10692890736E+02  0.31886032708E+02  0.00000000000E+00 0.  1.
         11    1    3    3    0    0 -0.12571779063E+02 -0.30554649649E+02  0.10506375631E+02  0.34670162577E+02  0.51100000000E-03 0. -1.
        -11    1    3    3    0    0  0.82249821636E+01  0.39098218293E+01 -0.15638857932E+02  0.18097262666E+02  0.51100000000E-03 0.  1.
         12    1    3    3    0    0 -0.21359287446E+01 -0.26869883161E+01 -0.55604084353E+01  0.65345420483E+01  0.00000000000E+00 0. -1.
</event>
<event>
 7    1  0.6055092E-013  0.5930192E+02  0.7816164E-02  0.1266605E+00
        -11   -1    0    0    0    0  0.00000000000E+00  0.00000000000E+00  0.45593999997E+02  0.45594000000E+02  0.51100000000E-03 0.  1.
         11   -1    0    0    0    0 -0.00000000000E+00 -0.00000000000E+00 -0.45593999997E+02  0.45594000000E+02  0.51100000000E-03 0. -1.
    9900012    2    1    2    0    0  0.13573407272E+02 -0.28117685857E+02  0.64715155409E+01  0.59301919082E+02  0.49999954504E+02 0.  0.
        -12    1    1    2    0    0 -0.13573407272E+02  0.28117685857E+02 -0.64715155409E+01  0.31886080918E+02  0.00000000000E+00 0.  1.
         11    1    3    3    0    0  0.13783950817E+02 -0.21652988915E+02  0.10895588650E+02  0.27884818116E+02  0.51100000000E-03 0. -1.
        -11    1    3    3    0    0 -0.73393755789E+01  0.80792644009E+01 -0.94715886422E+01  0.14451710584E+02  0.51100000000E-03 0.  1.
        -12    1    3    3    0    0  0.71288320345E+01 -0.14543961344E+02  0.50475155328E+01  0.16965390381E+02  0.00000000000E+00 0.  1.
</event>
<event>
 7    1  0.6055092E-013  0.5930195E+02  0.7816164E-02  0.1266605E+00
        -11   -1    0    0    0    0  0.00000000000E+00  0.00000000000E+00  0.45593999997E+02  0.45594000000E+02  0.51100000000E-03 0. -1.
         11   -1    0    0    0    0 -0.00000000000E+00 -0.00000000000E+00 -0.45593999997E+02  0.45594000000E+02  0.51100000000E-03 0.  1.
    9900012    2    1    2    0    0  0.11816346500E+02 -0.35208686922E+01  0.29405745088E+02  0.59301946542E+02  0.50000004586E+02 0.  0.
        -12    1    1    2    0    0 -0.11816346500E+02  0.35208686922E+01 -0.29405745088E+02  0.31886053458E+02  0.00000000000E+00 0.  1.
         11    1    3    3    0    0 -0.10076350361E+02 -0.14297775092E+02  0.17866682300E+02  0.25003550664E+02  0.51100000000E-03 0.  1.
        -11    1    3    3    0    0  0.18561151523E+02  0.46665934161E+00  0.13465428833E+00  0.18567505186E+02  0.51100000000E-03 0. -1.
        -12    1    3    3    0    0  0.33315453374E+01  0.10310247058E+02  0.11404408500E+02  0.15730890692E+02  0.00000000000E+00 0.  1.
</event>
<event>
 7    1  0.6055092E-013  0.5930193E+02  0.7816164E-02  0.1266605E+00
        -11   -1    0    0    0    0  0.00000000000E+00  0.00000000000E+00  0.45593999997E+02  0.45594000000E+02  0.51100000000E-03 0. -1.
         11   -1    0    0    0    0 -0.00000000000E+00 -0.00000000000E+00 -0.45593999997E+02  0.45594000000E+02  0.51100000000E-03 0.  1.
    9900012    2    1    2    0    0 -0.22910418905E+02 -0.25388430439E+01  0.22031536142E+02  0.59301927755E+02  0.49999970323E+02 0.  0.
        -12    1    1    2    0    0  0.22910418905E+02  0.25388430439E+01 -0.22031536142E+02  0.31886072245E+02  0.00000000000E+00 0.  1.
         11    1    3    3    0    0  0.97862276603E+01  0.34623370346E+01  0.10468539395E+02  0.14742738785E+02  0.51100000000E-03 0. -1.
        -11    1    3    3    0    0 -0.20869259007E+02  0.68733992174E+01  0.15180632110E+02  0.26706201149E+02  0.51100000000E-03 0.  1.
         12    1    3    3    0    0 -0.11827387559E+02 -0.12874579296E+02 -0.36176353635E+01  0.17852987821E+02  0.00000000000E+00 0. -1.
</event>
<event>
 7    1  0.6055092E-013  0.5930196E+02  0.7816164E-02  0.1266605E+00
        -11   -1    0    0    0    0  0.00000000000E+00  0.00000000000E+00  0.45593999997E+02  0.45594000000E+02  0.51100000000E-03 0.  1.
         11   -1    0    0    0    0 -0.00000000000E+00 -0.00000000000E+00 -0.45593999997E+02  0.45594000000E+02  0.51100000000E-03 0. -1.
    9900012    2    1    2    0    0  0.49565794605E+00  0.27419975047E+02 -0.16267101650E+02  0.59301963801E+02  0.50000036062E+02 0.  0.
        -12    1    1    2    0    0 -0.49565794605E+00 -0.27419975047E+02  0.16267101650E+02  0.31886036199E+02  0.00000000000E+00 0.  1.
         11    1    3    3    0    0  0.25318855379E+01 -0.74619355792E+01  0.67570040552E+01  0.10380174904E+02  0.51100000000E-03 0.  1.
        -11    1    3    3    0    0 -0.97722373264E+01  0.16452036145E+02 -0.21639009666E+02  0.28886205276E+02  0.51100000000E-03 0. -1.
         12    1    3    3    0    0  0.77360097346E+01  0.18429874481E+02 -0.13850960396E+01  0.20035583621E+02  0.00000000000E+00 0. -1.
</event>
<event>
 7    1  0.6055092E-013  0.5930196E+02  0.7816164E-02  0.1266605E+00
        -11   -1    0    0    0    0  0.00000000000E+00  0.00000000000E+00  0.45593999997E+02  0.45594000000E+02  0.51100000000E-03 0. -1.
         11   -1    0    0    0    0 -0.00000000000E+00 -0.00000000000E+00 -0.45593999997E+02  0.45594000000E+02  0.51100000000E-03 0.  1.
    9900012    2    1    2    0    0 -0.30273758960E+02 -0.15541832046E+01  0.98895646207E+01  0.59301961435E+02  0.50000031746E+02 0.  0.
        -12    1    1    2    0    0  0.30273758960E+02  0.15541832046E+01 -0.98895646207E+01  0.31886038565E+02  0.00000000000E+00 0.  1.
         11    1    3    3    0    0 -0.19044835390E+02 -0.13832974753E+02  0.17241010867E+01  0.23601471784E+02  0.51100000000E-03 0. -1.
        -11    1    3    3    0    0  0.95280078163E+01  0.17192426821E+01  0.77608970494E+01  0.12408474992E+02  0.51100000000E-03 0.  1.
        -12    1    3    3    0    0 -0.20756931386E+02  0.10559548866E+02  0.40456648469E+00  0.23292014659E+02  0.00000000000E+00 0.  1.
</event>
<event>
 7    1  0.6055092E-013  0.5930181E+02  0.7816164E-02  0.1266605E+00
        -11   -1    0    0    0    0  0.00000000000E+00  0.00000000000E+00  0.45593999997E+02  0.45594000000E+02  0.51100000000E-03 0. -1.
         11   -1    0    0    0    0 -0.00000000000E+00 -0.00000000000E+00 -0.45593999997E+02  0.45594000000E+02  0.51100000000E-03 0.  1.
    9900012    2    1    2    0    0  0.63006700011E+01 -0.16791337335E+01  0.31212354639E+02  0.59301811537E+02  0.49999758369E+02 0.  0.
        -12    1    1    2    0    0 -0.63006700011E+01  0.16791337335E+01 -0.31212354639E+02  0.31886188463E+02  0.00000000000E+00 0.  1.
         11    1    3    3    0    0  0.19472825264E+02 -0.16140279945E+02  0.58303138913E+01  0.25955579763E+02  0.51100000000E-03 0. -1.
        -11    1    3    3    0    0 -0.64282097878E+01  0.10182687680E+01  0.63956486697E+01  0.91248602470E+01  0.51100000000E-03 0.  1.
         12    1    3    3    0    0 -0.67439454751E+01  0.13442877444E+02  0.18986392078E+02  0.24221371528E+02  0.00000000000E+00 0. -1.
</event>
<event>
 7    1  0.6055092E-013  0.5930195E+02  0.7816164E-02  0.1266605E+00
        -11   -1    0    0    0    0  0.00000000000E+00  0.00000000000E+00  0.45593999997E+02  0.45594000000E+02  0.51100000000E-03 0.  1.
         11   -1    0    0    0    0 -0.00000000000E+00 -0.00000000000E+00 -0.45593999997E+02  0.45594000000E+02  0.51100000000E-03 0. -1.
    9900012    2    1    2    0    0 -0.29320357001E+02  0.12471654357E+02 -0.12225114311E+01  0.59301952404E+02  0.50000015276E+02 0.  0.
        -12    1    1    2    0    0  0.29320357001E+02 -0.12471654357E+02  0.12225114311E+01  0.31886047596E+02  0.00000000000E+00 0.  1.
         11    1    3    3    0    0 -0.28892641445E+02 -0.53168566396E+01  0.11367991238E+02  0.31500554269E+02  0.51100000000E-03 0.  1.
        -11    1    3    3    0    0  0.71474272324E+01  0.27154921243E+01 -0.58834652733E+01  0.96475270097E+01  0.51100000000E-03 0. -1.
         12    1    3    3    0    0 -0.75751427893E+01  0.15073018873E+02 -0.67070373961E+01  0.18153871126E+02  0.00000000000E+00 0. -1.
</event>
<event>
 7    1  0.6055092E-013  0.5930194E+02  0.7816164E-02  0.1266605E+00
        -11   -1    0    0    0    0  0.00000000000E+00  0.00000000000E+00  0.45593999997E+02  0.45594000000E+02  0.51100000000E-03 0.  1.
         11   -1    0    0    0    0 -0.00000000000E+00 -0.00000000000E+00 -0.45593999997E+02  0.45594000000E+02  0.51100000000E-03 0. -1.
    9900012    2    1    2    0    0  0.23477069674E+02 -0.17677169362E+02 -0.12371979205E+02  0.59301937425E+02  0.49999987958E+02 0.  0.
        -12    1    1    2    0    0 -0.23477069674E+02  0.17677169362E+02  0.12371979205E+02  0.31886062575E+02  0.00000000000E+00 0.  1.
         11    1    3    3    0    0  0.18810135233E+02 -0.10894900611E+02  0.10774458774E+02  0.24261265609E+02  0.51100000000E-03 0.  1.
        -11    1    3    3    0    0 -0.83412624033E+01 -0.48408902165E+01 -0.18902515533E+02  0.21220649621E+02  0.51100000000E-03 0. -1.
        -12    1    3    3    0    0  0.13008196845E+02 -0.19413785337E+01 -0.42439224459E+01  0.13820022195E+02  0.00000000000E+00 0.  1.
</event>
<event>
 7    1  0.6055092E-013  0.5930196E+02  0.7816164E-02  0.1266605E+00
        -11   -1    0    0    0    0  0.00000000000E+00  0.00000000000E+00  0.45593999997E+02  0.45594000000E+02  0.51100000000E-03 0.  1.
         11   -1    0    0    0    0 -0.00000000000E+00 -0.00000000000E+00 -0.45593999997E+02  0.45594000000E+02  0.51100000000E-03 0. -1.
    9900012    2    1    2    0    0 -0.16182233628E+02  0.27369706853E+02 -0.23986925458E+01  0.59301964430E+02  0.50000037210E+02 0.  0.
        -12    1    1    2    0    0  0.16182233628E+02 -0.27369706853E+02  0.23986925458E+01  0.31886035570E+02  0.00000000000E+00 0.  1.
         11    1    3    3    0    0 -0.12632426744E+01 -0.60828438315E+01 -0.50165538893E+01  0.79851477331E+01  0.51100000000E-03 0. -1.
        -11    1    3    3    0    0  0.84120041245E+01  0.24907626455E+02 -0.36170138622E+00  0.26292251656E+02  0.51100000000E-03 0.  1.
        -12    1    3    3    0    0 -0.23330995078E+02  0.85449242296E+01  0.29795627297E+01  0.25024565041E+02  0.00000000000E+00 0.  1.
</event>
<event>
 7    1  0.6055092E-013  0.5930194E+02  0.7816164E-02  0.1266605E+00
        -11   -1    0    0    0    0  0.00000000000E+00  0.00000000000E+00  0.45593999997E+02  0.45594000000E+02  0.51100000000E-03 0.  1.
         11   -1    0    0    0    0 -0.00000000000E+00 -0.00000000000E+00 -0.45593999997E+02  0.45594000000E+02  0.51100000000E-03 0. -1.
    9900012    2    1    2    0    0 -0.15131271055E+02  0.27993298126E+02  0.20348932286E+01  0.59301938873E+02  0.49999990599E+02 0.  0.
        -12    1    1    2    0    0  0.15131271055E+02 -0.27993298126E+02 -0.20348932286E+01  0.31886061127E+02  0.00000000000E+00 0.  1.
         11    1    3    3    0    0 -0.12230962376E+02  0.40165727016E+01 -0.15265106306E+02  0.19968794849E+02  0.51100000000E-03 0. -1.
        -11    1    3    3    0    0  0.11095856935E+02  0.62599919424E+01  0.58880429059E+01  0.14034763616E+02  0.51100000000E-03 0.  1.
        -12    1    3    3    0    0 -0.13996165614E+02  0.17716733482E+02  0.11411956629E+02  0.25298380408E+02  0.00000000000E+00 0.  1.
</event>
<event>
 7    1  0.6055092E-013  0.5930214E+02  0.7816164E-02  0.1266604E+00
        -11   -1    0    0    0    0  0.00000000000E+00  0.00000000000E+00  0.45593999997E+02  0.45594000000E+02  0.51100000000E-03 0.  1.
         11   -1    0    0    0    0 -0.00000000000E+00 -0.00000000000E+00 -0.45593999997E+02  0.45594000000E+02  0.51100000000E-03 0. -1.
    9900012    2    1    2    0    0 -0.22575066540E+02  0.60668571263E+01 -0.21685649938E+02  0.59302144235E+02  0.50000365128E+02 0.  0.
        -12    1    1    2    0    0  0.22575066540E+02 -0.60668571263E+01  0.21685649938E+02  0.31885855765E+02  0.00000000000E+00 0.  1.
         11    1    3    3    0    0 -0.24149259387E+02 -0.29486684754E+01 -0.25712740757E+02  0.35398113117E+02  0.51100000000E-03 0. -1.
        -11    1    3    3    0    0 -0.51937203459E+01  0.13344836043E+02 -0.11182332333E+01  0.14363489335E+02  0.51100000000E-03 0.  1.
         12    1    3    3    0    0  0.67679131933E+01 -0.43293104417E+01  0.51453240529E+01  0.95405417824E+01  0.00000000000E+00 0. -1.
</event>
<event>
 7    1  0.6055092E-013  0.5930194E+02  0.7816164E-02  0.1266605E+00
        -11   -1    0    0    0    0  0.00000000000E+00  0.00000000000E+00  0.45593999997E+02  0.45594000000E+02  0.51100000000E-03 0.  1.
         11   -1    0    0    0    0 -0.00000000000E+00 -0.00000000000E+00 -0.45593999997E+02  0.45594000000E+02  0.51100000000E-03 0. -1.
    9900012    2    1    2    0    0 -0.29338902604E+02 -0.12478985549E+02  0.47412694167E+00  0.59301935917E+02  0.49999985208E+02 0.  0.
        -12    1    1    2    0    0  0.29338902604E+02  0.12478985549E+02 -0.47412694167E+00  0.31886064083E+02  0.00000000000E+00 0.  1.
         11    1    3    3    0    0 -0.18101139568E+02 -0.23278459088E+02 -0.12153841893E+02  0.31894416191E+02  0.51100000000E-03 0. -1.
        -11    1    3    3    0    0 -0.34206831550E+01  0.10862414461E+02 -0.12730233262E+01  0.11459219424E+02  0.51100000000E-03 0.  1.
         12    1    3    3    0    0 -0.78170798816E+01 -0.62940921708E-01  0.13900992161E+02  0.15948300301E+02  0.00000000000E+00 0. -1.
</event>
<event>
 7    1  0.6055092E-013  0.5930195E+02  0.7816164E-02  0.1266605E+00
        -11   -1    0    0    0    0  0.00000000000E+00  0.00000000000E+00  0.45593999997E+02  0.45594000000E+02  0.51100000000E-03 0.  1.
         11   -1    0    0    0    0 -0.00000000000E+00 -0.00000000000E+00 -0.45593999997E+02  0.45594000000E+02  0.51100000000E-03 0. -1.
    9900012    2    1    2    0    0  0.30811071031E+01 -0.31704414574E+02  0.14343085203E+01  0.59301947166E+02  0.50000005723E+02 0.  0.
        -12    1    1    2    0    0 -0.30811071031E+01  0.31704414574E+02 -0.14343085203E+01  0.31886052834E+02  0.00000000000E+00 0.  1.
         11    1    3    3    0    0 -0.20093644356E+01 -0.30282400914E+02 -0.18716809855E+02  0.35656420487E+02  0.51100000000E-03 0. -1.
        -11    1    3    3    0    0  0.62590671156E+01  0.33825441814E+01  0.92014358034E+01  0.11631162771E+02  0.51100000000E-03 0.  1.
         12    1    3    3    0    0 -0.11685955769E+01 -0.48045578409E+01  0.10949682572E+02  0.12014363907E+02  0.00000000000E+00 0. -1.
</event>
<event>
 7    1  0.6055092E-013  0.5930193E+02  0.7816164E-02  0.1266605E+00
        -11   -1    0    0    0    0  0.00000000000E+00  0.00000000000E+00  0.45593999997E+02  0.45594000000E+02  0.51100000000E-03 0.  1.
         11   -1    0    0    0    0 -0.00000000000E+00 -0.00000000000E+00 -0.45593999997E+02  0.45594000000E+02  0.51100000000E-03 0. -1.
    9900012    2    1    2    0    0  0.54629960343E+01 -0.11014525621E+02 -0.29420352435E+02  0.59301933486E+02  0.49999980775E+02 0.  0.
        -12    1    1    2    0    0 -0.54629960343E+01  0.11014525621E+02  0.29420352435E+02  0.31886066514E+02  0.00000000000E+00 0.  1.
         11    1    3    3    0    0  0.25677653571E+01  0.74413312312E+01  0.27925006489E+01  0.83525379112E+01  0.51100000000E-03 0. -1.
        -11    1    3    3    0    0 -0.11180012707E+02 -0.20696628835E+02 -0.12542023558E+02  0.26657934737E+02  0.51100000000E-03 0.  1.
        -12    1    3    3    0    0  0.14075243384E+02  0.22407719825E+01 -0.19670829526E+02  0.24291460838E+02  0.00000000000E+00 0.  1.
</event>
<event>
 7    1  0.6055092E-013  0.5930194E+02  0.7816164E-02  0.1266605E+00
        -11   -1    0    0    0    0  0.00000000000E+00  0.00000000000E+00  0.45593999997E+02  0.45594000000E+02  0.51100000000E-03 0.  1.
         11   -1    0    0    0    0 -0.00000000000E+00 -0.00000000000E+00 -0.45593999997E+02  0.45594000000E+02  0.51100000000E-03 0. -1.
    9900012    2    1    2    0    0  0.22866391838E+02 -0.16227265103E+02 -0.15183053183E+02  0.59301935452E+02  0.49999984360E+02 0.  0.
        -12    1    1    2    0    0 -0.22866391838E+02  0.16227265103E+02  0.15183053183E+02  0.31886064548E+02  0.00000000000E+00 0.  1.
         11    1    3    3    0    0  0.63191949786E+01 -0.11496381294E+02  0.12447749162E+02  0.18084398456E+02  0.51100000000E-03 0.  1.
        -11    1    3    3    0    0  0.15996540614E+02  0.61936223612E+01 -0.24373144484E+02  0.29804369509E+02  0.51100000000E-03 0. -1.
        -12    1    3    3    0    0  0.55065624558E+00 -0.10924506169E+02 -0.32576578610E+01  0.11413167487E+02  0.00000000000E+00 0.  1.
</event>
<event>
 7    1  0.6055092E-013  0.5930193E+02  0.7816164E-02  0.1266605E+00
        -11   -1    0    0    0    0  0.00000000000E+00  0.00000000000E+00  0.45593999997E+02  0.45594000000E+02  0.51100000000E-03 0.  1.
         11   -1    0    0    0    0 -0.00000000000E+00 -0.00000000000E+00 -0.45593999997E+02  0.45594000000E+02  0.51100000000E-03 0. -1.
    9900012    2    1    2    0    0  0.25641786036E+01  0.26290707364E+02 -0.17859042589E+02  0.59301926115E+02  0.49999967331E+02 0.  0.
        -12    1    1    2    0    0 -0.25641786036E+01 -0.26290707364E+02  0.17859042589E+02  0.31886073885E+02  0.00000000000E+00 0.  1.
         11    1    3    3    0    0 -0.88630233908E+01  0.11394685298E+02 -0.14581237848E+02  0.20518395018E+02  0.51100000000E-03 0. -1.
        -11    1    3    3    0    0  0.10972233707E+02 -0.82599551115E+01  0.43387629126E+01  0.14402834264E+02  0.51100000000E-03 0.  1.
        -12    1    3    3    0    0  0.45496828696E+00  0.23155977178E+02 -0.76165676538E+01  0.24380696833E+02  0.00000000000E+00 0.  1.
</event>
<event>
 7    1  0.6055092E-013  0.5930195E+02  0.7816164E-02  0.1266605E+00
        -11   -1    0    0    0    0  0.00000000000E+00  0.00000000000E+00  0.45593999997E+02  0.45594000000E+02  0.51100000000E-03 0. -1.
         11   -1    0    0    0    0 -0.00000000000E+00 -0.00000000000E+00 -0.45593999997E+02  0.45594000000E+02  0.51100000000E-03 0.  1.
    9900012    2    1    2    0    0 -0.10937457072E+02  0.13062578495E+02  0.26952946348E+02  0.59301949116E+02  0.50000009280E+02 0.  0.
        -12    1    1    2    0    0  0.10937457072E+02 -0.13062578495E+02 -0.26952946348E+02  0.31886050884E+02  0.00000000000E+00 0.  1.
         11    1    3    3    0    0 -0.19336889653E+01  0.24378679202E+02  0.12465484343E+02  0.27448997301E+02  0.51100000000E-03 0. -1.
        -11    1    3    3    0    0 -0.80517071051E+01 -0.56813694108E+01 -0.53470991719E+01  0.11211575068E+02  0.51100000000E-03 0.  1.
        -12    1    3    3    0    0 -0.95206100146E+00 -0.56347312967E+01  0.19834561177E+02  0.20641376747E+02  0.00000000000E+00 0.  1.
</event>
<event>
 7    1  0.6055092E-013  0.5930204E+02  0.7816164E-02  0.1266604E+00
        -11   -1    0    0    0    0  0.00000000000E+00  0.00000000000E+00  0.45593999997E+02  0.45594000000E+02  0.51100000000E-03 0. -1.
         11   -1    0    0    0    0 -0.00000000000E+00 -0.00000000000E+00 -0.45593999997E+02  0.45594000000E+02  0.51100000000E-03 0.  1.
    9900012    2    1    2    0    0 -0.23996842362E+02 -0.17822132464E+02  0.11101244633E+02  0.59302039432E+02  0.50000173994E+02 0.  0.
        -12    1    1    2    0    0  0.23996842362E+02  0.17822132464E+02 -0.11101244633E+02  0.31885960568E+02  0.00000000000E+00 0.  1.
         11    1    3    3    0    0 -0.68019127301E+01  0.17711874681E+01  0.25474464850E+02  0.26426340675E+02  0.51100000000E-03 0. -1.
        -11    1    3    3    0    0 -0.15639941347E+02 -0.15700994523E+02 -0.51605283564E+01  0.22754341290E+02  0.51100000000E-03 0.  1.
         12    1    3    3    0    0 -0.15549882852E+01 -0.38923254098E+01 -0.92126918606E+01  0.10121357467E+02  0.00000000000E+00 0. -1.
</event>
<event>
 7    1  0.6055092E-013  0.5930194E+02  0.7816164E-02  0.1266605E+00
        -11   -1    0    0    0    0  0.00000000000E+00  0.00000000000E+00  0.45593999997E+02  0.45594000000E+02  0.51100000000E-03 0.  1.
         11   -1    0    0    0    0 -0.00000000000E+00 -0.00000000000E+00 -0.45593999997E+02  0.45594000000E+02  0.51100000000E-03 0. -1.
    9900012    2    1    2    0    0 -0.13330464525E+02 -0.27411578764E+02  0.93608007613E+01  0.59301944651E+02  0.50000001137E+02 0.  0.
        -12    1    1    2    0    0  0.13330464525E+02  0.27411578764E+02 -0.93608007613E+01  0.31886055349E+02  0.00000000000E+00 0.  1.
         11    1    3    3    0    0  0.15022589844E+02 -0.15976532967E+02 -0.22592743111E+01  0.22046136440E+02  0.51100000000E-03 0. -1.
        -11    1    3    3    0    0 -0.16965404902E+02  0.27320342501E+01  0.64966287568E+01  0.18371041345E+02  0.51100000000E-03 0.  1.
         12    1    3    3    0    0 -0.11387649467E+02 -0.14167080047E+02  0.51234463156E+01  0.18884766866E+02  0.00000000000E+00 0. -1.
</event>
<event>
 7    1  0.6055092E-013  0.5930188E+02  0.7816164E-02  0.1266605E+00
        -11   -1    0    0    0    0  0.00000000000E+00  0.00000000000E+00  0.45593999997E+02  0.45594000000E+02  0.51100000000E-03 0. -1.
         11   -1    0    0    0    0 -0.00000000000E+00 -0.00000000000E+00 -0.45593999997E+02  0.45594000000E+02  0.51100000000E-03 0.  1.
    9900012    2    1    2    0    0 -0.21933685662E+02  0.17807782153E+02 -0.14782451059E+02  0.59301881841E+02  0.49999886587E+02 0.  0.
        -12    1    1    2    0    0  0.21933685662E+02 -0.17807782153E+02  0.14782451059E+02  0.31886118159E+02  0.00000000000E+00 0.  1.
         11    1    3    3    0    0 -0.11938361200E+02 -0.14708218516E+02  0.27264126315E+01  0.19138690816E+02  0.51100000000E-03 0. -1.
        -11    1    3    3    0    0 -0.95462507768E+01  0.16701649989E+02 -0.14424553635E+02  0.24044620274E+02  0.51100000000E-03 0.  1.
         12    1    3    3    0    0 -0.44907368537E+00  0.15814350679E+02 -0.30843100548E+01  0.16118570752E+02  0.00000000000E+00 0. -1.
</event>
<event>
 7    1  0.6055092E-013  0.5930195E+02  0.7816164E-02  0.1266605E+00
        -11   -1    0    0    0    0  0.00000000000E+00  0.00000000000E+00  0.45593999997E+02  0.45594000000E+02  0.51100000000E-03 0. -1.
         11   -1    0    0    0    0 -0.00000000000E+00 -0.00000000000E+00 -0.45593999997E+02  0.45594000000E+02  0.51100000000E-03 0.  1.
    9900012    2    1    2    0    0  0.19865215459E+02  0.10328920829E+02  0.22702567933E+02  0.59301953186E+02  0.50000016702E+02 0.  0.
        -12    1    1    2    0    0 -0.19865215459E+02 -0.10328920829E+02 -0.22702567933E+02  0.31886046814E+02  0.00000000000E+00 0.  1.
         11    1    3    3    0    0  0.66279782127E+01  0.11635913786E+02  0.34959046733E+02  0.37436072624E+02  0.51100000000E-03 0. -1.
        -11    1    3    3    0    0  0.54398872302E+01  0.49043743440E+01 -0.20658671372E+01  0.76100636051E+01  0.51100000000E-03 0.  1.
         12    1    3    3    0    0  0.77973500159E+01 -0.62113673012E+01 -0.10190611663E+02  0.14255816956E+02  0.00000000000E+00 0. -1.
</event>
<event>
 7    1  0.6055092E-013  0.5930194E+02  0.7816164E-02  0.1266605E+00
        -11   -1    0    0    0    0  0.00000000000E+00  0.00000000000E+00  0.45593999997E+02  0.45594000000E+02  0.51100000000E-03 0.  1.
         11   -1    0    0    0    0 -0.00000000000E+00 -0.00000000000E+00 -0.45593999997E+02  0.45594000000E+02  0.51100000000E-03 0. -1.
    9900012    2    1    2    0    0 -0.57437463276E+01  0.62480846544E+01 -0.30735835286E+02  0.59301941064E+02  0.49999994595E+02 0.  0.
        -12    1    1    2    0    0  0.57437463276E+01 -0.62480846544E+01  0.30735835286E+02  0.31886058936E+02  0.00000000000E+00 0.  1.
         11    1    3    3    0    0  0.93680628148E+01 -0.55422363832E+01  0.49051319793E+01  0.11938898820E+02  0.51100000000E-03 0. -1.
        -11    1    3    3    0    0 -0.20756914414E+02  0.44197505321E+01 -0.19926374062E+02  0.29110892708E+02  0.51100000000E-03 0.  1.
        -12    1    3    3    0    0  0.56451052720E+01  0.73705705055E+01 -0.15714593204E+02  0.18252149536E+02  0.00000000000E+00 0.  1.
</event>
<event>
 7    1  0.6055092E-013  0.5930197E+02  0.7816164E-02  0.1266605E+00
        -11   -1    0    0    0    0  0.00000000000E+00  0.00000000000E+00  0.45593999997E+02  0.45594000000E+02  0.51100000000E-03 0. -1.
         11   -1    0    0    0    0 -0.00000000000E+00 -0.00000000000E+00 -0.45593999997E+02  0.45594000000E+02  0.51100000000E-03 0.  1.
    9900012    2    1    2    0    0  0.19326851670E+02  0.21514810197E+02 -0.13427751408E+02  0.59301972321E+02  0.50000051600E+02 0.  0.
        -12    1    1    2    0    0 -0.19326851670E+02 -0.21514810197E+02  0.13427751408E+02  0.31886027679E+02  0.00000000000E+00 0.  1.
         11    1    3    3    0    0  0.23911391510E+01  0.74176263823E+01  0.74205401987E+01  0.10761186955E+02  0.51100000000E-03 0. -1.
        -11    1    3    3    0    0  0.46200053786E+01  0.25953747605E+02 -0.94986204161E+01  0.28020800390E+02  0.51100000000E-03 0.  1.
        -12    1    3    3    0    0  0.12315707140E+02 -0.11856563790E+02 -0.11349671191E+02  0.20519984976E+02  0.00000000000E+00 0.  1.
</event>
<event>
 7    1  0.6055092E-013  0.5930195E+02  0.7816164E-02  0.1266605E+00
        -11   -1    0    0    0    0  0.00000000000E+00  0.00000000000E+00  0.45593999997E+02  0.45594000000E+02  0.51100000000E-03 0.  1.
         11   -1    0    0    0    0 -0.00000000000E+00 -0.00000000000E+00 -0.45593999997E+02  0.45594000000E+02  0.51100000000E-03 0. -1.
    9900012    2    1    2    0    0 -0.19627490733E+02  0.27690144326E+01 -0.24976278647E+02  0.59301947744E+02  0.50000006778E+02 0.  0.
        -12    1    1    2    0    0  0.19627490733E+02 -0.27690144326E+01  0.24976278647E+02  0.31886052256E+02  0.00000000000E+00 0.  1.
         11    1    3    3    0    0 -0.11777788558E+02 -0.16527532495E+01 -0.21952945845E+01  0.12094098362E+02  0.51100000000E-03 0. -1.
        -11    1    3    3    0    0  0.47661917006E+01  0.20409766489E+02 -0.10776245340E+02  0.23566981464E+02  0.51100000000E-03 0.  1.
        -12    1    3    3    0    0 -0.12615893875E+02 -0.15987998807E+02 -0.12004738723E+02  0.23640867918E+02  0.00000000000E+00 0.  1.
</event>
<event>
 7    1  0.6055092E-013  0.5930193E+02  0.7816164E-02  0.1266605E+00
        -11   -1    0    0    0    0  0.00000000000E+00  0.00000000000E+00  0.45593999997E+02  0.45594000000E+02  0.51100000000E-03 0. -1.
         11   -1    0    0    0    0 -0.00000000000E+00 -0.00000000000E+00 -0.45593999997E+02  0.45594000000E+02  0.51100000000E-03 0.  1.
    9900012    2    1    2    0    0 -0.11580778001E+02  0.17615205118E+02  0.23923028137E+02  0.59301934929E+02  0.49999983406E+02 0.  0.
        -12    1    1    2    0    0  0.11580778001E+02 -0.17615205118E+02 -0.23923028137E+02  0.31886065071E+02  0.00000000000E+00 0.  1.
         11    1    3    3    0    0  0.26087081050E+00 -0.70756318348E+01 -0.62907787096E+01  0.94713524101E+01  0.51100000000E-03 0.  1.
        -11    1    3    3    0    0 -0.17906967320E+02  0.13181736015E+02  0.29309794618E+02  0.36789695619E+02  0.51100000000E-03 0. -1.
         12    1    3    3    0    0  0.60653185089E+01  0.11509100938E+02  0.90401222933E+00  0.13040886899E+02  0.00000000000E+00 0. -1.
</event>
<event>
 7    1  0.6055092E-013  0.5930193E+02  0.7816164E-02  0.1266605E+00
        -11   -1    0    0    0    0  0.00000000000E+00  0.00000000000E+00  0.45593999997E+02  0.45594000000E+02  0.51100000000E-03 0.  1.
         11   -1    0    0    0    0 -0.00000000000E+00 -0.00000000000E+00 -0.45593999997E+02  0.45594000000E+02  0.51100000000E-03 0. -1.
    9900012    2    1    2    0    0 -0.13315654461E+02  0.26316713824E+02 -0.12117982412E+02  0.59301928151E+02  0.49999971045E+02 0.  0.
        -12    1    1    2    0    0  0.13315654461E+02 -0.26316713824E+02  0.12117982412E+02  0.31886071849E+02  0.00000000000E+00 0.  1.
         11    1    3    3    0    0  0.11055680906E+02  0.20025333400E+02 -0.74652094374E+01  0.24061824750E+02  0.51100000000E-03 0. -1.
        -11    1    3    3    0    0 -0.22582147922E+02 -0.59979596754E+00 -0.11511607278E+02  0.25354097546E+02  0.51100000000E-03 0.  1.
         12    1    3    3    0    0 -0.17891874446E+01  0.68911763907E+01  0.68588343035E+01  0.98860058548E+01  0.00000000000E+00 0. -1.
</event>
<event>
 7    1  0.6055092E-013  0.5930194E+02  0.7816164E-02  0.1266605E+00
        -11   -1    0    0    0    0  0.00000000000E+00  0.00000000000E+00  0.45593999997E+02  0.45594000000E+02  0.51100000000E-03 0.  1.
         11   -1    0    0    0    0 -0.00000000000E+00 -0.00000000000E+00 -0.45593999997E+02  0.45594000000E+02  0.51100000000E-03 0. -1.
    9900012    2    1    2    0    0  0.17652413602E+02  0.26505287928E+02 -0.16071071059E+01  0.59301940548E+02  0.49999993653E+02 0.  0.
        -12    1    1    2    0    0 -0.17652413602E+02 -0.26505287928E+02  0.16071071059E+01  0.31886059452E+02  0.00000000000E+00 0.  1.
         11    1    3    3    0    0 -0.52692106403E+01 -0.85575170023E+01 -0.37519937238E+01  0.10727214698E+02  0.51100000000E-03 0. -1.
        -11    1    3    3    0    0  0.26537705378E+02  0.22821664192E+02 -0.22547727609E+01  0.35073667668E+02  0.51100000000E-03 0.  1.
        -12    1    3    3    0    0 -0.36160811357E+01  0.12241140739E+02  0.43996593788E+01  0.13501058181E+02  0.00000000000E+00 0.  1.
</event>
<event>
 7    1  0.6359312E-013  0.5930195E+02  0.7816164E-02  0.1266605E+00
        -11   -1    0    0    0    0  0.00000000000E+00  0.00000000000E+00  0.45593999997E+02  0.45594000000E+02  0.51100000000E-03 0.  1.
         11   -1    0    0    0    0 -0.00000000000E+00 -0.00000000000E+00 -0.45593999997E+02  0.45594000000E+02  0.51100000000E-03 0. -1.
    9900012    2    1    2    0    0  0.20557284394E+02 -0.20724795584E+02  0.12829704581E+02  0.59301946414E+02  0.50000004352E+02 0.  0.
        -12    1    1    2    0    0 -0.20557284394E+02  0.20724795584E+02 -0.12829704581E+02  0.31886053586E+02  0.00000000000E+00 0.  1.
         11    1    3    3    0    0  0.14180056796E+02 -0.24072141376E+01  0.12624554748E+02  0.19137608876E+02  0.51100000000E-03 0. -1.
        -11    1    3    3    0    0  0.97236371089E+01 -0.22336870223E+02 -0.11800393586E+02  0.27069063136E+02  0.51100000000E-03 0.  1.
        -12    1    3    3    0    0 -0.33464095106E+01  0.40192887770E+01  0.12005543419E+02  0.13095274402E+02  0.00000000000E+00 0.  1.
</event>
<event>
 7    1  0.6055092E-013  0.5930196E+02  0.7816164E-02  0.1266605E+00
        -11   -1    0    0    0    0  0.00000000000E+00  0.00000000000E+00  0.45593999997E+02  0.45594000000E+02  0.51100000000E-03 0.  1.
         11   -1    0    0    0    0 -0.00000000000E+00 -0.00000000000E+00 -0.45593999997E+02  0.45594000000E+02  0.51100000000E-03 0. -1.
    9900012    2    1    2    0    0 -0.20900456166E+02 -0.18785613185E+02 -0.15066217249E+02  0.59301964924E+02  0.50000038109E+02 0.  0.
        -12    1    1    2    0    0  0.20900456166E+02  0.18785613185E+02  0.15066217249E+02  0.31886035076E+02  0.00000000000E+00 0.  1.
         11    1    3    3    0    0 -0.22486647790E+02  0.29883079730E+00 -0.22092150001E+02  0.31524620864E+02  0.51100000000E-03 0. -1.
        -11    1    3    3    0    0 -0.35611670462E+01 -0.75635039240E+01  0.11649224894E+02  0.14338512588E+02  0.51100000000E-03 0.  1.
         12    1    3    3    0    0  0.51473586700E+01 -0.11520940058E+02 -0.46232921423E+01  0.13438831472E+02  0.00000000000E+00 0. -1.
</event>
<event>
 7    1  0.6055092E-013  0.5930196E+02  0.7816164E-02  0.1266605E+00
        -11   -1    0    0    0    0  0.00000000000E+00  0.00000000000E+00  0.45593999997E+02  0.45594000000E+02  0.51100000000E-03 0.  1.
         11   -1    0    0    0    0 -0.00000000000E+00 -0.00000000000E+00 -0.45593999997E+02  0.45594000000E+02  0.51100000000E-03 0. -1.
    9900012    2    1    2    0    0 -0.11644794325E+02  0.27183180733E+02 -0.11924470169E+02  0.59301960132E+02  0.50000029371E+02 0.  0.
        -12    1    1    2    0    0  0.11644794325E+02 -0.27183180733E+02  0.11924470169E+02  0.31886039868E+02  0.00000000000E+00 0.  1.
         11    1    3    3    0    0 -0.15796280200E+02  0.29110774412E+02 -0.46888975920E+01  0.33450641487E+02  0.51100000000E-03 0. -1.
        -11    1    3    3    0    0 -0.78889735948E+01 -0.37072603301E+01  0.37184463814E+01  0.94766305873E+01  0.51100000000E-03 0.  1.
         12    1    3    3    0    0  0.12040459470E+02  0.17796666513E+01 -0.10954018959E+02  0.16374688058E+02  0.00000000000E+00 0. -1.
</event>
<event>
 7    1  0.6055092E-013  0.5930196E+02  0.7816164E-02  0.1266605E+00
        -11   -1    0    0    0    0  0.00000000000E+00  0.00000000000E+00  0.45593999997E+02  0.45594000000E+02  0.51100000000E-03 0. -1.
         11   -1    0    0    0    0 -0.00000000000E+00 -0.00000000000E+00 -0.45593999997E+02  0.45594000000E+02  0.51100000000E-03 0.  1.
    9900012    2    1    2    0    0  0.16982273421E+01  0.24852389792E+02  0.19904624059E+02  0.59301963662E+02  0.50000035807E+02 0.  0.
        -12    1    1    2    0    0 -0.16982273421E+01 -0.24852389792E+02 -0.19904624059E+02  0.31886036338E+02  0.00000000000E+00 0.  1.
         11    1    3    3    0    0 -0.90767645604E+00  0.98417740393E+01  0.17257833818E+02  0.19887614767E+02  0.51100000000E-03 0. -1.
        -11    1    3    3    0    0  0.92781122899E+01  0.25234708867E+02 -0.16194318633E+00  0.26886802062E+02  0.51100000000E-03 0.  1.
         12    1    3    3    0    0 -0.66722084917E+01 -0.10224093115E+02  0.28087334274E+01  0.12527546832E+02  0.00000000000E+00 0. -1.
</event>
<event>
 7    1  0.6055092E-013  0.5930195E+02  0.7816164E-02  0.1266605E+00
        -11   -1    0    0    0    0  0.00000000000E+00  0.00000000000E+00  0.45593999997E+02  0.45594000000E+02  0.51100000000E-03 0.  1.
         11   -1    0    0    0    0 -0.00000000000E+00 -0.00000000000E+00 -0.45593999997E+02  0.45594000000E+02  0.51100000000E-03 0. -1.
    9900012    2    1    2    0    0 -0.20198099092E+02  0.32903278089E+01 -0.24452621655E+02  0.59301950232E+02  0.50000011315E+02 0.  0.
        -12    1    1    2    0    0  0.20198099092E+02 -0.32903278089E+01  0.24452621655E+02  0.31886049768E+02  0.00000000000E+00 0.  1.
         11    1    3    3    0    0 -0.28462417433E+02  0.25080319107E+01 -0.20015891182E+02  0.34886033456E+02  0.51100000000E-03 0. -1.
        -11    1    3    3    0    0  0.40209820507E+00 -0.24204827882E+01  0.85530116726E+01  0.88980013951E+01  0.51100000000E-03 0.  1.
         12    1    3    3    0    0  0.78622201362E+01  0.32027786865E+01 -0.12989742145E+02  0.15517915381E+02  0.00000000000E+00 0. -1.
</event>
<event>
 7    1  0.6055092E-013  0.5930192E+02  0.7816164E-02  0.1266605E+00
        -11   -1    0    0    0    0  0.00000000000E+00  0.00000000000E+00  0.45593999997E+02  0.45594000000E+02  0.51100000000E-03 0. -1.
         11   -1    0    0    0    0 -0.00000000000E+00 -0.00000000000E+00 -0.45593999997E+02  0.45594000000E+02  0.51100000000E-03 0.  1.
    9900012    2    1    2    0    0 -0.13104204985E+02 -0.10112898867E+02  0.27253091511E+02  0.59301922965E+02  0.49999961587E+02 0.  0.
        -12    1    1    2    0    0  0.13104204985E+02  0.10112898867E+02 -0.27253091511E+02  0.31886077035E+02  0.00000000000E+00 0.  1.
         11    1    3    3    0    0 -0.12236786400E+02  0.18035781275E+01  0.14764339609E+02  0.19260777757E+02  0.51100000000E-03 0. -1.
        -11    1    3    3    0    0 -0.99016297267E+01 -0.21608349039E+02  0.34878755960E+01  0.24023494664E+02  0.51100000000E-03 0.  1.
        -12    1    3    3    0    0  0.90342111419E+01  0.96918720442E+01  0.90008763062E+01  0.16017650544E+02  0.00000000000E+00 0.  1.
</event>
<event>
 7    1  0.6055092E-013  0.5930195E+02  0.7816164E-02  0.1266605E+00
        -11   -1    0    0    0    0  0.00000000000E+00  0.00000000000E+00  0.45593999997E+02  0.45594000000E+02  0.51100000000E-03 0. -1.
         11   -1    0    0    0    0 -0.00000000000E+00 -0.00000000000E+00 -0.45593999997E+02  0.45594000000E+02  0.51100000000E-03 0.  1.
    9900012    2    1    2    0    0  0.16086017495E+02 -0.17778253086E+02  0.21021269574E+02  0.59301952641E+02  0.50000015709E+02 0.  0.
        -12    1    1    2    0    0 -0.16086017495E+02  0.17778253086E+02 -0.21021269574E+02  0.31886047359E+02  0.00000000000E+00 0.  1.
         11    1    3    3    0    0 -0.41451682159E+01  0.36330152511E+01 -0.12999930795E+02  0.14120177772E+02  0.51100000000E-03 0.  1.
        -11    1    3    3    0    0  0.20025493436E+02 -0.20958025968E+02  0.34005626059E+02  0.44683798448E+02  0.51100000000E-03 0. -1.
        -12    1    3    3    0    0  0.20569227537E+00 -0.45324236909E+00  0.15574310275E-01  0.49797642156E+00  0.00000000000E+00 0.  1.
</event>
<event>
 7    1  0.6055092E-013  0.5930202E+02  0.7816164E-02  0.1266604E+00
        -11   -1    0    0    0    0  0.00000000000E+00  0.00000000000E+00  0.45593999997E+02  0.45594000000E+02  0.51100000000E-03 0. -1.
         11   -1    0    0    0    0 -0.00000000000E+00 -0.00000000000E+00 -0.45593999997E+02  0.45594000000E+02  0.51100000000E-03 0.  1.
    9900012    2    1    2    0    0  0.20698775935E+02  0.21083112704E+02  0.11990765965E+02  0.59302024479E+02  0.50000146724E+02 0.  0.
        -12    1    1    2    0    0 -0.20698775935E+02 -0.21083112704E+02 -0.11990765965E+02  0.31885975521E+02  0.00000000000E+00 0.  1.
         11    1    3    3    0    0 -0.13306231962E+02 -0.44656193075E+01  0.69870234791E+01  0.15678522322E+02  0.51100000000E-03 0. -1.
        -11    1    3    3    0    0  0.15146519353E+02  0.13605690773E+02 -0.13790978208E+01  0.20406709215E+02  0.51100000000E-03 0.  1.
         12    1    3    3    0    0  0.18858488543E+02  0.11943041239E+02  0.63828403068E+01  0.23216792943E+02  0.00000000000E+00 0. -1.
</event>
<event>
 7    1  0.6055092E-013  0.5930195E+02  0.7816164E-02  0.1266605E+00
        -11   -1    0    0    0    0  0.00000000000E+00  0.00000000000E+00  0.45593999997E+02  0.45594000000E+02  0.51100000000E-03 0.  1.
         11   -1    0    0    0    0 -0.00000000000E+00 -0.00000000000E+00 -0.45593999997E+02  0.45594000000E+02  0.51100000000E-03 0. -1.
    9900012    2    1    2    0    0 -0.93927929935E+01 -0.19889740363E+02 -0.23084496109E+02  0.59301948307E+02  0.50000007805E+02 0.  0.
        -12    1    1    2    0    0  0.93927929935E+01  0.19889740363E+02  0.23084496109E+02  0.31886051693E+02  0.00000000000E+00 0.  1.
         11    1    3    3    0    0 -0.26828832514E+02 -0.82918494672E+01 -0.30320487182E+01  0.28244191285E+02  0.51100000000E-03 0. -1.
        -11    1    3    3    0    0  0.12273525404E+02 -0.11877261671E+02 -0.10099458964E+02  0.19842072529E+02  0.51100000000E-03 0.  1.
         12    1    3    3    0    0  0.51625141169E+01  0.27937077451E+00 -0.99529884263E+01  0.11215684493E+02  0.00000000000E+00 0. -1.
</event>
<event>
 7    1  0.6055092E-013  0.5930190E+02  0.7816164E-02  0.1266605E+00
        -11   -1    0    0    0    0  0.00000000000E+00  0.00000000000E+00  0.45593999997E+02  0.45594000000E+02  0.51100000000E-03 0. -1.
         11   -1    0    0    0    0 -0.00000000000E+00 -0.00000000000E+00 -0.45593999997E+02  0.45594000000E+02  0.51100000000E-03 0.  1.
    9900012    2    1    2    0    0  0.31351371891E+02 -0.57752423372E+01  0.67909571188E+00  0.59301904057E+02  0.49999927103E+02 0.  0.
        -12    1    1    2    0    0 -0.31351371891E+02  0.57752423372E+01 -0.67909571188E+00  0.31886095943E+02  0.00000000000E+00 0.  1.
         11    1    3    3    0    0  0.21931122554E+02  0.56914072629E+01  0.29216113332E+01  0.22845175993E+02  0.51100000000E-03 0. -1.
        -11    1    3    3    0    0 -0.23669417679E+01 -0.14863197543E+02 -0.13192216077E+02  0.20013785744E+02  0.51100000000E-03 0.  1.
        -12    1    3    3    0    0  0.11787191105E+02  0.33965479428E+01  0.10949700455E+02  0.16442942320E+02  0.00000000000E+00 0.  1.
</event>
<event>
 7    1  0.6055092E-013  0.5930194E+02  0.7816164E-02  0.1266605E+00
        -11   -1    0    0    0    0  0.00000000000E+00  0.00000000000E+00  0.45593999997E+02  0.45594000000E+02  0.51100000000E-03 0. -1.
         11   -1    0    0    0    0 -0.00000000000E+00 -0.00000000000E+00 -0.45593999997E+02  0.45594000000E+02  0.51100000000E-03 0.  1.
    9900012    2    1    2    0    0 -0.36559013599E+01  0.90253205614E+01  0.30362783147E+02  0.59301943072E+02  0.49999998258E+02 0.  0.
        -12    1    1    2    0    0  0.36559013599E+01 -0.90253205614E+01 -0.30362783147E+02  0.31886056928E+02  0.00000000000E+00 0.  1.
         11    1    3    3    0    0  0.36365212757E+01 -0.80250189603E+01  0.12563398223E+02  0.15344842504E+02  0.51100000000E-03 0. -1.
        -11    1    3    3    0    0  0.79602690770E+01  0.21022068947E+02  0.36436811772E+01  0.22772125051E+02  0.51100000000E-03 0.  1.
        -12    1    3    3    0    0 -0.15252691713E+02 -0.39717294248E+01  0.14155703747E+02  0.21184975517E+02  0.00000000000E+00 0.  1.
</event>
<event>
 7    1  0.6055092E-013  0.5930196E+02  0.7816164E-02  0.1266605E+00
        -11   -1    0    0    0    0  0.00000000000E+00  0.00000000000E+00  0.45593999997E+02  0.45594000000E+02  0.51100000000E-03 0.  1.
         11   -1    0    0    0    0 -0.00000000000E+00 -0.00000000000E+00 -0.45593999997E+02  0.45594000000E+02  0.51100000000E-03 0. -1.
    9900012    2    1    2    0    0 -0.12722667666E+02  0.23691226972E+02 -0.17134155833E+02  0.59301955967E+02  0.50000021774E+02 0.  0.
        -12    1    1    2    0    0  0.12722667666E+02 -0.23691226972E+02  0.17134155833E+02  0.31886044033E+02  0.00000000000E+00 0.  1.
         11    1    3    3    0    0 -0.81302006115E+01 -0.13518796899E+02 -0.10475962400E+02  0.18936837647E+02  0.51100000000E-03 0. -1.
        -11    1    3    3    0    0 -0.43542650944E+01  0.20492853909E+02  0.28314596847E+01  0.21140810062E+02  0.51100000000E-03 0.  1.
         12    1    3    3    0    0 -0.23820196020E+00  0.16717169962E+02 -0.94896531173E+01  0.19224308258E+02  0.00000000000E+00 0. -1.
</event>
<event>
 7    1  0.6055092E-013  0.5930201E+02  0.7816164E-02  0.1266605E+00
        -11   -1    0    0    0    0  0.00000000000E+00  0.00000000000E+00  0.45593999997E+02  0.45594000000E+02  0.51100000000E-03 0. -1.
         11   -1    0    0    0    0 -0.00000000000E+00 -0.00000000000E+00 -0.45593999997E+02  0.45594000000E+02  0.51100000000E-03 0.  1.
    9900012    2    1    2    0    0  0.13899141857E+02  0.93626061623E+01  0.27126953517E+02  0.59302013335E+02  0.50000126399E+02 0.  0.
        -12    1    1    2    0    0 -0.13899141857E+02 -0.93626061623E+01 -0.27126953517E+02  0.31885986665E+02  0.00000000000E+00 0.  1.
         11    1    3    3    0    0  0.56851009782E+00 -0.47919968005E+01  0.22841892738E+02  0.23346059651E+02  0.51100000000E-03 0. -1.
        -11    1    3    3    0    0  0.22818356571E+01  0.21881876106E+02  0.45697925602E+01  0.22470119719E+02  0.51100000000E-03 0.  1.
        -12    1    3    3    0    0  0.11048796102E+02 -0.77272731434E+01 -0.28473178181E+00  0.13485833965E+02  0.00000000000E+00 0.  1.
</event>
<event>
 7    1  0.6055092E-013  0.5930192E+02  0.7816164E-02  0.1266605E+00
        -11   -1    0    0    0    0  0.00000000000E+00  0.00000000000E+00  0.45593999997E+02  0.45594000000E+02  0.51100000000E-03 0.  1.
         11   -1    0    0    0    0 -0.00000000000E+00 -0.00000000000E+00 -0.45593999997E+02  0.45594000000E+02  0.51100000000E-03 0. -1.
    9900012    2    1    2    0    0 -0.31773912995E+02 -0.22005001115E+01  0.15159421825E+01  0.59301924223E+02  0.49999963881E+02 0.  0.
        -12    1    1    2    0    0  0.31773912995E+02  0.22005001115E+01 -0.15159421825E+01  0.31886075777E+02  0.00000000000E+00 0.  1.
         11    1    3    3    0    0 -0.97676338194E+01  0.11045879044E+02  0.11317549111E+00  0.14745539096E+02  0.51100000000E-03 0. -1.
        -11    1    3    3    0    0  0.32413258488E+01 -0.15419578592E+02  0.89427750544E+01  0.18117472869E+02  0.51100000000E-03 0.  1.
        -12    1    3    3    0    0 -0.25247605024E+02  0.21731994369E+01 -0.75400083630E+01  0.26438912258E+02  0.00000000000E+00 0.  1.
</event>
<event>
 7    1  0.7127352E-013  0.5930197E+02  0.7816164E-02  0.1266605E+00
        -11   -1    0    0    0    0  0.00000000000E+00  0.00000000000E+00  0.45593999997E+02  0.45594000000E+02  0.51100000000E-03 0.  1.
         11   -1    0    0    0    0 -0.00000000000E+00 -0.00000000000E+00 -0.45593999997E+02  0.45594000000E+02  0.51100000000E-03 0. -1.
    9900012    2    1    2    0    0 -0.30257152499E+02 -0.11513131004E+01 -0.99949127845E+01  0.59301967309E+02  0.50000042460E+02 0.  0.
        -12    1    1    2    0    0  0.30257152499E+02  0.11513131004E+01  0.99949127845E+01  0.31886032691E+02  0.00000000000E+00 0.  1.
         11    1    3    3    0    0 -0.18448381512E+02  0.12819730252E+02 -0.17591728043E+02  0.28533439329E+02  0.51100000000E-03 0. -1.
        -11    1    3    3    0    0 -0.11760784711E+02 -0.36948600177E+01  0.14005199279E+02  0.18657804122E+02  0.51100000000E-03 0.  1.
        -12    1    3    3    0    0 -0.47986276340E-01 -0.10276183335E+02 -0.64083840208E+01  0.12110723858E+02  0.00000000000E+00 0.  1.
</event>
<event>
 7    1  0.6055092E-013  0.5930184E+02  0.7816164E-02  0.1266605E+00
        -11   -1    0    0    0    0  0.00000000000E+00  0.00000000000E+00  0.45593999997E+02  0.45594000000E+02  0.51100000000E-03 0.  1.
         11   -1    0    0    0    0 -0.00000000000E+00 -0.00000000000E+00 -0.45593999997E+02  0.45594000000E+02  0.51100000000E-03 0. -1.
    9900012    2    1    2    0    0  0.17833032097E+02 -0.16301879432E+02 -0.20807659001E+02  0.59301843445E+02  0.49999816561E+02 0.  0.
        -12    1    1    2    0    0 -0.17833032097E+02  0.16301879432E+02  0.20807659001E+02  0.31886156555E+02  0.00000000000E+00 0.  1.
         11    1    3    3    0    0 -0.12410630116E+02  0.26948311979E+01 -0.17352993438E+02  0.21503772613E+02  0.51100000000E-03 0. -1.
        -11    1    3    3    0    0  0.19621546921E+02 -0.11939274723E+02  0.35608315038E+01  0.23242867847E+02  0.51100000000E-03 0.  1.
         12    1    3    3    0    0  0.10622115292E+02 -0.70574359064E+01 -0.70154970662E+01  0.14555202985E+02  0.00000000000E+00 0. -1.
</event>
<event>
 7    1  0.6055092E-013  0.5930194E+02  0.7816164E-02  0.1266605E+00
        -11   -1    0    0    0    0  0.00000000000E+00  0.00000000000E+00  0.45593999997E+02  0.45594000000E+02  0.51100000000E-03 0.  1.
         11   -1    0    0    0    0 -0.00000000000E+00 -0.00000000000E+00 -0.45593999997E+02  0.45594000000E+02  0.51100000000E-03 0. -1.
    9900012    2    1    2    0    0  0.99631071420E+01 -0.10314467073E+02 -0.28479280284E+02  0.59301935012E+02  0.49999983558E+02 0.  0.
        -12    1    1    2    0    0 -0.99631071420E+01  0.10314467073E+02  0.28479280284E+02  0.31886064988E+02  0.00000000000E+00 0.  1.
         11    1    3    3    0    0 -0.45374580390E+01 -0.19786938526E+02 -0.32494476337E+02  0.38314520150E+02  0.51100000000E-03 0. -1.
        -11    1    3    3    0    0  0.10408997591E+02  0.14071763175E+00  0.20998246459E+01  0.10619618454E+02  0.51100000000E-03 0.  1.
         12    1    3    3    0    0  0.40915675900E+01  0.93317538214E+01  0.19153714070E+01  0.10367796408E+02  0.00000000000E+00 0. -1.
</event>
<event>
 7    1  0.6055092E-013  0.5930196E+02  0.7816164E-02  0.1266605E+00
        -11   -1    0    0    0    0  0.00000000000E+00  0.00000000000E+00  0.45593999997E+02  0.45594000000E+02  0.51100000000E-03 0. -1.
         11   -1    0    0    0    0 -0.00000000000E+00 -0.00000000000E+00 -0.45593999997E+02  0.45594000000E+02  0.51100000000E-03 0.  1.
    9900012    2    1    2    0    0  0.31350539614E+02  0.44578649078E+01 -0.37404127075E+01  0.59301959468E+02  0.50000028159E+02 0.  0.
        -12    1    1    2    0    0 -0.31350539614E+02 -0.44578649078E+01  0.37404127075E+01  0.31886040532E+02  0.00000000000E+00 0.  1.
         11    1    3    3    0    0  0.24895547198E+02 -0.21127705660E+02 -0.24580735653E+01  0.32744623110E+02  0.51100000000E-03 0. -1.
        -11    1    3    3    0    0  0.61581333651E+01  0.23060568347E+02 -0.41890133517E+00  0.23872324931E+02  0.51100000000E-03 0.  1.
         12    1    3    3    0    0  0.29685905120E+00  0.25250022206E+01 -0.86343780701E+00  0.26850114258E+01  0.00000000000E+00 0. -1.
</event>
<event>
 7    1  0.6055092E-013  0.5930196E+02  0.7816164E-02  0.1266605E+00
        -11   -1    0    0    0    0  0.00000000000E+00  0.00000000000E+00  0.45593999997E+02  0.45594000000E+02  0.51100000000E-03 0.  1.
         11   -1    0    0    0    0 -0.00000000000E+00 -0.00000000000E+00 -0.45593999997E+02  0.45594000000E+02  0.51100000000E-03 0. -1.
    9900012    2    1    2    0    0 -0.30129363781E+02  0.16832244942E+01  0.10300848757E+02  0.59301964002E+02  0.50000036428E+02 0.  0.
        -12    1    1    2    0    0  0.30129363781E+02 -0.16832244942E+01 -0.10300848757E+02  0.31886035998E+02  0.00000000000E+00 0.  1.
         11    1    3    3    0    0  0.20948388663E+01 -0.12357000082E+02  0.11067268792E+01  0.12582076360E+02  0.51100000000E-03 0. -1.
        -11    1    3    3    0    0 -0.33411666835E+02  0.60142561959E+01  0.14616371419E+02  0.36961453868E+02  0.51100000000E-03 0.  1.
         12    1    3    3    0    0  0.11874641874E+01  0.80259683799E+01 -0.54222495414E+01  0.97584337739E+01  0.00000000000E+00 0. -1.
</event>
<event>
 7    1  0.6055092E-013  0.5930192E+02  0.7816164E-02  0.1266605E+00
        -11   -1    0    0    0    0  0.00000000000E+00  0.00000000000E+00  0.45593999997E+02  0.45594000000E+02  0.51100000000E-03 0.  1.
         11   -1    0    0    0    0 -0.00000000000E+00 -0.00000000000E+00 -0.45593999997E+02  0.45594000000E+02  0.51100000000E-03 0. -1.
    9900012    2    1    2    0    0 -0.28705991651E+02 -0.13814027663E+02 -0.13641909296E+01  0.59301916298E+02  0.49999949427E+02 0.  0.
        -12    1    1    2    0    0  0.28705991651E+02  0.13814027663E+02  0.13641909296E+01  0.31886083702E+02  0.00000000000E+00 0.  1.
         11    1    3    3    0    0 -0.21988131373E+02 -0.13838720464E+02  0.10917084961E+02  0.28181037058E+02  0.51100000000E-03 0. -1.
        -11    1    3    3    0    0 -0.35974660427E-01 -0.11362512701E+02 -0.13749119213E+02  0.17836655192E+02  0.51100000000E-03 0.  1.
         12    1    3    3    0    0 -0.66818856176E+01  0.11387205501E+02  0.14678433224E+01  0.13284224048E+02  0.00000000000E+00 0. -1.
</event>
<event>
 7    1  0.6055092E-013  0.5930197E+02  0.7816164E-02  0.1266605E+00
        -11   -1    0    0    0    0  0.00000000000E+00  0.00000000000E+00  0.45593999997E+02  0.45594000000E+02  0.51100000000E-03 0.  1.
         11   -1    0    0    0    0 -0.00000000000E+00 -0.00000000000E+00 -0.45593999997E+02  0.45594000000E+02  0.51100000000E-03 0. -1.
    9900012    2    1    2    0    0  0.30264216139E+02  0.80363890138E+00  0.10007519362E+02  0.59301967670E+02  0.50000043118E+02 0.  0.
        -12    1    1    2    0    0 -0.30264216139E+02 -0.80363890138E+00 -0.10007519362E+02  0.31886032330E+02  0.00000000000E+00 0.  1.
         11    1    3    3    0    0  0.10194521692E+02  0.55389366669E+01 -0.56922643196E+01  0.12923233545E+02  0.51100000000E-03 0. -1.
        -11    1    3    3    0    0  0.25077903909E+02 -0.16464014143E+02  0.15164217707E+02  0.33614260740E+02  0.51100000000E-03 0.  1.
        -12    1    3    3    0    0 -0.50082094620E+01  0.11728716377E+02  0.53556597466E+00  0.12764473385E+02  0.00000000000E+00 0.  1.
</event>
<event>
 7    1  0.6055092E-013  0.5930190E+02  0.7816164E-02  0.1266605E+00
        -11   -1    0    0    0    0  0.00000000000E+00  0.00000000000E+00  0.45593999997E+02  0.45594000000E+02  0.51100000000E-03 0.  1.
         11   -1    0    0    0    0 -0.00000000000E+00 -0.00000000000E+00 -0.45593999997E+02  0.45594000000E+02  0.51100000000E-03 0. -1.
    9900012    2    1    2    0    0  0.62553296779E+01  0.19200906010E+02 -0.24676296297E+02  0.59301897385E+02  0.49999914935E+02 0.  0.
        -12    1    1    2    0    0 -0.62553296779E+01 -0.19200906010E+02  0.24676296297E+02  0.31886102615E+02  0.00000000000E+00 0.  1.
         11    1    3    3    0    0  0.14113006720E+02  0.19097782619E+02  0.17339311906E+01  0.23809846225E+02  0.51100000000E-03 0. -1.
        -11    1    3    3    0    0 -0.25421584880E+01  0.44861794072E+01 -0.27959041829E+02  0.28430553911E+02  0.51100000000E-03 0.  1.
        -12    1    3    3    0    0 -0.53155185538E+01 -0.43830560161E+01  0.15488143405E+01  0.70614972490E+01  0.00000000000E+00 0.  1.
</event>
<event>
 7    1  0.6055092E-013  0.5930192E+02  0.7816164E-02  0.1266605E+00
        -11   -1    0    0    0    0  0.00000000000E+00  0.00000000000E+00  0.45593999997E+02  0.45594000000E+02  0.51100000000E-03 0.  1.
         11   -1    0    0    0    0 -0.00000000000E+00 -0.00000000000E+00 -0.45593999997E+02  0.45594000000E+02  0.51100000000E-03 0. -1.
    9900012    2    1    2    0    0 -0.23701264607E+02 -0.21231514915E+02  0.20481606087E+01  0.59301919473E+02  0.49999955217E+02 0.  0.
        -12    1    1    2    0    0  0.23701264607E+02  0.21231514915E+02 -0.20481606087E+01  0.31886080527E+02  0.00000000000E+00 0.  1.
         11    1    3    3    0    0 -0.16404985767E+01  0.10590485408E+01 -0.52139693696E+01  0.55676113586E+01  0.51100000000E-03 0. -1.
        -11    1    3    3    0    0 -0.13579260038E+02 -0.34303101274E+02 -0.92329251992E+00  0.36904627481E+02  0.51100000000E-03 0.  1.
        -12    1    3    3    0    0 -0.84815059921E+01  0.12012537818E+02  0.81854224982E+01  0.16829680633E+02  0.00000000000E+00 0.  1.
</event>
<event>
 7    1  0.6055092E-013  0.5930191E+02  0.7816164E-02  0.1266605E+00
        -11   -1    0    0    0    0  0.00000000000E+00  0.00000000000E+00  0.45593999997E+02  0.45594000000E+02  0.51100000000E-03 0. -1.
         11   -1    0    0    0    0 -0.00000000000E+00 -0.00000000000E+00 -0.45593999997E+02  0.45594000000E+02  0.51100000000E-03 0.  1.
    9900012    2    1    2    0    0 -0.21558000459E+01 -0.31587809015E+02 -0.37796642232E+01  0.59301905635E+02  0.49999929980E+02 0.  0.
        -12    1    1    2    0    0  0.21558000459E+01  0.31587809015E+02  0.37796642232E+01  0.31886094365E+02  0.00000000000E+00 0.  1.
         11    1    3    3    0    0 -0.11922257271E+01 -0.41829448103E+02 -0.13811954696E+02  0.44066928910E+02  0.51100000000E-03 0. -1.
        -11    1    3    3    0    0 -0.21635630606E+01  0.83054106660E+01  0.55894601352E+01  0.10242212472E+02  0.51100000000E-03 0.  1.
         12    1    3    3    0    0  0.11999887417E+01  0.19362284212E+01  0.44428303379E+01  0.49927642535E+01  0.00000000000E+00 0. -1.
</event>
<event>
 7    1  0.6055092E-013  0.5930171E+02  0.7816164E-02  0.1266606E+00
        -11   -1    0    0    0    0  0.00000000000E+00  0.00000000000E+00  0.45593999997E+02  0.45594000000E+02  0.51100000000E-03 0.  1.
         11   -1    0    0    0    0 -0.00000000000E+00 -0.00000000000E+00 -0.45593999997E+02  0.45594000000E+02  0.51100000000E-03 0. -1.
    9900012    2    1    2    0    0 -0.24447443628E+02  0.18776190582E+02 -0.81555128030E+01  0.59301714205E+02  0.49999580858E+02 0.  0.
        -12    1    1    2    0    0  0.24447443628E+02 -0.18776190582E+02  0.81555128030E+01  0.31886285795E+02  0.00000000000E+00 0.  1.
         11    1    3    3    0    0 -0.14816603280E+02  0.13535254719E+02 -0.73877279820E+01  0.21384886674E+02  0.51100000000E-03 0. -1.
        -11    1    3    3    0    0 -0.59259762731E+00 -0.12368789188E+02 -0.10150761623E+02  0.16011748178E+02  0.51100000000E-03 0.  1.
        -12    1    3    3    0    0 -0.90382427205E+01  0.17609725050E+02  0.93829768022E+01  0.21905079354E+02  0.00000000000E+00 0.  1.
</event>
<event>
 7    1  0.6055092E-013  0.5930207E+02  0.7816164E-02  0.1266604E+00
        -11   -1    0    0    0    0  0.00000000000E+00  0.00000000000E+00  0.45593999997E+02  0.45594000000E+02  0.51100000000E-03 0.  1.
         11   -1    0    0    0    0 -0.00000000000E+00 -0.00000000000E+00 -0.45593999997E+02  0.45594000000E+02  0.51100000000E-03 0. -1.
    9900012    2    1    2    0    0 -0.15312643698E+02  0.10304693195E+01 -0.27949478824E+02  0.59302073785E+02  0.50000236645E+02 0.  0.
        -12    1    1    2    0    0  0.15312643698E+02 -0.10304693195E+01  0.27949478824E+02  0.31885926215E+02  0.00000000000E+00 0.  1.
         11    1    3    3    0    0 -0.16433803291E+02 -0.94328523270E+01  0.72821562572E+01  0.20299714127E+02  0.51100000000E-03 0. -1.
        -11    1    3    3    0    0  0.63666057181E+01  0.88519387023E+01 -0.19504107236E+02  0.22345037178E+02  0.51100000000E-03 0.  1.
         12    1    3    3    0    0 -0.52454461248E+01  0.16113829442E+01 -0.15727527846E+02  0.16657322479E+02  0.00000000000E+00 0. -1.
</event>
<event>
 7    1  0.6055092E-013  0.5930197E+02  0.7816164E-02  0.1266605E+00
        -11   -1    0    0    0    0  0.00000000000E+00  0.00000000000E+00  0.45593999997E+02  0.45594000000E+02  0.51100000000E-03 0. -1.
         11   -1    0    0    0    0 -0.00000000000E+00 -0.00000000000E+00 -0.45593999997E+02  0.45594000000E+02  0.51100000000E-03 0.  1.
    9900012    2    1    2    0    0 -0.25427585372E+02  0.57497265520E+01 -0.18360221665E+02  0.59301965551E+02  0.50000039254E+02 0.  0.
        -12    1    1    2    0    0  0.25427585372E+02 -0.57497265520E+01  0.18360221665E+02  0.31886034449E+02  0.00000000000E+00 0.  1.
         11    1    3    3    0    0  0.51649810913E+01 -0.29295805114E+01 -0.18108404761E+02  0.19057119270E+02  0.51100000000E-03 0.  1.
        -11    1    3    3    0    0 -0.26512269130E+02  0.16637478702E+02 -0.28516557028E+00  0.31301556377E+02  0.51100000000E-03 0. -1.
        -12    1    3    3    0    0 -0.40802973337E+01 -0.79581716388E+01  0.33348666420E-01  0.89432899035E+01  0.00000000000E+00 0.  1.
</event>
<event>
 7    1  0.6055092E-013  0.5930200E+02  0.7816164E-02  0.1266605E+00
        -11   -1    0    0    0    0  0.00000000000E+00  0.00000000000E+00  0.45593999997E+02  0.45594000000E+02  0.51100000000E-03 0.  1.
         11   -1    0    0    0    0 -0.00000000000E+00 -0.00000000000E+00 -0.45593999997E+02  0.45594000000E+02  0.51100000000E-03 0. -1.
    9900012    2    1    2    0    0  0.71680819533E+01 -0.60854270871E+01 -0.30468064142E+02  0.59302003790E+02  0.50000108992E+02 0.  0.
        -12    1    1    2    0    0 -0.71680819533E+01  0.60854270871E+01  0.30468064142E+02  0.31885996210E+02  0.00000000000E+00 0.  1.
         11    1    3    3    0    0  0.29062625537E+01 -0.72943572051E+01 -0.27999861503E+02  0.29079997481E+02  0.51100000000E-03 0. -1.
        -11    1    3    3    0    0  0.62591999213E+01  0.11859542460E+02  0.76140431614E+01  0.15420764719E+02  0.51100000000E-03 0.  1.
         12    1    3    3    0    0 -0.19973805217E+01 -0.10650612342E+02 -0.10082245801E+02  0.14801241590E+02  0.00000000000E+00 0. -1.
</event>
<event>
 7    1  0.6055092E-013  0.5930197E+02  0.7816164E-02  0.1266605E+00
        -11   -1    0    0    0    0  0.00000000000E+00  0.00000000000E+00  0.45593999997E+02  0.45594000000E+02  0.51100000000E-03 0.  1.
         11   -1    0    0    0    0 -0.00000000000E+00 -0.00000000000E+00 -0.45593999997E+02  0.45594000000E+02  0.51100000000E-03 0. -1.
    9900012    2    1    2    0    0 -0.57192260681E+00  0.31352485151E+02 -0.57804610370E+01  0.59301966217E+02  0.50000040468E+02 0.  0.
        -12    1    1    2    0    0  0.57192260681E+00 -0.31352485151E+02  0.57804610370E+01  0.31886033783E+02  0.00000000000E+00 0.  1.
         11    1    3    3    0    0  0.13387621489E+02  0.17232689283E+01 -0.56741760771E+01  0.14642210877E+02  0.51100000000E-03 0. -1.
        -11    1    3    3    0    0 -0.16118237383E+02  0.99814709102E+01 -0.11173606764E+02  0.22006290606E+02  0.51100000000E-03 0.  1.
        -12    1    3    3    0    0  0.21586932867E+01  0.19647745312E+02  0.11067321804E+02  0.22653464734E+02  0.00000000000E+00 0.  1.
</event>
<event>
 7    1  0.6055092E-013  0.5930194E+02  0.7816164E-02  0.1266605E+00
        -11   -1    0    0    0    0  0.00000000000E+00  0.00000000000E+00  0.45593999997E+02  0.45594000000E+02  0.51100000000E-03 0.  1.
         11   -1    0    0    0    0 -0.00000000000E+00 -0.00000000000E+00 -0.45593999997E+02  0.45594000000E+02  0.51100000000E-03 0. -1.
    9900012    2    1    2    0    0  0.28991935208E+02  0.12911209446E+02  0.30804602236E+01  0.59301939227E+02  0.49999991244E+02 0.  0.
        -12    1    1    2    0    0 -0.28991935208E+02 -0.12911209446E+02 -0.30804602236E+01  0.31886060773E+02  0.00000000000E+00 0.  1.
         11    1    3    3    0    0  0.46190867207E+01 -0.13014613731E+02 -0.81501091249E+01  0.16035598265E+02  0.51100000000E-03 0. -1.
        -11    1    3    3    0    0 -0.36836280266E+01  0.63645788280E+01  0.37529915750E+01  0.82560235658E+01  0.51100000000E-03 0.  1.
         12    1    3    3    0    0  0.28056476513E+02  0.19561244349E+02  0.74775777736E+01  0.35010317396E+02  0.00000000000E+00 0. -1.
</event>
<event>
 7    1  0.6055092E-013  0.5930194E+02  0.7816164E-02  0.1266605E+00
        -11   -1    0    0    0    0  0.00000000000E+00  0.00000000000E+00  0.45593999997E+02  0.45594000000E+02  0.51100000000E-03 0. -1.
         11   -1    0    0    0    0 -0.00000000000E+00 -0.00000000000E+00 -0.45593999997E+02  0.45594000000E+02  0.51100000000E-03 0.  1.
    9900012    2    1    2    0    0  0.43019501191E+01 -0.36802954249E+01  0.31379447949E+02  0.59301935601E+02  0.49999984632E+02 0.  0.
        -12    1    1    2    0    0 -0.43019501191E+01  0.36802954249E+01 -0.31379447949E+02  0.31886064399E+02  0.00000000000E+00 0.  1.
         11    1    3    3    0    0  0.94592972433E+01  0.28494405724E+01  0.29222040012E+02  0.30846802730E+02  0.51100000000E-03 0. -1.
        -11    1    3    3    0    0  0.26802889538E+01 -0.21986053907E+01 -0.11562779802E+02  0.12071275474E+02  0.51100000000E-03 0.  1.
        -12    1    3    3    0    0 -0.78376360780E+01 -0.43311306066E+01  0.13720187739E+02  0.16383857398E+02  0.00000000000E+00 0.  1.
</event>
<event>
 7    1  0.6055092E-013  0.5930190E+02  0.7816164E-02  0.1266605E+00
        -11   -1    0    0    0    0  0.00000000000E+00  0.00000000000E+00  0.45593999997E+02  0.45594000000E+02  0.51100000000E-03 0.  1.
         11   -1    0    0    0    0 -0.00000000000E+00 -0.00000000000E+00 -0.45593999997E+02  0.45594000000E+02  0.51100000000E-03 0. -1.
    9900012    2    1    2    0    0  0.16252437604E+02 -0.21481824969E+02 -0.17062026522E+02  0.59301901444E+02  0.49999922338E+02 0.  0.
        -12    1    1    2    0    0 -0.16252437604E+02  0.21481824969E+02  0.17062026522E+02  0.31886098556E+02  0.00000000000E+00 0.  1.
         11    1    3    3    0    0  0.66283501182E+01 -0.17210720853E+02 -0.13116624240E+02  0.22631609958E+02  0.51100000000E-03 0. -1.
        -11    1    3    3    0    0 -0.15371612401E+01 -0.13360162538E+02  0.98992340940E+01  0.16698851566E+02  0.51100000000E-03 0.  1.
        -12    1    3    3    0    0  0.11161248726E+02  0.90890584216E+01 -0.13844636376E+02  0.19971439920E+02  0.00000000000E+00 0.  1.
</event>
<event>
 7    1  0.6055092E-013  0.5930195E+02  0.7816164E-02  0.1266605E+00
        -11   -1    0    0    0    0  0.00000000000E+00  0.00000000000E+00  0.45593999997E+02  0.45594000000E+02  0.51100000000E-03 0. -1.
         11   -1    0    0    0    0 -0.00000000000E+00 -0.00000000000E+00 -0.45593999997E+02  0.45594000000E+02  0.51100000000E-03 0.  1.
    9900012    2    1    2    0    0 -0.10077203294E+02 -0.17347420938E+02  0.24783814082E+02  0.59301945370E+02  0.50000002448E+02 0.  0.
        -12    1    1    2    0    0  0.10077203294E+02  0.17347420938E+02 -0.24783814082E+02  0.31886054630E+02  0.00000000000E+00 0.  1.
         11    1    3    3    0    0 -0.69963988728E+00 -0.27398968765E+02  0.28436680121E+02  0.39494781452E+02  0.51100000000E-03 0. -1.
        -11    1    3    3    0    0 -0.12060054051E+02  0.41817525026E+01 -0.91657417047E+00  0.12797346060E+02  0.51100000000E-03 0.  1.
         12    1    3    3    0    0  0.26824906443E+01  0.58697953247E+01 -0.27362918684E+01  0.70098178578E+01  0.00000000000E+00 0. -1.
</event>
<event>
 7    1  0.6055092E-013  0.5930187E+02  0.7816164E-02  0.1266605E+00
        -11   -1    0    0    0    0  0.00000000000E+00  0.00000000000E+00  0.45593999997E+02  0.45594000000E+02  0.51100000000E-03 0.  1.
         11   -1    0    0    0    0 -0.00000000000E+00 -0.00000000000E+00 -0.45593999997E+02  0.45594000000E+02  0.51100000000E-03 0. -1.
    9900012    2    1    2    0    0  0.19024979068E+02  0.24475753906E+02 -0.74641180203E+01  0.59301867973E+02  0.49999861295E+02 0.  0.
        -12    1    1    2    0    0 -0.19024979068E+02 -0.24475753906E+02  0.74641180203E+01  0.31886132027E+02  0.00000000000E+00 0.  1.
         11    1    3    3    0    0  0.14499076462E+02  0.90959248604E+01  0.15121359962E+02  0.22838883394E+02  0.51100000000E-03 0. -1.
        -11    1    3    3    0    0  0.90684296698E+01  0.16628594714E+02 -0.24842370758E+02  0.31239237570E+02  0.51100000000E-03 0.  1.
        -12    1    3    3    0    0 -0.45425270634E+01 -0.12487656689E+01  0.22568927753E+01  0.52237470093E+01  0.00000000000E+00 0.  1.
</event>
<event>
 7    1  0.6055092E-013  0.5930196E+02  0.7816164E-02  0.1266605E+00
        -11   -1    0    0    0    0  0.00000000000E+00  0.00000000000E+00  0.45593999997E+02  0.45594000000E+02  0.51100000000E-03 0.  1.
         11   -1    0    0    0    0 -0.00000000000E+00 -0.00000000000E+00 -0.45593999997E+02  0.45594000000E+02  0.51100000000E-03 0. -1.
    9900012    2    1    2    0    0  0.17157996417E+02  0.60798370882E+01 -0.26179346967E+02  0.59301961242E+02  0.50000031394E+02 0.  0.
        -12    1    1    2    0    0 -0.17157996417E+02 -0.60798370882E+01  0.26179346967E+02  0.31886038758E+02  0.00000000000E+00 0.  1.
         11    1    3    3    0    0 -0.29769517318E+01  0.14120374373E+02 -0.32022183351E+02  0.35123602333E+02  0.51100000000E-03 0. -1.
        -11    1    3    3    0    0  0.16971315365E+02 -0.98232020974E+01  0.36793424144E+01  0.19951401092E+02  0.51100000000E-03 0.  1.
         12    1    3    3    0    0  0.31636327843E+01  0.17826648128E+01  0.21634939697E+01  0.42269578169E+01  0.00000000000E+00 0. -1.
</event>
<event>
 7    1  0.6055092E-013  0.5930194E+02  0.7816164E-02  0.1266605E+00
        -11   -1    0    0    0    0  0.00000000000E+00  0.00000000000E+00  0.45593999997E+02  0.45594000000E+02  0.51100000000E-03 0. -1.
         11   -1    0    0    0    0 -0.00000000000E+00 -0.00000000000E+00 -0.45593999997E+02  0.45594000000E+02  0.51100000000E-03 0.  1.
    9900012    2    1    2    0    0  0.47320776377E+01  0.21750096118E+02  0.22831148141E+02  0.59301944029E+02  0.50000000002E+02 0.  0.
        -12    1    1    2    0    0 -0.47320776377E+01 -0.21750096118E+02 -0.22831148141E+02  0.31886055971E+02  0.00000000000E+00 0.  1.
         11    1    3    3    0    0  0.54392419592E+01  0.64795887190E+01  0.26211806061E+02  0.27543224218E+02  0.51100000000E-03 0. -1.
        -11    1    3    3    0    0  0.70603709288E+01  0.13453082693E+02 -0.12477045134E+02  0.19659881157E+02  0.51100000000E-03 0.  1.
         12    1    3    3    0    0 -0.77675352504E+01  0.18174247065E+01  0.90963872141E+01  0.12098838654E+02  0.00000000000E+00 0. -1.
</event>
<event>
 7    1  0.6055092E-013  0.5930193E+02  0.7816164E-02  0.1266605E+00
        -11   -1    0    0    0    0  0.00000000000E+00  0.00000000000E+00  0.45593999997E+02  0.45594000000E+02  0.51100000000E-03 0. -1.
         11   -1    0    0    0    0 -0.00000000000E+00 -0.00000000000E+00 -0.45593999997E+02  0.45594000000E+02  0.51100000000E-03 0.  1.
    9900012    2    1    2    0    0  0.28145276784E+02 -0.56173731531E+01  0.13892808209E+02  0.59301927706E+02  0.49999970234E+02 0.  0.
        -12    1    1    2    0    0 -0.28145276784E+02  0.56173731531E+01 -0.13892808209E+02  0.31886072294E+02  0.00000000000E+00 0.  1.
         11    1    3    3    0    0 -0.15972736905E+01 -0.92885249908E+01  0.21117418754E+02  0.23125167131E+02  0.51100000000E-03 0. -1.
        -11    1    3    3    0    0  0.15854325312E+02  0.95513826973E+01 -0.96941475373E+01  0.20894138873E+02  0.51100000000E-03 0.  1.
         12    1    3    3    0    0  0.13888225162E+02 -0.58802308596E+01  0.24695369919E+01  0.15282621702E+02  0.00000000000E+00 0. -1.
</event>
<event>
 7    1  0.6055092E-013  0.5930198E+02  0.7816164E-02  0.1266605E+00
        -11   -1    0    0    0    0  0.00000000000E+00  0.00000000000E+00  0.45593999997E+02  0.45594000000E+02  0.51100000000E-03 0.  1.
         11   -1    0    0    0    0 -0.00000000000E+00 -0.00000000000E+00 -0.45593999997E+02  0.45594000000E+02  0.51100000000E-03 0. -1.
    9900012    2    1    2    0    0 -0.16448142466E+02  0.10806135371E+02 -0.25087936706E+02  0.59301976096E+02  0.50000058485E+02 0.  0.
        -12    1    1    2    0    0  0.16448142466E+02 -0.10806135371E+02  0.25087936706E+02  0.31886023904E+02  0.00000000000E+00 0.  1.
         11    1    3    3    0    0  0.31483467499E+01  0.25420277343E+01  0.13214282963E+02  0.13819958999E+02  0.51100000000E-03 0.  1.
        -11    1    3    3    0    0 -0.19056769719E+02  0.64446199068E+01 -0.38631744629E+02  0.43555772192E+02  0.51100000000E-03 0. -1.
         12    1    3    3    0    0 -0.53971949702E+00  0.18194877301E+01  0.32952496015E+00  0.19262449052E+01  0.00000000000E+00 0. -1.
</event>
<event>
 7    1  0.6055092E-013  0.5930193E+02  0.7816164E-02  0.1266605E+00
        -11   -1    0    0    0    0  0.00000000000E+00  0.00000000000E+00  0.45593999997E+02  0.45594000000E+02  0.51100000000E-03 0.  1.
         11   -1    0    0    0    0 -0.00000000000E+00 -0.00000000000E+00 -0.45593999997E+02  0.45594000000E+02  0.51100000000E-03 0. -1.
    9900012    2    1    2    0    0 -0.31779869443E+02  0.64156138774E+00  0.25199339167E+01  0.59301925143E+02  0.49999965558E+02 0.  0.
        -12    1    1    2    0    0  0.31779869443E+02 -0.64156138774E+00 -0.25199339167E+01  0.31886074857E+02  0.00000000000E+00 0.  1.
         11    1    3    3    0    0 -0.20190272040E+01  0.16409584210E+01 -0.62112981015E+01  0.67341992662E+01  0.51100000000E-03 0. -1.
        -11    1    3    3    0    0 -0.57054792808E+01 -0.13594146918E+02  0.18548989440E+02  0.23694267952E+02  0.51100000000E-03 0.  1.
        -12    1    3    3    0    0 -0.24055362959E+02  0.12594749885E+02 -0.98177574217E+01  0.28873457925E+02  0.00000000000E+00 0.  1.
</event>
<event>
 7    1  0.6055092E-013  0.5930195E+02  0.7816164E-02  0.1266605E+00
        -11   -1    0    0    0    0  0.00000000000E+00  0.00000000000E+00  0.45593999997E+02  0.45594000000E+02  0.51100000000E-03 0.  1.
         11   -1    0    0    0    0 -0.00000000000E+00 -0.00000000000E+00 -0.45593999997E+02  0.45594000000E+02  0.51100000000E-03 0. -1.
    9900012    2    1    2    0    0  0.26308085294E+02 -0.21310314058E+01 -0.17890317597E+02  0.59301951163E+02  0.50000013013E+02 0.  0.
        -12    1    1    2    0    0 -0.26308085294E+02  0.21310314058E+01  0.17890317597E+02  0.31886048837E+02  0.00000000000E+00 0.  1.
         11    1    3    3    0    0  0.32667994102E+02 -0.17160382077E+02 -0.11585709514E+02  0.38676933913E+02  0.51100000000E-03 0. -1.
        -11    1    3    3    0    0 -0.15226623389E+01  0.11804175395E+02 -0.82642260965E+01  0.14489806437E+02  0.51100000000E-03 0.  1.
        -12    1    3    3    0    0 -0.48372464689E+01  0.32251752764E+01  0.19596180128E+01  0.61352108131E+01  0.00000000000E+00 0.  1.
</event>
<event>
 7    1  0.6055092E-013  0.5930195E+02  0.7816164E-02  0.1266605E+00
        -11   -1    0    0    0    0  0.00000000000E+00  0.00000000000E+00  0.45593999997E+02  0.45594000000E+02  0.51100000000E-03 0.  1.
         11   -1    0    0    0    0 -0.00000000000E+00 -0.00000000000E+00 -0.45593999997E+02  0.45594000000E+02  0.51100000000E-03 0. -1.
    9900012    2    1    2    0    0  0.74183783132E+01 -0.30781717583E+02  0.37648163530E+01  0.59301947934E+02  0.50000007125E+02 0.  0.
        -12    1    1    2    0    0 -0.74183783132E+01  0.30781717583E+02 -0.37648163530E+01  0.31886052066E+02  0.00000000000E+00 0.  1.
         11    1    3    3    0    0 -0.18758381335E+01 -0.96032330059E+01 -0.12049248830E+02  0.15521766990E+02  0.51100000000E-03 0. -1.
        -11    1    3    3    0    0  0.43197396628E+01 -0.15266015717E+02  0.26324116773E+02  0.30735492688E+02  0.51100000000E-03 0.  1.
        -12    1    3    3    0    0  0.49744767839E+01 -0.59124688600E+01 -0.10510051590E+02  0.13044688257E+02  0.00000000000E+00 0.  1.
</event>
<event>
 7    1  0.6055092E-013  0.5930193E+02  0.7816164E-02  0.1266605E+00
        -11   -1    0    0    0    0  0.00000000000E+00  0.00000000000E+00  0.45593999997E+02  0.45594000000E+02  0.51100000000E-03 0. -1.
         11   -1    0    0    0    0 -0.00000000000E+00 -0.00000000000E+00 -0.45593999997E+02  0.45594000000E+02  0.51100000000E-03 0.  1.
    9900012    2    1    2    0    0  0.19387500487E+02  0.38764176030E+00  0.25311973476E+02  0.59301930275E+02  0.49999974918E+02 0.  0.
        -12    1    1    2    0    0 -0.19387500487E+02 -0.38764176030E+00 -0.25311973476E+02  0.31886069725E+02  0.00000000000E+00 0.  1.
         11    1    3    3    0    0 -0.11581481038E+02  0.11165712360E+02  0.13375893236E+01  0.16142892584E+02  0.51100000000E-03 0. -1.
        -11    1    3    3    0    0  0.26865413090E+02 -0.14187544577E+02  0.21820603509E+02  0.37405555461E+02  0.51100000000E-03 0.  1.
        -12    1    3    3    0    0  0.41035684351E+01  0.34094739773E+01  0.21537806433E+01  0.57534822293E+01  0.00000000000E+00 0.  1.
</event>
<event>
 7    1  0.6055092E-013  0.5930195E+02  0.7816164E-02  0.1266605E+00
        -11   -1    0    0    0    0  0.00000000000E+00  0.00000000000E+00  0.45593999997E+02  0.45594000000E+02  0.51100000000E-03 0.  1.
         11   -1    0    0    0    0 -0.00000000000E+00 -0.00000000000E+00 -0.45593999997E+02  0.45594000000E+02  0.51100000000E-03 0. -1.
    9900012    2    1    2    0    0  0.17034106145E+02 -0.83242318584E+01 -0.25637212328E+02  0.59301948753E+02  0.50000008618E+02 0.  0.
        -12    1    1    2    0    0 -0.17034106145E+02  0.83242318584E+01  0.25637212328E+02  0.31886051247E+02  0.00000000000E+00 0.  1.
         11    1    3    3    0    0  0.15346783848E+02 -0.22298631445E+02 -0.17230239477E+02  0.32087908805E+02  0.51100000000E-03 0. -1.
        -11    1    3    3    0    0  0.63271276890E+01  0.42679384933E+01  0.56620705549E+01  0.95029935813E+01  0.51100000000E-03 0.  1.
        -12    1    3    3    0    0 -0.46398053921E+01  0.97064610937E+01 -0.14069043406E+02  0.17711046367E+02  0.00000000000E+00 0.  1.
</event>
<event>
 7    1  0.6055092E-013  0.5930192E+02  0.7816164E-02  0.1266605E+00
        -11   -1    0    0    0    0  0.00000000000E+00  0.00000000000E+00  0.45593999997E+02  0.45594000000E+02  0.51100000000E-03 0. -1.
         11   -1    0    0    0    0 -0.00000000000E+00 -0.00000000000E+00 -0.45593999997E+02  0.45594000000E+02  0.51100000000E-03 0.  1.
    9900012    2    1    2    0    0  0.75872981326E+01  0.65803135950E+01  0.30263084238E+02  0.59301923296E+02  0.49999962191E+02 0.  0.
        -12    1    1    2    0    0 -0.75872981326E+01 -0.65803135950E+01 -0.30263084238E+02  0.31886076704E+02  0.00000000000E+00 0.  1.
         11    1    3    3    0    0 -0.19875832365E+00  0.12071467558E+02  0.21968004573E+02  0.25066971477E+02  0.51100000000E-03 0. -1.
        -11    1    3    3    0    0 -0.69458870849E+00 -0.33109515572E+01 -0.11821066130E+02  0.12295627613E+02  0.51100000000E-03 0.  1.
         12    1    3    3    0    0  0.84806451647E+01 -0.21802024055E+01  0.20116145796E+02  0.21939324206E+02  0.00000000000E+00 0. -1.
</event>
<event>
 7    1  0.6055092E-013  0.5930196E+02  0.7816164E-02  0.1266605E+00
        -11   -1    0    0    0    0  0.00000000000E+00  0.00000000000E+00  0.45593999997E+02  0.45594000000E+02  0.51100000000E-03 0. -1.
         11   -1    0    0    0    0 -0.00000000000E+00 -0.00000000000E+00 -0.45593999997E+02  0.45594000000E+02  0.51100000000E-03 0.  1.
    9900012    2    1    2    0    0 -0.11346207681E+01  0.20795691880E+02  0.24144795333E+02  0.59301963766E+02  0.50000035998E+02 0.  0.
        -12    1    1    2    0    0  0.11346207681E+01 -0.20795691880E+02 -0.24144795333E+02  0.31886036234E+02  0.00000000000E+00 0.  1.
         11    1    3    3    0    0 -0.10138390566E+02  0.15970378867E+02  0.34366988644E+02  0.39229196692E+02  0.51100000000E-03 0. -1.
        -11    1    3    3    0    0  0.90947201906E+01 -0.25680124608E+01 -0.79156853856E+01  0.12327477387E+02  0.51100000000E-03 0.  1.
        -12    1    3    3    0    0 -0.90950393188E-01  0.73933254730E+01 -0.23065079255E+01  0.77452896869E+01  0.00000000000E+00 0.  1.
</event>
<event>
 7    1  0.6055092E-013  0.5930195E+02  0.7816164E-02  0.1266605E+00
        -11   -1    0    0    0    0  0.00000000000E+00  0.00000000000E+00  0.45593999997E+02  0.45594000000E+02  0.51100000000E-03 0. -1.
         11   -1    0    0    0    0 -0.00000000000E+00 -0.00000000000E+00 -0.45593999997E+02  0.45594000000E+02  0.51100000000E-03 0.  1.
    9900012    2    1    2    0    0 -0.62651483734E+00  0.12751986916E+02  0.29218390256E+02  0.59301952576E+02  0.50000015591E+02 0.  0.
        -12    1    1    2    0    0  0.62651483734E+00 -0.12751986916E+02 -0.29218390256E+02  0.31886047424E+02  0.00000000000E+00 0.  1.
         11    1    3    3    0    0 -0.16352659735E+02 -0.12820602621E+02  0.78193887467E+01  0.22201805616E+02  0.51100000000E-03 0. -1.
        -11    1    3    3    0    0  0.11653505202E+02  0.15594311219E+02  0.12626538736E+02  0.23203797246E+02  0.51100000000E-03 0.  1.
         12    1    3    3    0    0  0.40726396956E+01  0.99782783185E+01  0.87724627730E+01  0.13896349715E+02  0.00000000000E+00 0. -1.
</event>
<event>
 7    1  0.6055092E-013  0.5930194E+02  0.7816164E-02  0.1266605E+00
        -11   -1    0    0    0    0  0.00000000000E+00  0.00000000000E+00  0.45593999997E+02  0.45594000000E+02  0.51100000000E-03 0. -1.
         11   -1    0    0    0    0 -0.00000000000E+00 -0.00000000000E+00 -0.45593999997E+02  0.45594000000E+02  0.51100000000E-03 0.  1.
    9900012    2    1    2    0    0 -0.24049455248E+02  0.20708993756E+02  0.30792741402E+01  0.59301942713E+02  0.49999997601E+02 0.  0.
        -12    1    1    2    0    0  0.24049455248E+02 -0.20708993756E+02 -0.30792741402E+01  0.31886057287E+02  0.00000000000E+00 0.  1.
         11    1    3    3    0    0 -0.13875444334E+02 -0.78154869995E+01  0.17541064382E+02  0.23691743972E+02  0.51100000000E-03 0. -1.
        -11    1    3    3    0    0 -0.11768909456E+02  0.28607164868E+02 -0.13947135760E+02  0.33932281205E+02  0.51100000000E-03 0.  1.
         12    1    3    3    0    0  0.15948985423E+01 -0.82684112732E-01 -0.51465448121E+00  0.16779175361E+01  0.00000000000E+00 0. -1.
</event>
<event>
 7    1  0.6055092E-013  0.5930196E+02  0.7816164E-02  0.1266605E+00
        -11   -1    0    0    0    0  0.00000000000E+00  0.00000000000E+00  0.45593999997E+02  0.45594000000E+02  0.51100000000E-03 0.  1.
         11   -1    0    0    0    0 -0.00000000000E+00 -0.00000000000E+00 -0.45593999997E+02  0.45594000000E+02  0.51100000000E-03 0. -1.
    9900012    2    1    2    0    0  0.26962621422E+02 -0.81623572354E+01 -0.14936959081E+02  0.59301956405E+02  0.50000022573E+02 0.  0.
        -12    1    1    2    0    0 -0.26962621422E+02  0.81623572354E+01  0.14936959081E+02  0.31886043595E+02  0.00000000000E+00 0.  1.
         11    1    3    3    0    0  0.14039181509E+02 -0.17723352661E+02 -0.22317645821E+02  0.31769374596E+02  0.51100000000E-03 0. -1.
        -11    1    3    3    0    0  0.30748849157E+01  0.12437350261E+02 -0.27612529676E+01  0.13105995459E+02  0.51100000000E-03 0.  1.
         12    1    3    3    0    0  0.98485549967E+01 -0.28763548354E+01  0.10141939707E+02  0.14426586349E+02  0.00000000000E+00 0. -1.
</event>
<event>
 7    1  0.6055092E-013  0.5930192E+02  0.7816164E-02  0.1266605E+00
        -11   -1    0    0    0    0  0.00000000000E+00  0.00000000000E+00  0.45593999997E+02  0.45594000000E+02  0.51100000000E-03 0.  1.
         11   -1    0    0    0    0 -0.00000000000E+00 -0.00000000000E+00 -0.45593999997E+02  0.45594000000E+02  0.51100000000E-03 0. -1.
    9900012    2    1    2    0    0  0.18951463930E+02  0.19412731153E+02 -0.16754393660E+02  0.59301924311E+02  0.49999964042E+02 0.  0.
        -12    1    1    2    0    0 -0.18951463930E+02 -0.19412731153E+02  0.16754393660E+02  0.31886075689E+02  0.00000000000E+00 0.  1.
         11    1    3    3    0    0  0.37848109502E+01  0.20035412819E+02  0.36372937684E+01  0.20711650513E+02  0.51100000000E-03 0.  1.
        -11    1    3    3    0    0  0.62448849080E+00 -0.13329150302E+02 -0.98802222452E+01  0.16603464263E+02  0.51100000000E-03 0. -1.
         12    1    3    3    0    0  0.14542164489E+02  0.12706468636E+02 -0.10511465183E+02  0.21986809535E+02  0.00000000000E+00 0. -1.
</event>
<event>
 7    1  0.6055092E-013  0.5930198E+02  0.7816164E-02  0.1266605E+00
        -11   -1    0    0    0    0  0.00000000000E+00  0.00000000000E+00  0.45593999997E+02  0.45594000000E+02  0.51100000000E-03 0.  1.
         11   -1    0    0    0    0 -0.00000000000E+00 -0.00000000000E+00 -0.45593999997E+02  0.45594000000E+02  0.51100000000E-03 0. -1.
    9900012    2    1    2    0    0  0.26603251825E+02  0.17085488998E+02  0.41317700281E+01  0.59301976956E+02  0.50000060054E+02 0.  0.
        -12    1    1    2    0    0 -0.26603251825E+02 -0.17085488998E+02 -0.41317700281E+01  0.31886023044E+02  0.00000000000E+00 0.  1.
         11    1    3    3    0    0  0.13891043985E+02  0.49248954606E+01 -0.20192598883E+02  0.24999134948E+02  0.51100000000E-03 0. -1.
        -11    1    3    3    0    0 -0.11371237098E+01  0.94497503457E+01  0.13497944655E+02  0.16516214521E+02  0.51100000000E-03 0.  1.
         12    1    3    3    0    0  0.13849331550E+02  0.27108431920E+01  0.10826424255E+02  0.17786627487E+02  0.00000000000E+00 0. -1.
</event>
<event>
 7    1  0.6055092E-013  0.5930195E+02  0.7816164E-02  0.1266605E+00
        -11   -1    0    0    0    0  0.00000000000E+00  0.00000000000E+00  0.45593999997E+02  0.45594000000E+02  0.51100000000E-03 0. -1.
         11   -1    0    0    0    0 -0.00000000000E+00 -0.00000000000E+00 -0.45593999997E+02  0.45594000000E+02  0.51100000000E-03 0.  1.
    9900012    2    1    2    0    0  0.29987841697E+02 -0.10804676399E+02  0.84180026128E+00  0.59301948043E+02  0.50000007322E+02 0.  0.
        -12    1    1    2    0    0 -0.29987841697E+02  0.10804676399E+02 -0.84180026128E+00  0.31886051957E+02  0.00000000000E+00 0.  1.
         11    1    3    3    0    0  0.32351532982E+02 -0.15496959041E+02 -0.16522431285E+02  0.39493900309E+02  0.51100000000E-03 0.  1.
        -11    1    3    3    0    0 -0.42134976283E+01  0.10396689624E+01  0.13491450180E+02  0.14172286408E+02  0.51100000000E-03 0. -1.
        -12    1    3    3    0    0  0.18498063438E+01  0.36526136800E+01  0.38727813663E+01  0.56357613254E+01  0.00000000000E+00 0.  1.
</event>
<event>
 7    1  0.6055092E-013  0.5930194E+02  0.7816164E-02  0.1266605E+00
        -11   -1    0    0    0    0  0.00000000000E+00  0.00000000000E+00  0.45593999997E+02  0.45594000000E+02  0.51100000000E-03 0. -1.
         11   -1    0    0    0    0 -0.00000000000E+00 -0.00000000000E+00 -0.45593999997E+02  0.45594000000E+02  0.51100000000E-03 0.  1.
    9900012    2    1    2    0    0 -0.29637980432E+02  0.94982341265E+01  0.69350315008E+01  0.59301937253E+02  0.49999987644E+02 0.  0.
        -12    1    1    2    0    0  0.29637980432E+02 -0.94982341265E+01 -0.69350315008E+01  0.31886062747E+02  0.00000000000E+00 0.  1.
         11    1    3    3    0    0 -0.36910896463E+01 -0.12195946140E+02 -0.68315896571E+01  0.14458072573E+02  0.51100000000E-03 0.  1.
        -11    1    3    3    0    0 -0.37158356121E+00  0.10739510253E+02 -0.44038886144E+01  0.11613328119E+02  0.51100000000E-03 0. -1.
         12    1    3    3    0    0 -0.25575307224E+02  0.10954670013E+02  0.18170509772E+02  0.33230536560E+02  0.00000000000E+00 0. -1.
</event>
<event>
 7    1  0.6055092E-013  0.5930189E+02  0.7816164E-02  0.1266605E+00
        -11   -1    0    0    0    0  0.00000000000E+00  0.00000000000E+00  0.45593999997E+02  0.45594000000E+02  0.51100000000E-03 0. -1.
         11   -1    0    0    0    0 -0.00000000000E+00 -0.00000000000E+00 -0.45593999997E+02  0.45594000000E+02  0.51100000000E-03 0.  1.
    9900012    2    1    2    0    0  0.15805085289E+02 -0.24947998701E+02  0.12021681593E+02  0.59301887215E+02  0.49999896387E+02 0.  0.
        -12    1    1    2    0    0 -0.15805085289E+02  0.24947998701E+02 -0.12021681593E+02  0.31886112785E+02  0.00000000000E+00 0.  1.
         11    1    3    3    0    0  0.18869402303E+02  0.19705289055E+01  0.21773478747E+02  0.28879433936E+02  0.51100000000E-03 0. -1.
        -11    1    3    3    0    0 -0.24967206920E+01 -0.12666686293E+02 -0.97182091882E+01  0.16159274301E+02  0.51100000000E-03 0.  1.
         12    1    3    3    0    0 -0.56759632180E+00 -0.14251841314E+02 -0.33587965282E-01  0.14263178978E+02  0.00000000000E+00 0. -1.
</event>
<event>
 7    1  0.6055092E-013  0.5930198E+02  0.7816164E-02  0.1266605E+00
        -11   -1    0    0    0    0  0.00000000000E+00  0.00000000000E+00  0.45593999997E+02  0.45594000000E+02  0.51100000000E-03 0.  1.
         11   -1    0    0    0    0 -0.00000000000E+00 -0.00000000000E+00 -0.45593999997E+02  0.45594000000E+02  0.51100000000E-03 0. -1.
    9900012    2    1    2    0    0 -0.31215538792E+00 -0.50722861923E+01 -0.31478451690E+02  0.59301977215E+02  0.50000060526E+02 0.  0.
        -12    1    1    2    0    0  0.31215538792E+00  0.50722861923E+01  0.31478451690E+02  0.31886022785E+02  0.00000000000E+00 0.  1.
         11    1    3    3    0    0 -0.17386634875E+02  0.24857404518E+00 -0.27329484780E+02  0.32392245985E+02  0.51100000000E-03 0. -1.
        -11    1    3    3    0    0  0.18571462408E+02 -0.93821159808E+01 -0.67325398952E+01  0.21868937102E+02  0.51100000000E-03 0.  1.
         12    1    3    3    0    0 -0.14969829210E+01  0.40612557433E+01  0.25835729850E+01  0.50407941286E+01  0.00000000000E+00 0. -1.
</event>
<event>
 7    1  0.6666190E-013  0.5930194E+02  0.7816164E-02  0.1266605E+00
        -11   -1    0    0    0    0  0.00000000000E+00  0.00000000000E+00  0.45593999997E+02  0.45594000000E+02  0.51100000000E-03 0.  1.
         11   -1    0    0    0    0 -0.00000000000E+00 -0.00000000000E+00 -0.45593999997E+02  0.45594000000E+02  0.51100000000E-03 0. -1.
    9900012    2    1    2    0    0 -0.22768386770E+02  0.12036431815E+02 -0.18800144140E+02  0.59301944323E+02  0.50000000539E+02 0.  0.
        -12    1    1    2    0    0  0.22768386770E+02 -0.12036431815E+02  0.18800144140E+02  0.31886055677E+02  0.00000000000E+00 0.  1.
         11    1    3    3    0    0 -0.15616670878E+02  0.63473836022E+01 -0.23524184626E+02  0.28940576194E+02  0.51100000000E-03 0. -1.
        -11    1    3    3    0    0 -0.11347635185E+02  0.14945576987E+02  0.68531794178E+01  0.19977616579E+02  0.51100000000E-03 0.  1.
        -12    1    3    3    0    0  0.41959192931E+01 -0.92565287741E+01 -0.21291389327E+01  0.10383751550E+02  0.00000000000E+00 0.  1.
</event>
<event>
 7    1  0.6055092E-013  0.5930195E+02  0.7816164E-02  0.1266605E+00
        -11   -1    0    0    0    0  0.00000000000E+00  0.00000000000E+00  0.45593999997E+02  0.45594000000E+02  0.51100000000E-03 0. -1.
         11   -1    0    0    0    0 -0.00000000000E+00 -0.00000000000E+00 -0.45593999997E+02  0.45594000000E+02  0.51100000000E-03 0.  1.
    9900012    2    1    2    0    0  0.82565798863E+01  0.26729898149E+02  0.15299072981E+02  0.59301949750E+02  0.50000010435E+02 0.  0.
        -12    1    1    2    0    0 -0.82565798863E+01 -0.26729898149E+02 -0.15299072981E+02  0.31886050250E+02  0.00000000000E+00 0.  1.
         11    1    3    3    0    0  0.22893490088E+01  0.26078098330E+02  0.26266474896E+02  0.37084174996E+02  0.51100000000E-03 0. -1.
        -11    1    3    3    0    0  0.11430906216E+02  0.26647397687E+00 -0.12075111467E+02  0.16629640480E+02  0.51100000000E-03 0.  1.
        -12    1    3    3    0    0 -0.54636753387E+01  0.38532584206E+00  0.11077095523E+01  0.55881342739E+01  0.00000000000E+00 0.  1.
</event>
<event>
 7    1  0.6055092E-013  0.5930194E+02  0.7816164E-02  0.1266605E+00
        -11   -1    0    0    0    0  0.00000000000E+00  0.00000000000E+00  0.45593999997E+02  0.45594000000E+02  0.51100000000E-03 0.  1.
         11   -1    0    0    0    0 -0.00000000000E+00 -0.00000000000E+00 -0.45593999997E+02  0.45594000000E+02  0.51100000000E-03 0. -1.
    9900012    2    1    2    0    0  0.61307961994E+01  0.31289528138E+02 -0.31583123592E+00  0.59301937488E+02  0.49999988073E+02 0.  0.
        -12    1    1    2    0    0 -0.61307961994E+01 -0.31289528138E+02  0.31583123592E+00  0.31886062512E+02  0.00000000000E+00 0.  1.
         11    1    3    3    0    0 -0.55075969668E+01  0.14139776327E+02 -0.88796830762E+01  0.17581685662E+02  0.51100000000E-03 0. -1.
        -11    1    3    3    0    0  0.22437183571E+02  0.18855590633E+02  0.30226888071E+01  0.29463488466E+02  0.51100000000E-03 0.  1.
        -12    1    3    3    0    0 -0.10798790404E+02 -0.17058388229E+01  0.55411630332E+01  0.12256763359E+02  0.00000000000E+00 0.  1.
</event>
<event>
 7    1  0.6055092E-013  0.5930195E+02  0.7816164E-02  0.1266605E+00
        -11   -1    0    0    0    0  0.00000000000E+00  0.00000000000E+00  0.45593999997E+02  0.45594000000E+02  0.51100000000E-03 0.  1.
         11   -1    0    0    0    0 -0.00000000000E+00 -0.00000000000E+00 -0.45593999997E+02  0.45594000000E+02  0.51100000000E-03 0. -1.
    9900012    2    1    2    0    0 -0.17569652490E+02 -0.10744403040E+02 -0.24343078456E+02  0.59301947343E+02  0.50000006047E+02 0.  0.
        -12    1    1    2    0    0  0.17569652490E+02  0.10744403040E+02  0.24343078456E+02  0.31886052657E+02  0.00000000000E+00 0.  1.
         11    1    3    3    0    0  0.10384258304E+02  0.46860015515E+01 -0.14855789805E+02  0.18721269243E+02  0.51100000000E-03 0. -1.
        -11    1    3    3    0    0 -0.22641443105E+02 -0.12969501327E+02  0.35076930646E+01  0.26327681657E+02  0.51100000000E-03 0.  1.
         12    1    3    3    0    0 -0.53124676890E+01 -0.24609032650E+01 -0.12994981716E+02  0.14252996444E+02  0.00000000000E+00 0. -1.
</event>
<event>
 7    1  0.6055092E-013  0.5930195E+02  0.7816164E-02  0.1266605E+00
        -11   -1    0    0    0    0  0.00000000000E+00  0.00000000000E+00  0.45593999997E+02  0.45594000000E+02  0.51100000000E-03 0. -1.
         11   -1    0    0    0    0 -0.00000000000E+00 -0.00000000000E+00 -0.45593999997E+02  0.45594000000E+02  0.51100000000E-03 0.  1.
    9900012    2    1    2    0    0  0.10286210293E+02 -0.21632458647E+02  0.21046397071E+02  0.59301949461E+02  0.50000009909E+02 0.  0.
        -12    1    1    2    0    0 -0.10286210293E+02  0.21632458647E+02 -0.21046397071E+02  0.31886050539E+02  0.00000000000E+00 0.  1.
         11    1    3    3    0    0 -0.37236990880E+01  0.41236311643E+01 -0.11987718419E+01  0.56839531197E+01  0.51100000000E-03 0. -1.
        -11    1    3    3    0    0  0.22511486652E+02 -0.60592031675E+01  0.22160229724E+02  0.32164526360E+02  0.51100000000E-03 0.  1.
        -12    1    3    3    0    0 -0.85015772713E+01 -0.19696886644E+02  0.84939188745E-01  0.21453469981E+02  0.00000000000E+00 0.  1.
</event>
<event>
 7    1  0.6055092E-013  0.5930194E+02  0.7816164E-02  0.1266605E+00
        -11   -1    0    0    0    0  0.00000000000E+00  0.00000000000E+00  0.45593999997E+02  0.45594000000E+02  0.51100000000E-03 0.  1.
         11   -1    0    0    0    0 -0.00000000000E+00 -0.00000000000E+00 -0.45593999997E+02  0.45594000000E+02  0.51100000000E-03 0. -1.
    9900012    2    1    2    0    0  0.48584676736E+01  0.31486695059E+02 -0.13055018333E+01  0.59301937074E+02  0.49999987318E+02 0.  0.
        -12    1    1    2    0    0 -0.48584676736E+01 -0.31486695059E+02  0.13055018333E+01  0.31886062926E+02  0.00000000000E+00 0.  1.
         11    1    3    3    0    0  0.81777791049E+01  0.14573586320E+02 -0.89522585102E+01  0.18958070102E+02  0.51100000000E-03 0. -1.
        -11    1    3    3    0    0 -0.14746700286E+02 -0.15699878910E+01  0.10854513375E+02  0.18377989340E+02  0.51100000000E-03 0.  1.
        -12    1    3    3    0    0  0.11427388855E+02  0.18483096630E+02 -0.32077566975E+01  0.21965877632E+02  0.00000000000E+00 0.  1.
</event>
<event>
 7    1  0.6055092E-013  0.5930198E+02  0.7816164E-02  0.1266605E+00
        -11   -1    0    0    0    0  0.00000000000E+00  0.00000000000E+00  0.45593999997E+02  0.45594000000E+02  0.51100000000E-03 0.  1.
         11   -1    0    0    0    0 -0.00000000000E+00 -0.00000000000E+00 -0.45593999997E+02  0.45594000000E+02  0.51100000000E-03 0. -1.
    9900012    2    1    2    0    0 -0.28037756880E+02 -0.42300760005E+01 -0.14584552910E+02  0.59301975830E+02  0.50000057999E+02 0.  0.
        -12    1    1    2    0    0  0.28037756880E+02  0.42300760005E+01  0.14584552910E+02  0.31886024170E+02  0.00000000000E+00 0.  1.
         11    1    3    3    0    0 -0.21965894721E+02 -0.12754284606E+02 -0.36941325942E+01  0.25667468176E+02  0.51100000000E-03 0. -1.
        -11    1    3    3    0    0 -0.29831647337E+01  0.19334913709E+02 -0.10891685357E+02  0.22391225294E+02  0.51100000000E-03 0.  1.
        -12    1    3    3    0    0 -0.30886974253E+01 -0.10810705103E+02  0.12650411670E-02  0.11243282360E+02  0.00000000000E+00 0.  1.
</event>
<event>
 7    1  0.6055092E-013  0.5930196E+02  0.7816164E-02  0.1266605E+00
        -11   -1    0    0    0    0  0.00000000000E+00  0.00000000000E+00  0.45593999997E+02  0.45594000000E+02  0.51100000000E-03 0. -1.
         11   -1    0    0    0    0 -0.00000000000E+00 -0.00000000000E+00 -0.45593999997E+02  0.45594000000E+02  0.51100000000E-03 0.  1.
    9900012    2    1    2    0    0  0.99449219069E+01  0.12019209871E+02  0.27809296535E+02  0.59301955224E+02  0.50000020420E+02 0.  0.
        -12    1    1    2    0    0 -0.99449219069E+01 -0.12019209871E+02 -0.27809296535E+02  0.31886044776E+02  0.00000000000E+00 0.  1.
         11    1    3    3    0    0  0.55990571475E+01  0.15881014512E+02  0.60647516845E+01  0.17897968492E+02  0.51100000000E-03 0. -1.
        -11    1    3    3    0    0  0.52603014939E+01 -0.19063527289E+02  0.14604187028E+02  0.24583960696E+02  0.51100000000E-03 0.  1.
        -12    1    3    3    0    0 -0.91443673449E+00  0.15201722649E+02  0.71403578227E+01  0.16820026036E+02  0.00000000000E+00 0.  1.
</event>
<event>
 7    1  0.6055092E-013  0.5930199E+02  0.7816164E-02  0.1266605E+00
        -11   -1    0    0    0    0  0.00000000000E+00  0.00000000000E+00  0.45593999997E+02  0.45594000000E+02  0.51100000000E-03 0. -1.
         11   -1    0    0    0    0 -0.00000000000E+00 -0.00000000000E+00 -0.45593999997E+02  0.45594000000E+02  0.51100000000E-03 0.  1.
    9900012    2    1    2    0    0 -0.20971366322E+02 -0.66294791012E+01 -0.23086136192E+02  0.59301986093E+02  0.50000076718E+02 0.  0.
        -12    1    1    2    0    0  0.20971366322E+02  0.66294791012E+01  0.23086136192E+02  0.31886013907E+02  0.00000000000E+00 0.  1.
         11    1    3    3    0    0 -0.49649644649E+01 -0.50682118907E+01  0.69146582635E+01  0.99070754044E+01  0.51100000000E-03 0. -1.
        -11    1    3    3    0    0  0.72694162052E+01 -0.95708984636E+01 -0.18887341920E+02  0.22387009502E+02  0.51100000000E-03 0.  1.
        -12    1    3    3    0    0 -0.23275818062E+02  0.80096312530E+01 -0.11113452536E+02  0.27007901187E+02  0.00000000000E+00 0.  1.
</event>
<event>
 7    1  0.6055092E-013  0.5930190E+02  0.7816164E-02  0.1266605E+00
        -11   -1    0    0    0    0  0.00000000000E+00  0.00000000000E+00  0.45593999997E+02  0.45594000000E+02  0.51100000000E-03 0.  1.
         11   -1    0    0    0    0 -0.00000000000E+00 -0.00000000000E+00 -0.45593999997E+02  0.45594000000E+02  0.51100000000E-03 0. -1.
    9900012    2    1    2    0    0 -0.32347178472E+01 -0.28712891702E+02  0.13484417476E+02  0.59301904847E+02  0.49999928543E+02 0.  0.
        -12    1    1    2    0    0  0.32347178472E+01  0.28712891702E+02 -0.13484417476E+02  0.31886095153E+02  0.00000000000E+00 0.  1.
         11    1    3    3    0    0  0.11408645109E+02 -0.23987881873E+02  0.65584920275E+01  0.27360363264E+02  0.51100000000E-03 0.  1.
        -11    1    3    3    0    0 -0.15604674563E+02  0.57904777668E+01  0.11708067458E+02  0.20349799627E+02  0.51100000000E-03 0. -1.
         12    1    3    3    0    0  0.96131160614E+00 -0.10515487596E+02 -0.47821420097E+01  0.11591741956E+02  0.00000000000E+00 0. -1.
</event>
<event>
 7    1  0.6055092E-013  0.5930194E+02  0.7816164E-02  0.1266605E+00
        -11   -1    0    0    0    0  0.00000000000E+00  0.00000000000E+00  0.45593999997E+02  0.45594000000E+02  0.51100000000E-03 0.  1.
         11   -1    0    0    0    0 -0.00000000000E+00 -0.00000000000E+00 -0.45593999997E+02  0.45594000000E+02  0.51100000000E-03 0. -1.
    9900012    2    1    2    0    0 -0.84674859754E+01  0.11081474474E+02 -0.28674443243E+02  0.59301935794E+02  0.49999984983E+02 0.  0.
        -12    1    1    2    0    0  0.84674859754E+01 -0.11081474474E+02  0.28674443243E+02  0.31886064206E+02  0.00000000000E+00 0.  1.
         11    1    3    3    0    0  0.20254524333E+01  0.15939695869E+02 -0.18677761032E+01  0.16176061009E+02  0.51100000000E-03 0. -1.
        -11    1    3    3    0    0 -0.15641199732E+02 -0.10662974136E+01 -0.11383834164E+00  0.15677916911E+02  0.51100000000E-03 0.  1.
         12    1    3    3    0    0  0.51482613238E+01 -0.37919239810E+01 -0.26692828798E+02  0.27447957873E+02  0.00000000000E+00 0. -1.
</event>
<event>
 7    1  0.6055092E-013  0.5930195E+02  0.7816164E-02  0.1266605E+00
        -11   -1    0    0    0    0  0.00000000000E+00  0.00000000000E+00  0.45593999997E+02  0.45594000000E+02  0.51100000000E-03 0.  1.
         11   -1    0    0    0    0 -0.00000000000E+00 -0.00000000000E+00 -0.45593999997E+02  0.45594000000E+02  0.51100000000E-03 0. -1.
    9900012    2    1    2    0    0  0.20605955995E+02  0.23169088776E+02  0.74369336041E+01  0.59301951662E+02  0.50000013923E+02 0.  0.
        -12    1    1    2    0    0 -0.20605955995E+02 -0.23169088776E+02 -0.74369336041E+01  0.31886048338E+02  0.00000000000E+00 0.  1.
         11    1    3    3    0    0  0.27607226773E+02  0.17639899854E+02 -0.85705745240E+01  0.33864137149E+02  0.51100000000E-03 0. -1.
        -11    1    3    3    0    0 -0.12833019433E+02  0.29485501931E+01  0.12518912125E+02  0.18168750564E+02  0.51100000000E-03 0.  1.
        -12    1    3    3    0    0  0.58317486544E+01  0.25806387297E+01  0.34885960029E+01  0.72690639489E+01  0.00000000000E+00 0.  1.
</event>
<event>
 7    1  0.6055092E-013  0.5930195E+02  0.7816164E-02  0.1266605E+00
        -11   -1    0    0    0    0  0.00000000000E+00  0.00000000000E+00  0.45593999997E+02  0.45594000000E+02  0.51100000000E-03 0.  1.
         11   -1    0    0    0    0 -0.00000000000E+00 -0.00000000000E+00 -0.45593999997E+02  0.45594000000E+02  0.51100000000E-03 0. -1.
    9900012    2    1    2    0    0 -0.12863345751E+02 -0.25196627985E+01 -0.29067265302E+02  0.59301948556E+02  0.50000008259E+02 0.  0.
        -12    1    1    2    0    0  0.12863345751E+02  0.25196627985E+01  0.29067265302E+02  0.31886051444E+02  0.00000000000E+00 0.  1.
         11    1    3    3    0    0  0.13717511519E+01 -0.11494672597E+02 -0.39720126962E+01  0.12238712532E+02  0.51100000000E-03 0. -1.
        -11    1    3    3    0    0  0.63939646351E+01  0.10515489188E+02 -0.23235290602E+02  0.26293288616E+02  0.51100000000E-03 0.  1.
        -12    1    3    3    0    0 -0.20629061538E+02 -0.15404793897E+01 -0.18599620039E+01  0.20769947408E+02  0.00000000000E+00 0.  1.
</event>
<event>
 7    1  0.6055092E-013  0.5930189E+02  0.7816164E-02  0.1266605E+00
        -11   -1    0    0    0    0  0.00000000000E+00  0.00000000000E+00  0.45593999997E+02  0.45594000000E+02  0.51100000000E-03 0. -1.
         11   -1    0    0    0    0 -0.00000000000E+00 -0.00000000000E+00 -0.45593999997E+02  0.45594000000E+02  0.51100000000E-03 0.  1.
    9900012    2    1    2    0    0  0.20379573029E+01 -0.36397498639E+01  0.31612065673E+02  0.59301894168E+02  0.49999909067E+02 0.  0.
        -12    1    1    2    0    0 -0.20379573029E+01  0.36397498639E+01 -0.31612065673E+02  0.31886105832E+02  0.00000000000E+00 0.  1.
         11    1    3    3    0    0 -0.54004616000E+01 -0.15643777972E+02 -0.13481838342E+01  0.16604528739E+02  0.51100000000E-03 0. -1.
        -11    1    3    3    0    0  0.17655752642E+01  0.90826646155E+01  0.13084641513E+00  0.92536032753E+01  0.51100000000E-03 0.  1.
         12    1    3    3    0    0  0.56728436387E+01  0.29213634927E+01  0.32829403092E+02  0.33443762153E+02  0.00000000000E+00 0. -1.
</event>
<event>
 7    1  0.6055092E-013  0.5930194E+02  0.7816164E-02  0.1266605E+00
        -11   -1    0    0    0    0  0.00000000000E+00  0.00000000000E+00  0.45593999997E+02  0.45594000000E+02  0.51100000000E-03 0.  1.
         11   -1    0    0    0    0 -0.00000000000E+00 -0.00000000000E+00 -0.45593999997E+02  0.45594000000E+02  0.51100000000E-03 0. -1.
    9900012    2    1    2    0    0 -0.31411674092E+02 -0.12333395034E+01 -0.53391390995E+01  0.59301940320E+02  0.49999993238E+02 0.  0.
        -12    1    1    2    0    0  0.31411674092E+02  0.12333395034E+01  0.53391390995E+01  0.31886059680E+02  0.00000000000E+00 0.  1.
         11    1    3    3    0    0 -0.90828532371E+01 -0.21794128963E+02 -0.90916215337E+01  0.25300985407E+02  0.51100000000E-03 0. -1.
        -11    1    3    3    0    0 -0.18200073000E+02  0.10106424803E+02 -0.27765194332E+01  0.21002179409E+02  0.51100000000E-03 0.  1.
         12    1    3    3    0    0 -0.41287478551E+01  0.10454364657E+02  0.65290018673E+01  0.12998775504E+02  0.00000000000E+00 0. -1.
</event>
<event>
 7    1  0.6055092E-013  0.5930195E+02  0.7816164E-02  0.1266605E+00
        -11   -1    0    0    0    0  0.00000000000E+00  0.00000000000E+00  0.45593999997E+02  0.45594000000E+02  0.51100000000E-03 0. -1.
         11   -1    0    0    0    0 -0.00000000000E+00 -0.00000000000E+00 -0.45593999997E+02  0.45594000000E+02  0.51100000000E-03 0.  1.
    9900012    2    1    2    0    0 -0.24551540676E+02 -0.97919922377E+01  0.17834201703E+02  0.59301952708E+02  0.50000015830E+02 0.  0.
        -12    1    1    2    0    0  0.24551540676E+02  0.97919922377E+01 -0.17834201703E+02  0.31886047292E+02  0.00000000000E+00 0.  1.
         11    1    3    3    0    0 -0.42893227137E+01  0.54705663358E+01  0.18070810644E+01  0.71826824802E+01  0.51100000000E-03 0. -1.
        -11    1    3    3    0    0 -0.26875798281E+02 -0.25313096205E+02  0.15600510293E+02  0.40080385408E+02  0.51100000000E-03 0.  1.
        -12    1    3    3    0    0  0.66135803187E+01  0.10050537632E+02  0.42661034550E+00  0.12038884820E+02  0.00000000000E+00 0.  1.
</event>
<event>
 7    1  0.6055092E-013  0.5930195E+02  0.7816164E-02  0.1266605E+00
        -11   -1    0    0    0    0  0.00000000000E+00  0.00000000000E+00  0.45593999997E+02  0.45594000000E+02  0.51100000000E-03 0.  1.
         11   -1    0    0    0    0 -0.00000000000E+00 -0.00000000000E+00 -0.45593999997E+02  0.45594000000E+02  0.51100000000E-03 0. -1.
    9900012    2    1    2    0    0 -0.30388203501E+02  0.34129503771E+00 -0.96519746084E+01  0.59301952767E+02  0.50000015938E+02 0.  0.
        -12    1    1    2    0    0  0.30388203501E+02 -0.34129503771E+00  0.96519746084E+01  0.31886047233E+02  0.00000000000E+00 0.  1.
         11    1    3    3    0    0 -0.15019199179E+01 -0.92910923785E+01  0.26808545085E+01  0.97860687807E+01  0.51100000000E-03 0. -1.
        -11    1    3    3    0    0 -0.28958103861E+02  0.58462166649E+01 -0.23484029579E+02  0.37739232558E+02  0.51100000000E-03 0.  1.
        -12    1    3    3    0    0  0.71820277603E-01  0.37861707513E+01  0.11151200462E+02  0.11776651428E+02  0.00000000000E+00 0.  1.
</event>
<event>
 7    1  0.6055092E-013  0.5930194E+02  0.7816164E-02  0.1266605E+00
        -11   -1    0    0    0    0  0.00000000000E+00  0.00000000000E+00  0.45593999997E+02  0.45594000000E+02  0.51100000000E-03 0.  1.
         11   -1    0    0    0    0 -0.00000000000E+00 -0.00000000000E+00 -0.45593999997E+02  0.45594000000E+02  0.51100000000E-03 0. -1.
    9900012    2    1    2    0    0  0.28943144737E+02 -0.89501536037E+01  0.99453385655E+01  0.59301942922E+02  0.49999997984E+02 0.  0.
        -12    1    1    2    0    0 -0.28943144737E+02  0.89501536037E+01 -0.99453385655E+01  0.31886057078E+02  0.00000000000E+00 0.  1.
         11    1    3    3    0    0  0.41748175509E+01  0.10451157698E+01  0.13075207647E+02  0.13765261487E+02  0.51100000000E-03 0.  1.
        -11    1    3    3    0    0  0.24045459311E+02 -0.16255106809E+01 -0.16879630669E+02  0.29423601585E+02  0.51100000000E-03 0. -1.
        -12    1    3    3    0    0  0.72286787506E+00 -0.83697586926E+01  0.13749761588E+02  0.16113079850E+02  0.00000000000E+00 0.  1.
</event>
<event>
 7    1  0.6055092E-013  0.5930191E+02  0.7816164E-02  0.1266605E+00
        -11   -1    0    0    0    0  0.00000000000E+00  0.00000000000E+00  0.45593999997E+02  0.45594000000E+02  0.51100000000E-03 0. -1.
         11   -1    0    0    0    0 -0.00000000000E+00 -0.00000000000E+00 -0.45593999997E+02  0.45594000000E+02  0.51100000000E-03 0.  1.
    9900012    2    1    2    0    0  0.91809072571E+01 -0.30102100342E+02  0.51281022400E+01  0.59301906861E+02  0.49999932217E+02 0.  0.
        -12    1    1    2    0    0 -0.91809072571E+01  0.30102100342E+02 -0.51281022400E+01  0.31886093139E+02  0.00000000000E+00 0.  1.
         11    1    3    3    0    0 -0.69766052257E+01 -0.26510096257E+01  0.47422298700E+01  0.88424892938E+01  0.51100000000E-03 0. -1.
        -11    1    3    3    0    0  0.58974614976E+01 -0.17171068337E+02 -0.18971460966E+02  0.26259131200E+02  0.51100000000E-03 0.  1.
        -12    1    3    3    0    0  0.10260050985E+02 -0.10280022380E+02  0.19357333336E+02  0.24200286367E+02  0.00000000000E+00 0.  1.
</event>
<event>
 7    1  0.6055092E-013  0.5930194E+02  0.7816164E-02  0.1266605E+00
        -11   -1    0    0    0    0  0.00000000000E+00  0.00000000000E+00  0.45593999997E+02  0.45594000000E+02  0.51100000000E-03 0.  1.
         11   -1    0    0    0    0 -0.00000000000E+00 -0.00000000000E+00 -0.45593999997E+02  0.45594000000E+02  0.51100000000E-03 0. -1.
    9900012    2    1    2    0    0 -0.40927142980E+01 -0.64971732164E+01 -0.30947650622E+02  0.59301942716E+02  0.49999997607E+02 0.  0.
        -12    1    1    2    0    0  0.40927142980E+01  0.64971732164E+01  0.30947650622E+02  0.31886057284E+02  0.00000000000E+00 0.  1.
         11    1    3    3    0    0  0.10627370014E+02  0.46704258416E+01 -0.16921445657E+02  0.20520457947E+02  0.51100000000E-03 0. -1.
        -11    1    3    3    0    0 -0.10636457899E+02 -0.18039789620E+02  0.18323917625E+01  0.21022033821E+02  0.51100000000E-03 0.  1.
        -12    1    3    3    0    0 -0.40836264138E+01  0.68721905616E+01 -0.15858596728E+02  0.17759450948E+02  0.00000000000E+00 0.  1.
</event>
<event>
 7    1  0.6055092E-013  0.5930192E+02  0.7816164E-02  0.1266605E+00
        -11   -1    0    0    0    0  0.00000000000E+00  0.00000000000E+00  0.45593999997E+02  0.45594000000E+02  0.51100000000E-03 0.  1.
         11   -1    0    0    0    0 -0.00000000000E+00 -0.00000000000E+00 -0.45593999997E+02  0.45594000000E+02  0.51100000000E-03 0. -1.
    9900012    2    1    2    0    0  0.18152034664E+01  0.19459833478E+02 -0.25194090696E+02  0.59301917007E+02  0.49999950720E+02 0.  0.
        -12    1    1    2    0    0 -0.18152034664E+01 -0.19459833478E+02  0.25194090696E+02  0.31886082993E+02  0.00000000000E+00 0.  1.
         11    1    3    3    0    0  0.11705252352E+02  0.22961735789E+02  0.39727344562E+01  0.26077516416E+02  0.51100000000E-03 0. -1.
        -11    1    3    3    0    0  0.24021726223E+01 -0.26657115409E+01 -0.67955155103E+01  0.76847565113E+01  0.51100000000E-03 0.  1.
         12    1    3    3    0    0 -0.12292221508E+02 -0.83619077016E+00 -0.22371309642E+02  0.25539644080E+02  0.00000000000E+00 0. -1.
</event>
<event>
 7    1  0.6055092E-013  0.5930196E+02  0.7816164E-02  0.1266605E+00
        -11   -1    0    0    0    0  0.00000000000E+00  0.00000000000E+00  0.45593999997E+02  0.45594000000E+02  0.51100000000E-03 0.  1.
         11   -1    0    0    0    0 -0.00000000000E+00 -0.00000000000E+00 -0.45593999997E+02  0.45594000000E+02  0.51100000000E-03 0. -1.
    9900012    2    1    2    0    0  0.18693778373E+02 -0.76491996162E+01 -0.24672902036E+02  0.59301957607E+02  0.50000024765E+02 0.  0.
        -12    1    1    2    0    0 -0.18693778373E+02  0.76491996162E+01  0.24672902036E+02  0.31886042393E+02  0.00000000000E+00 0.  1.
         11    1    3    3    0    0  0.82025007932E+01 -0.79033498252E+00 -0.53969176770E+01  0.98505009680E+01  0.51100000000E-03 0. -1.
        -11    1    3    3    0    0 -0.98604077737E+01  0.71965293005E+01 -0.21389540832E+02  0.24627832481E+02  0.51100000000E-03 0.  1.
        -12    1    3    3    0    0  0.20351685354E+02 -0.14055393934E+02  0.21135564732E+01  0.24823624158E+02  0.00000000000E+00 0.  1.
</event>
<event>
 7    1  0.6055092E-013  0.5930187E+02  0.7816164E-02  0.1266605E+00
        -11   -1    0    0    0    0  0.00000000000E+00  0.00000000000E+00  0.45593999997E+02  0.45594000000E+02  0.51100000000E-03 0.  1.
         11   -1    0    0    0    0 -0.00000000000E+00 -0.00000000000E+00 -0.45593999997E+02  0.45594000000E+02  0.51100000000E-03 0. -1.
    9900012    2    1    2    0    0 -0.98443487886E+01  0.86950833715E+01 -0.29055282016E+02  0.59301873065E+02  0.49999870580E+02 0.  0.
        -12    1    1    2    0    0  0.98443487886E+01 -0.86950833715E+01  0.29055282016E+02  0.31886126935E+02  0.00000000000E+00 0.  1.
         11    1    3    3    0    0 -0.14596591243E+02  0.26342742640E+02 -0.22920034612E+02  0.37846116744E+02  0.51100000000E-03 0. -1.
        -11    1    3    3    0    0  0.58660875211E+01 -0.11340335146E+02 -0.26924324533E+00  0.12770539386E+02  0.51100000000E-03 0.  1.
        -12    1    3    3    0    0 -0.11138450671E+01 -0.63073241224E+01 -0.58660041584E+01  0.86852169348E+01  0.00000000000E+00 0.  1.
</event>
<event>
 7    1  0.6055092E-013  0.5930191E+02  0.7816164E-02  0.1266605E+00
        -11   -1    0    0    0    0  0.00000000000E+00  0.00000000000E+00  0.45593999997E+02  0.45594000000E+02  0.51100000000E-03 0.  1.
         11   -1    0    0    0    0 -0.00000000000E+00 -0.00000000000E+00 -0.45593999997E+02  0.45594000000E+02  0.51100000000E-03 0. -1.
    9900012    2    1    2    0    0  0.23207552208E+02 -0.20806941950E+02 -0.67233481768E+01  0.59301910188E+02  0.49999938284E+02 0.  0.
        -12    1    1    2    0    0 -0.23207552208E+02  0.20806941950E+02  0.67233481768E+01  0.31886089812E+02  0.00000000000E+00 0.  1.
         11    1    3    3    0    0 -0.19708532499E+01 -0.22854847040E+02 -0.95526115292E+01  0.24849158598E+02  0.51100000000E-03 0. -1.
        -11    1    3    3    0    0  0.22112360165E+02  0.77320134223E+01 -0.53527361444E+01  0.24028988496E+02  0.51100000000E-03 0.  1.
         12    1    3    3    0    0  0.30660452928E+01 -0.56841083326E+01  0.81819994968E+01  0.10423763094E+02  0.00000000000E+00 0. -1.
</event>
<event>
 7    1  0.6055092E-013  0.5930193E+02  0.7816164E-02  0.1266605E+00
        -11   -1    0    0    0    0  0.00000000000E+00  0.00000000000E+00  0.45593999997E+02  0.45594000000E+02  0.51100000000E-03 0.  1.
         11   -1    0    0    0    0 -0.00000000000E+00 -0.00000000000E+00 -0.45593999997E+02  0.45594000000E+02  0.51100000000E-03 0. -1.
    9900012    2    1    2    0    0  0.11127622638E+02  0.11391566361E+02 -0.27624801001E+02  0.59301930940E+02  0.49999976131E+02 0.  0.
        -12    1    1    2    0    0 -0.11127622638E+02 -0.11391566361E+02  0.27624801001E+02  0.31886069060E+02  0.00000000000E+00 0.  1.
         11    1    3    3    0    0  0.20678879061E+02 -0.12441850949E+02 -0.20291214712E+02  0.31530129860E+02  0.51100000000E-03 0. -1.
        -11    1    3    3    0    0 -0.43955013868E+01  0.94828705486E+01 -0.68862829581E+01  0.12516635312E+02  0.51100000000E-03 0.  1.
         12    1    3    3    0    0 -0.51557550359E+01  0.14350546762E+02 -0.44730333114E+00  0.15255165768E+02  0.00000000000E+00 0. -1.
</event>
<event>
 7    1  0.6055092E-013  0.5930195E+02  0.7816164E-02  0.1266605E+00
        -11   -1    0    0    0    0  0.00000000000E+00  0.00000000000E+00  0.45593999997E+02  0.45594000000E+02  0.51100000000E-03 0. -1.
         11   -1    0    0    0    0 -0.00000000000E+00 -0.00000000000E+00 -0.45593999997E+02  0.45594000000E+02  0.51100000000E-03 0.  1.
    9900012    2    1    2    0    0  0.22937295721E+02 -0.21734429063E+02  0.42678959545E+01  0.59301954815E+02  0.50000019673E+02 0.  0.
        -12    1    1    2    0    0 -0.22937295721E+02  0.21734429063E+02 -0.42678959545E+01  0.31886045185E+02  0.00000000000E+00 0.  1.
         11    1    3    3    0    0  0.12492763912E+02 -0.14851752898E+02  0.18171045010E+02  0.26586285775E+02  0.51100000000E-03 0. -1.
        -11    1    3    3    0    0 -0.54021236255E+01  0.66346279987E+01 -0.59449488286E+01  0.10418428153E+02  0.51100000000E-03 0.  1.
        -12    1    3    3    0    0  0.15846655435E+02 -0.13517304163E+02 -0.79582002264E+01  0.22297240887E+02  0.00000000000E+00 0.  1.
</event>
<event>
 7    1  0.6055092E-013  0.5930192E+02  0.7816164E-02  0.1266605E+00
        -11   -1    0    0    0    0  0.00000000000E+00  0.00000000000E+00  0.45593999997E+02  0.45594000000E+02  0.51100000000E-03 0.  1.
         11   -1    0    0    0    0 -0.00000000000E+00 -0.00000000000E+00 -0.45593999997E+02  0.45594000000E+02  0.51100000000E-03 0. -1.
    9900012    2    1    2    0    0  0.21924632148E+00  0.31845642831E+02 -0.15902499966E+01  0.59301922610E+02  0.49999960939E+02 0.  0.
        -12    1    1    2    0    0 -0.21924632148E+00 -0.31845642831E+02  0.15902499966E+01  0.31886077390E+02  0.00000000000E+00 0.  1.
         11    1    3    3    0    0  0.13341302107E+02  0.31153754560E+02 -0.10642430344E+02  0.35521938137E+02  0.51100000000E-03 0. -1.
        -11    1    3    3    0    0 -0.45794419498E+01  0.79293131779E+01  0.86194021521E+01  0.12575348495E+02  0.51100000000E-03 0.  1.
         12    1    3    3    0    0 -0.85426138357E+01 -0.72374249076E+01  0.43277819559E+00  0.11204635978E+02  0.00000000000E+00 0. -1.
</event>
<event>
 7    1  0.6055092E-013  0.5930194E+02  0.7816164E-02  0.1266605E+00
        -11   -1    0    0    0    0  0.00000000000E+00  0.00000000000E+00  0.45593999997E+02  0.45594000000E+02  0.51100000000E-03 0.  1.
         11   -1    0    0    0    0 -0.00000000000E+00 -0.00000000000E+00 -0.45593999997E+02  0.45594000000E+02  0.51100000000E-03 0. -1.
    9900012    2    1    2    0    0 -0.16475846915E+02 -0.58896323042E+01 -0.26656702208E+02  0.59301936072E+02  0.49999985490E+02 0.  0.
        -12    1    1    2    0    0  0.16475846915E+02  0.58896323042E+01  0.26656702208E+02  0.31886063928E+02  0.00000000000E+00 0.  1.
         11    1    3    3    0    0 -0.15416019477E+02  0.13175830842E+02 -0.26113909304E+02  0.33063460713E+02  0.51100000000E-03 0. -1.
        -11    1    3    3    0    0 -0.69827515095E+01 -0.57758799602E+01  0.53695785689E+01  0.10533374684E+02  0.51100000000E-03 0.  1.
         12    1    3    3    0    0  0.59229240713E+01 -0.13289583186E+02 -0.59123714722E+01  0.15705100675E+02  0.00000000000E+00 0. -1.
</event>
<event>
 7    1  0.6055092E-013  0.5930193E+02  0.7816164E-02  0.1266605E+00
        -11   -1    0    0    0    0  0.00000000000E+00  0.00000000000E+00  0.45593999997E+02  0.45594000000E+02  0.51100000000E-03 0.  1.
         11   -1    0    0    0    0 -0.00000000000E+00 -0.00000000000E+00 -0.45593999997E+02  0.45594000000E+02  0.51100000000E-03 0. -1.
    9900012    2    1    2    0    0 -0.25352078152E+02  0.17238716492E+02 -0.87647013757E+01  0.59301934029E+02  0.49999981764E+02 0.  0.
        -12    1    1    2    0    0  0.25352078152E+02 -0.17238716492E+02  0.87647013757E+01  0.31886065971E+02  0.00000000000E+00 0.  1.
         11    1    3    3    0    0 -0.47575818613E+01  0.27258652206E+02  0.54929992394E+01  0.28210667241E+02  0.51100000000E-03 0. -1.
        -11    1    3    3    0    0 -0.70249472389E+01 -0.38096175881E+01  0.27623501719E+01  0.84553916888E+01  0.51100000000E-03 0.  1.
         12    1    3    3    0    0 -0.13569549052E+02 -0.62103181267E+01 -0.17020050787E+02  0.22635875099E+02  0.00000000000E+00 0. -1.
</event>
<event>
 7    1  0.6055092E-013  0.5930193E+02  0.7816164E-02  0.1266605E+00
        -11   -1    0    0    0    0  0.00000000000E+00  0.00000000000E+00  0.45593999997E+02  0.45594000000E+02  0.51100000000E-03 0.  1.
         11   -1    0    0    0    0 -0.00000000000E+00 -0.00000000000E+00 -0.45593999997E+02  0.45594000000E+02  0.51100000000E-03 0. -1.
    9900012    2    1    2    0    0 -0.79417916881E+01  0.48779072248E+01 -0.30493527336E+02  0.59301933396E+02  0.49999980610E+02 0.  0.
        -12    1    1    2    0    0  0.79417916881E+01 -0.48779072248E+01  0.30493527336E+02  0.31886066604E+02  0.00000000000E+00 0.  1.
         11    1    3    3    0    0 -0.15732636106E+01  0.34796918325E+01 -0.92192002108E+00  0.39285303135E+01  0.51100000000E-03 0. -1.
        -11    1    3    3    0    0  0.70045425516E+01 -0.18032163492E+02 -0.24552283878E+02  0.31257593964E+02  0.51100000000E-03 0.  1.
        -12    1    3    3    0    0 -0.13373070629E+02  0.19430378885E+02 -0.50193234370E+01  0.24115809118E+02  0.00000000000E+00 0.  1.
</event>
<event>
 7    1  0.6055092E-013  0.5930193E+02  0.7816164E-02  0.1266605E+00
        -11   -1    0    0    0    0  0.00000000000E+00  0.00000000000E+00  0.45593999997E+02  0.45594000000E+02  0.51100000000E-03 0.  1.
         11   -1    0    0    0    0 -0.00000000000E+00 -0.00000000000E+00 -0.45593999997E+02  0.45594000000E+02  0.51100000000E-03 0. -1.
    9900012    2    1    2    0    0 -0.23467706967E+02  0.17103645537E+02 -0.13170168605E+02  0.59301932478E+02  0.49999978935E+02 0.  0.
        -12    1    1    2    0    0  0.23467706967E+02 -0.17103645537E+02  0.13170168605E+02  0.31886067522E+02  0.00000000000E+00 0.  1.
         11    1    3    3    0    0 -0.15228638784E+02 -0.38862026201E+01 -0.12143997096E+02  0.19861789339E+02  0.51100000000E-03 0. -1.
        -11    1    3    3    0    0  0.54890584585E+00 -0.62544105958E+01  0.72988345087E+01  0.96276650843E+01  0.51100000000E-03 0.  1.
        -12    1    3    3    0    0 -0.87879740288E+01  0.27244258753E+02 -0.83250060179E+01  0.29812478054E+02  0.00000000000E+00 0.  1.
</event>
<event>
 7    1  0.6055092E-013  0.5930194E+02  0.7816164E-02  0.1266605E+00
        -11   -1    0    0    0    0  0.00000000000E+00  0.00000000000E+00  0.45593999997E+02  0.45594000000E+02  0.51100000000E-03 0. -1.
         11   -1    0    0    0    0 -0.00000000000E+00 -0.00000000000E+00 -0.45593999997E+02  0.45594000000E+02  0.51100000000E-03 0.  1.
    9900012    2    1    2    0    0 -0.16759031545E+02 -0.12386592686E+02  0.24133542396E+02  0.59301942149E+02  0.49999996573E+02 0.  0.
        -12    1    1    2    0    0  0.16759031545E+02  0.12386592686E+02 -0.24133542396E+02  0.31886057851E+02  0.00000000000E+00 0.  1.
         11    1    3    3    0    0  0.54314437878E+01  0.98559341130E+01  0.16116530016E+02  0.19656616160E+02  0.51100000000E-03 0.  1.
        -11    1    3    3    0    0 -0.18030856198E+02 -0.22933676669E+01  0.61210088299E+01  0.19179104772E+02  0.51100000000E-03 0. -1.
         12    1    3    3    0    0 -0.41596191351E+01 -0.19949159132E+02  0.18960035503E+01  0.20466221217E+02  0.00000000000E+00 0. -1.
</event>
<event>
 7    1  0.6055092E-013  0.5930180E+02  0.7816164E-02  0.1266605E+00
        -11   -1    0    0    0    0  0.00000000000E+00  0.00000000000E+00  0.45593999997E+02  0.45594000000E+02  0.51100000000E-03 0. -1.
         11   -1    0    0    0    0 -0.00000000000E+00 -0.00000000000E+00 -0.45593999997E+02  0.45594000000E+02  0.51100000000E-03 0.  1.
    9900012    2    1    2    0    0 -0.26907435460E+01 -0.21563041869E+01  0.31699208811E+02  0.59301802550E+02  0.49999741978E+02 0.  0.
        -12    1    1    2    0    0  0.26907435460E+01  0.21563041869E+01 -0.31699208811E+02  0.31886197450E+02  0.00000000000E+00 0.  1.
         11    1    3    3    0    0 -0.17637165145E+01 -0.11939522413E+02  0.81984599858E+01  0.14590326857E+02  0.51100000000E-03 0. -1.
        -11    1    3    3    0    0 -0.16151079362E+01  0.17191592060E+02 -0.26979266771E+01  0.17476790891E+02  0.51100000000E-03 0.  1.
        -12    1    3    3    0    0  0.68808090466E+00 -0.74083738345E+01  0.26198675502E+02  0.27234684802E+02  0.00000000000E+00 0.  1.
</event>
<event>
 7    1  0.6055092E-013  0.5930191E+02  0.7816164E-02  0.1266605E+00
        -11   -1    0    0    0    0  0.00000000000E+00  0.00000000000E+00  0.45593999997E+02  0.45594000000E+02  0.51100000000E-03 0. -1.
         11   -1    0    0    0    0 -0.00000000000E+00 -0.00000000000E+00 -0.45593999997E+02  0.45594000000E+02  0.51100000000E-03 0.  1.
    9900012    2    1    2    0    0 -0.26710442139E+02  0.17163184484E+02  0.29495673237E+01  0.59301912622E+02  0.49999942724E+02 0.  0.
        -12    1    1    2    0    0  0.26710442139E+02 -0.17163184484E+02 -0.29495673237E+01  0.31886087378E+02  0.00000000000E+00 0.  1.
         11    1    3    3    0    0 -0.33606771910E+01  0.13650778924E+02  0.12178624768E+02  0.18599914460E+02  0.51100000000E-03 0. -1.
        -11    1    3    3    0    0 -0.18990628816E+02  0.11058981520E+02 -0.17948309658E+02  0.28374052846E+02  0.51100000000E-03 0.  1.
         12    1    3    3    0    0 -0.43591361313E+01 -0.75465759606E+01  0.87192522136E+01  0.12327945316E+02  0.00000000000E+00 0. -1.
</event>
<event>
 7    1  0.6055092E-013  0.5930197E+02  0.7816164E-02  0.1266605E+00
        -11   -1    0    0    0    0  0.00000000000E+00  0.00000000000E+00  0.45593999997E+02  0.45594000000E+02  0.51100000000E-03 0.  1.
         11   -1    0    0    0    0 -0.00000000000E+00 -0.00000000000E+00 -0.45593999997E+02  0.45594000000E+02  0.51100000000E-03 0. -1.
    9900012    2    1    2    0    0 -0.20653399658E+02  0.18940421820E+02 -0.15212386530E+02  0.59301965438E+02  0.50000039047E+02 0.  0.
        -12    1    1    2    0    0  0.20653399658E+02 -0.18940421820E+02  0.15212386530E+02  0.31886034562E+02  0.00000000000E+00 0.  1.
         11    1    3    3    0    0  0.68173582549E-01  0.20348875227E+02 -0.19604095104E+02  0.28256006719E+02  0.51100000000E-03 0. -1.
        -11    1    3    3    0    0 -0.11650600234E+02  0.41676705325E+01  0.12556016182E+02  0.17628372191E+02  0.51100000000E-03 0.  1.
         12    1    3    3    0    0 -0.90709730070E+01 -0.55761239392E+01 -0.81643076087E+01  0.13417586527E+02  0.00000000000E+00 0. -1.
</event>
<event>
 7    1  0.6055092E-013  0.5930192E+02  0.7816164E-02  0.1266605E+00
        -11   -1    0    0    0    0  0.00000000000E+00  0.00000000000E+00  0.45593999997E+02  0.45594000000E+02  0.51100000000E-03 0.  1.
         11   -1    0    0    0    0 -0.00000000000E+00 -0.00000000000E+00 -0.45593999997E+02  0.45594000000E+02  0.51100000000E-03 0. -1.
    9900012    2    1    2    0    0  0.20483442833E+02 -0.21944979454E+02 -0.10750280687E+02  0.59301920147E+02  0.49999956448E+02 0.  0.
        -12    1    1    2    0    0 -0.20483442833E+02  0.21944979454E+02  0.10750280687E+02  0.31886079853E+02  0.00000000000E+00 0.  1.
         11    1    3    3    0    0 -0.23209270045E+01 -0.10114907787E+02 -0.23780091499E+02  0.25945920944E+02  0.51100000000E-03 0. -1.
        -11    1    3    3    0    0  0.30880715794E+01 -0.15079816428E+01  0.10391857748E+02  0.10945359859E+02  0.51100000000E-03 0.  1.
         12    1    3    3    0    0  0.19716298258E+02 -0.10322090025E+02  0.26379530637E+01  0.22410639345E+02  0.00000000000E+00 0. -1.
</event>
<event>
 7    1  0.6055092E-013  0.5930194E+02  0.7816164E-02  0.1266605E+00
        -11   -1    0    0    0    0  0.00000000000E+00  0.00000000000E+00  0.45593999997E+02  0.45594000000E+02  0.51100000000E-03 0. -1.
         11   -1    0    0    0    0 -0.00000000000E+00 -0.00000000000E+00 -0.45593999997E+02  0.45594000000E+02  0.51100000000E-03 0.  1.
    9900012    2    1    2    0    0 -0.17354764541E+02 -0.23388802565E+02  0.12980629442E+02  0.59301942256E+02  0.49999996769E+02 0.  0.
        -12    1    1    2    0    0  0.17354764541E+02  0.23388802565E+02 -0.12980629442E+02  0.31886057744E+02  0.00000000000E+00 0.  1.
         11    1    3    3    0    0 -0.47764145121E+01 -0.24610320458E+02  0.25337347544E+02  0.35643557475E+02  0.51100000000E-03 0. -1.
        -11    1    3    3    0    0 -0.73714725220E+01 -0.71130010157E+01 -0.51058999727E+01  0.11445680643E+02  0.51100000000E-03 0.  1.
         12    1    3    3    0    0 -0.52068775071E+01  0.83345189088E+01 -0.72508181294E+01  0.12212704138E+02  0.00000000000E+00 0. -1.
</event>
<event>
 7    1  0.6055092E-013  0.5930193E+02  0.7816164E-02  0.1266605E+00
        -11   -1    0    0    0    0  0.00000000000E+00  0.00000000000E+00  0.45593999997E+02  0.45594000000E+02  0.51100000000E-03 0.  1.
         11   -1    0    0    0    0 -0.00000000000E+00 -0.00000000000E+00 -0.45593999997E+02  0.45594000000E+02  0.51100000000E-03 0. -1.
    9900012    2    1    2    0    0 -0.15182606575E+02  0.11584703230E+02 -0.25534377215E+02  0.59301932335E+02  0.49999978676E+02 0.  0.
        -12    1    1    2    0    0  0.15182606575E+02 -0.11584703230E+02  0.25534377215E+02  0.31886067665E+02  0.00000000000E+00 0.  1.
         11    1    3    3    0    0 -0.10211533749E+02  0.88515667309E+01 -0.34625709169E+02  0.37169414723E+02  0.51100000000E-03 0. -1.
        -11    1    3    3    0    0  0.54784602194E+01  0.95557371569E+00  0.10053695428E+02  0.11489274978E+02  0.51100000000E-03 0.  1.
        -12    1    3    3    0    0 -0.10449533046E+02  0.17775627839E+01 -0.96236347337E+00  0.10643242635E+02  0.00000000000E+00 0.  1.
</event>
<event>
 7    1  0.6055092E-013  0.5930194E+02  0.7816164E-02  0.1266605E+00
        -11   -1    0    0    0    0  0.00000000000E+00  0.00000000000E+00  0.45593999997E+02  0.45594000000E+02  0.51100000000E-03 0.  1.
         11   -1    0    0    0    0 -0.00000000000E+00 -0.00000000000E+00 -0.45593999997E+02  0.45594000000E+02  0.51100000000E-03 0. -1.
    9900012    2    1    2    0    0  0.28381380294E+02  0.14139936688E+02  0.33586306933E+01  0.59301937888E+02  0.49999988802E+02 0.  0.
        -12    1    1    2    0    0 -0.28381380294E+02 -0.14139936688E+02 -0.33586306933E+01  0.31886062112E+02  0.00000000000E+00 0.  1.
         11    1    3    3    0    0  0.40770668003E+01 -0.13808148293E+02  0.73430197733E+01  0.16161911169E+02  0.51100000000E-03 0. -1.
        -11    1    3    3    0    0  0.23257588704E+02  0.30768089611E+02 -0.66289438542E+01  0.39134814009E+02  0.51100000000E-03 0.  1.
        -12    1    3    3    0    0  0.10467247888E+01 -0.28200046300E+01  0.26445547742E+01  0.40052127097E+01  0.00000000000E+00 0.  1.
</event>
<event>
 7    1  0.6055092E-013  0.5930194E+02  0.7816164E-02  0.1266605E+00
        -11   -1    0    0    0    0  0.00000000000E+00  0.00000000000E+00  0.45593999997E+02  0.45594000000E+02  0.51100000000E-03 0.  1.
         11   -1    0    0    0    0 -0.00000000000E+00 -0.00000000000E+00 -0.45593999997E+02  0.45594000000E+02  0.51100000000E-03 0. -1.
    9900012    2    1    2    0    0  0.14356098883E+02  0.12690946722E+02 -0.25486533342E+02  0.59301935871E+02  0.49999985125E+02 0.  0.
        -12    1    1    2    0    0 -0.14356098883E+02 -0.12690946722E+02  0.25486533342E+02  0.31886064129E+02  0.00000000000E+00 0.  1.
         11    1    3    3    0    0  0.15915399798E+02  0.16505799000E+02 -0.30439429775E+02  0.38109057148E+02  0.51100000000E-03 0. -1.
        -11    1    3    3    0    0 -0.10662221322E+02  0.15695887719E+00  0.22195123760E+01  0.10891916041E+02  0.51100000000E-03 0.  1.
        -12    1    3    3    0    0  0.91029204062E+01 -0.39718111556E+01  0.27333840573E+01  0.10300962682E+02  0.00000000000E+00 0.  1.
</event>
<event>
 7    1  0.6055092E-013  0.5930193E+02  0.7816164E-02  0.1266605E+00
        -11   -1    0    0    0    0  0.00000000000E+00  0.00000000000E+00  0.45593999997E+02  0.45594000000E+02  0.51100000000E-03 0.  1.
         11   -1    0    0    0    0 -0.00000000000E+00 -0.00000000000E+00 -0.45593999997E+02  0.45594000000E+02  0.51100000000E-03 0. -1.
    9900012    2    1    2    0    0  0.10226317895E+02 -0.29753319539E+02 -0.51849393765E+01  0.59301934115E+02  0.49999981922E+02 0.  0.
        -12    1    1    2    0    0 -0.10226317895E+02  0.29753319539E+02  0.51849393765E+01  0.31886065885E+02  0.00000000000E+00 0.  1.
         11    1    3    3    0    0  0.17212906603E+02 -0.17240401510E+02 -0.15833605246E+02  0.29055441028E+02  0.51100000000E-03 0. -1.
        -11    1    3    3    0    0 -0.96782004489E+01  0.47609650441E+01  0.32682391332E+01  0.11270125970E+02  0.51100000000E-03 0.  1.
         12    1    3    3    0    0  0.26916117402E+01 -0.17273883073E+02  0.73804267364E+01  0.18976367118E+02  0.00000000000E+00 0. -1.
</event>
<event>
 7    1  0.6055092E-013  0.5930201E+02  0.7816164E-02  0.1266605E+00
        -11   -1    0    0    0    0  0.00000000000E+00  0.00000000000E+00  0.45593999997E+02  0.45594000000E+02  0.51100000000E-03 0.  1.
         11   -1    0    0    0    0 -0.00000000000E+00 -0.00000000000E+00 -0.45593999997E+02  0.45594000000E+02  0.51100000000E-03 0. -1.
    9900012    2    1    2    0    0 -0.18618029162E+02 -0.51724786254E+01 -0.25363961989E+02  0.59302013850E+02  0.50000127339E+02 0.  0.
        -12    1    1    2    0    0  0.18618029162E+02  0.51724786254E+01  0.25363961989E+02  0.31885986150E+02  0.00000000000E+00 0.  1.
         11    1    3    3    0    0 -0.22544977161E+02 -0.63101218055E+00 -0.12211166809E+01  0.22586839039E+02  0.51100000000E-03 0. -1.
        -11    1    3    3    0    0 -0.43857347781E+01 -0.13842819414E+02 -0.89517558590E+01  0.17058495013E+02  0.51100000000E-03 0.  1.
         12    1    3    3    0    0  0.83126827775E+01  0.93013529695E+01 -0.15191089449E+02  0.19656679798E+02  0.00000000000E+00 0. -1.
</event>
<event>
 7    1  0.6055092E-013  0.5930194E+02  0.7816164E-02  0.1266605E+00
        -11   -1    0    0    0    0  0.00000000000E+00  0.00000000000E+00  0.45593999997E+02  0.45594000000E+02  0.51100000000E-03 0. -1.
         11   -1    0    0    0    0 -0.00000000000E+00 -0.00000000000E+00 -0.45593999997E+02  0.45594000000E+02  0.51100000000E-03 0.  1.
    9900012    2    1    2    0    0 -0.96151100834E+01 -0.25622494819E+02 -0.16363328459E+02  0.59301935632E+02  0.49999984688E+02 0.  0.
        -12    1    1    2    0    0  0.96151100834E+01  0.25622494819E+02  0.16363328459E+02  0.31886064368E+02  0.00000000000E+00 0.  1.
         11    1    3    3    0    0 -0.25596833756E+02 -0.19726407363E+02 -0.20970369936E+02  0.38523829785E+02  0.51100000000E-03 0. -1.
        -11    1    3    3    0    0  0.16004417329E+02 -0.57806697159E+01  0.69871824246E+01  0.18395060068E+02  0.51100000000E-03 0.  1.
        -12    1    3    3    0    0 -0.22693656033E-01 -0.11541773976E+00 -0.23801409469E+01  0.23830457788E+01  0.00000000000E+00 0.  1.
</event>
<event>
 7    1  0.6055092E-013  0.5930234E+02  0.7816164E-02  0.1266603E+00
        -11   -1    0    0    0    0  0.00000000000E+00  0.00000000000E+00  0.45593999997E+02  0.45594000000E+02  0.51100000000E-03 0.  1.
         11   -1    0    0    0    0 -0.00000000000E+00 -0.00000000000E+00 -0.45593999997E+02  0.45594000000E+02  0.51100000000E-03 0. -1.
    9900012    2    1    2    0    0  0.11518289481E+02  0.28992060279E+02  0.65942821913E+01  0.59302343203E+02  0.50000727994E+02 0.  0.
        -12    1    1    2    0    0 -0.11518289481E+02 -0.28992060279E+02 -0.65942821913E+01  0.31885656797E+02  0.00000000000E+00 0.  1.
         11    1    3    3    0    0  0.39507094442E+01  0.46786474170E+01 -0.20234456834E+02  0.21140744792E+02  0.51100000000E-03 0. -1.
        -11    1    3    3    0    0  0.45655811670E+01  0.49451085790E+01  0.11314199326E+02  0.13164715603E+02  0.51100000000E-03 0.  1.
         12    1    3    3    0    0  0.30019988699E+01  0.19368304283E+02  0.15514539699E+02  0.24996882807E+02  0.00000000000E+00 0. -1.
</event>
<event>
 7    1  0.6055092E-013  0.5930194E+02  0.7816164E-02  0.1266605E+00
        -11   -1    0    0    0    0  0.00000000000E+00  0.00000000000E+00  0.45593999997E+02  0.45594000000E+02  0.51100000000E-03 0.  1.
         11   -1    0    0    0    0 -0.00000000000E+00 -0.00000000000E+00 -0.45593999997E+02  0.45594000000E+02  0.51100000000E-03 0. -1.
    9900012    2    1    2    0    0 -0.26425925498E+02 -0.25848194167E+01 -0.17655311784E+02  0.59301939346E+02  0.49999991461E+02 0.  0.
        -12    1    1    2    0    0  0.26425925498E+02  0.25848194167E+01  0.17655311784E+02  0.31886060654E+02  0.00000000000E+00 0.  1.
         11    1    3    3    0    0 -0.34610460377E+01 -0.24896097802E+01 -0.15797962595E+02  0.16363148198E+02  0.51100000000E-03 0. -1.
        -11    1    3    3    0    0 -0.24201391230E+01 -0.76162336541E+01  0.13860926682E+02  0.15999668034E+02  0.51100000000E-03 0.  1.
        -12    1    3    3    0    0 -0.20544740337E+02  0.75210240176E+01 -0.15718275871E+02  0.26939123114E+02  0.00000000000E+00 0.  1.
</event>
<event>
 7    1  0.6055092E-013  0.5930194E+02  0.7816164E-02  0.1266605E+00
        -11   -1    0    0    0    0  0.00000000000E+00  0.00000000000E+00  0.45593999997E+02  0.45594000000E+02  0.51100000000E-03 0.  1.
         11   -1    0    0    0    0 -0.00000000000E+00 -0.00000000000E+00 -0.45593999997E+02  0.45594000000E+02  0.51100000000E-03 0. -1.
    9900012    2    1    2    0    0 -0.21778908356E+02  0.11755896090E+01 -0.23259795434E+02  0.59301938096E+02  0.49999989182E+02 0.  0.
        -12    1    1    2    0    0  0.21778908356E+02 -0.11755896090E+01  0.23259795434E+02  0.31886061904E+02  0.00000000000E+00 0.  1.
         11    1    3    3    0    0  0.11415269167E+02  0.94580388990E+01 -0.63135023466E+01  0.16112826633E+02  0.51100000000E-03 0.  1.
        -11    1    3    3    0    0 -0.35781310462E+02 -0.92118259123E+01 -0.15346028065E+02  0.40008255306E+02  0.51100000000E-03 0. -1.
         12    1    3    3    0    0  0.25871329389E+01  0.92937662233E+00 -0.16002650219E+01  0.31808561567E+01  0.00000000000E+00 0. -1.
</event>
<event>
 7    1  0.6055092E-013  0.5930192E+02  0.7816164E-02  0.1266605E+00
        -11   -1    0    0    0    0  0.00000000000E+00  0.00000000000E+00  0.45593999997E+02  0.45594000000E+02  0.51100000000E-03 0. -1.
         11   -1    0    0    0    0 -0.00000000000E+00 -0.00000000000E+00 -0.45593999997E+02  0.45594000000E+02  0.51100000000E-03 0.  1.
    9900012    2    1    2    0    0  0.57780094861E+01 -0.19227270453E+01  0.31299197738E+02  0.59301920718E+02  0.49999957489E+02 0.  0.
        -12    1    1    2    0    0 -0.57780094861E+01  0.19227270453E+01 -0.31299197738E+02  0.31886079282E+02  0.00000000000E+00 0.  1.
         11    1    3    3    0    0  0.17886386354E+02 -0.11209422838E+02  0.80438634632E+01  0.22589327499E+02  0.51100000000E-03 0. -1.
        -11    1    3    3    0    0 -0.68273900795E+01  0.16600284002E+02  0.96243149002E+01  0.20366887877E+02  0.51100000000E-03 0.  1.
         12    1    3    3    0    0 -0.52809867888E+01 -0.73135882090E+01  0.13631019375E+02  0.16345705343E+02  0.00000000000E+00 0. -1.
</event>
<event>
 7    1  0.6055092E-013  0.5930196E+02  0.7816164E-02  0.1266605E+00
        -11   -1    0    0    0    0  0.00000000000E+00  0.00000000000E+00  0.45593999997E+02  0.45594000000E+02  0.51100000000E-03 0.  1.
         11   -1    0    0    0    0 -0.00000000000E+00 -0.00000000000E+00 -0.45593999997E+02  0.45594000000E+02  0.51100000000E-03 0. -1.
    9900012    2    1    2    0    0  0.14711908031E+02  0.13480553693E+02 -0.24870751709E+02  0.59301955147E+02  0.50000020279E+02 0.  0.
        -12    1    1    2    0    0 -0.14711908031E+02 -0.13480553693E+02  0.24870751709E+02  0.31886044853E+02  0.00000000000E+00 0.  1.
         11    1    3    3    0    0  0.22572395294E+02 -0.54007674764E+01 -0.49451849175E+01  0.23730490361E+02  0.51100000000E-03 0.  1.
        -11    1    3    3    0    0 -0.11353475295E+02  0.15010386670E+01 -0.10280590549E+02  0.15389771300E+02  0.51100000000E-03 0. -1.
        -12    1    3    3    0    0  0.34929880328E+01  0.17380282502E+02 -0.96449762423E+01  0.20181693486E+02  0.00000000000E+00 0.  1.
</event>
<event>
 7    1  0.6055092E-013  0.5930199E+02  0.7816164E-02  0.1266605E+00
        -11   -1    0    0    0    0  0.00000000000E+00  0.00000000000E+00  0.45593999997E+02  0.45594000000E+02  0.51100000000E-03 0.  1.
         11   -1    0    0    0    0 -0.00000000000E+00 -0.00000000000E+00 -0.45593999997E+02  0.45594000000E+02  0.51100000000E-03 0. -1.
    9900012    2    1    2    0    0 -0.15119010426E+02 -0.23456484977E+02 -0.15424859399E+02  0.59301992862E+02  0.50000089061E+02 0.  0.
        -12    1    1    2    0    0  0.15119010426E+02  0.23456484977E+02  0.15424859399E+02  0.31886007138E+02  0.00000000000E+00 0.  1.
         11    1    3    3    0    0 -0.89081513229E+01 -0.34095542802E+02 -0.66551983077E+00  0.35246334786E+02  0.51100000000E-03 0. -1.
        -11    1    3    3    0    0 -0.79630159060E+01  0.88364510323E+01 -0.33289500414E+01  0.12352100947E+02  0.51100000000E-03 0.  1.
         12    1    3    3    0    0  0.17521568031E+01  0.18026067925E+01 -0.11430389527E+02  0.11703557128E+02  0.00000000000E+00 0. -1.
</event>
<event>
 7    1  0.6055092E-013  0.5930196E+02  0.7816164E-02  0.1266605E+00
        -11   -1    0    0    0    0  0.00000000000E+00  0.00000000000E+00  0.45593999997E+02  0.45594000000E+02  0.51100000000E-03 0. -1.
         11   -1    0    0    0    0 -0.00000000000E+00 -0.00000000000E+00 -0.45593999997E+02  0.45594000000E+02  0.51100000000E-03 0.  1.
    9900012    2    1    2    0    0  0.94642312904E+01 -0.17367075899E+02  0.25010643188E+02  0.59301964312E+02  0.50000036994E+02 0.  0.
        -12    1    1    2    0    0 -0.94642312904E+01  0.17367075899E+02 -0.25010643188E+02  0.31886035688E+02  0.00000000000E+00 0.  1.
         11    1    3    3    0    0  0.30310173975E+01 -0.75744115477E+00  0.31299258776E+02  0.31454799057E+02  0.51100000000E-03 0. -1.
        -11    1    3    3    0    0  0.86368115496E+01 -0.49970149530E+01 -0.11241842378E+02  0.15031423502E+02  0.51100000000E-03 0.  1.
        -12    1    3    3    0    0 -0.22035976567E+01 -0.11612619791E+02  0.49532267904E+01  0.12815741753E+02  0.00000000000E+00 0.  1.
</event>
<event>
 7    1  0.6062376E-013  0.5930196E+02  0.7816164E-02  0.1266605E+00
        -11   -1    0    0    0    0  0.00000000000E+00  0.00000000000E+00  0.45593999997E+02  0.45594000000E+02  0.51100000000E-03 0. -1.
         11   -1    0    0    0    0 -0.00000000000E+00 -0.00000000000E+00 -0.45593999997E+02  0.45594000000E+02  0.51100000000E-03 0.  1.
    9900012    2    1    2    0    0 -0.66810967713E+01  0.17638229746E+02  0.25709434657E+02  0.59301964921E+02  0.50000038105E+02 0.  0.
        -12    1    1    2    0    0  0.66810967713E+01 -0.17638229746E+02 -0.25709434657E+02  0.31886035079E+02  0.00000000000E+00 0.  1.
         11    1    3    3    0    0 -0.12399117007E+02  0.73458807627E+01  0.70309425790E+01  0.16035405219E+02  0.51100000000E-03 0.  1.
        -11    1    3    3    0    0  0.35291459523E+01 -0.14011568429E+02  0.89500334003E+01  0.16996529620E+02  0.51100000000E-03 0. -1.
        -12    1    3    3    0    0  0.21888742838E+01  0.24303917413E+02  0.97284586776E+01  0.26270030082E+02  0.00000000000E+00 0.  1.
</event>
<event>
 7    1  0.6055092E-013  0.5930195E+02  0.7816164E-02  0.1266605E+00
        -11   -1    0    0    0    0  0.00000000000E+00  0.00000000000E+00  0.45593999997E+02  0.45594000000E+02  0.51100000000E-03 0. -1.
         11   -1    0    0    0    0 -0.00000000000E+00 -0.00000000000E+00 -0.45593999997E+02  0.45594000000E+02  0.51100000000E-03 0.  1.
    9900012    2    1    2    0    0  0.23187023041E+02 -0.57810961627E+01  0.21110692293E+02  0.59301946004E+02  0.50000003605E+02 0.  0.
        -12    1    1    2    0    0 -0.23187023041E+02  0.57810961627E+01 -0.21110692293E+02  0.31886053996E+02  0.00000000000E+00 0.  1.
         11    1    3    3    0    0  0.17785399961E+02  0.13532899833E+02  0.25470512072E+02  0.33885200533E+02  0.51100000000E-03 0. -1.
        -11    1    3    3    0    0  0.43597431615E+01 -0.21843383336E+02 -0.42693522256E+01  0.22679685286E+02  0.51100000000E-03 0.  1.
        -12    1    3    3    0    0  0.10418799179E+01  0.25293873402E+01 -0.90467553425E-01  0.27370601853E+01  0.00000000000E+00 0.  1.
</event>
<event>
 7    1  0.6055092E-013  0.5930195E+02  0.7816164E-02  0.1266605E+00
        -11   -1    0    0    0    0  0.00000000000E+00  0.00000000000E+00  0.45593999997E+02  0.45594000000E+02  0.51100000000E-03 0. -1.
         11   -1    0    0    0    0 -0.00000000000E+00 -0.00000000000E+00 -0.45593999997E+02  0.45594000000E+02  0.51100000000E-03 0.  1.
    9900012    2    1    2    0    0 -0.18175060907E+02  0.16205502386E+02 -0.20585647558E+02  0.59301952394E+02  0.50000015259E+02 0.  0.
        -12    1    1    2    0    0  0.18175060907E+02 -0.16205502386E+02  0.20585647558E+02  0.31886047606E+02  0.00000000000E+00 0.  1.
         11    1    3    3    0    0 -0.40470854811E+01  0.10061654984E+02 -0.51540378543E+01  0.12007493842E+02  0.51100000000E-03 0. -1.
        -11    1    3    3    0    0  0.17510052529E+01 -0.53274318513E+01  0.12197932431E+02  0.13425241353E+02  0.51100000000E-03 0.  1.
        -12    1    3    3    0    0 -0.15878980679E+02  0.11471279253E+02 -0.27629542135E+02  0.33869217199E+02  0.00000000000E+00 0.  1.
</event>
<event>
 7    1  0.6055092E-013  0.5930197E+02  0.7816164E-02  0.1266605E+00
        -11   -1    0    0    0    0  0.00000000000E+00  0.00000000000E+00  0.45593999997E+02  0.45594000000E+02  0.51100000000E-03 0.  1.
         11   -1    0    0    0    0 -0.00000000000E+00 -0.00000000000E+00 -0.45593999997E+02  0.45594000000E+02  0.51100000000E-03 0. -1.
    9900012    2    1    2    0    0  0.65879408341E+01  0.30059285477E+02  0.83521016370E+01  0.59301965289E+02  0.50000038776E+02 0.  0.
        -12    1    1    2    0    0 -0.65879408341E+01 -0.30059285477E+02 -0.83521016370E+01  0.31886034711E+02  0.00000000000E+00 0.  1.
         11    1    3    3    0    0 -0.84750511307E+01  0.26396424500E+02  0.22103950133E+02  0.35456767053E+02  0.51100000000E-03 0.  1.
        -11    1    3    3    0    0  0.14780857242E+02  0.17936378980E+01 -0.15338910044E+02  0.21376927733E+02  0.51100000000E-03 0. -1.
         12    1    3    3    0    0  0.28213472276E+00  0.18692230786E+01  0.15870615478E+01  0.24682705030E+01  0.00000000000E+00 0. -1.
</event>
<event>
 7    1  0.6055092E-013  0.5930196E+02  0.7816164E-02  0.1266605E+00
        -11   -1    0    0    0    0  0.00000000000E+00  0.00000000000E+00  0.45593999997E+02  0.45594000000E+02  0.51100000000E-03 0.  1.
         11   -1    0    0    0    0 -0.00000000000E+00 -0.00000000000E+00 -0.45593999997E+02  0.45594000000E+02  0.51100000000E-03 0. -1.
    9900012    2    1    2    0    0  0.19599207101E+02  0.75475601336E+01 -0.23992187869E+02  0.59301958199E+02  0.50000025845E+02 0.  0.
        -12    1    1    2    0    0 -0.19599207101E+02 -0.75475601336E+01  0.23992187869E+02  0.31886041801E+02  0.00000000000E+00 0.  1.
         11    1    3    3    0    0  0.17333780179E+02  0.16213533030E+02  0.74036416533E+00  0.23746299248E+02  0.51100000000E-03 0. -1.
        -11    1    3    3    0    0 -0.48399224886E+01  0.29144586823E+01 -0.20590941994E+02  0.21351951002E+02  0.51100000000E-03 0.  1.
         12    1    3    3    0    0  0.71053494109E+01 -0.11580431578E+02 -0.41416100403E+01  0.14203707950E+02  0.00000000000E+00 0. -1.
</event>
<event>
 7    1  0.6055092E-013  0.5930194E+02  0.7816164E-02  0.1266605E+00
        -11   -1    0    0    0    0  0.00000000000E+00  0.00000000000E+00  0.45593999997E+02  0.45594000000E+02  0.51100000000E-03 0. -1.
         11   -1    0    0    0    0 -0.00000000000E+00 -0.00000000000E+00 -0.45593999997E+02  0.45594000000E+02  0.51100000000E-03 0.  1.
    9900012    2    1    2    0    0  0.43960446810E+01  0.42848614670E+01  0.31289539108E+02  0.59301944988E+02  0.50000001752E+02 0.  0.
        -12    1    1    2    0    0 -0.43960446810E+01 -0.42848614670E+01 -0.31289539108E+02  0.31886055012E+02  0.00000000000E+00 0.  1.
         11    1    3    3    0    0 -0.61403096332E+00  0.14931321209E+01  0.21492374070E+02  0.21552926042E+02  0.51100000000E-03 0. -1.
        -11    1    3    3    0    0 -0.17706315509E+01  0.16741263736E+02 -0.36446467495E+01  0.17224647972E+02  0.51100000000E-03 0.  1.
        -12    1    3    3    0    0  0.67807071953E+01 -0.13949534390E+02  0.13441811787E+02  0.20524370974E+02  0.00000000000E+00 0.  1.
</event>
<event>
 7    1  0.6055092E-013  0.5930208E+02  0.7816164E-02  0.1266604E+00
        -11   -1    0    0    0    0  0.00000000000E+00  0.00000000000E+00  0.45593999997E+02  0.45594000000E+02  0.51100000000E-03 0. -1.
         11   -1    0    0    0    0 -0.00000000000E+00 -0.00000000000E+00 -0.45593999997E+02  0.45594000000E+02  0.51100000000E-03 0.  1.
    9900012    2    1    2    0    0  0.77268711974E+01 -0.24411000047E+02  0.19002912564E+02  0.59302076025E+02  0.50000240732E+02 0.  0.
        -12    1    1    2    0    0 -0.77268711974E+01  0.24411000047E+02 -0.19002912564E+02  0.31885923975E+02  0.00000000000E+00 0.  1.
         11    1    3    3    0    0  0.17169173099E+02 -0.23859319912E+02  0.68084659159E+00  0.29402571382E+02  0.51100000000E-03 0. -1.
        -11    1    3    3    0    0 -0.71459147295E+01  0.10295329880E+02  0.93256353804E+01  0.15621312050E+02  0.51100000000E-03 0.  1.
         12    1    3    3    0    0 -0.22963871724E+01 -0.10847010015E+02  0.89964305923E+01  0.14278192593E+02  0.00000000000E+00 0. -1.
</event>
<event>
 7    1  0.6055092E-013  0.5930194E+02  0.7816164E-02  0.1266605E+00
        -11   -1    0    0    0    0  0.00000000000E+00  0.00000000000E+00  0.45593999997E+02  0.45594000000E+02  0.51100000000E-03 0. -1.
         11   -1    0    0    0    0 -0.00000000000E+00 -0.00000000000E+00 -0.45593999997E+02  0.45594000000E+02  0.51100000000E-03 0.  1.
    9900012    2    1    2    0    0  0.15315429509E+02 -0.27429824157E+02  0.54555775044E+01  0.59301937837E+02  0.49999988710E+02 0.  0.
        -12    1    1    2    0    0 -0.15315429509E+02  0.27429824157E+02 -0.54555775044E+01  0.31886062163E+02  0.00000000000E+00 0.  1.
         11    1    3    3    0    0  0.25347992085E+01 -0.26054082892E+02  0.21854649720E+02  0.34100823406E+02  0.51100000000E-03 0. -1.
        -11    1    3    3    0    0  0.61320952734E+01  0.59891560896E+01 -0.10868629201E+02  0.13841953766E+02  0.51100000000E-03 0.  1.
        -12    1    3    3    0    0  0.66485350274E+01 -0.73648973553E+01 -0.55304430146E+01  0.11359160665E+02  0.00000000000E+00 0.  1.
</event>
<event>
 7    1  0.6055092E-013  0.5930195E+02  0.7816164E-02  0.1266605E+00
        -11   -1    0    0    0    0  0.00000000000E+00  0.00000000000E+00  0.45593999997E+02  0.45594000000E+02  0.51100000000E-03 0.  1.
         11   -1    0    0    0    0 -0.00000000000E+00 -0.00000000000E+00 -0.45593999997E+02  0.45594000000E+02  0.51100000000E-03 0. -1.
    9900012    2    1    2    0    0 -0.24123161114E+02  0.27398036185E+01 -0.20670923007E+02  0.59301945306E+02  0.50000002331E+02 0.  0.
        -12    1    1    2    0    0  0.24123161114E+02 -0.27398036185E+01  0.20670923007E+02  0.31886054694E+02  0.00000000000E+00 0.  1.
         11    1    3    3    0    0 -0.70801304977E+01 -0.13467040880E+02 -0.24613965463E+02  0.28936771313E+02  0.51100000000E-03 0. -1.
        -11    1    3    3    0    0 -0.64227843570E+01  0.13672160389E+02 -0.53522689532E+01  0.16025820160E+02  0.51100000000E-03 0.  1.
         12    1    3    3    0    0 -0.10620246260E+02  0.25346841095E+01  0.92953114099E+01  0.14339353833E+02  0.00000000000E+00 0. -1.
</event>
<event>
 7    1  0.6055092E-013  0.5930195E+02  0.7816164E-02  0.1266605E+00
        -11   -1    0    0    0    0  0.00000000000E+00  0.00000000000E+00  0.45593999997E+02  0.45594000000E+02  0.51100000000E-03 0. -1.
         11   -1    0    0    0    0 -0.00000000000E+00 -0.00000000000E+00 -0.45593999997E+02  0.45594000000E+02  0.51100000000E-03 0.  1.
    9900012    2    1    2    0    0  0.18239229661E+02  0.21472876604E+02  0.14932057192E+02  0.59301948814E+02  0.50000008729E+02 0.  0.
        -12    1    1    2    0    0 -0.18239229661E+02 -0.21472876604E+02 -0.14932057192E+02  0.31886051186E+02  0.00000000000E+00 0.  1.
         11    1    3    3    0    0 -0.56386646038E+01  0.55120047696E+01 -0.40844813756E+01  0.88802997394E+01  0.51100000000E-03 0. -1.
        -11    1    3    3    0    0  0.19133639633E+02  0.18633422416E+02  0.28767126736E+02  0.39253639034E+02  0.51100000000E-03 0.  1.
        -12    1    3    3    0    0  0.47442546318E+01 -0.26725505818E+01 -0.97505881684E+01  0.11168010040E+02  0.00000000000E+00 0.  1.
</event>
<event>
 7    1  0.6055092E-013  0.5930195E+02  0.7816164E-02  0.1266605E+00
        -11   -1    0    0    0    0  0.00000000000E+00  0.00000000000E+00  0.45593999997E+02  0.45594000000E+02  0.51100000000E-03 0.  1.
         11   -1    0    0    0    0 -0.00000000000E+00 -0.00000000000E+00 -0.45593999997E+02  0.45594000000E+02  0.51100000000E-03 0. -1.
    9900012    2    1    2    0    0 -0.90250354028E+01 -0.18331297095E+02 -0.24479226597E+02  0.59301948944E+02  0.50000008965E+02 0.  0.
        -12    1    1    2    0    0  0.90250354028E+01  0.18331297095E+02  0.24479226597E+02  0.31886051056E+02  0.00000000000E+00 0.  1.
         11    1    3    3    0    0  0.78993118305E+01  0.54728966009E+01 -0.15362807592E+02  0.18120915594E+02  0.51100000000E-03 0. -1.
        -11    1    3    3    0    0 -0.21446237294E+02 -0.27059810897E+02 -0.70637939720E+01  0.35243036835E+02  0.51100000000E-03 0.  1.
        -12    1    3    3    0    0  0.45218900602E+01  0.32556172014E+01 -0.20526250330E+01  0.59379965144E+01  0.00000000000E+00 0.  1.
</event>
<event>
 7    1  0.6055092E-013  0.5930194E+02  0.7816164E-02  0.1266605E+00
        -11   -1    0    0    0    0  0.00000000000E+00  0.00000000000E+00  0.45593999997E+02  0.45594000000E+02  0.51100000000E-03 0.  1.
         11   -1    0    0    0    0 -0.00000000000E+00 -0.00000000000E+00 -0.45593999997E+02  0.45594000000E+02  0.51100000000E-03 0. -1.
    9900012    2    1    2    0    0 -0.24186868079E+01  0.31392982063E+02 -0.50350466811E+01  0.59301936214E+02  0.49999985749E+02 0.  0.
        -12    1    1    2    0    0  0.24186868079E+01 -0.31392982063E+02  0.50350466811E+01  0.31886063786E+02  0.00000000000E+00 0.  1.
         11    1    3    3    0    0  0.10474586186E+02  0.15775408182E+02  0.81498735657E+01  0.20615549919E+02  0.51100000000E-03 0. -1.
        -11    1    3    3    0    0 -0.12885895863E+02  0.15258760251E+02 -0.22086638859E+02  0.29777435970E+02  0.51100000000E-03 0.  1.
        -12    1    3    3    0    0 -0.73771308673E-02  0.35881363050E+00  0.89017186121E+01  0.89089503250E+01  0.00000000000E+00 0.  1.
</event>
<event>
 7    1  0.6055092E-013  0.5930196E+02  0.7816164E-02  0.1266605E+00
        -11   -1    0    0    0    0  0.00000000000E+00  0.00000000000E+00  0.45593999997E+02  0.45594000000E+02  0.51100000000E-03 0. -1.
         11   -1    0    0    0    0 -0.00000000000E+00 -0.00000000000E+00 -0.45593999997E+02  0.45594000000E+02  0.51100000000E-03 0.  1.
    9900012    2    1    2    0    0 -0.99484165675E+01 -0.19046868638E+02  0.23557707094E+02  0.59301956648E+02  0.50000023016E+02 0.  0.
        -12    1    1    2    0    0  0.99484165675E+01  0.19046868638E+02 -0.23557707094E+02  0.31886043352E+02  0.00000000000E+00 0.  1.
         11    1    3    3    0    0 -0.16090645492E+02 -0.14254131059E+02  0.16887098073E+02  0.27336115418E+02  0.51100000000E-03 0. -1.
        -11    1    3    3    0    0  0.12353786843E+02 -0.43324698643E+01  0.16046674865E+02  0.20709469307E+02  0.51100000000E-03 0.  1.
         12    1    3    3    0    0 -0.62115579193E+01 -0.46026771512E+00 -0.93760658436E+01  0.11256371923E+02  0.00000000000E+00 0. -1.
</event>
<event>
 7    1  0.6055092E-013  0.5930192E+02  0.7816164E-02  0.1266605E+00
        -11   -1    0    0    0    0  0.00000000000E+00  0.00000000000E+00  0.45593999997E+02  0.45594000000E+02  0.51100000000E-03 0. -1.
         11   -1    0    0    0    0 -0.00000000000E+00 -0.00000000000E+00 -0.45593999997E+02  0.45594000000E+02  0.51100000000E-03 0.  1.
    9900012    2    1    2    0    0 -0.12295386503E+02  0.25848022284E+02 -0.14050814019E+02  0.59301919026E+02  0.49999954403E+02 0.  0.
        -12    1    1    2    0    0  0.12295386503E+02 -0.25848022284E+02  0.14050814019E+02  0.31886080974E+02  0.00000000000E+00 0.  1.
         11    1    3    3    0    0 -0.10850101120E+02  0.56919772929E+01 -0.10881846119E+01  0.12300709159E+02  0.51100000000E-03 0. -1.
        -11    1    3    3    0    0  0.66937833756E+01  0.12328282442E+02 -0.26128323842E+02  0.29656071737E+02  0.51100000000E-03 0.  1.
        -12    1    3    3    0    0 -0.81390687588E+01  0.78277625496E+01  0.13165694435E+02  0.17345138130E+02  0.00000000000E+00 0.  1.
</event>
<event>
 7    1  0.6055092E-013  0.5930197E+02  0.7816164E-02  0.1266605E+00
        -11   -1    0    0    0    0  0.00000000000E+00  0.00000000000E+00  0.45593999997E+02  0.45594000000E+02  0.51100000000E-03 0. -1.
         11   -1    0    0    0    0 -0.00000000000E+00 -0.00000000000E+00 -0.45593999997E+02  0.45594000000E+02  0.51100000000E-03 0.  1.
    9900012    2    1    2    0    0  0.20246461291E+02 -0.19302279809E+02  0.15304312548E+02  0.59301965703E+02  0.50000039531E+02 0.  0.
        -12    1    1    2    0    0 -0.20246461291E+02  0.19302279809E+02 -0.15304312548E+02  0.31886034297E+02  0.00000000000E+00 0.  1.
         11    1    3    3    0    0  0.91199798167E+01 -0.21649126797E+02  0.93539355848E+01  0.25285466856E+02  0.51100000000E-03 0. -1.
        -11    1    3    3    0    0 -0.31759086616E+01 -0.79650272007E+01 -0.78502866260E+01  0.11625620607E+02  0.51100000000E-03 0.  1.
         12    1    3    3    0    0  0.14302390135E+02  0.10311874188E+02  0.13800663589E+02  0.22390878240E+02  0.00000000000E+00 0. -1.
</event>
<event>
 7    1  0.6055092E-013  0.5930195E+02  0.7816164E-02  0.1266605E+00
        -11   -1    0    0    0    0  0.00000000000E+00  0.00000000000E+00  0.45593999997E+02  0.45594000000E+02  0.51100000000E-03 0. -1.
         11   -1    0    0    0    0 -0.00000000000E+00 -0.00000000000E+00 -0.45593999997E+02  0.45594000000E+02  0.51100000000E-03 0.  1.
    9900012    2    1    2    0    0 -0.17562247649E+01 -0.97233953680E+01  0.30316516127E+02  0.59301954573E+02  0.50000019232E+02 0.  0.
        -12    1    1    2    0    0  0.17562247649E+01  0.97233953680E+01 -0.30316516127E+02  0.31886045427E+02  0.00000000000E+00 0.  1.
         11    1    3    3    0    0  0.63729444593E+01  0.10384372742E+02  0.28603003369E+02  0.31089892575E+02  0.51100000000E-03 0. -1.
        -11    1    3    3    0    0  0.35336577269E+01 -0.10397473180E+02 -0.44277174580E+01  0.11840560274E+02  0.51100000000E-03 0.  1.
         12    1    3    3    0    0 -0.11662826951E+02 -0.97102949301E+01  0.61412302163E+01  0.16371501724E+02  0.00000000000E+00 0. -1.
</event>
<event>
 7    1  0.6055092E-013  0.5930190E+02  0.7816164E-02  0.1266605E+00
        -11   -1    0    0    0    0  0.00000000000E+00  0.00000000000E+00  0.45593999997E+02  0.45594000000E+02  0.51100000000E-03 0. -1.
         11   -1    0    0    0    0 -0.00000000000E+00 -0.00000000000E+00 -0.45593999997E+02  0.45594000000E+02  0.51100000000E-03 0.  1.
    9900012    2    1    2    0    0  0.28583773385E+02 -0.25818075274E+01  0.13893355895E+02  0.59301903202E+02  0.49999925543E+02 0.  0.
        -12    1    1    2    0    0 -0.28583773385E+02  0.25818075274E+01 -0.13893355895E+02  0.31886096798E+02  0.00000000000E+00 0.  1.
         11    1    3    3    0    0 -0.22177641741E+00 -0.30469716373E+01  0.14142027267E+02  0.14468246487E+02  0.51100000000E-03 0. -1.
        -11    1    3    3    0    0  0.27012689327E+02 -0.61466093192E+01 -0.12813252587E+02  0.30522870654E+02  0.51100000000E-03 0.  1.
        -12    1    3    3    0    0  0.17928604747E+01  0.66117734292E+01  0.12564581215E+02  0.14310786061E+02  0.00000000000E+00 0.  1.
</event>
<event>
 7    1  0.6055092E-013  0.5930197E+02  0.7816164E-02  0.1266605E+00
        -11   -1    0    0    0    0  0.00000000000E+00  0.00000000000E+00  0.45593999997E+02  0.45594000000E+02  0.51100000000E-03 0.  1.
         11   -1    0    0    0    0 -0.00000000000E+00 -0.00000000000E+00 -0.45593999997E+02  0.45594000000E+02  0.51100000000E-03 0. -1.
    9900012    2    1    2    0    0  0.18537632349E+01  0.31351147592E+02 -0.55125581325E+01  0.59301965586E+02  0.50000039317E+02 0.  0.
        -12    1    1    2    0    0 -0.18537632349E+01 -0.31351147592E+02  0.55125581325E+01  0.31886034414E+02  0.00000000000E+00 0.  1.
         11    1    3    3    0    0  0.84880237708E+01  0.20986137462E+02 -0.99706488294E+01  0.24736174956E+02  0.51100000000E-03 0. -1.
        -11    1    3    3    0    0 -0.19482850822E+02  0.66607642803E+01  0.49801623428E+01  0.21183703033E+02  0.51100000000E-03 0.  1.
        -12    1    3    3    0    0  0.12848590286E+02  0.37042458502E+01 -0.52207164590E+00  0.13382087598E+02  0.00000000000E+00 0.  1.
</event>
<event>
 7    1  0.6055092E-013  0.5930196E+02  0.7816164E-02  0.1266605E+00
        -11   -1    0    0    0    0  0.00000000000E+00  0.00000000000E+00  0.45593999997E+02  0.45594000000E+02  0.51100000000E-03 0.  1.
         11   -1    0    0    0    0 -0.00000000000E+00 -0.00000000000E+00 -0.45593999997E+02  0.45594000000E+02  0.51100000000E-03 0. -1.
    9900012    2    1    2    0    0  0.62392412786E+00  0.16253843888E+02 -0.27425225579E+02  0.59301957277E+02  0.50000024164E+02 0.  0.
        -12    1    1    2    0    0 -0.62392412786E+00 -0.16253843888E+02  0.27425225579E+02  0.31886042723E+02  0.00000000000E+00 0.  1.
         11    1    3    3    0    0  0.17070949102E+02  0.23304633167E+02 -0.22539249549E+02  0.36640701423E+02  0.51100000000E-03 0. -1.
        -11    1    3    3    0    0 -0.62577273476E+01 -0.82753252034E+01  0.16337131051E+01  0.10502817600E+02  0.51100000000E-03 0.  1.
         12    1    3    3    0    0 -0.10189297627E+02  0.12245359244E+01 -0.65196891349E+01  0.12158438254E+02  0.00000000000E+00 0. -1.
</event>
<event>
 7    1  0.6055092E-013  0.5930195E+02  0.7816164E-02  0.1266605E+00
        -11   -1    0    0    0    0  0.00000000000E+00  0.00000000000E+00  0.45593999997E+02  0.45594000000E+02  0.51100000000E-03 0.  1.
         11   -1    0    0    0    0 -0.00000000000E+00 -0.00000000000E+00 -0.45593999997E+02  0.45594000000E+02  0.51100000000E-03 0. -1.
    9900012    2    1    2    0    0 -0.13151118676E+02  0.16104890507E+02 -0.24174385520E+02  0.59301947627E+02  0.50000006565E+02 0.  0.
        -12    1    1    2    0    0  0.13151118676E+02 -0.16104890507E+02  0.24174385520E+02  0.31886052373E+02  0.00000000000E+00 0.  1.
         11    1    3    3    0    0 -0.19166665500E+02  0.30438406498E+02 -0.12954124836E+02  0.38231753910E+02  0.51100000000E-03 0. -1.
        -11    1    3    3    0    0  0.21881296343E+01 -0.26299204195E+01 -0.74408978233E+01  0.81897102138E+01  0.51100000000E-03 0.  1.
         12    1    3    3    0    0  0.38274171900E+01 -0.11703595571E+02 -0.37793628599E+01  0.12880483503E+02  0.00000000000E+00 0. -1.
</event>
<event>
 7    1  0.6055092E-013  0.5930194E+02  0.7816164E-02  0.1266605E+00
        -11   -1    0    0    0    0  0.00000000000E+00  0.00000000000E+00  0.45593999997E+02  0.45594000000E+02  0.51100000000E-03 0.  1.
         11   -1    0    0    0    0 -0.00000000000E+00 -0.00000000000E+00 -0.45593999997E+02  0.45594000000E+02  0.51100000000E-03 0. -1.
    9900012    2    1    2    0    0  0.35670049219E+01 -0.30963367583E+02 -0.67280699133E+01  0.59301943785E+02  0.49999999558E+02 0.  0.
        -12    1    1    2    0    0 -0.35670049219E+01  0.30963367583E+02  0.67280699133E+01  0.31886056215E+02  0.00000000000E+00 0.  1.
         11    1    3    3    0    0 -0.12497521629E+02 -0.29931313781E+02 -0.14071805216E+02  0.35356573559E+02  0.51100000000E-03 0. -1.
        -11    1    3    3    0    0  0.78504832164E+01  0.21871098149E+01  0.11578815712E+02  0.14159184639E+02  0.51100000000E-03 0.  1.
        -12    1    3    3    0    0  0.82140433340E+01 -0.32191636161E+01 -0.42350804090E+01  0.97861855875E+01  0.00000000000E+00 0.  1.
</event>
<event>
 7    1  0.6055092E-013  0.5930201E+02  0.7816164E-02  0.1266605E+00
        -11   -1    0    0    0    0  0.00000000000E+00  0.00000000000E+00  0.45593999997E+02  0.45594000000E+02  0.51100000000E-03 0.  1.
         11   -1    0    0    0    0 -0.00000000000E+00 -0.00000000000E+00 -0.45593999997E+02  0.45594000000E+02  0.51100000000E-03 0. -1.
    9900012    2    1    2    0    0  0.17695288602E+02 -0.14641972376E+02 -0.22117996016E+02  0.59302010263E+02  0.50000120796E+02 0.  0.
        -12    1    1    2    0    0 -0.17695288602E+02  0.14641972376E+02  0.22117996016E+02  0.31885989737E+02  0.00000000000E+00 0.  1.
         11    1    3    3    0    0  0.69516477824E+01 -0.84777565940E+01 -0.32798273667E+02  0.34582141628E+02  0.51100000000E-03 0. -1.
        -11    1    3    3    0    0 -0.12910917374E+01  0.48271655600E+01 -0.39800926279E+00  0.50126696333E+01  0.51100000000E-03 0.  1.
         12    1    3    3    0    0  0.12034732557E+02 -0.10991381342E+02  0.11078286914E+02  0.19707199001E+02  0.00000000000E+00 0. -1.
</event>
<event>
 7    1  0.6055092E-013  0.5930196E+02  0.7816164E-02  0.1266605E+00
        -11   -1    0    0    0    0  0.00000000000E+00  0.00000000000E+00  0.45593999997E+02  0.45594000000E+02  0.51100000000E-03 0.  1.
         11   -1    0    0    0    0 -0.00000000000E+00 -0.00000000000E+00 -0.45593999997E+02  0.45594000000E+02  0.51100000000E-03 0. -1.
    9900012    2    1    2    0    0 -0.27040741973E+02  0.29637007086E+01 -0.16635336584E+02  0.59301958044E+02  0.50000025563E+02 0.  0.
        -12    1    1    2    0    0  0.27040741973E+02 -0.29637007086E+01  0.16635336584E+02  0.31886041956E+02  0.00000000000E+00 0.  1.
         11    1    3    3    0    0  0.68878192963E+01 -0.11563871110E+02  0.41238170600E+01  0.14077323507E+02  0.51100000000E-03 0. -1.
        -11    1    3    3    0    0 -0.23958134323E+02  0.40109583017E+01 -0.70941114241E+01  0.25306252269E+02  0.51100000000E-03 0.  1.
         12    1    3    3    0    0 -0.99704269462E+01  0.10516613517E+02 -0.13665042220E+02  0.19918382269E+02  0.00000000000E+00 0. -1.
</event>
<event>
 7    1  0.6055092E-013  0.5930190E+02  0.7816164E-02  0.1266605E+00
        -11   -1    0    0    0    0  0.00000000000E+00  0.00000000000E+00  0.45593999997E+02  0.45594000000E+02  0.51100000000E-03 0.  1.
         11   -1    0    0    0    0 -0.00000000000E+00 -0.00000000000E+00 -0.45593999997E+02  0.45594000000E+02  0.51100000000E-03 0. -1.
    9900012    2    1    2    0    0  0.10032892858E+02 -0.22441946096E+02 -0.20308217198E+02  0.59301896923E+02  0.49999914093E+02 0.  0.
        -12    1    1    2    0    0 -0.10032892858E+02  0.22441946096E+02  0.20308217198E+02  0.31886103077E+02  0.00000000000E+00 0.  1.
         11    1    3    3    0    0 -0.14342582794E+02 -0.83033455595E+01 -0.17309568028E+02  0.23964064227E+02  0.51100000000E-03 0. -1.
        -11    1    3    3    0    0  0.18644432515E+02 -0.86767301787E+01  0.77602478365E+01  0.21980035422E+02  0.51100000000E-03 0.  1.
         12    1    3    3    0    0  0.57310431367E+01 -0.54618703576E+01 -0.10758897006E+02  0.13357797275E+02  0.00000000000E+00 0. -1.
</event>
<event>
 7    1  0.6055092E-013  0.5930195E+02  0.7816164E-02  0.1266605E+00
        -11   -1    0    0    0    0  0.00000000000E+00  0.00000000000E+00  0.45593999997E+02  0.45594000000E+02  0.51100000000E-03 0.  1.
         11   -1    0    0    0    0 -0.00000000000E+00 -0.00000000000E+00 -0.45593999997E+02  0.45594000000E+02  0.51100000000E-03 0. -1.
    9900012    2    1    2    0    0 -0.25683235368E+02 -0.94285506247E+00 -0.18873328115E+02  0.59301951816E+02  0.50000014205E+02 0.  0.
        -12    1    1    2    0    0  0.25683235368E+02  0.94285506247E+00  0.18873328115E+02  0.31886048184E+02  0.00000000000E+00 0.  1.
         11    1    3    3    0    0 -0.30116549942E+02 -0.53589330585E+01 -0.28117394703E+02  0.41548918507E+02  0.51100000000E-03 0. -1.
        -11    1    3    3    0    0  0.85441813675E+01  0.19388428515E+01  0.18766165582E+01  0.89601248212E+01  0.51100000000E-03 0.  1.
        -12    1    3    3    0    0 -0.41108667932E+01  0.24772351446E+01  0.73674500293E+01  0.87929084886E+01  0.00000000000E+00 0.  1.
</event>
<event>
 7    1  0.6055092E-013  0.5930195E+02  0.7816164E-02  0.1266605E+00
        -11   -1    0    0    0    0  0.00000000000E+00  0.00000000000E+00  0.45593999997E+02  0.45594000000E+02  0.51100000000E-03 0. -1.
         11   -1    0    0    0    0 -0.00000000000E+00 -0.00000000000E+00 -0.45593999997E+02  0.45594000000E+02  0.51100000000E-03 0.  1.
    9900012    2    1    2    0    0  0.15225821925E+02  0.14523232934E+02  0.23957677064E+02  0.59301949156E+02  0.50000009352E+02 0.  0.
        -12    1    1    2    0    0 -0.15225821925E+02 -0.14523232934E+02 -0.23957677064E+02  0.31886050844E+02  0.00000000000E+00 0.  1.
         11    1    3    3    0    0  0.56281018448E+01  0.16387714983E+02  0.76498465794E+01  0.18940773101E+02  0.51100000000E-03 0. -1.
        -11    1    3    3    0    0  0.25776693004E+01 -0.16067790895E+02  0.18189376495E+02  0.24406386476E+02  0.51100000000E-03 0.  1.
         12    1    3    3    0    0  0.70200507796E+01  0.14203308846E+02 -0.18815460099E+01  0.15954789579E+02  0.00000000000E+00 0. -1.
</event>
<event>
 7    1  0.6055092E-013  0.5930189E+02  0.7816164E-02  0.1266605E+00
        -11   -1    0    0    0    0  0.00000000000E+00  0.00000000000E+00  0.45593999997E+02  0.45594000000E+02  0.51100000000E-03 0.  1.
         11   -1    0    0    0    0 -0.00000000000E+00 -0.00000000000E+00 -0.45593999997E+02  0.45594000000E+02  0.51100000000E-03 0. -1.
    9900012    2    1    2    0    0  0.13253527181E+02  0.24757200842E+02 -0.15104601658E+02  0.59301890681E+02  0.49999902708E+02 0.  0.
        -12    1    1    2    0    0 -0.13253527181E+02 -0.24757200842E+02  0.15104601658E+02  0.31886109319E+02  0.00000000000E+00 0.  1.
         11    1    3    3    0    0  0.14491668943E+02  0.20700158996E+02 -0.17055902145E+01  0.25326154257E+02  0.51100000000E-03 0. -1.
        -11    1    3    3    0    0 -0.17542314214E+01 -0.99259540403E+01  0.46809415642E+01  0.11113645022E+02  0.51100000000E-03 0.  1.
         12    1    3    3    0    0  0.51608965965E+00  0.13982995887E+02 -0.18079953008E+02  0.22862091402E+02  0.00000000000E+00 0. -1.
</event>
<event>
 7    1  0.6055092E-013  0.5930196E+02  0.7816164E-02  0.1266605E+00
        -11   -1    0    0    0    0  0.00000000000E+00  0.00000000000E+00  0.45593999997E+02  0.45594000000E+02  0.51100000000E-03 0.  1.
         11   -1    0    0    0    0 -0.00000000000E+00 -0.00000000000E+00 -0.45593999997E+02  0.45594000000E+02  0.51100000000E-03 0. -1.
    9900012    2    1    2    0    0 -0.22801470234E+02 -0.20967348030E+02 -0.75619160293E+01  0.59301963836E+02  0.50000036125E+02 0.  0.
        -12    1    1    2    0    0  0.22801470234E+02  0.20967348030E+02  0.75619160293E+01  0.31886036164E+02  0.00000000000E+00 0.  1.
         11    1    3    3    0    0  0.44412122663E+01 -0.21016624949E+02 -0.14248972470E+02  0.25777046134E+02  0.51100000000E-03 0. -1.
        -11    1    3    3    0    0 -0.21864471540E+02 -0.63921391295E+01 -0.24315441486E-01  0.22779709170E+02  0.51100000000E-03 0.  1.
         12    1    3    3    0    0 -0.53782109596E+01  0.64414160489E+01  0.67113718827E+01  0.10745208532E+02  0.00000000000E+00 0. -1.
</event>
<event>
 7    1  0.6055092E-013  0.5930196E+02  0.7816164E-02  0.1266605E+00
        -11   -1    0    0    0    0  0.00000000000E+00  0.00000000000E+00  0.45593999997E+02  0.45594000000E+02  0.51100000000E-03 0.  1.
         11   -1    0    0    0    0 -0.00000000000E+00 -0.00000000000E+00 -0.45593999997E+02  0.45594000000E+02  0.51100000000E-03 0. -1.
    9900012    2    1    2    0    0 -0.30414697011E+02  0.38670714084E+01  0.87585178689E+01  0.59301958057E+02  0.50000025586E+02 0.  0.
        -12    1    1    2    0    0  0.30414697011E+02 -0.38670714084E+01 -0.87585178689E+01  0.31886041943E+02  0.00000000000E+00 0.  1.
         11    1    3    3    0    0 -0.16445686419E+02 -0.20109090906E+02  0.11424187788E+01  0.26002716392E+02  0.51100000000E-03 0. -1.
        -11    1    3    3    0    0  0.21412712482E+01  0.78039238690E+01  0.66117060640E+01  0.10449924768E+02  0.51100000000E-03 0.  1.
         12    1    3    3    0    0 -0.16110281840E+02  0.16172238445E+02  0.10043930261E+01  0.22849316897E+02  0.00000000000E+00 0. -1.
</event>
<event>
 7    1  0.6055092E-013  0.5930195E+02  0.7816164E-02  0.1266605E+00
        -11   -1    0    0    0    0  0.00000000000E+00  0.00000000000E+00  0.45593999997E+02  0.45594000000E+02  0.51100000000E-03 0. -1.
         11   -1    0    0    0    0 -0.00000000000E+00 -0.00000000000E+00 -0.45593999997E+02  0.45594000000E+02  0.51100000000E-03 0.  1.
    9900012    2    1    2    0    0 -0.14830285288E+01 -0.68949895042E+01  0.31096299377E+02  0.59301951502E+02  0.50000013631E+02 0.  0.
        -12    1    1    2    0    0  0.14830285288E+01  0.68949895042E+01 -0.31096299377E+02  0.31886048498E+02  0.00000000000E+00 0.  1.
         11    1    3    3    0    0 -0.58349822177E+01  0.18516290653E+01 -0.80680792021E+01  0.10127657673E+02  0.51100000000E-03 0. -1.
        -11    1    3    3    0    0  0.12100600400E+02 -0.18590372487E+01  0.36459384756E+02  0.38459943923E+02  0.51100000000E-03 0.  1.
         12    1    3    3    0    0 -0.77486467112E+01 -0.68875813208E+01  0.27049938239E+01  0.10714349905E+02  0.00000000000E+00 0. -1.
</event>
<event>
 7    1  0.6055092E-013  0.5930194E+02  0.7816164E-02  0.1266605E+00
        -11   -1    0    0    0    0  0.00000000000E+00  0.00000000000E+00  0.45593999997E+02  0.45594000000E+02  0.51100000000E-03 0.  1.
         11   -1    0    0    0    0 -0.00000000000E+00 -0.00000000000E+00 -0.45593999997E+02  0.45594000000E+02  0.51100000000E-03 0. -1.
    9900012    2    1    2    0    0 -0.10126811394E+02  0.13776703381E+02 -0.26914142599E+02  0.59301938203E+02  0.49999989377E+02 0.  0.
        -12    1    1    2    0    0  0.10126811394E+02 -0.13776703381E+02  0.26914142599E+02  0.31886061797E+02  0.00000000000E+00 0.  1.
         11    1    3    3    0    0  0.44456650656E+01 -0.45204402169E+00 -0.24565023174E+02  0.24968152624E+02  0.51100000000E-03 0. -1.
        -11    1    3    3    0    0  0.23253375793E+01 -0.17809716188E+01  0.82515914823E+01  0.87560160471E+01  0.51100000000E-03 0.  1.
        -12    1    3    3    0    0 -0.16897814039E+02  0.16009719022E+02 -0.10600710908E+02  0.25577769531E+02  0.00000000000E+00 0.  1.
</event>
<event>
 7    1  0.6055092E-013  0.5930195E+02  0.7816164E-02  0.1266605E+00
        -11   -1    0    0    0    0  0.00000000000E+00  0.00000000000E+00  0.45593999997E+02  0.45594000000E+02  0.51100000000E-03 0. -1.
         11   -1    0    0    0    0 -0.00000000000E+00 -0.00000000000E+00 -0.45593999997E+02  0.45594000000E+02  0.51100000000E-03 0.  1.
    9900012    2    1    2    0    0  0.24144443517E+02 -0.20274826387E+02  0.47641893058E+01  0.59301949171E+02  0.50000009380E+02 0.  0.
        -12    1    1    2    0    0 -0.24144443517E+02  0.20274826387E+02 -0.47641893058E+01  0.31886050829E+02  0.00000000000E+00 0.  1.
         11    1    3    3    0    0  0.36310490502E+02 -0.16826628628E+02  0.37611885440E+01  0.40196190006E+02  0.51100000000E-03 0. -1.
        -11    1    3    3    0    0 -0.52419113650E+00  0.46269921033E+01  0.16028772579E+01  0.49247383724E+01  0.51100000000E-03 0.  1.
         12    1    3    3    0    0 -0.11641855849E+02 -0.80751898616E+01 -0.59987649606E+00  0.14181020792E+02  0.00000000000E+00 0. -1.
</event>
<event>
 7    1  0.7871074E-013  0.5930197E+02  0.7816164E-02  0.1266605E+00
        -11   -1    0    0    0    0  0.00000000000E+00  0.00000000000E+00  0.45593999997E+02  0.45594000000E+02  0.51100000000E-03 0. -1.
         11   -1    0    0    0    0 -0.00000000000E+00 -0.00000000000E+00 -0.45593999997E+02  0.45594000000E+02  0.51100000000E-03 0.  1.
    9900012    2    1    2    0    0  0.79573471528E+01 -0.28226570882E+02  0.12516393303E+02  0.59301972044E+02  0.50000051096E+02 0.  0.
        -12    1    1    2    0    0 -0.79573471528E+01  0.28226570882E+02 -0.12516393303E+02  0.31886027956E+02  0.00000000000E+00 0.  1.
         11    1    3    3    0    0  0.14188219442E+01 -0.24149937237E+02  0.16618309156E+02  0.29349629022E+02  0.51100000000E-03 0. -1.
        -11    1    3    3    0    0  0.78818202882E+01  0.11551029113E+02 -0.20532130337E+01  0.14133826398E+02  0.51100000000E-03 0.  1.
        -12    1    3    3    0    0 -0.13432950796E+01 -0.15627662758E+02 -0.20487028194E+01  0.15818516624E+02  0.00000000000E+00 0.  1.
</event>
<event>
 7    1  0.6055092E-013  0.5930193E+02  0.7816164E-02  0.1266605E+00
        -11   -1    0    0    0    0  0.00000000000E+00  0.00000000000E+00  0.45593999997E+02  0.45594000000E+02  0.51100000000E-03 0. -1.
         11   -1    0    0    0    0 -0.00000000000E+00 -0.00000000000E+00 -0.45593999997E+02  0.45594000000E+02  0.51100000000E-03 0.  1.
    9900012    2    1    2    0    0 -0.30212908489E+02  0.93981496586E+01  0.39466642300E+01  0.59301933844E+02  0.49999981427E+02 0.  0.
        -12    1    1    2    0    0  0.30212908489E+02 -0.93981496586E+01 -0.39466642300E+01  0.31886066156E+02  0.00000000000E+00 0.  1.
         11    1    3    3    0    0 -0.12689982561E+02  0.47438498076E+00  0.37802608206E+00  0.12704471752E+02  0.51100000000E-03 0. -1.
        -11    1    3    3    0    0 -0.23622580373E+01 -0.56443953712E+01 -0.16459172890E+02  0.17559721941E+02  0.51100000000E-03 0.  1.
        -12    1    3    3    0    0 -0.15160667890E+02  0.14568160049E+02  0.20027811038E+02  0.29037740151E+02  0.00000000000E+00 0.  1.
</event>
<event>
 7    1  0.6055092E-013  0.5930193E+02  0.7816164E-02  0.1266605E+00
        -11   -1    0    0    0    0  0.00000000000E+00  0.00000000000E+00  0.45593999997E+02  0.45594000000E+02  0.51100000000E-03 0. -1.
         11   -1    0    0    0    0 -0.00000000000E+00 -0.00000000000E+00 -0.45593999997E+02  0.45594000000E+02  0.51100000000E-03 0.  1.
    9900012    2    1    2    0    0 -0.29720795210E+02  0.70441082341E+00  0.11528198336E+02  0.59301933774E+02  0.49999981299E+02 0.  0.
        -12    1    1    2    0    0  0.29720795210E+02 -0.70441082341E+00 -0.11528198336E+02  0.31886066226E+02  0.00000000000E+00 0.  1.
         11    1    3    3    0    0 -0.85167605905E+01 -0.18652624667E+00  0.14366055857E+01  0.86390878492E+01  0.51100000000E-03 0. -1.
        -11    1    3    3    0    0  0.11173074719E+02  0.11425806717E+01  0.14112289522E+02  0.18036069557E+02  0.51100000000E-03 0.  1.
        -12    1    3    3    0    0 -0.32377109338E+02 -0.25164360167E+00 -0.40206967714E+01  0.32626776367E+02  0.00000000000E+00 0.  1.
</event>
<event>
 7    1  0.6055092E-013  0.5930196E+02  0.7816164E-02  0.1266605E+00
        -11   -1    0    0    0    0  0.00000000000E+00  0.00000000000E+00  0.45593999997E+02  0.45594000000E+02  0.51100000000E-03 0.  1.
         11   -1    0    0    0    0 -0.00000000000E+00 -0.00000000000E+00 -0.45593999997E+02  0.45594000000E+02  0.51100000000E-03 0. -1.
    9900012    2    1    2    0    0  0.23712617990E+02  0.20029037100E+02 -0.72985714627E+01  0.59301957215E+02  0.50000024050E+02 0.  0.
        -12    1    1    2    0    0 -0.23712617990E+02 -0.20029037100E+02  0.72985714627E+01  0.31886042785E+02  0.00000000000E+00 0.  1.
         11    1    3    3    0    0 -0.40838786147E+01  0.22523501844E+02 -0.10648142759E+02  0.25246170884E+02  0.51100000000E-03 0. -1.
        -11    1    3    3    0    0  0.14598716224E+02  0.61818866166E+01  0.77688773302E+01  0.17654848987E+02  0.51100000000E-03 0.  1.
         12    1    3    3    0    0  0.13197780381E+02 -0.86763513606E+01 -0.44193060344E+01  0.16400937344E+02  0.00000000000E+00 0. -1.
</event>
<event>
 7    1  0.6055092E-013  0.5930197E+02  0.7816164E-02  0.1266605E+00
        -11   -1    0    0    0    0  0.00000000000E+00  0.00000000000E+00  0.45593999997E+02  0.45594000000E+02  0.51100000000E-03 0.  1.
         11   -1    0    0    0    0 -0.00000000000E+00 -0.00000000000E+00 -0.45593999997E+02  0.45594000000E+02  0.51100000000E-03 0. -1.
    9900012    2    1    2    0    0  0.52260645401E+01  0.12879701168E+01 -0.31428462401E+02  0.59301970669E+02  0.50000048587E+02 0.  0.
        -12    1    1    2    0    0 -0.52260645401E+01 -0.12879701168E+01  0.31428462401E+02  0.31886029331E+02  0.00000000000E+00 0.  1.
         11    1    3    3    0    0 -0.14151514586E+02  0.74744813989E+01 -0.18747535044E+02  0.24649610702E+02  0.51100000000E-03 0. -1.
        -11    1    3    3    0    0  0.88088533342E+01 -0.14166907564E+02 -0.54759988045E+00  0.16691226224E+02  0.51100000000E-03 0.  1.
         12    1    3    3    0    0  0.10568725792E+02  0.79803962817E+01 -0.12133327477E+02  0.17961133743E+02  0.00000000000E+00 0. -1.
</event>
<event>
 7    1  0.6055092E-013  0.5930193E+02  0.7816164E-02  0.1266605E+00
        -11   -1    0    0    0    0  0.00000000000E+00  0.00000000000E+00  0.45593999997E+02  0.45594000000E+02  0.51100000000E-03 0. -1.
         11   -1    0    0    0    0 -0.00000000000E+00 -0.00000000000E+00 -0.45593999997E+02  0.45594000000E+02  0.51100000000E-03 0.  1.
    9900012    2    1    2    0    0 -0.35163138584E+01  0.31187092174E+02 -0.56322741891E+01  0.59301926332E+02  0.49999967728E+02 0.  0.
        -12    1    1    2    0    0  0.35163138584E+01 -0.31187092174E+02  0.56322741891E+01  0.31886073668E+02  0.00000000000E+00 0.  1.
         11    1    3    3    0    0 -0.22330829489E+02  0.50212177670E+01 -0.11380680865E+02  0.25561660172E+02  0.51100000000E-03 0. -1.
        -11    1    3    3    0    0  0.23220347965E+01  0.91512070633E+00 -0.12320295103E+01  0.27833771715E+01  0.51100000000E-03 0.  1.
         12    1    3    3    0    0  0.16492480834E+02  0.25250753700E+02  0.69804361865E+01  0.30956888989E+02  0.00000000000E+00 0. -1.
</event>
<event>
 7    1  0.6055092E-013  0.5930192E+02  0.7816164E-02  0.1266605E+00
        -11   -1    0    0    0    0  0.00000000000E+00  0.00000000000E+00  0.45593999997E+02  0.45594000000E+02  0.51100000000E-03 0. -1.
         11   -1    0    0    0    0 -0.00000000000E+00 -0.00000000000E+00 -0.45593999997E+02  0.45594000000E+02  0.51100000000E-03 0.  1.
    9900012    2    1    2    0    0 -0.31000090448E+02 -0.70574876933E+01 -0.24306756134E+01  0.59301922721E+02  0.49999961141E+02 0.  0.
        -12    1    1    2    0    0  0.31000090448E+02  0.70574876933E+01  0.24306756134E+01  0.31886077279E+02  0.00000000000E+00 0.  1.
         11    1    3    3    0    0  0.23372304997E+01  0.60760617158E+01  0.12303245052E+02  0.13919447239E+02  0.51100000000E-03 0. -1.
        -11    1    3    3    0    0 -0.29345786107E+02 -0.22959290205E+00 -0.11287038410E+02  0.31442409442E+02  0.51100000000E-03 0.  1.
        -12    1    3    3    0    0 -0.39915348401E+01 -0.12903956507E+02 -0.34468822554E+01  0.13940066040E+02  0.00000000000E+00 0.  1.
</event>
<event>
 7    1  0.6055092E-013  0.5930196E+02  0.7816164E-02  0.1266605E+00
        -11   -1    0    0    0    0  0.00000000000E+00  0.00000000000E+00  0.45593999997E+02  0.45594000000E+02  0.51100000000E-03 0.  1.
         11   -1    0    0    0    0 -0.00000000000E+00 -0.00000000000E+00 -0.45593999997E+02  0.45594000000E+02  0.51100000000E-03 0. -1.
    9900012    2    1    2    0    0 -0.46043091212E+01 -0.25415053921E+02  0.18697455630E+02  0.59301961122E+02  0.50000031176E+02 0.  0.
        -12    1    1    2    0    0  0.46043091212E+01  0.25415053921E+02 -0.18697455630E+02  0.31886038878E+02  0.00000000000E+00 0.  1.
         11    1    3    3    0    0 -0.19238309491E+02 -0.43059335711E+01  0.16731734898E+02  0.25857389059E+02  0.51100000000E-03 0. -1.
        -11    1    3    3    0    0  0.51141773661E+01 -0.85089541485E+01  0.11346428041E+02  0.15076423329E+02  0.51100000000E-03 0.  1.
         12    1    3    3    0    0  0.95198230033E+01 -0.12600166201E+02 -0.93807073089E+01  0.18368148734E+02  0.00000000000E+00 0. -1.
</event>
<event>
 7    1  0.6055092E-013  0.5930196E+02  0.7816164E-02  0.1266605E+00
        -11   -1    0    0    0    0  0.00000000000E+00  0.00000000000E+00  0.45593999997E+02  0.45594000000E+02  0.51100000000E-03 0. -1.
         11   -1    0    0    0    0 -0.00000000000E+00 -0.00000000000E+00 -0.45593999997E+02  0.45594000000E+02  0.51100000000E-03 0.  1.
    9900012    2    1    2    0    0  0.23398954166E+02  0.99809976288E+01  0.19224673320E+02  0.59301961771E+02  0.50000032359E+02 0.  0.
        -12    1    1    2    0    0 -0.23398954166E+02 -0.99809976288E+01 -0.19224673320E+02  0.31886038229E+02  0.00000000000E+00 0.  1.
         11    1    3    3    0    0  0.24765428708E+02  0.58630441405E+01  0.17934802750E+02  0.31134528993E+02  0.51100000000E-03 0. -1.
        -11    1    3    3    0    0 -0.70007129991E+01  0.14576065513E+02 -0.36036192328E+00  0.16174100572E+02  0.51100000000E-03 0.  1.
        -12    1    3    3    0    0  0.56342384564E+01 -0.10458112025E+02  0.16502324933E+01  0.11993332205E+02  0.00000000000E+00 0.  1.
</event>
<event>
 7    1  0.6055092E-013  0.5930192E+02  0.7816164E-02  0.1266605E+00
        -11   -1    0    0    0    0  0.00000000000E+00  0.00000000000E+00  0.45593999997E+02  0.45594000000E+02  0.51100000000E-03 0.  1.
         11   -1    0    0    0    0 -0.00000000000E+00 -0.00000000000E+00 -0.45593999997E+02  0.45594000000E+02  0.51100000000E-03 0. -1.
    9900012    2    1    2    0    0 -0.16426090042E+02 -0.27051775627E+02  0.38868131282E+01  0.59301916594E+02  0.49999949968E+02 0.  0.
        -12    1    1    2    0    0  0.16426090042E+02  0.27051775627E+02 -0.38868131282E+01  0.31886083406E+02  0.00000000000E+00 0.  1.
         11    1    3    3    0    0 -0.18813090716E+02 -0.20092979156E+01  0.13779323202E+02  0.23405969507E+02  0.51100000000E-03 0. -1.
        -11    1    3    3    0    0  0.51169671393E+01 -0.25292113420E+02 -0.15181202930E+02  0.29938992579E+02  0.51100000000E-03 0.  1.
        -12    1    3    3    0    0 -0.27299664655E+01  0.24963570820E+00  0.52886928564E+01  0.59569545088E+01  0.00000000000E+00 0.  1.
</event>
<event>
 7    1  0.6055092E-013  0.5930197E+02  0.7816164E-02  0.1266605E+00
        -11   -1    0    0    0    0  0.00000000000E+00  0.00000000000E+00  0.45593999997E+02  0.45594000000E+02  0.51100000000E-03 0.  1.
         11   -1    0    0    0    0 -0.00000000000E+00 -0.00000000000E+00 -0.45593999997E+02  0.45594000000E+02  0.51100000000E-03 0. -1.
    9900012    2    1    2    0    0 -0.26649929334E+02  0.45158453014E+00 -0.17501329153E+02  0.59301965686E+02  0.50000039500E+02 0.  0.
        -12    1    1    2    0    0  0.26649929334E+02 -0.45158453014E+00  0.17501329153E+02  0.31886034314E+02  0.00000000000E+00 0.  1.
         11    1    3    3    0    0 -0.26049169539E+01  0.53989395104E+01 -0.16797034769E+02  0.17834643743E+02  0.51100000000E-03 0. -1.
        -11    1    3    3    0    0 -0.41993477048E+00  0.18333783265E+01  0.13128985402E+02  0.13263026775E+02  0.51100000000E-03 0.  1.
        -12    1    3    3    0    0 -0.23625077610E+02 -0.67807333067E+01 -0.13833279786E+02  0.28204295168E+02  0.00000000000E+00 0.  1.
</event>
<event>
 7    1  0.6055092E-013  0.5930193E+02  0.7816164E-02  0.1266605E+00
        -11   -1    0    0    0    0  0.00000000000E+00  0.00000000000E+00  0.45593999997E+02  0.45594000000E+02  0.51100000000E-03 0.  1.
         11   -1    0    0    0    0 -0.00000000000E+00 -0.00000000000E+00 -0.45593999997E+02  0.45594000000E+02  0.51100000000E-03 0. -1.
    9900012    2    1    2    0    0  0.15601120973E+02 -0.12713573444E+02 -0.24732401629E+02  0.59301927560E+02  0.49999969967E+02 0.  0.
        -12    1    1    2    0    0 -0.15601120973E+02  0.12713573444E+02  0.24732401629E+02  0.31886072440E+02  0.00000000000E+00 0.  1.
         11    1    3    3    0    0  0.18054170757E+02 -0.80302941035E+01 -0.14740924424E+01  0.19814430447E+02  0.51100000000E-03 0. -1.
        -11    1    3    3    0    0 -0.97030274430E+01  0.31960777204E+01  0.33939445531E+01  0.10764874093E+02  0.51100000000E-03 0.  1.
        -12    1    3    3    0    0  0.72499776581E+01 -0.78793570604E+01 -0.26652253740E+02  0.28722623020E+02  0.00000000000E+00 0.  1.
</event>
<event>
 7    1  0.6055092E-013  0.5930195E+02  0.7816164E-02  0.1266605E+00
        -11   -1    0    0    0    0  0.00000000000E+00  0.00000000000E+00  0.45593999997E+02  0.45594000000E+02  0.51100000000E-03 0. -1.
         11   -1    0    0    0    0 -0.00000000000E+00 -0.00000000000E+00 -0.45593999997E+02  0.45594000000E+02  0.51100000000E-03 0.  1.
    9900012    2    1    2    0    0  0.23717106923E+02  0.13817259934E+02  0.16226600083E+02  0.59301946887E+02  0.50000005215E+02 0.  0.
        -12    1    1    2    0    0 -0.23717106923E+02 -0.13817259934E+02 -0.16226600083E+02  0.31886053113E+02  0.00000000000E+00 0.  1.
         11    1    3    3    0    0  0.11987482946E+02  0.12562496745E+01  0.20770577609E+02  0.24014470744E+02  0.51100000000E-03 0. -1.
        -11    1    3    3    0    0 -0.47097453057E-01  0.19768405741E+00 -0.15173297438E+02  0.15174658235E+02  0.51100000000E-03 0.  1.
        -12    1    3    3    0    0  0.11776721430E+02  0.12363326202E+02  0.10629319911E+02  0.20112817908E+02  0.00000000000E+00 0.  1.
</event>
<event>
 7    1  0.6055092E-013  0.5930194E+02  0.7816164E-02  0.1266605E+00
        -11   -1    0    0    0    0  0.00000000000E+00  0.00000000000E+00  0.45593999997E+02  0.45594000000E+02  0.51100000000E-03 0.  1.
         11   -1    0    0    0    0 -0.00000000000E+00 -0.00000000000E+00 -0.45593999997E+02  0.45594000000E+02  0.51100000000E-03 0. -1.
    9900012    2    1    2    0    0  0.14065020781E+02  0.19782695645E+02 -0.20677058345E+02  0.59301943512E+02  0.49999999059E+02 0.  0.
        -12    1    1    2    0    0 -0.14065020781E+02 -0.19782695645E+02  0.20677058345E+02  0.31886056488E+02  0.00000000000E+00 0.  1.
         11    1    3    3    0    0  0.36323089487E+01  0.18316903020E+02 -0.91230663354E+01  0.20782996516E+02  0.51100000000E-03 0. -1.
        -11    1    3    3    0    0 -0.71153317856E+01 -0.11214478152E+02  0.12931934863E+01  0.13344092936E+02  0.51100000000E-03 0.  1.
        -12    1    3    3    0    0  0.17548043618E+02  0.12680270776E+02 -0.12847185496E+02  0.25174854060E+02  0.00000000000E+00 0.  1.
</event>
<event>
 7    1  0.6055092E-013  0.5930191E+02  0.7816164E-02  0.1266605E+00
        -11   -1    0    0    0    0  0.00000000000E+00  0.00000000000E+00  0.45593999997E+02  0.45594000000E+02  0.51100000000E-03 0.  1.
         11   -1    0    0    0    0 -0.00000000000E+00 -0.00000000000E+00 -0.45593999997E+02  0.45594000000E+02  0.51100000000E-03 0. -1.
    9900012    2    1    2    0    0 -0.21312615341E+02 -0.23244570125E+02 -0.47101089242E+01  0.59301909944E+02  0.49999937840E+02 0.  0.
        -12    1    1    2    0    0  0.21312615341E+02  0.23244570125E+02  0.47101089242E+01  0.31886090056E+02  0.00000000000E+00 0.  1.
         11    1    3    3    0    0 -0.16536038139E+02 -0.80751228315E+01 -0.38009630716E+01  0.18790835176E+02  0.51100000000E-03 0. -1.
        -11    1    3    3    0    0  0.15084905961E+02 -0.69629581261E+01 -0.72172771901E+01  0.18114255823E+02  0.51100000000E-03 0.  1.
        -12    1    3    3    0    0 -0.19861483163E+02 -0.82064891672E+01  0.63081313375E+01  0.22396818945E+02  0.00000000000E+00 0.  1.
</event>
<event>
 7    1  0.6055092E-013  0.5930194E+02  0.7816164E-02  0.1266605E+00
        -11   -1    0    0    0    0  0.00000000000E+00  0.00000000000E+00  0.45593999997E+02  0.45594000000E+02  0.51100000000E-03 0.  1.
         11   -1    0    0    0    0 -0.00000000000E+00 -0.00000000000E+00 -0.45593999997E+02  0.45594000000E+02  0.51100000000E-03 0. -1.
    9900012    2    1    2    0    0 -0.28579546903E+02 -0.39432998956E+01 -0.13578679379E+02  0.59301942719E+02  0.49999997614E+02 0.  0.
        -12    1    1    2    0    0  0.28579546903E+02  0.39432998956E+01  0.13578679379E+02  0.31886057281E+02  0.00000000000E+00 0.  1.
         11    1    3    3    0    0 -0.15091025472E+02  0.45826124350E+01 -0.30949229396E+02  0.34736064645E+02  0.51100000000E-03 0. -1.
        -11    1    3    3    0    0 -0.73166806681E+01 -0.32533763987E+01  0.13202448247E+02  0.15440949257E+02  0.51100000000E-03 0.  1.
         12    1    3    3    0    0 -0.61718407626E+01 -0.52725359319E+01  0.41681017707E+01  0.91249288174E+01  0.00000000000E+00 0. -1.
</event>
<event>
 7    1  0.6055092E-013  0.5930191E+02  0.7816164E-02  0.1266605E+00
        -11   -1    0    0    0    0  0.00000000000E+00  0.00000000000E+00  0.45593999997E+02  0.45594000000E+02  0.51100000000E-03 0.  1.
         11   -1    0    0    0    0 -0.00000000000E+00 -0.00000000000E+00 -0.45593999997E+02  0.45594000000E+02  0.51100000000E-03 0. -1.
    9900012    2    1    2    0    0  0.30014912092E+02 -0.39217670096E+01 -0.10022355843E+02  0.59301908659E+02  0.49999935495E+02 0.  0.
        -12    1    1    2    0    0 -0.30014912092E+02  0.39217670096E+01  0.10022355843E+02  0.31886091341E+02  0.00000000000E+00 0.  1.
         11    1    3    3    0    0  0.30110707307E+02  0.90227316232E+01 -0.12053513091E+02  0.33665287145E+02  0.51100000000E-03 0. -1.
        -11    1    3    3    0    0  0.70480862635E+01 -0.13717068024E+02  0.69635182078E+01  0.16921112884E+02  0.51100000000E-03 0.  1.
        -12    1    3    3    0    0 -0.71438814779E+01  0.77256939091E+00 -0.49323609598E+01  0.87155086295E+01  0.00000000000E+00 0.  1.
</event>
<event>
 7    1  0.6055092E-013  0.5930190E+02  0.7816164E-02  0.1266605E+00
        -11   -1    0    0    0    0  0.00000000000E+00  0.00000000000E+00  0.45593999997E+02  0.45594000000E+02  0.51100000000E-03 0.  1.
         11   -1    0    0    0    0 -0.00000000000E+00 -0.00000000000E+00 -0.45593999997E+02  0.45594000000E+02  0.51100000000E-03 0. -1.
    9900012    2    1    2    0    0  0.31242423546E+02 -0.49431545530E+00 -0.63553271100E+01  0.59301897079E+02  0.49999914378E+02 0.  0.
        -12    1    1    2    0    0 -0.31242423546E+02  0.49431545530E+00  0.63553271100E+01  0.31886102921E+02  0.00000000000E+00 0.  1.
         11    1    3    3    0    0 -0.25227008188E+00 -0.29529322823E+01 -0.49245248493E+01  0.57475555248E+01  0.51100000000E-03 0. -1.
        -11    1    3    3    0    0  0.18940993761E+01  0.18484218466E+02  0.50959072012E+01  0.19267127840E+02  0.51100000000E-03 0.  1.
        -12    1    3    3    0    0  0.29600594252E+02 -0.16025601639E+02 -0.65267094619E+01  0.34287213715E+02  0.00000000000E+00 0.  1.
</event>
<event>
 7    1  0.6055092E-013  0.5930196E+02  0.7816164E-02  0.1266605E+00
        -11   -1    0    0    0    0  0.00000000000E+00  0.00000000000E+00  0.45593999997E+02  0.45594000000E+02  0.51100000000E-03 0.  1.
         11   -1    0    0    0    0 -0.00000000000E+00 -0.00000000000E+00 -0.45593999997E+02  0.45594000000E+02  0.51100000000E-03 0. -1.
    9900012    2    1    2    0    0 -0.14907239565E+02 -0.18416293191E+02 -0.21338547355E+02  0.59301964662E+02  0.50000037632E+02 0.  0.
        -12    1    1    2    0    0  0.14907239565E+02  0.18416293191E+02  0.21338547355E+02  0.31886035338E+02  0.00000000000E+00 0.  1.
         11    1    3    3    0    0 -0.21982849108E+02 -0.20264693646E+02 -0.27752463795E+02  0.40793415038E+02  0.51100000000E-03 0. -1.
        -11    1    3    3    0    0  0.40303219612E+01  0.47534749504E+01 -0.39117856837E+01  0.73580627009E+01  0.51100000000E-03 0.  1.
         12    1    3    3    0    0  0.30452875815E+01 -0.29050744959E+01  0.10325702124E+02  0.11150486923E+02  0.00000000000E+00 0. -1.
</event>
<event>
 7    1  0.6055092E-013  0.5930196E+02  0.7816164E-02  0.1266605E+00
        -11   -1    0    0    0    0  0.00000000000E+00  0.00000000000E+00  0.45593999997E+02  0.45594000000E+02  0.51100000000E-03 0.  1.
         11   -1    0    0    0    0 -0.00000000000E+00 -0.00000000000E+00 -0.45593999997E+02  0.45594000000E+02  0.51100000000E-03 0. -1.
    9900012    2    1    2    0    0  0.28955385085E+02  0.61754281500E-01 -0.13352961553E+02  0.59301957266E+02  0.50000024143E+02 0.  0.
        -12    1    1    2    0    0 -0.28955385085E+02 -0.61754281500E-01  0.13352961553E+02  0.31886042734E+02  0.00000000000E+00 0.  1.
         11    1    3    3    0    0  0.19728077744E+02  0.10726171023E+02 -0.26929044071E+02  0.35063103273E+02  0.51100000000E-03 0. -1.
        -11    1    3    3    0    0 -0.25167728499E+01 -0.20521631964E+01  0.80182989159E+01  0.86509327317E+01  0.51100000000E-03 0.  1.
         12    1    3    3    0    0  0.11744080191E+02 -0.86122535454E+01  0.55577836020E+01  0.15587921261E+02  0.00000000000E+00 0. -1.
</event>
<event>
 7    1  0.6055092E-013  0.5930196E+02  0.7816164E-02  0.1266605E+00
        -11   -1    0    0    0    0  0.00000000000E+00  0.00000000000E+00  0.45593999997E+02  0.45594000000E+02  0.51100000000E-03 0. -1.
         11   -1    0    0    0    0 -0.00000000000E+00 -0.00000000000E+00 -0.45593999997E+02  0.45594000000E+02  0.51100000000E-03 0.  1.
    9900012    2    1    2    0    0 -0.41318105748E+01 -0.27017049470E+02  0.16423351233E+02  0.59301964084E+02  0.50000036579E+02 0.  0.
        -12    1    1    2    0    0  0.41318105748E+01  0.27017049470E+02 -0.16423351233E+02  0.31886035916E+02  0.00000000000E+00 0.  1.
         11    1    3    3    0    0 -0.12303386674E+02 -0.92402847632E+00 -0.15111234680E+01  0.12430231160E+02  0.51100000000E-03 0. -1.
        -11    1    3    3    0    0  0.97235500619E+01 -0.33638499032E+02  0.11564998521E+02  0.36876079428E+02  0.51100000000E-03 0.  1.
        -12    1    3    3    0    0 -0.15519739623E+01  0.75454780388E+01  0.63694761799E+01  0.99956534964E+01  0.00000000000E+00 0.  1.
</event>
<event>
 7    1  0.6055092E-013  0.5930193E+02  0.7816164E-02  0.1266605E+00
        -11   -1    0    0    0    0  0.00000000000E+00  0.00000000000E+00  0.45593999997E+02  0.45594000000E+02  0.51100000000E-03 0.  1.
         11   -1    0    0    0    0 -0.00000000000E+00 -0.00000000000E+00 -0.45593999997E+02  0.45594000000E+02  0.51100000000E-03 0. -1.
    9900012    2    1    2    0    0 -0.40078801226E+01  0.27058888905E+02 -0.16385204697E+02  0.59301929298E+02  0.49999973137E+02 0.  0.
        -12    1    1    2    0    0  0.40078801226E+01 -0.27058888905E+02  0.16385204697E+02  0.31886070702E+02  0.00000000000E+00 0.  1.
         11    1    3    3    0    0  0.85383580536E+01 -0.17813821237E+01  0.97677633325E+01  0.13095269425E+02  0.51100000000E-03 0. -1.
        -11    1    3    3    0    0 -0.13615982760E+02  0.59563824544E+01 -0.74060575781E+01  0.16604913959E+02  0.51100000000E-03 0.  1.
         12    1    3    3    0    0  0.10697445838E+01  0.22883888574E+02 -0.18746910451E+02  0.29601745915E+02  0.00000000000E+00 0. -1.
</event>
<event>
 7    1  0.6055092E-013  0.5930188E+02  0.7816164E-02  0.1266605E+00
        -11   -1    0    0    0    0  0.00000000000E+00  0.00000000000E+00  0.45593999997E+02  0.45594000000E+02  0.51100000000E-03 0. -1.
         11   -1    0    0    0    0 -0.00000000000E+00 -0.00000000000E+00 -0.45593999997E+02  0.45594000000E+02  0.51100000000E-03 0.  1.
    9900012    2    1    2    0    0  0.10254588280E+02  0.24192515767E+02  0.18063513932E+02  0.59301875502E+02  0.49999875026E+02 0.  0.
        -12    1    1    2    0    0 -0.10254588280E+02 -0.24192515767E+02 -0.18063513932E+02  0.31886124498E+02  0.00000000000E+00 0.  1.
         11    1    3    3    0    0 -0.81751283501E+01  0.13279547025E+02  0.21548447360E+02  0.26599148043E+02  0.51100000000E-03 0. -1.
        -11    1    3    3    0    0  0.35279417668E+01  0.90007440562E+00 -0.12210198138E+02  0.12741485230E+02  0.51100000000E-03 0.  1.
         12    1    3    3    0    0  0.14901774864E+02  0.10012894336E+02  0.87252647101E+01  0.19961242229E+02  0.00000000000E+00 0. -1.
</event>
<event>
 7    1  0.6055092E-013  0.5930192E+02  0.7816164E-02  0.1266605E+00
        -11   -1    0    0    0    0  0.00000000000E+00  0.00000000000E+00  0.45593999997E+02  0.45594000000E+02  0.51100000000E-03 0. -1.
         11   -1    0    0    0    0 -0.00000000000E+00 -0.00000000000E+00 -0.45593999997E+02  0.45594000000E+02  0.51100000000E-03 0.  1.
    9900012    2    1    2    0    0  0.11215117293E+02 -0.11239165969E+02  0.27651842273E+02  0.59301920143E+02  0.49999956439E+02 0.  0.
        -12    1    1    2    0    0 -0.11215117293E+02  0.11239165969E+02 -0.27651842273E+02  0.31886079857E+02  0.00000000000E+00 0.  1.
         11    1    3    3    0    0 -0.89396541073E+01  0.86325827015E+01 -0.60971844402E+01  0.13842491034E+02  0.51100000000E-03 0. -1.
        -11    1    3    3    0    0  0.16203777699E+02 -0.12500288937E+02  0.16494423751E+02  0.26284703734E+02  0.51100000000E-03 0.  1.
         12    1    3    3    0    0  0.39509937014E+01 -0.73714597334E+01  0.17254602962E+02  0.19174725375E+02  0.00000000000E+00 0. -1.
</event>
<event>
 7    1  0.6055092E-013  0.5930195E+02  0.7816164E-02  0.1266605E+00
        -11   -1    0    0    0    0  0.00000000000E+00  0.00000000000E+00  0.45593999997E+02  0.45594000000E+02  0.51100000000E-03 0.  1.
         11   -1    0    0    0    0 -0.00000000000E+00 -0.00000000000E+00 -0.45593999997E+02  0.45594000000E+02  0.51100000000E-03 0. -1.
    9900012    2    1    2    0    0 -0.22864919621E+02 -0.14973651789E+02 -0.16422716003E+02  0.59301946652E+02  0.50000004786E+02 0.  0.
        -12    1    1    2    0    0  0.22864919621E+02  0.14973651789E+02  0.16422716003E+02  0.31886053348E+02  0.00000000000E+00 0.  1.
         11    1    3    3    0    0  0.78124913414E+01 -0.16702675418E+02  0.13998032185E+01  0.18492534613E+02  0.51100000000E-03 0. -1.
        -11    1    3    3    0    0 -0.10400457129E+02  0.10028893481E+02 -0.98850228313E+01  0.17506052941E+02  0.51100000000E-03 0.  1.
         12    1    3    3    0    0 -0.20276953833E+02 -0.82998698513E+01 -0.79374963901E+01  0.23303359098E+02  0.00000000000E+00 0. -1.
</event>
<event>
 7    1  0.6055092E-013  0.5930194E+02  0.7816164E-02  0.1266605E+00
        -11   -1    0    0    0    0  0.00000000000E+00  0.00000000000E+00  0.45593999997E+02  0.45594000000E+02  0.51100000000E-03 0. -1.
         11   -1    0    0    0    0 -0.00000000000E+00 -0.00000000000E+00 -0.45593999997E+02  0.45594000000E+02  0.51100000000E-03 0.  1.
    9900012    2    1    2    0    0  0.23181051192E+02  0.12811077473E+02 -0.17754878903E+02  0.59301944031E+02  0.50000000007E+02 0.  0.
        -12    1    1    2    0    0 -0.23181051192E+02 -0.12811077473E+02  0.17754878903E+02  0.31886055969E+02  0.00000000000E+00 0.  1.
         11    1    3    3    0    0  0.13865287441E+02  0.76284890539E-01  0.50200569648E+01  0.14746287241E+02  0.51100000000E-03 0. -1.
        -11    1    3    3    0    0  0.10944893994E+02  0.17521086219E+02 -0.29578826966E+02  0.36078888173E+02  0.51100000000E-03 0.  1.
        -12    1    3    3    0    0 -0.16291302436E+01 -0.47862936362E+01  0.68038910982E+01  0.84767686177E+01  0.00000000000E+00 0.  1.
</event>
<event>
 7    1  0.6055092E-013  0.5930195E+02  0.7816164E-02  0.1266605E+00
        -11   -1    0    0    0    0  0.00000000000E+00  0.00000000000E+00  0.45593999997E+02  0.45594000000E+02  0.51100000000E-03 0.  1.
         11   -1    0    0    0    0 -0.00000000000E+00 -0.00000000000E+00 -0.45593999997E+02  0.45594000000E+02  0.51100000000E-03 0. -1.
    9900012    2    1    2    0    0 -0.31226691951E+01 -0.14629056309E+02 -0.28159544126E+02  0.59301948555E+02  0.50000008256E+02 0.  0.
        -12    1    1    2    0    0  0.31226691951E+01  0.14629056309E+02  0.28159544126E+02  0.31886051445E+02  0.00000000000E+00 0.  1.
         11    1    3    3    0    0 -0.19983379443E+02  0.76318116909E-01 -0.99142643507E+01  0.22307709795E+02  0.51100000000E-03 0. -1.
        -11    1    3    3    0    0  0.16789637084E+02 -0.14470015443E+02 -0.37293640644E+01  0.22476241165E+02  0.51100000000E-03 0.  1.
        -12    1    3    3    0    0  0.71073164488E-01 -0.23535898328E+00 -0.14515915711E+02  0.14517997595E+02  0.00000000000E+00 0.  1.
</event>
<event>
 7    1  0.6055092E-013  0.5930199E+02  0.7816164E-02  0.1266605E+00
        -11   -1    0    0    0    0  0.00000000000E+00  0.00000000000E+00  0.45593999997E+02  0.45594000000E+02  0.51100000000E-03 0.  1.
         11   -1    0    0    0    0 -0.00000000000E+00 -0.00000000000E+00 -0.45593999997E+02  0.45594000000E+02  0.51100000000E-03 0. -1.
    9900012    2    1    2    0    0 -0.15691067687E+02  0.16501564059E+02 -0.22320537559E+02  0.59301990240E+02  0.50000084279E+02 0.  0.
        -12    1    1    2    0    0  0.15691067687E+02 -0.16501564059E+02  0.22320537559E+02  0.31886009760E+02  0.00000000000E+00 0.  1.
         11    1    3    3    0    0  0.24017903445E+01 -0.10538957587E+02 -0.92857793238E+01  0.14250049887E+02  0.51100000000E-03 0. -1.
        -11    1    3    3    0    0  0.13162108120E+01  0.22006249342E+02 -0.19273329101E+01  0.22129664106E+02  0.51100000000E-03 0.  1.
         12    1    3    3    0    0 -0.19409068843E+02  0.50342723032E+01 -0.11107425325E+02  0.22922276247E+02  0.00000000000E+00 0. -1.
</event>
<event>
 7    1  0.6055092E-013  0.5930194E+02  0.7816164E-02  0.1266605E+00
        -11   -1    0    0    0    0  0.00000000000E+00  0.00000000000E+00  0.45593999997E+02  0.45594000000E+02  0.51100000000E-03 0.  1.
         11   -1    0    0    0    0 -0.00000000000E+00 -0.00000000000E+00 -0.45593999997E+02  0.45594000000E+02  0.51100000000E-03 0. -1.
    9900012    2    1    2    0    0 -0.28418115898E+02 -0.75488700902E+01 -0.12334760623E+02  0.59301936109E+02  0.49999985558E+02 0.  0.
        -12    1    1    2    0    0  0.28418115898E+02  0.75488700902E+01  0.12334760623E+02  0.31886063891E+02  0.00000000000E+00 0.  1.
         11    1    3    3    0    0 -0.28106320461E+02 -0.22817540005E+02  0.31157781235E+01  0.36336117780E+02  0.51100000000E-03 0. -1.
        -11    1    3    3    0    0  0.66095050217E+00  0.41020813964E+01 -0.92869938296E+01  0.10174093670E+02  0.51100000000E-03 0.  1.
         12    1    3    3    0    0 -0.97274593923E+00  0.11166588519E+02 -0.61635449171E+01  0.12791724659E+02  0.00000000000E+00 0. -1.
</event>
<event>
 7    1  0.6055092E-013  0.5930195E+02  0.7816164E-02  0.1266605E+00
        -11   -1    0    0    0    0  0.00000000000E+00  0.00000000000E+00  0.45593999997E+02  0.45594000000E+02  0.51100000000E-03 0. -1.
         11   -1    0    0    0    0 -0.00000000000E+00 -0.00000000000E+00 -0.45593999997E+02  0.45594000000E+02  0.51100000000E-03 0.  1.
    9900012    2    1    2    0    0  0.20293874820E+02 -0.12735146606E+01  0.24561296705E+02  0.59301945201E+02  0.50000002140E+02 0.  0.
        -12    1    1    2    0    0 -0.20293874820E+02  0.12735146606E+01 -0.24561296705E+02  0.31886054799E+02  0.00000000000E+00 0.  1.
         11    1    3    3    0    0  0.24613083051E+02 -0.28401431819E+01  0.22097718218E+01  0.24874753513E+02  0.51100000000E-03 0. -1.
        -11    1    3    3    0    0 -0.51624762465E+01 -0.25553832226E+01 -0.44615307181E+01  0.72860415192E+01  0.51100000000E-03 0.  1.
         12    1    3    3    0    0  0.84326801510E+00  0.41220117438E+01  0.26813055602E+02  0.27141150168E+02  0.00000000000E+00 0. -1.
</event>
<event>
 7    1  0.6055092E-013  0.5930198E+02  0.7816164E-02  0.1266605E+00
        -11   -1    0    0    0    0  0.00000000000E+00  0.00000000000E+00  0.45593999997E+02  0.45594000000E+02  0.51100000000E-03 0. -1.
         11   -1    0    0    0    0 -0.00000000000E+00 -0.00000000000E+00 -0.45593999997E+02  0.45594000000E+02  0.51100000000E-03 0.  1.
    9900012    2    1    2    0    0 -0.27601226513E+02 -0.14678407341E+02  0.62797040867E+01  0.59301983778E+02  0.50000072495E+02 0.  0.
        -12    1    1    2    0    0  0.27601226513E+02  0.14678407341E+02 -0.62797040867E+01  0.31886016222E+02  0.00000000000E+00 0.  1.
         11    1    3    3    0    0 -0.10791602310E+02 -0.10364163641E+02 -0.70549387362E+01  0.16542270982E+02  0.51100000000E-03 0. -1.
        -11    1    3    3    0    0  0.52237631791E+01  0.11238531106E+02 -0.59052240778E+00  0.12407296247E+02  0.51100000000E-03 0.  1.
        -12    1    3    3    0    0 -0.22033387382E+02 -0.15552774806E+02  0.13925165231E+02  0.30352416549E+02  0.00000000000E+00 0.  1.
</event>
<event>
 7    1  0.6055092E-013  0.5930199E+02  0.7816164E-02  0.1266605E+00
        -11   -1    0    0    0    0  0.00000000000E+00  0.00000000000E+00  0.45593999997E+02  0.45594000000E+02  0.51100000000E-03 0.  1.
         11   -1    0    0    0    0 -0.00000000000E+00 -0.00000000000E+00 -0.45593999997E+02  0.45594000000E+02  0.51100000000E-03 0. -1.
    9900012    2    1    2    0    0  0.16559797943E+02  0.13552293909E+02 -0.23639500470E+02  0.59301991147E+02  0.50000085935E+02 0.  0.
        -12    1    1    2    0    0 -0.16559797943E+02 -0.13552293909E+02  0.23639500470E+02  0.31886008853E+02  0.00000000000E+00 0.  1.
         11    1    3    3    0    0  0.29157743158E+02 -0.10550431276E+01 -0.68345257493E+01  0.29966612163E+02  0.51100000000E-03 0. -1.
        -11    1    3    3    0    0 -0.95279758054E+01  0.82040615167E+01 -0.18178002130E+02  0.22102685584E+02  0.51100000000E-03 0.  1.
         12    1    3    3    0    0 -0.30699694095E+01  0.64032755196E+01  0.13730274095E+01  0.72326934003E+01  0.00000000000E+00 0. -1.
</event>
<event>
 7    1  0.6055092E-013  0.5930198E+02  0.7816164E-02  0.1266605E+00
        -11   -1    0    0    0    0  0.00000000000E+00  0.00000000000E+00  0.45593999997E+02  0.45594000000E+02  0.51100000000E-03 0. -1.
         11   -1    0    0    0    0 -0.00000000000E+00 -0.00000000000E+00 -0.45593999997E+02  0.45594000000E+02  0.51100000000E-03 0.  1.
    9900012    2    1    2    0    0 -0.22731869005E+02  0.17342299816E+02 -0.14114711795E+02  0.59301979232E+02  0.50000064204E+02 0.  0.
        -12    1    1    2    0    0  0.22731869005E+02 -0.17342299816E+02  0.14114711795E+02  0.31886020768E+02  0.00000000000E+00 0.  1.
         11    1    3    3    0    0 -0.64288293625E+01 -0.42804892501E+01  0.10332848627E+02  0.12900395196E+02  0.51100000000E-03 0. -1.
        -11    1    3    3    0    0 -0.59354537323E+01  0.26605749757E+02 -0.13102247583E+02  0.30245072709E+02  0.51100000000E-03 0.  1.
        -12    1    3    3    0    0 -0.10367585910E+02 -0.49829606911E+01 -0.11345312839E+02  0.16156511328E+02  0.00000000000E+00 0.  1.
</event>
<event>
 7    1  0.6055092E-013  0.5930193E+02  0.7816164E-02  0.1266605E+00
        -11   -1    0    0    0    0  0.00000000000E+00  0.00000000000E+00  0.45593999997E+02  0.45594000000E+02  0.51100000000E-03 0.  1.
         11   -1    0    0    0    0 -0.00000000000E+00 -0.00000000000E+00 -0.45593999997E+02  0.45594000000E+02  0.51100000000E-03 0. -1.
    9900012    2    1    2    0    0  0.30838275635E+02  0.81068983464E+01 -0.99970973347E-02  0.59301934942E+02  0.49999983430E+02 0.  0.
        -12    1    1    2    0    0 -0.30838275635E+02 -0.81068983464E+01  0.99970973347E-02  0.31886065058E+02  0.00000000000E+00 0.  1.
         11    1    3    3    0    0  0.25894932330E+01  0.46640068786E+00 -0.31724153684E+01  0.41215560576E+01  0.51100000000E-03 0. -1.
        -11    1    3    3    0    0  0.20254226036E+02 -0.14861663151E+01  0.23771268188E+02  0.31265245148E+02  0.51100000000E-03 0.  1.
        -12    1    3    3    0    0  0.79945563660E+01  0.91266639736E+01 -0.20608849917E+02  0.23915133737E+02  0.00000000000E+00 0.  1.
</event>
<event>
 7    1  0.6055092E-013  0.5930194E+02  0.7816164E-02  0.1266605E+00
        -11   -1    0    0    0    0  0.00000000000E+00  0.00000000000E+00  0.45593999997E+02  0.45594000000E+02  0.51100000000E-03 0. -1.
         11   -1    0    0    0    0 -0.00000000000E+00 -0.00000000000E+00 -0.45593999997E+02  0.45594000000E+02  0.51100000000E-03 0.  1.
    9900012    2    1    2    0    0 -0.23949804926E+02  0.94660740194E+00  0.21029305888E+02  0.59301938347E+02  0.49999989640E+02 0.  0.
        -12    1    1    2    0    0  0.23949804926E+02 -0.94660740194E+00 -0.21029305888E+02  0.31886061653E+02  0.00000000000E+00 0.  1.
         11    1    3    3    0    0 -0.33562686442E+01 -0.15287266130E+02  0.43607619755E+01  0.16247501045E+02  0.51100000000E-03 0. -1.
        -11    1    3    3    0    0 -0.96523312565E+01  0.11155810401E+02  0.24553100135E+02  0.28643923106E+02  0.51100000000E-03 0.  1.
        -12    1    3    3    0    0 -0.10941205026E+02  0.50780631314E+01 -0.78845562226E+01  0.14410514196E+02  0.00000000000E+00 0.  1.
</event>
<event>
 7    1  0.6055092E-013  0.5930197E+02  0.7816164E-02  0.1266605E+00
        -11   -1    0    0    0    0  0.00000000000E+00  0.00000000000E+00  0.45593999997E+02  0.45594000000E+02  0.51100000000E-03 0. -1.
         11   -1    0    0    0    0 -0.00000000000E+00 -0.00000000000E+00 -0.45593999997E+02  0.45594000000E+02  0.51100000000E-03 0.  1.
    9900012    2    1    2    0    0 -0.46735318824E+01  0.23529785397E+02  0.21005385631E+02  0.59301969727E+02  0.50000046869E+02 0.  0.
        -12    1    1    2    0    0  0.46735318824E+01 -0.23529785397E+02 -0.21005385631E+02  0.31886030273E+02  0.00000000000E+00 0.  1.
         11    1    3    3    0    0  0.34084887953E+01  0.16369534020E+02  0.83661560067E+01  0.18696844827E+02  0.51100000000E-03 0. -1.
        -11    1    3    3    0    0 -0.15584351954E+02 -0.10667175072E+02  0.90149382125E+01  0.20926771397E+02  0.51100000000E-03 0.  1.
        -12    1    3    3    0    0  0.75023312767E+01  0.17827426448E+02  0.36242914116E+01  0.19678353503E+02  0.00000000000E+00 0.  1.
</event>
<event>
 7    1  0.6055092E-013  0.5930193E+02  0.7816164E-02  0.1266605E+00
        -11   -1    0    0    0    0  0.00000000000E+00  0.00000000000E+00  0.45593999997E+02  0.45594000000E+02  0.51100000000E-03 0.  1.
         11   -1    0    0    0    0 -0.00000000000E+00 -0.00000000000E+00 -0.45593999997E+02  0.45594000000E+02  0.51100000000E-03 0. -1.
    9900012    2    1    2    0    0  0.25605448981E+02 -0.18540178230E+02 -0.41646183277E+01  0.59301932947E+02  0.49999979791E+02 0.  0.
        -12    1    1    2    0    0 -0.25605448981E+02  0.18540178230E+02  0.41646183277E+01  0.31886067053E+02  0.00000000000E+00 0.  1.
         11    1    3    3    0    0  0.11280084906E+02 -0.30199347587E+02 -0.10745799536E+02  0.33981069996E+02  0.51100000000E-03 0. -1.
        -11    1    3    3    0    0  0.13531688900E+02  0.21909646454E+01 -0.95347842465E-01  0.13708246497E+02  0.51100000000E-03 0.  1.
         12    1    3    3    0    0  0.79367517506E+00  0.94682047111E+01  0.66765290507E+01  0.11612616454E+02  0.00000000000E+00 0. -1.
</event>
<event>
 7    1  0.6055092E-013  0.5930194E+02  0.7816164E-02  0.1266605E+00
        -11   -1    0    0    0    0  0.00000000000E+00  0.00000000000E+00  0.45593999997E+02  0.45594000000E+02  0.51100000000E-03 0.  1.
         11   -1    0    0    0    0 -0.00000000000E+00 -0.00000000000E+00 -0.45593999997E+02  0.45594000000E+02  0.51100000000E-03 0. -1.
    9900012    2    1    2    0    0  0.19422565766E+02  0.20923128830E+02 -0.14202365749E+02  0.59301943897E+02  0.49999999761E+02 0.  0.
        -12    1    1    2    0    0 -0.19422565766E+02 -0.20923128830E+02  0.14202365749E+02  0.31886056103E+02  0.00000000000E+00 0.  1.
         11    1    3    3    0    0  0.22599136966E+01 -0.10837922780E+02  0.10212809915E+02  0.15062180012E+02  0.51100000000E-03 0.  1.
        -11    1    3    3    0    0  0.77078388931E+01  0.79207222281E+01 -0.94825396864E+01  0.14562526573E+02  0.51100000000E-03 0. -1.
        -12    1    3    3    0    0  0.94548131758E+01  0.23840329382E+02 -0.14932635978E+02  0.29677237312E+02  0.00000000000E+00 0.  1.
</event>
<event>
 7    1  0.6055092E-013  0.5930206E+02  0.7816164E-02  0.1266604E+00
        -11   -1    0    0    0    0  0.00000000000E+00  0.00000000000E+00  0.45593999997E+02  0.45594000000E+02  0.51100000000E-03 0. -1.
         11   -1    0    0    0    0 -0.00000000000E+00 -0.00000000000E+00 -0.45593999997E+02  0.45594000000E+02  0.51100000000E-03 0.  1.
    9900012    2    1    2    0    0 -0.25616436020E+02  0.14068542367E+02  0.12750987277E+02  0.59302057090E+02  0.50000206198E+02 0.  0.
        -12    1    1    2    0    0  0.25616436020E+02 -0.14068542367E+02 -0.12750987277E+02  0.31885942910E+02  0.00000000000E+00 0.  1.
         11    1    3    3    0    0  0.37750102600E+01  0.29271518801E+00  0.52786278472E+01  0.64961755560E+01  0.51100000000E-03 0. -1.
        -11    1    3    3    0    0 -0.36298908645E+02  0.11583667817E+02 -0.49516026211E+01  0.38422786178E+02  0.51100000000E-03 0.  1.
        -12    1    3    3    0    0  0.69074623647E+01  0.21921593620E+01  0.12423962051E+02  0.14383095356E+02  0.00000000000E+00 0.  1.
</event>
<event>
 7    1  0.6055092E-013  0.5930193E+02  0.7816164E-02  0.1266605E+00
        -11   -1    0    0    0    0  0.00000000000E+00  0.00000000000E+00  0.45593999997E+02  0.45594000000E+02  0.51100000000E-03 0.  1.
         11   -1    0    0    0    0 -0.00000000000E+00 -0.00000000000E+00 -0.45593999997E+02  0.45594000000E+02  0.51100000000E-03 0. -1.
    9900012    2    1    2    0    0  0.58218885326E+01  0.12924506473E+02 -0.28561938593E+02  0.59301927964E+02  0.49999970704E+02 0.  0.
        -12    1    1    2    0    0 -0.58218885326E+01 -0.12924506473E+02  0.28561938593E+02  0.31886072036E+02  0.00000000000E+00 0.  1.
         11    1    3    3    0    0  0.18937084685E+02  0.18665421991E+02 -0.22593928753E+02  0.34892646377E+02  0.51100000000E-03 0. -1.
        -11    1    3    3    0    0 -0.46166915188E+01 -0.96590330091E+01  0.33356700954E+01  0.11213271356E+02  0.51100000000E-03 0.  1.
         12    1    3    3    0    0 -0.84985046334E+01  0.39181174916E+01 -0.93036799353E+01  0.13196010231E+02  0.00000000000E+00 0. -1.
</event>
<event>
 7    1  0.6055092E-013  0.5930196E+02  0.7816164E-02  0.1266605E+00
        -11   -1    0    0    0    0  0.00000000000E+00  0.00000000000E+00  0.45593999997E+02  0.45594000000E+02  0.51100000000E-03 0.  1.
         11   -1    0    0    0    0 -0.00000000000E+00 -0.00000000000E+00 -0.45593999997E+02  0.45594000000E+02  0.51100000000E-03 0. -1.
    9900012    2    1    2    0    0 -0.29301291129E+02  0.19119623751E+01 -0.12429734729E+02  0.59301959678E+02  0.50000028543E+02 0.  0.
        -12    1    1    2    0    0  0.29301291129E+02 -0.19119623751E+01  0.12429734729E+02  0.31886040322E+02  0.00000000000E+00 0.  1.
         11    1    3    3    0    0 -0.20001999506E+02 -0.80871271887E+01 -0.23817929554E+02  0.32136822788E+02  0.51100000000E-03 0. -1.
        -11    1    3    3    0    0  0.52321588903E+01  0.56181450674E+01 -0.77366454419E+00  0.77160610249E+01  0.51100000000E-03 0.  1.
         12    1    3    3    0    0 -0.14531450514E+02  0.43809444964E+01  0.12161859369E+02  0.19449075866E+02  0.00000000000E+00 0. -1.
</event>
<event>
 7    1  0.6055092E-013  0.5930195E+02  0.7816164E-02  0.1266605E+00
        -11   -1    0    0    0    0  0.00000000000E+00  0.00000000000E+00  0.45593999997E+02  0.45594000000E+02  0.51100000000E-03 0.  1.
         11   -1    0    0    0    0 -0.00000000000E+00 -0.00000000000E+00 -0.45593999997E+02  0.45594000000E+02  0.51100000000E-03 0. -1.
    9900012    2    1    2    0    0 -0.13476322272E+02  0.60383931275E+01 -0.28260338461E+02  0.59301950017E+02  0.50000010924E+02 0.  0.
        -12    1    1    2    0    0  0.13476322272E+02 -0.60383931275E+01  0.28260338461E+02  0.31886049983E+02  0.00000000000E+00 0.  1.
         11    1    3    3    0    0  0.34221832138E+01 -0.10398821953E+02 -0.13755101578E+02  0.17579808180E+02  0.51100000000E-03 0. -1.
        -11    1    3    3    0    0  0.16970338814E+01  0.19839860212E+02 -0.10028184164E+02  0.22294942366E+02  0.51100000000E-03 0.  1.
         12    1    3    3    0    0 -0.18595539368E+02 -0.34026451313E+01 -0.44770527191E+01  0.19427199472E+02  0.00000000000E+00 0. -1.
</event>
<event>
 7    1  0.6055092E-013  0.5930155E+02  0.7816164E-02  0.1266606E+00
        -11   -1    0    0    0    0  0.00000000000E+00  0.00000000000E+00  0.45593999997E+02  0.45594000000E+02  0.51100000000E-03 0. -1.
         11   -1    0    0    0    0 -0.00000000000E+00 -0.00000000000E+00 -0.45593999997E+02  0.45594000000E+02  0.51100000000E-03 0.  1.
    9900012    2    1    2    0    0 -0.28966392016E+02  0.64305375009E+01  0.11676554415E+02  0.59301551437E+02  0.49999284004E+02 0.  0.
        -12    1    1    2    0    0  0.28966392016E+02 -0.64305375009E+01 -0.11676554415E+02  0.31886448563E+02  0.00000000000E+00 0.  1.
         11    1    3    3    0    0 -0.10550433400E+02  0.24470682399E+02  0.11542040467E+01  0.26673172463E+02  0.51100000000E-03 0. -1.
        -11    1    3    3    0    0 -0.67272497732E+01 -0.15967882767E+02  0.11374265704E+02  0.20726868798E+02  0.51100000000E-03 0.  1.
         12    1    3    3    0    0 -0.11688708842E+02 -0.20722621309E+01 -0.85191533617E+00  0.11901510176E+02  0.00000000000E+00 0. -1.
</event>
<event>
 7    1  0.6055092E-013  0.5930192E+02  0.7816164E-02  0.1266605E+00
        -11   -1    0    0    0    0  0.00000000000E+00  0.00000000000E+00  0.45593999997E+02  0.45594000000E+02  0.51100000000E-03 0.  1.
         11   -1    0    0    0    0 -0.00000000000E+00 -0.00000000000E+00 -0.45593999997E+02  0.45594000000E+02  0.51100000000E-03 0. -1.
    9900012    2    1    2    0    0 -0.17509729504E+02  0.17870428296E+02 -0.19768132099E+02  0.59301923392E+02  0.49999962365E+02 0.  0.
        -12    1    1    2    0    0  0.17509729504E+02 -0.17870428296E+02  0.19768132099E+02  0.31886076608E+02  0.00000000000E+00 0.  1.
         11    1    3    3    0    0 -0.99321866062E+01  0.23985925108E+02 -0.13568601624E+02  0.29293000603E+02  0.51100000000E-03 0. -1.
        -11    1    3    3    0    0  0.57342786435E+01  0.23911971327E+00  0.77922843846E+01  0.96777490147E+01  0.51100000000E-03 0.  1.
         12    1    3    3    0    0 -0.13311821542E+02 -0.63546165254E+01 -0.13991814860E+02  0.20331173773E+02  0.00000000000E+00 0. -1.
</event>
<event>
 7    1  0.6055092E-013  0.5930194E+02  0.7816164E-02  0.1266605E+00
        -11   -1    0    0    0    0  0.00000000000E+00  0.00000000000E+00  0.45593999997E+02  0.45594000000E+02  0.51100000000E-03 0. -1.
         11   -1    0    0    0    0 -0.00000000000E+00 -0.00000000000E+00 -0.45593999997E+02  0.45594000000E+02  0.51100000000E-03 0.  1.
    9900012    2    1    2    0    0  0.50446550739E+01  0.23084624784E+02  0.21409637162E+02  0.59301937062E+02  0.49999987297E+02 0.  0.
        -12    1    1    2    0    0 -0.50446550739E+01 -0.23084624784E+02 -0.21409637162E+02  0.31886062938E+02  0.00000000000E+00 0.  1.
         11    1    3    3    0    0 -0.53068211841E+01  0.19226139825E+02  0.35621978386E+02  0.40825631018E+02  0.51100000000E-03 0. -1.
        -11    1    3    3    0    0  0.20485239400E+01  0.19666381733E+01 -0.16036047754E+01  0.32612366634E+01  0.51100000000E-03 0.  1.
         12    1    3    3    0    0  0.83029523180E+01  0.18918467864E+01 -0.12608736448E+02  0.15215069381E+02  0.00000000000E+00 0. -1.
</event>
<event>
 7    1  0.6055092E-013  0.5930194E+02  0.7816164E-02  0.1266605E+00
        -11   -1    0    0    0    0  0.00000000000E+00  0.00000000000E+00  0.45593999997E+02  0.45594000000E+02  0.51100000000E-03 0. -1.
         11   -1    0    0    0    0 -0.00000000000E+00 -0.00000000000E+00 -0.45593999997E+02  0.45594000000E+02  0.51100000000E-03 0.  1.
    9900012    2    1    2    0    0 -0.30340129200E+02 -0.19431755208E+01  0.96135963533E+01  0.59301943395E+02  0.49999998846E+02 0.  0.
        -12    1    1    2    0    0  0.30340129200E+02  0.19431755208E+01 -0.96135963533E+01  0.31886056605E+02  0.00000000000E+00 0.  1.
         11    1    3    3    0    0 -0.14856939331E+02  0.11268543841E+01  0.29836900256E+02  0.33350248339E+02  0.51100000000E-03 0. -1.
        -11    1    3    3    0    0 -0.83200928903E+00  0.13686447230E+00 -0.29867965165E+01  0.31035342810E+01  0.51100000000E-03 0.  1.
         12    1    3    3    0    0 -0.14651180580E+02 -0.32068943771E+01 -0.17236507386E+02  0.22848160776E+02  0.00000000000E+00 0. -1.
</event>
<event>
 7    1  0.6055092E-013  0.5930192E+02  0.7816164E-02  0.1266605E+00
        -11   -1    0    0    0    0  0.00000000000E+00  0.00000000000E+00  0.45593999997E+02  0.45594000000E+02  0.51100000000E-03 0. -1.
         11   -1    0    0    0    0 -0.00000000000E+00 -0.00000000000E+00 -0.45593999997E+02  0.45594000000E+02  0.51100000000E-03 0.  1.
    9900012    2    1    2    0    0 -0.10628232019E+02  0.24093680878E+02  0.17979358001E+02  0.59301920150E+02  0.49999956452E+02 0.  0.
        -12    1    1    2    0    0  0.10628232019E+02 -0.24093680878E+02 -0.17979358001E+02  0.31886079850E+02  0.00000000000E+00 0.  1.
         11    1    3    3    0    0 -0.10211165672E+02 -0.71009215725E+01  0.91750423415E+01  0.15455497203E+02  0.51100000000E-03 0. -1.
        -11    1    3    3    0    0  0.14498823010E+02  0.16055024062E+02  0.32122383481E+01  0.21870028390E+02  0.51100000000E-03 0.  1.
        -12    1    3    3    0    0 -0.14915889357E+02  0.15139578388E+02  0.55920773110E+01  0.21976394557E+02  0.00000000000E+00 0.  1.
</event>
<event>
 7    1  0.6055092E-013  0.5930194E+02  0.7816164E-02  0.1266605E+00
        -11   -1    0    0    0    0  0.00000000000E+00  0.00000000000E+00  0.45593999997E+02  0.45594000000E+02  0.51100000000E-03 0.  1.
         11   -1    0    0    0    0 -0.00000000000E+00 -0.00000000000E+00 -0.45593999997E+02  0.45594000000E+02  0.51100000000E-03 0. -1.
    9900012    2    1    2    0    0 -0.28113875020E+02 -0.14943505370E+02 -0.17384919686E+01  0.59301942299E+02  0.49999996847E+02 0.  0.
        -12    1    1    2    0    0  0.28113875020E+02  0.14943505370E+02  0.17384919686E+01  0.31886057701E+02  0.00000000000E+00 0.  1.
         11    1    3    3    0    0 -0.72461959873E+01  0.43919311109E+01  0.11711041178E+02  0.14454926527E+02  0.51100000000E-03 0. -1.
        -11    1    3    3    0    0 -0.22937936713E+02 -0.26660031346E+02 -0.11201779925E+02  0.36910514569E+02  0.51100000000E-03 0.  1.
        -12    1    3    3    0    0  0.20702576801E+01  0.73245948649E+01 -0.22477532216E+01  0.79365012028E+01  0.00000000000E+00 0.  1.
</event>
<event>
 7    1  0.6055092E-013  0.5930192E+02  0.7816164E-02  0.1266605E+00
        -11   -1    0    0    0    0  0.00000000000E+00  0.00000000000E+00  0.45593999997E+02  0.45594000000E+02  0.51100000000E-03 0. -1.
         11   -1    0    0    0    0 -0.00000000000E+00 -0.00000000000E+00 -0.45593999997E+02  0.45594000000E+02  0.51100000000E-03 0.  1.
    9900012    2    1    2    0    0 -0.28942225082E+02  0.75623737849E+01 -0.11039926732E+02  0.59301923537E+02  0.49999962630E+02 0.  0.
        -12    1    1    2    0    0  0.28942225082E+02 -0.75623737849E+01  0.11039926732E+02  0.31886076463E+02  0.00000000000E+00 0.  1.
         11    1    3    3    0    0 -0.50375620317E+01  0.53567202436E+01  0.14059453548E+02  0.15866307615E+02  0.51100000000E-03 0. -1.
        -11    1    3    3    0    0 -0.16350560459E+01  0.14323811186E+01 -0.20585556324E+02  0.20700006120E+02  0.51100000000E-03 0.  1.
         12    1    3    3    0    0 -0.22269607004E+02  0.77327242270E+00 -0.45138239554E+01  0.22735609802E+02  0.00000000000E+00 0. -1.
</event>
<event>
 7    1  0.6055092E-013  0.5930195E+02  0.7816164E-02  0.1266605E+00
        -11   -1    0    0    0    0  0.00000000000E+00  0.00000000000E+00  0.45593999997E+02  0.45594000000E+02  0.51100000000E-03 0.  1.
         11   -1    0    0    0    0 -0.00000000000E+00 -0.00000000000E+00 -0.45593999997E+02  0.45594000000E+02  0.51100000000E-03 0. -1.
    9900012    2    1    2    0    0  0.72395076466E+01 -0.27503937489E+01 -0.30931296927E+02  0.59301948718E+02  0.50000008554E+02 0.  0.
        -12    1    1    2    0    0 -0.72395076466E+01  0.27503937489E+01  0.30931296927E+02  0.31886051282E+02  0.00000000000E+00 0.  1.
         11    1    3    3    0    0 -0.14250510125E+02  0.58906290271E+01 -0.18809514737E+01  0.15534301654E+02  0.51100000000E-03 0. -1.
        -11    1    3    3    0    0  0.20060134978E+02 -0.24397141067E+01 -0.79281152865E+01  0.21707515577E+02  0.51100000000E-03 0.  1.
        -12    1    3    3    0    0  0.14298827940E+01 -0.62013086693E+01 -0.21122230167E+02  0.22060131488E+02  0.00000000000E+00 0.  1.
</event>
<event>
 7    1  0.6055092E-013  0.5930194E+02  0.7816164E-02  0.1266605E+00
        -11   -1    0    0    0    0  0.00000000000E+00  0.00000000000E+00  0.45593999997E+02  0.45594000000E+02  0.51100000000E-03 0. -1.
         11   -1    0    0    0    0 -0.00000000000E+00 -0.00000000000E+00 -0.45593999997E+02  0.45594000000E+02  0.51100000000E-03 0.  1.
    9900012    2    1    2    0    0 -0.65816270017E+01  0.27259597697E+02 -0.15176215727E+02  0.59301937145E+02  0.49999987447E+02 0.  0.
        -12    1    1    2    0    0  0.65816270017E+01 -0.27259597697E+02  0.15176215727E+02  0.31886062855E+02  0.00000000000E+00 0.  1.
         11    1    3    3    0    0  0.24889850655E+01  0.10765593854E+02  0.10859447989E+02  0.15492600445E+02  0.51100000000E-03 0. -1.
        -11    1    3    3    0    0  0.90827021366E+01  0.11739573132E+02 -0.18170066033E+02  0.23461976799E+02  0.51100000000E-03 0.  1.
         12    1    3    3    0    0 -0.18153314204E+02  0.47544307117E+01 -0.78655976835E+01  0.20347359900E+02  0.00000000000E+00 0. -1.
</event>
<event>
 7    1  0.6055092E-013  0.5930196E+02  0.7816164E-02  0.1266605E+00
        -11   -1    0    0    0    0  0.00000000000E+00  0.00000000000E+00  0.45593999997E+02  0.45594000000E+02  0.51100000000E-03 0. -1.
         11   -1    0    0    0    0 -0.00000000000E+00 -0.00000000000E+00 -0.45593999997E+02  0.45594000000E+02  0.51100000000E-03 0.  1.
    9900012    2    1    2    0    0  0.49342968736E+01 -0.26848462430E+02  0.16478233808E+02  0.59301962147E+02  0.50000033046E+02 0.  0.
        -12    1    1    2    0    0 -0.49342968736E+01  0.26848462430E+02 -0.16478233808E+02  0.31886037853E+02  0.00000000000E+00 0.  1.
         11    1    3    3    0    0 -0.84777958140E+01 -0.35554577264E+02  0.17594263250E+02  0.40565491318E+02  0.51100000000E-03 0. -1.
        -11    1    3    3    0    0  0.58816738595E+01  0.21833591450E+01 -0.50212518634E+01  0.80358020809E+01  0.51100000000E-03 0.  1.
         12    1    3    3    0    0  0.75304188281E+01  0.65227556889E+01  0.39052224212E+01  0.10700668748E+02  0.00000000000E+00 0. -1.
</event>
<event>
 7    1  0.6055092E-013  0.5930196E+02  0.7816164E-02  0.1266605E+00
        -11   -1    0    0    0    0  0.00000000000E+00  0.00000000000E+00  0.45593999997E+02  0.45594000000E+02  0.51100000000E-03 0.  1.
         11   -1    0    0    0    0 -0.00000000000E+00 -0.00000000000E+00 -0.45593999997E+02  0.45594000000E+02  0.51100000000E-03 0. -1.
    9900012    2    1    2    0    0 -0.18049238866E+01  0.31443298764E+02 -0.49779994801E+01  0.59301964401E+02  0.50000037156E+02 0.  0.
        -12    1    1    2    0    0  0.18049238866E+01 -0.31443298764E+02  0.49779994801E+01  0.31886035599E+02  0.00000000000E+00 0.  1.
         11    1    3    3    0    0  0.97106047361E+01  0.39910680906E+02 -0.58904100043E+01  0.41495243402E+02  0.51100000000E-03 0. -1.
        -11    1    3    3    0    0 -0.17110136118E+01 -0.55520795233E+01  0.40793830947E+01  0.70989098675E+01  0.51100000000E-03 0.  1.
         12    1    3    3    0    0 -0.98045150110E+01 -0.29153026190E+01 -0.31669725705E+01  0.10707811131E+02  0.00000000000E+00 0. -1.
</event>
<event>
 7    1  0.6055092E-013  0.5930197E+02  0.7816164E-02  0.1266605E+00
        -11   -1    0    0    0    0  0.00000000000E+00  0.00000000000E+00  0.45593999997E+02  0.45594000000E+02  0.51100000000E-03 0. -1.
         11   -1    0    0    0    0 -0.00000000000E+00 -0.00000000000E+00 -0.45593999997E+02  0.45594000000E+02  0.51100000000E-03 0.  1.
    9900012    2    1    2    0    0  0.16431084200E+02  0.26439433567E+02  0.69061358309E+01  0.59301970340E+02  0.50000047988E+02 0.  0.
        -12    1    1    2    0    0 -0.16431084200E+02 -0.26439433567E+02 -0.69061358309E+01  0.31886029660E+02  0.00000000000E+00 0.  1.
         11    1    3    3    0    0  0.12384679828E+02  0.32337447541E+02 -0.93512454960E+01  0.35868323078E+02  0.51100000000E-03 0. -1.
        -11    1    3    3    0    0  0.72501295701E+01 -0.59682795272E+00  0.14980947349E+01  0.74273057352E+01  0.51100000000E-03 0.  1.
         12    1    3    3    0    0 -0.32037251980E+01 -0.53011860205E+01  0.14759286592E+02  0.16006341527E+02  0.00000000000E+00 0. -1.
</event>
<event>
 7    1  0.6055092E-013  0.5930195E+02  0.7816164E-02  0.1266605E+00
        -11   -1    0    0    0    0  0.00000000000E+00  0.00000000000E+00  0.45593999997E+02  0.45594000000E+02  0.51100000000E-03 0. -1.
         11   -1    0    0    0    0 -0.00000000000E+00 -0.00000000000E+00 -0.45593999997E+02  0.45594000000E+02  0.51100000000E-03 0.  1.
    9900012    2    1    2    0    0 -0.14677860077E+01 -0.31654347239E+02  0.35451917891E+01  0.59301945372E+02  0.50000002452E+02 0.  0.
        -12    1    1    2    0    0  0.14677860077E+01  0.31654347239E+02 -0.35451917891E+01  0.31886054628E+02  0.00000000000E+00 0.  1.
         11    1    3    3    0    0 -0.81580109175E+01 -0.16999200264E+02 -0.55804694313E+01  0.19663865110E+02  0.51100000000E-03 0. -1.
        -11    1    3    3    0    0  0.20844949189E+02 -0.54748241316E+01  0.33796436642E+01  0.21815306496E+02  0.51100000000E-03 0.  1.
        -12    1    3    3    0    0 -0.14154724279E+02 -0.91803228441E+01  0.57460175561E+01  0.17822773766E+02  0.00000000000E+00 0.  1.
</event>
<event>
 7    1  0.6055092E-013  0.5930195E+02  0.7816164E-02  0.1266605E+00
        -11   -1    0    0    0    0  0.00000000000E+00  0.00000000000E+00  0.45593999997E+02  0.45594000000E+02  0.51100000000E-03 0. -1.
         11   -1    0    0    0    0 -0.00000000000E+00 -0.00000000000E+00 -0.45593999997E+02  0.45594000000E+02  0.51100000000E-03 0.  1.
    9900012    2    1    2    0    0  0.77774494729E+01  0.20931787583E+02 -0.22761624151E+02  0.59301953119E+02  0.50000016580E+02 0.  0.
        -12    1    1    2    0    0 -0.77774494729E+01 -0.20931787583E+02  0.22761624151E+02  0.31886046881E+02  0.00000000000E+00 0.  1.
         11    1    3    3    0    0  0.14244259535E+02  0.31645288016E+02 -0.39908407544E+01  0.34932076856E+02  0.51100000000E-03 0. -1.
        -11    1    3    3    0    0 -0.57963245504E+00 -0.93628977105E+01 -0.99056785502E+01  0.13642664517E+02  0.51100000000E-03 0.  1.
         12    1    3    3    0    0 -0.58871776074E+01 -0.13506027223E+01 -0.88651048464E+01  0.10727211745E+02  0.00000000000E+00 0. -1.
</event>
<event>
 7    1  0.6055092E-013  0.5930191E+02  0.7816164E-02  0.1266605E+00
        -11   -1    0    0    0    0  0.00000000000E+00  0.00000000000E+00  0.45593999997E+02  0.45594000000E+02  0.51100000000E-03 0.  1.
         11   -1    0    0    0    0 -0.00000000000E+00 -0.00000000000E+00 -0.45593999997E+02  0.45594000000E+02  0.51100000000E-03 0. -1.
    9900012    2    1    2    0    0 -0.67514609522E+01  0.25744526199E+01 -0.31056603916E+02  0.59301910900E+02  0.49999939583E+02 0.  0.
        -12    1    1    2    0    0  0.67514609522E+01 -0.25744526199E+01  0.31056603916E+02  0.31886089100E+02  0.00000000000E+00 0.  1.
         11    1    3    3    0    0  0.68092131923E+01 -0.75579185805E+01 -0.25291674803E+02  0.27260893826E+02  0.51100000000E-03 0. -1.
        -11    1    3    3    0    0 -0.11336579455E+02  0.51487332773E+01  0.96086755788E+01  0.15727496137E+02  0.51100000000E-03 0.  1.
        -12    1    3    3    0    0 -0.22240946892E+01  0.49836379231E+01 -0.15373604692E+02  0.16313520937E+02  0.00000000000E+00 0.  1.
</event>
<event>
 7    1  0.6055092E-013  0.5930186E+02  0.7816164E-02  0.1266605E+00
        -11   -1    0    0    0    0  0.00000000000E+00  0.00000000000E+00  0.45593999997E+02  0.45594000000E+02  0.51100000000E-03 0.  1.
         11   -1    0    0    0    0 -0.00000000000E+00 -0.00000000000E+00 -0.45593999997E+02  0.45594000000E+02  0.51100000000E-03 0. -1.
    9900012    2    1    2    0    0  0.27438318610E+02 -0.99976270736E+01 -0.12802817925E+02  0.59301858464E+02  0.49999843951E+02 0.  0.
        -12    1    1    2    0    0 -0.27438318610E+02  0.99976270736E+01  0.12802817925E+02  0.31886141536E+02  0.00000000000E+00 0.  1.
         11    1    3    3    0    0  0.27915169338E+02 -0.52340052900E+01 -0.29692542806E+02  0.41088910780E+02  0.51100000000E-03 0. -1.
        -11    1    3    3    0    0 -0.22580984894E+01 -0.34486505895E+01  0.13862940896E+02  0.14462825803E+02  0.51100000000E-03 0.  1.
         12    1    3    3    0    0  0.17812477620E+01 -0.13149711941E+01  0.30267839846E+01  0.37501218807E+01  0.00000000000E+00 0. -1.
</event>
<event>
 7    1  0.6055092E-013  0.5930195E+02  0.7816164E-02  0.1266605E+00
        -11   -1    0    0    0    0  0.00000000000E+00  0.00000000000E+00  0.45593999997E+02  0.45594000000E+02  0.51100000000E-03 0. -1.
         11   -1    0    0    0    0 -0.00000000000E+00 -0.00000000000E+00 -0.45593999997E+02  0.45594000000E+02  0.51100000000E-03 0.  1.
    9900012    2    1    2    0    0  0.66262812955E+01  0.27681848925E+02  0.14371081262E+02  0.59301947558E+02  0.50000006439E+02 0.  0.
        -12    1    1    2    0    0 -0.66262812955E+01 -0.27681848925E+02 -0.14371081262E+02  0.31886052442E+02  0.00000000000E+00 0.  1.
         11    1    3    3    0    0  0.60267506576E+01  0.51651670439E+01  0.32262477869E+01  0.85679256022E+01  0.51100000000E-03 0. -1.
        -11    1    3    3    0    0  0.91372535219E+01 -0.74306262545E+01 -0.79462528205E+01  0.14207270766E+02  0.51100000000E-03 0.  1.
        -12    1    3    3    0    0 -0.85377228840E+01  0.29947308135E+02  0.19091086295E+02  0.36526751190E+02  0.00000000000E+00 0.  1.
</event>
<event>
 7    1  0.6055092E-013  0.5930197E+02  0.7816164E-02  0.1266605E+00
        -11   -1    0    0    0    0  0.00000000000E+00  0.00000000000E+00  0.45593999997E+02  0.45594000000E+02  0.51100000000E-03 0. -1.
         11   -1    0    0    0    0 -0.00000000000E+00 -0.00000000000E+00 -0.45593999997E+02  0.45594000000E+02  0.51100000000E-03 0.  1.
    9900012    2    1    2    0    0  0.25684773036E+02  0.16368770736E+02 -0.94379267864E+01  0.59301973542E+02  0.50000053826E+02 0.  0.
        -12    1    1    2    0    0 -0.25684773036E+02 -0.16368770736E+02  0.94379267864E+01  0.31886026458E+02  0.00000000000E+00 0.  1.
         11    1    3    3    0    0  0.75997355751E+01  0.12839976360E+01  0.16230821558E+02  0.17967865746E+02  0.51100000000E-03 0. -1.
        -11    1    3    3    0    0  0.18943241200E+02  0.31496781375E+01 -0.21087904436E+02  0.28521335405E+02  0.51100000000E-03 0.  1.
         12    1    3    3    0    0 -0.85820373939E+00  0.11935094962E+02 -0.45808439085E+01  0.12812772390E+02  0.00000000000E+00 0. -1.
</event>
<event>
 7    1  0.6055092E-013  0.5930194E+02  0.7816164E-02  0.1266605E+00
        -11   -1    0    0    0    0  0.00000000000E+00  0.00000000000E+00  0.45593999997E+02  0.45594000000E+02  0.51100000000E-03 0. -1.
         11   -1    0    0    0    0 -0.00000000000E+00 -0.00000000000E+00 -0.45593999997E+02  0.45594000000E+02  0.51100000000E-03 0.  1.
    9900012    2    1    2    0    0 -0.59578273219E+01 -0.30553904091E+02 -0.69053490527E+01  0.59301943374E+02  0.49999998808E+02 0.  0.
        -12    1    1    2    0    0  0.59578273219E+01  0.30553904091E+02  0.69053490527E+01  0.31886056626E+02  0.00000000000E+00 0.  1.
         11    1    3    3    0    0 -0.10335078235E+02 -0.86835042509E+01  0.11103125700E+02  0.17478457849E+02  0.51100000000E-03 0. -1.
        -11    1    3    3    0    0 -0.78506264020E+01 -0.14840531338E+02 -0.21514105302E+02  0.27289749586E+02  0.51100000000E-03 0.  1.
        -12    1    3    3    0    0  0.12227877315E+02 -0.70298685023E+01  0.35056305487E+01  0.14533735939E+02  0.00000000000E+00 0.  1.
</event>
<event>
 7    1  0.6055092E-013  0.5930194E+02  0.7816164E-02  0.1266605E+00
        -11   -1    0    0    0    0  0.00000000000E+00  0.00000000000E+00  0.45593999997E+02  0.45594000000E+02  0.51100000000E-03 0.  1.
         11   -1    0    0    0    0 -0.00000000000E+00 -0.00000000000E+00 -0.45593999997E+02  0.45594000000E+02  0.51100000000E-03 0. -1.
    9900012    2    1    2    0    0 -0.27570015221E+02 -0.15321091741E+02 -0.46774927007E+01  0.59301944594E+02  0.50000001032E+02 0.  0.
        -12    1    1    2    0    0  0.27570015221E+02  0.15321091741E+02  0.46774927007E+01  0.31886055406E+02  0.00000000000E+00 0.  1.
         11    1    3    3    0    0 -0.22854273413E+02 -0.18844122513E+02 -0.11192122599E+02  0.31665160272E+02  0.51100000000E-03 0. -1.
        -11    1    3    3    0    0 -0.12632953902E+02  0.75568708836E+01  0.10312595865E+02  0.17973520957E+02  0.51100000000E-03 0.  1.
         12    1    3    3    0    0  0.79172120938E+01 -0.40338401115E+01 -0.37979659668E+01  0.96632633654E+01  0.00000000000E+00 0. -1.
</event>
<event>
 7    1  0.6055092E-013  0.5930195E+02  0.7816164E-02  0.1266605E+00
        -11   -1    0    0    0    0  0.00000000000E+00  0.00000000000E+00  0.45593999997E+02  0.45594000000E+02  0.51100000000E-03 0. -1.
         11   -1    0    0    0    0 -0.00000000000E+00 -0.00000000000E+00 -0.45593999997E+02  0.45594000000E+02  0.51100000000E-03 0.  1.
    9900012    2    1    2    0    0 -0.21933734437E+02  0.46179385365E+01  0.22678322347E+02  0.59301947138E+02  0.50000005672E+02 0.  0.
        -12    1    1    2    0    0  0.21933734437E+02 -0.46179385365E+01 -0.22678322347E+02  0.31886052862E+02  0.00000000000E+00 0.  1.
         11    1    3    3    0    0 -0.35105709253E+02 -0.81282703268E+01  0.17681413682E+02  0.40138659553E+02  0.51100000000E-03 0. -1.
        -11    1    3    3    0    0  0.10062093134E+02  0.11088583127E+02  0.39117383828E+01  0.15475919728E+02  0.51100000000E-03 0.  1.
         12    1    3    3    0    0  0.31098816831E+01  0.16576257359E+01  0.10851702830E+01  0.36873678561E+01  0.00000000000E+00 0. -1.
</event>
<event>
 7    1  0.6055092E-013  0.5930195E+02  0.7816164E-02  0.1266605E+00
        -11   -1    0    0    0    0  0.00000000000E+00  0.00000000000E+00  0.45593999997E+02  0.45594000000E+02  0.51100000000E-03 0.  1.
         11   -1    0    0    0    0 -0.00000000000E+00 -0.00000000000E+00 -0.45593999997E+02  0.45594000000E+02  0.51100000000E-03 0. -1.
    9900012    2    1    2    0    0 -0.22795790955E+02 -0.21307079689E+02 -0.65635664670E+01  0.59301950779E+02  0.50000012313E+02 0.  0.
        -12    1    1    2    0    0  0.22795790955E+02  0.21307079689E+02  0.65635664670E+01  0.31886049221E+02  0.00000000000E+00 0.  1.
         11    1    3    3    0    0 -0.32208205491E+02 -0.23433395223E+02 -0.15557690849E+02  0.42761364073E+02  0.51100000000E-03 0. -1.
        -11    1    3    3    0    0  0.92126896489E+01  0.47650525843E+01  0.92294222794E+01  0.13883861587E+02  0.51100000000E-03 0.  1.
         12    1    3    3    0    0  0.19972488705E+00 -0.26387370512E+01 -0.23529789756E+00  0.26567251187E+01  0.00000000000E+00 0. -1.
</event>
<event>
 7    1  0.6055092E-013  0.5930198E+02  0.7816164E-02  0.1266605E+00
        -11   -1    0    0    0    0  0.00000000000E+00  0.00000000000E+00  0.45593999997E+02  0.45594000000E+02  0.51100000000E-03 0. -1.
         11   -1    0    0    0    0 -0.00000000000E+00 -0.00000000000E+00 -0.45593999997E+02  0.45594000000E+02  0.51100000000E-03 0.  1.
    9900012    2    1    2    0    0 -0.18655934736E+02 -0.10560117635E+02  0.23604204251E+02  0.59301977299E+02  0.50000060679E+02 0.  0.
        -12    1    1    2    0    0  0.18655934736E+02  0.10560117635E+02 -0.23604204251E+02  0.31886022701E+02  0.00000000000E+00 0.  1.
         11    1    3    3    0    0  0.21880762541E+01  0.60343336576E+01  0.13729384597E+02  0.15155753431E+02  0.51100000000E-03 0. -1.
        -11    1    3    3    0    0 -0.16237626731E+02 -0.28871481809E+01 -0.10210293803E+02  0.19397067981E+02  0.51100000000E-03 0.  1.
         12    1    3    3    0    0 -0.46063842593E+01 -0.13707303112E+02  0.20085113457E+02  0.24749155887E+02  0.00000000000E+00 0. -1.
</event>
<event>
 7    1  0.6055092E-013  0.5930196E+02  0.7816164E-02  0.1266605E+00
        -11   -1    0    0    0    0  0.00000000000E+00  0.00000000000E+00  0.45593999997E+02  0.45594000000E+02  0.51100000000E-03 0. -1.
         11   -1    0    0    0    0 -0.00000000000E+00 -0.00000000000E+00 -0.45593999997E+02  0.45594000000E+02  0.51100000000E-03 0.  1.
    9900012    2    1    2    0    0 -0.23975001469E+02 -0.84389510656E+00 -0.21004923469E+02  0.59301958158E+02  0.50000025770E+02 0.  0.
        -12    1    1    2    0    0  0.23975001469E+02  0.84389510656E+00  0.21004923469E+02  0.31886041842E+02  0.00000000000E+00 0.  1.
         11    1    3    3    0    0  0.79885198146E+01 -0.29548577594E+01  0.11637630455E+01  0.85966259598E+01  0.51100000000E-03 0. -1.
        -11    1    3    3    0    0 -0.22008424975E+02 -0.13229788694E+02 -0.61757169653E+01  0.26410936354E+02  0.51100000000E-03 0.  1.
        -12    1    3    3    0    0 -0.99550963085E+01  0.15340751347E+02 -0.15992969550E+02  0.24294395844E+02  0.00000000000E+00 0.  1.
</event>
<event>
 7    1  0.6055092E-013  0.5930191E+02  0.7816164E-02  0.1266605E+00
        -11   -1    0    0    0    0  0.00000000000E+00  0.00000000000E+00  0.45593999997E+02  0.45594000000E+02  0.51100000000E-03 0.  1.
         11   -1    0    0    0    0 -0.00000000000E+00 -0.00000000000E+00 -0.45593999997E+02  0.45594000000E+02  0.51100000000E-03 0. -1.
    9900012    2    1    2    0    0  0.31508940931E+02  0.47952709289E+01 -0.95630209721E+00  0.59301913762E+02  0.49999944802E+02 0.  0.
        -12    1    1    2    0    0 -0.31508940931E+02 -0.47952709289E+01  0.95630209721E+00  0.31886086238E+02  0.00000000000E+00 0.  1.
         11    1    3    3    0    0  0.17534078958E+02 -0.37940635552E+01 -0.56827327161E+01  0.18818403081E+02  0.51100000000E-03 0. -1.
        -11    1    3    3    0    0 -0.12205037174E+02  0.43768698429E+01  0.51811931315E+01  0.13962975491E+02  0.51100000000E-03 0.  1.
        -12    1    3    3    0    0  0.26179899148E+02  0.42124646412E+01 -0.45476251261E+00  0.26520535189E+02  0.00000000000E+00 0.  1.
</event>
<event>
 7    1  0.6622430E-013  0.5930209E+02  0.7816164E-02  0.1266604E+00
        -11   -1    0    0    0    0  0.00000000000E+00  0.00000000000E+00  0.45593999997E+02  0.45594000000E+02  0.51100000000E-03 0. -1.
         11   -1    0    0    0    0 -0.00000000000E+00 -0.00000000000E+00 -0.45593999997E+02  0.45594000000E+02  0.51100000000E-03 0.  1.
    9900012    2    1    2    0    0 -0.11739851468E+02  0.23244326109E+02  0.18400780573E+02  0.59302085642E+02  0.50000258269E+02 0.  0.
        -12    1    1    2    0    0  0.11739851468E+02 -0.23244326109E+02 -0.18400780573E+02  0.31885914358E+02  0.00000000000E+00 0.  1.
         11    1    3    3    0    0  0.31012767205E+01  0.26459216852E+02  0.13421561797E+02  0.29830293245E+02  0.51100000000E-03 0. -1.
        -11    1    3    3    0    0 -0.54962328868E+01 -0.58618779485E+01  0.14047840497E+02  0.16183695867E+02  0.51100000000E-03 0.  1.
        -12    1    3    3    0    0 -0.93448953017E+01  0.26469872056E+01 -0.90686217207E+01  0.13288096530E+02  0.00000000000E+00 0.  1.
</event>
<event>
 7    1  0.6055092E-013  0.5930194E+02  0.7816164E-02  0.1266605E+00
        -11   -1    0    0    0    0  0.00000000000E+00  0.00000000000E+00  0.45593999997E+02  0.45594000000E+02  0.51100000000E-03 0.  1.
         11   -1    0    0    0    0 -0.00000000000E+00 -0.00000000000E+00 -0.45593999997E+02  0.45594000000E+02  0.51100000000E-03 0. -1.
    9900012    2    1    2    0    0  0.23057894382E+02  0.83632632215E+01 -0.20374254954E+02  0.59301938312E+02  0.49999989576E+02 0.  0.
        -12    1    1    2    0    0 -0.23057894382E+02 -0.83632632215E+01  0.20374254954E+02  0.31886061688E+02  0.00000000000E+00 0.  1.
         11    1    3    3    0    0 -0.85734514372E+01 -0.10310297852E+02  0.23316900928E+01  0.13610403752E+02  0.51100000000E-03 0. -1.
        -11    1    3    3    0    0  0.17467279135E+02  0.18021698524E+01 -0.11341366145E+02  0.20904072399E+02  0.51100000000E-03 0.  1.
         12    1    3    3    0    0  0.14164066685E+02  0.16871391221E+02 -0.11364578901E+02  0.24787462161E+02  0.00000000000E+00 0. -1.
</event>
<event>
 7    1  0.6055092E-013  0.5930201E+02  0.7816164E-02  0.1266605E+00
        -11   -1    0    0    0    0  0.00000000000E+00  0.00000000000E+00  0.45593999997E+02  0.45594000000E+02  0.51100000000E-03 0.  1.
         11   -1    0    0    0    0 -0.00000000000E+00 -0.00000000000E+00 -0.45593999997E+02  0.45594000000E+02  0.51100000000E-03 0. -1.
    9900012    2    1    2    0    0  0.96005756375E+01  0.53964955875E+01 -0.29923620681E+02  0.59302011042E+02  0.50000122217E+02 0.  0.
        -12    1    1    2    0    0 -0.96005756375E+01 -0.53964955875E+01  0.29923620681E+02  0.31885988958E+02  0.00000000000E+00 0.  1.
         11    1    3    3    0    0 -0.50574445847E+01 -0.16046844035E+02 -0.17810906993E+02  0.24501170531E+02  0.51100000000E-03 0. -1.
        -11    1    3    3    0    0  0.16292874423E+02  0.22541981975E+02 -0.14770820668E+02  0.31492472939E+02  0.51100000000E-03 0.  1.
        -12    1    3    3    0    0 -0.16348542008E+01 -0.10986423527E+01  0.26581069801E+01  0.33083675725E+01  0.00000000000E+00 0.  1.
</event>
<event>
 7    1  0.6055092E-013  0.5930203E+02  0.7816164E-02  0.1266604E+00
        -11   -1    0    0    0    0  0.00000000000E+00  0.00000000000E+00  0.45593999997E+02  0.45594000000E+02  0.51100000000E-03 0. -1.
         11   -1    0    0    0    0 -0.00000000000E+00 -0.00000000000E+00 -0.45593999997E+02  0.45594000000E+02  0.51100000000E-03 0.  1.
    9900012    2    1    2    0    0 -0.94484097571E+01 -0.17207680430E+02  0.25126442488E+02  0.59302034046E+02  0.50000164171E+02 0.  0.
        -12    1    1    2    0    0  0.94484097571E+01  0.17207680430E+02 -0.25126442488E+02  0.31885965954E+02  0.00000000000E+00 0.  1.
         11    1    3    3    0    0 -0.12338987095E+02 -0.20417163675E+02  0.80300678372E+01  0.25171276582E+02  0.51100000000E-03 0. -1.
        -11    1    3    3    0    0 -0.19674919209E+01  0.13931453404E+02  0.17373734932E+02  0.22356276169E+02  0.51100000000E-03 0.  1.
        -12    1    3    3    0    0  0.48580692591E+01 -0.10721970159E+02 -0.27736028052E+00  0.11774481294E+02  0.00000000000E+00 0.  1.
</event>
<event>
 7    1  0.6055092E-013  0.5930194E+02  0.7816164E-02  0.1266605E+00
        -11   -1    0    0    0    0  0.00000000000E+00  0.00000000000E+00  0.45593999997E+02  0.45594000000E+02  0.51100000000E-03 0.  1.
         11   -1    0    0    0    0 -0.00000000000E+00 -0.00000000000E+00 -0.45593999997E+02  0.45594000000E+02  0.51100000000E-03 0. -1.
    9900012    2    1    2    0    0  0.93365936935E+01  0.23234817039E+02 -0.19740621430E+02  0.59301939737E+02  0.49999992175E+02 0.  0.
        -12    1    1    2    0    0 -0.93365936935E+01 -0.23234817039E+02  0.19740621430E+02  0.31886060263E+02  0.00000000000E+00 0.  1.
         11    1    3    3    0    0  0.13927730499E+02 -0.13966426787E+01  0.77663563767E+01  0.16007766217E+02  0.51100000000E-03 0.  1.
        -11    1    3    3    0    0 -0.65240297930E+01 -0.23148949434E+00 -0.12731677961E+02  0.14307766286E+02  0.51100000000E-03 0. -1.
         12    1    3    3    0    0  0.19328929876E+01  0.24862949213E+02 -0.14775299846E+02  0.28986407235E+02  0.00000000000E+00 0. -1.
</event>
<event>
 7    1  0.6055092E-013  0.5930196E+02  0.7816164E-02  0.1266605E+00
        -11   -1    0    0    0    0  0.00000000000E+00  0.00000000000E+00  0.45593999997E+02  0.45594000000E+02  0.51100000000E-03 0.  1.
         11   -1    0    0    0    0 -0.00000000000E+00 -0.00000000000E+00 -0.45593999997E+02  0.45594000000E+02  0.51100000000E-03 0. -1.
    9900012    2    1    2    0    0  0.26133083153E+02  0.17284654934E+02 -0.59179477060E+01  0.59301961734E+02  0.50000032291E+02 0.  0.
        -12    1    1    2    0    0 -0.26133083153E+02 -0.17284654934E+02  0.59179477060E+01  0.31886038266E+02  0.00000000000E+00 0.  1.
         11    1    3    3    0    0  0.16774555771E+02 -0.18673873473E+01  0.16069185818E+02  0.23304325563E+02  0.51100000000E-03 0.  1.
        -11    1    3    3    0    0 -0.24181312658E+01  0.16168092786E+02 -0.12253051095E+02  0.20430169959E+02  0.51100000000E-03 0. -1.
         12    1    3    3    0    0  0.11776658648E+02  0.29839494952E+01 -0.97340824294E+01  0.15567466211E+02  0.00000000000E+00 0. -1.
</event>
<event>
 7    1  0.6055092E-013  0.5930194E+02  0.7816164E-02  0.1266605E+00
        -11   -1    0    0    0    0  0.00000000000E+00  0.00000000000E+00  0.45593999997E+02  0.45594000000E+02  0.51100000000E-03 0. -1.
         11   -1    0    0    0    0 -0.00000000000E+00 -0.00000000000E+00 -0.45593999997E+02  0.45594000000E+02  0.51100000000E-03 0.  1.
    9900012    2    1    2    0    0 -0.27505631602E+02  0.16431417346E+01  0.16045586503E+02  0.59301944572E+02  0.50000000992E+02 0.  0.
        -12    1    1    2    0    0  0.27505631602E+02 -0.16431417346E+01 -0.16045586503E+02  0.31886055428E+02  0.00000000000E+00 0.  1.
         11    1    3    3    0    0 -0.21560111859E+02  0.20180288810E+02  0.95701308416E+01  0.31043032784E+02  0.51100000000E-03 0. -1.
        -11    1    3    3    0    0  0.37780233754E+01 -0.54360861336E+01 -0.50137014084E+01  0.83043178619E+01  0.51100000000E-03 0.  1.
         12    1    3    3    0    0 -0.97235431182E+01 -0.13101060942E+02  0.11489157069E+02  0.19954593926E+02  0.00000000000E+00 0. -1.
</event>
<event>
 7    1  0.6055092E-013  0.5930195E+02  0.7816164E-02  0.1266605E+00
        -11   -1    0    0    0    0  0.00000000000E+00  0.00000000000E+00  0.45593999997E+02  0.45594000000E+02  0.51100000000E-03 0. -1.
         11   -1    0    0    0    0 -0.00000000000E+00 -0.00000000000E+00 -0.45593999997E+02  0.45594000000E+02  0.51100000000E-03 0.  1.
    9900012    2    1    2    0    0  0.76349475032E+00  0.25957407298E+01  0.31771044490E+02  0.59301951920E+02  0.50000014394E+02 0.  0.
        -12    1    1    2    0    0 -0.76349475032E+00 -0.25957407298E+01 -0.31771044490E+02  0.31886048080E+02  0.00000000000E+00 0.  1.
         11    1    3    3    0    0 -0.13794549937E+02 -0.11967032711E+02  0.14097367968E+02  0.23070224614E+02  0.51100000000E-03 0. -1.
        -11    1    3    3    0    0  0.12771500870E+02  0.12470289166E+02  0.23663114180E+02  0.29640551940E+02  0.51100000000E-03 0.  1.
         12    1    3    3    0    0  0.17865438171E+01  0.20924842753E+01 -0.59894376573E+01  0.65911753659E+01  0.00000000000E+00 0. -1.
</event>
<event>
 7    1  0.6055092E-013  0.5930199E+02  0.7816164E-02  0.1266605E+00
        -11   -1    0    0    0    0  0.00000000000E+00  0.00000000000E+00  0.45593999997E+02  0.45594000000E+02  0.51100000000E-03 0. -1.
         11   -1    0    0    0    0 -0.00000000000E+00 -0.00000000000E+00 -0.45593999997E+02  0.45594000000E+02  0.51100000000E-03 0.  1.
    9900012    2    1    2    0    0 -0.10055055072E+02 -0.28489483590E+02 -0.10196213050E+02  0.59301991026E+02  0.50000085714E+02 0.  0.
        -12    1    1    2    0    0  0.10055055072E+02  0.28489483590E+02  0.10196213050E+02  0.31886008974E+02  0.00000000000E+00 0.  1.
         11    1    3    3    0    0 -0.11497313753E+02 -0.27220467725E+02  0.60721205421E+01  0.30166417335E+02  0.51100000000E-03 0. -1.
        -11    1    3    3    0    0 -0.10131385837E+02 -0.53431495075E+01 -0.10651522410E+02  0.15641264512E+02  0.51100000000E-03 0.  1.
        -12    1    3    3    0    0  0.11573644518E+02  0.40741336426E+01 -0.56168111825E+01  0.13494309179E+02  0.00000000000E+00 0.  1.
</event>
<event>
 7    1  0.6055092E-013  0.5930196E+02  0.7816164E-02  0.1266605E+00
        -11   -1    0    0    0    0  0.00000000000E+00  0.00000000000E+00  0.45593999997E+02  0.45594000000E+02  0.51100000000E-03 0. -1.
         11   -1    0    0    0    0 -0.00000000000E+00 -0.00000000000E+00 -0.45593999997E+02  0.45594000000E+02  0.51100000000E-03 0.  1.
    9900012    2    1    2    0    0  0.28540536983E+02 -0.29316088833E+01  0.13912695310E+02  0.59301958026E+02  0.50000025530E+02 0.  0.
        -12    1    1    2    0    0 -0.28540536983E+02  0.29316088833E+01 -0.13912695310E+02  0.31886041974E+02  0.00000000000E+00 0.  1.
         11    1    3    3    0    0  0.19051241950E+02 -0.12454439802E+02  0.19197168983E+01  0.22841808244E+02  0.51100000000E-03 0. -1.
        -11    1    3    3    0    0 -0.10495620736E+02  0.17724423012E+00  0.96766016440E+01  0.14276767484E+02  0.51100000000E-03 0.  1.
        -12    1    3    3    0    0  0.19984915769E+02  0.93455866886E+01  0.23163767680E+01  0.22183382298E+02  0.00000000000E+00 0.  1.
</event>
<event>
 7    1  0.6055092E-013  0.5930199E+02  0.7816164E-02  0.1266605E+00
        -11   -1    0    0    0    0  0.00000000000E+00  0.00000000000E+00  0.45593999997E+02  0.45594000000E+02  0.51100000000E-03 0.  1.
         11   -1    0    0    0    0 -0.00000000000E+00 -0.00000000000E+00 -0.45593999997E+02  0.45594000000E+02  0.51100000000E-03 0. -1.
    9900012    2    1    2    0    0  0.30104399148E+02 -0.72559373927E+00 -0.10484087693E+02  0.59301993208E+02  0.50000089693E+02 0.  0.
        -12    1    1    2    0    0 -0.30104399148E+02  0.72559373927E+00  0.10484087693E+02  0.31886006792E+02  0.00000000000E+00 0.  1.
         11    1    3    3    0    0  0.15360171773E+02  0.10769228848E+02 -0.83721690088E+01  0.20542745217E+02  0.51100000000E-03 0. -1.
        -11    1    3    3    0    0  0.11245974096E+02 -0.15261511052E+02  0.12874358932E+02  0.22915819233E+02  0.51100000000E-03 0.  1.
        -12    1    3    3    0    0  0.34982532791E+01  0.37666884645E+01 -0.14986277617E+02  0.15843428758E+02  0.00000000000E+00 0.  1.
</event>
<event>
 7    1  0.6055092E-013  0.5930195E+02  0.7816164E-02  0.1266605E+00
        -11   -1    0    0    0    0  0.00000000000E+00  0.00000000000E+00  0.45593999997E+02  0.45594000000E+02  0.51100000000E-03 0.  1.
         11   -1    0    0    0    0 -0.00000000000E+00 -0.00000000000E+00 -0.45593999997E+02  0.45594000000E+02  0.51100000000E-03 0. -1.
    9900012    2    1    2    0    0 -0.11064534114E+02 -0.16402864170E+02 -0.25004847706E+02  0.59301948552E+02  0.50000008251E+02 0.  0.
        -12    1    1    2    0    0  0.11064534114E+02  0.16402864170E+02  0.25004847706E+02  0.31886051448E+02  0.00000000000E+00 0.  1.
         11    1    3    3    0    0  0.46769787149E+01  0.71960241510E+01 -0.51569517888E+01  0.10012544407E+02  0.51100000000E-03 0. -1.
        -11    1    3    3    0    0 -0.20923772322E+02 -0.95554434637E+01  0.16856380627E+01  0.23064087320E+02  0.51100000000E-03 0.  1.
        -12    1    3    3    0    0  0.51822594926E+01 -0.14043444858E+02 -0.21533533980E+02  0.26225316825E+02  0.00000000000E+00 0.  1.
</event>
<event>
 7    1  0.6055092E-013  0.5930198E+02  0.7816164E-02  0.1266605E+00
        -11   -1    0    0    0    0  0.00000000000E+00  0.00000000000E+00  0.45593999997E+02  0.45594000000E+02  0.51100000000E-03 0. -1.
         11   -1    0    0    0    0 -0.00000000000E+00 -0.00000000000E+00 -0.45593999997E+02  0.45594000000E+02  0.51100000000E-03 0.  1.
    9900012    2    1    2    0    0 -0.18983102137E+02  0.19948600775E+02  0.16075246980E+02  0.59301977904E+02  0.50000061783E+02 0.  0.
        -12    1    1    2    0    0  0.18983102137E+02 -0.19948600775E+02 -0.16075246980E+02  0.31886022096E+02  0.00000000000E+00 0.  1.
         11    1    3    3    0    0 -0.89093411934E+01 -0.52774081466E+01  0.13353276992E+02  0.16897852051E+02  0.51100000000E-03 0. -1.
        -11    1    3    3    0    0 -0.18503780500E+02  0.16500245026E+02 -0.81658915591E+01  0.26102294227E+02  0.51100000000E-03 0.  1.
        -12    1    3    3    0    0  0.84300195570E+01  0.87257638961E+01  0.10887861547E+02  0.16301831626E+02  0.00000000000E+00 0.  1.
</event>
<event>
 7    1  0.6055092E-013  0.5930197E+02  0.7816164E-02  0.1266605E+00
        -11   -1    0    0    0    0  0.00000000000E+00  0.00000000000E+00  0.45593999997E+02  0.45594000000E+02  0.51100000000E-03 0.  1.
         11   -1    0    0    0    0 -0.00000000000E+00 -0.00000000000E+00 -0.45593999997E+02  0.45594000000E+02  0.51100000000E-03 0. -1.
    9900012    2    1    2    0    0 -0.30796607601E+02  0.21870226822E+01 -0.79690011168E+01  0.59301967215E+02  0.50000042288E+02 0.  0.
        -12    1    1    2    0    0  0.30796607601E+02 -0.21870226822E+01  0.79690011168E+01  0.31886032785E+02  0.00000000000E+00 0.  1.
         11    1    3    3    0    0 -0.34947601101E+02  0.11633532114E+02  0.64688888024E+01  0.37396796852E+02  0.51100000000E-03 0. -1.
        -11    1    3    3    0    0  0.36958095659E+01 -0.45511381607E+01  0.77850880588E+00  0.59142153433E+01  0.51100000000E-03 0.  1.
         12    1    3    3    0    0  0.45518393382E+00 -0.48953712709E+01 -0.15216398725E+02  0.15990955020E+02  0.00000000000E+00 0. -1.
</event>
<event>
 7    1  0.6055092E-013  0.5930194E+02  0.7816164E-02  0.1266605E+00
        -11   -1    0    0    0    0  0.00000000000E+00  0.00000000000E+00  0.45593999997E+02  0.45594000000E+02  0.51100000000E-03 0.  1.
         11   -1    0    0    0    0 -0.00000000000E+00 -0.00000000000E+00 -0.45593999997E+02  0.45594000000E+02  0.51100000000E-03 0. -1.
    9900012    2    1    2    0    0 -0.25042412182E+01  0.22334568885E+02 -0.22618940976E+02  0.59301942197E+02  0.49999996661E+02 0.  0.
        -12    1    1    2    0    0  0.25042412182E+01 -0.22334568885E+02  0.22618940976E+02  0.31886057803E+02  0.00000000000E+00 0.  1.
         11    1    3    3    0    0 -0.12504865355E+02 -0.31537993105E+01 -0.14284222209E+00  0.12897228842E+02  0.51100000000E-03 0. -1.
        -11    1    3    3    0    0  0.18713706685E+02  0.19081483816E+02 -0.71849067761E+01  0.27675417398E+02  0.51100000000E-03 0.  1.
         12    1    3    3    0    0 -0.87130825480E+01  0.64068843794E+01 -0.15291191978E+02  0.18729295957E+02  0.00000000000E+00 0. -1.
</event>
<event>
 7    1  0.6055092E-013  0.5930192E+02  0.7816164E-02  0.1266605E+00
        -11   -1    0    0    0    0  0.00000000000E+00  0.00000000000E+00  0.45593999997E+02  0.45594000000E+02  0.51100000000E-03 0. -1.
         11   -1    0    0    0    0 -0.00000000000E+00 -0.00000000000E+00 -0.45593999997E+02  0.45594000000E+02  0.51100000000E-03 0.  1.
    9900012    2    1    2    0    0 -0.72087038884E+01 -0.27534598136E+02  0.14373684857E+02  0.59301916474E+02  0.49999949749E+02 0.  0.
        -12    1    1    2    0    0  0.72087038884E+01  0.27534598136E+02 -0.14373684857E+02  0.31886083526E+02  0.00000000000E+00 0.  1.
         11    1    3    3    0    0 -0.25131629684E+02 -0.40929988940E+01  0.78853984847E+01  0.26655786615E+02  0.51100000000E-03 0.  1.
        -11    1    3    3    0    0  0.17528988202E+02 -0.21875738221E+02  0.22638413916E+01  0.28123625801E+02  0.51100000000E-03 0. -1.
         12    1    3    3    0    0  0.39393759459E+00 -0.15658610201E+01  0.42244449806E+01  0.45225040582E+01  0.00000000000E+00 0. -1.
</event>
<event>
 7    1  0.6055092E-013  0.5930197E+02  0.7816164E-02  0.1266605E+00
        -11   -1    0    0    0    0  0.00000000000E+00  0.00000000000E+00  0.45593999997E+02  0.45594000000E+02  0.51100000000E-03 0. -1.
         11   -1    0    0    0    0 -0.00000000000E+00 -0.00000000000E+00 -0.45593999997E+02  0.45594000000E+02  0.51100000000E-03 0.  1.
    9900012    2    1    2    0    0 -0.18037004125E+02  0.26226074896E+02 -0.18916169988E+01  0.59301972698E+02  0.50000052287E+02 0.  0.
        -12    1    1    2    0    0  0.18037004125E+02 -0.26226074896E+02  0.18916169988E+01  0.31886027302E+02  0.00000000000E+00 0.  1.
         11    1    3    3    0    0 -0.21280547291E+01  0.30727425346E+02 -0.41116260718E+00  0.30803771527E+02  0.51100000000E-03 0. -1.
        -11    1    3    3    0    0 -0.15077651386E+02 -0.49189720753E+01  0.88257538437E+01  0.18150090599E+02  0.51100000000E-03 0.  1.
         12    1    3    3    0    0 -0.83129801062E+00  0.41762162447E+00 -0.10306208235E+02  0.10348110571E+02  0.00000000000E+00 0. -1.
</event>
<event>
 7    1  0.6055092E-013  0.5930193E+02  0.7816164E-02  0.1266605E+00
        -11   -1    0    0    0    0  0.00000000000E+00  0.00000000000E+00  0.45593999997E+02  0.45594000000E+02  0.51100000000E-03 0.  1.
         11   -1    0    0    0    0 -0.00000000000E+00 -0.00000000000E+00 -0.45593999997E+02  0.45594000000E+02  0.51100000000E-03 0. -1.
    9900012    2    1    2    0    0 -0.62356748648E+01  0.11490204879E+02 -0.29082867623E+02  0.59301927204E+02  0.49999969318E+02 0.  0.
        -12    1    1    2    0    0  0.62356748648E+01 -0.11490204879E+02  0.29082867623E+02  0.31886072796E+02  0.00000000000E+00 0.  1.
         11    1    3    3    0    0  0.15561419667E+02  0.35143600629E+01  0.11725088467E+01  0.15996352270E+02  0.51100000000E-03 0. -1.
        -11    1    3    3    0    0 -0.18385445820E+02 -0.24636286292E+01 -0.12298773018E+02  0.22256547397E+02  0.51100000000E-03 0.  1.
         12    1    3    3    0    0 -0.34116487112E+01  0.10439473446E+02 -0.17956603451E+02  0.21049027537E+02  0.00000000000E+00 0. -1.
</event>
<event>
 7    1  0.6055092E-013  0.5930196E+02  0.7816164E-02  0.1266605E+00
        -11   -1    0    0    0    0  0.00000000000E+00  0.00000000000E+00  0.45593999997E+02  0.45594000000E+02  0.51100000000E-03 0. -1.
         11   -1    0    0    0    0 -0.00000000000E+00 -0.00000000000E+00 -0.45593999997E+02  0.45594000000E+02  0.51100000000E-03 0.  1.
    9900012    2    1    2    0    0  0.35531769151E+01  0.31267369547E+02  0.51425509644E+01  0.59301963949E+02  0.50000036332E+02 0.  0.
        -12    1    1    2    0    0 -0.35531769151E+01 -0.31267369547E+02 -0.51425509644E+01  0.31886036051E+02  0.00000000000E+00 0.  1.
         11    1    3    3    0    0  0.12311953516E+02  0.39955570015E+02  0.10445212343E+01  0.41822515461E+02  0.51100000000E-03 0. -1.
        -11    1    3    3    0    0 -0.19062396621E+00 -0.71871011961E+01 -0.12077203855E+01  0.72903600659E+01  0.51100000000E-03 0.  1.
         12    1    3    3    0    0 -0.85681526351E+01 -0.15010992711E+01  0.53057501157E+01  0.10189088423E+02  0.00000000000E+00 0. -1.
</event>
<event>
 7    1  0.6055092E-013  0.5930194E+02  0.7816164E-02  0.1266605E+00
        -11   -1    0    0    0    0  0.00000000000E+00  0.00000000000E+00  0.45593999997E+02  0.45594000000E+02  0.51100000000E-03 0.  1.
         11   -1    0    0    0    0 -0.00000000000E+00 -0.00000000000E+00 -0.45593999997E+02  0.45594000000E+02  0.51100000000E-03 0. -1.
    9900012    2    1    2    0    0  0.43212636990E+01 -0.30709002871E+02  0.74165258737E+01  0.59301936692E+02  0.49999986621E+02 0.  0.
        -12    1    1    2    0    0 -0.43212636990E+01  0.30709002871E+02 -0.74165258737E+01  0.31886063308E+02  0.00000000000E+00 0.  1.
         11    1    3    3    0    0  0.22301886896E+02 -0.22824920764E+02 -0.78871526890E+00  0.31921360232E+02  0.51100000000E-03 0. -1.
        -11    1    3    3    0    0 -0.36780461824E+01  0.54395138498E+01  0.17529288780E+01  0.67962559218E+01  0.51100000000E-03 0.  1.
         12    1    3    3    0    0 -0.14302577015E+02 -0.13323595956E+02  0.64523122645E+01  0.20584320538E+02  0.00000000000E+00 0. -1.
</event>
<event>
 7    1  0.6055092E-013  0.5930194E+02  0.7816164E-02  0.1266605E+00
        -11   -1    0    0    0    0  0.00000000000E+00  0.00000000000E+00  0.45593999997E+02  0.45594000000E+02  0.51100000000E-03 0.  1.
         11   -1    0    0    0    0 -0.00000000000E+00 -0.00000000000E+00 -0.45593999997E+02  0.45594000000E+02  0.51100000000E-03 0. -1.
    9900012    2    1    2    0    0  0.97442321709E+01  0.13169554051E+02 -0.27355683638E+02  0.59301942830E+02  0.49999997816E+02 0.  0.
        -12    1    1    2    0    0 -0.97442321709E+01 -0.13169554051E+02  0.27355683638E+02  0.31886057170E+02  0.00000000000E+00 0.  1.
         11    1    3    3    0    0  0.17269794354E+02  0.19350887926E+02 -0.14381061078E+02  0.29656661621E+02  0.51100000000E-03 0. -1.
        -11    1    3    3    0    0  0.40043389807E+01 -0.99091729245E+01  0.14730364865E+01  0.10788710557E+02  0.51100000000E-03 0.  1.
         12    1    3    3    0    0 -0.11529901163E+02  0.37278390504E+01 -0.14447659047E+02  0.18856570652E+02  0.00000000000E+00 0. -1.
</event>
<event>
 7    1  0.6055092E-013  0.5930194E+02  0.7816164E-02  0.1266605E+00
        -11   -1    0    0    0    0  0.00000000000E+00  0.00000000000E+00  0.45593999997E+02  0.45594000000E+02  0.51100000000E-03 0. -1.
         11   -1    0    0    0    0 -0.00000000000E+00 -0.00000000000E+00 -0.45593999997E+02  0.45594000000E+02  0.51100000000E-03 0.  1.
    9900012    2    1    2    0    0  0.49362091623E+01 -0.68356080784E+01  0.30751081842E+02  0.59301941398E+02  0.49999995204E+02 0.  0.
        -12    1    1    2    0    0 -0.49362091623E+01  0.68356080784E+01 -0.30751081842E+02  0.31886058602E+02  0.00000000000E+00 0.  1.
         11    1    3    3    0    0 -0.84490038901E+01 -0.31578729770E+01  0.40214157037E+02  0.41213301917E+02  0.51100000000E-03 0. -1.
        -11    1    3    3    0    0  0.10058733948E+02 -0.44531962311E+01 -0.96979532374E+01  0.14664903087E+02  0.51100000000E-03 0.  1.
         12    1    3    3    0    0  0.33264791048E+01  0.77546112974E+00  0.23487804305E+00  0.34237363937E+01  0.00000000000E+00 0. -1.
</event>
<event>
 7    1  0.6055092E-013  0.5930194E+02  0.7816164E-02  0.1266605E+00
        -11   -1    0    0    0    0  0.00000000000E+00  0.00000000000E+00  0.45593999997E+02  0.45594000000E+02  0.51100000000E-03 0.  1.
         11   -1    0    0    0    0 -0.00000000000E+00 -0.00000000000E+00 -0.45593999997E+02  0.45594000000E+02  0.51100000000E-03 0. -1.
    9900012    2    1    2    0    0  0.92895618126E+01 -0.29263558387E+02 -0.86063202524E+01  0.59301944170E+02  0.50000000259E+02 0.  0.
        -12    1    1    2    0    0 -0.92895618126E+01  0.29263558387E+02  0.86063202524E+01  0.31886055830E+02  0.00000000000E+00 0.  1.
         11    1    3    3    0    0 -0.39730966997E+01 -0.24784135792E+02 -0.19017078505E+02  0.31491080633E+02  0.51100000000E-03 0. -1.
        -11    1    3    3    0    0 -0.33318192608E+01 -0.48062448131E+01  0.95406227410E+01  0.11190374942E+02  0.51100000000E-03 0.  1.
         12    1    3    3    0    0  0.16594477773E+02  0.32682221769E+00  0.87013551130E+00  0.16620488595E+02  0.00000000000E+00 0. -1.
</event>
<event>
 7    1  0.6055092E-013  0.5930194E+02  0.7816164E-02  0.1266605E+00
        -11   -1    0    0    0    0  0.00000000000E+00  0.00000000000E+00  0.45593999997E+02  0.45594000000E+02  0.51100000000E-03 0.  1.
         11   -1    0    0    0    0 -0.00000000000E+00 -0.00000000000E+00 -0.45593999997E+02  0.45594000000E+02  0.51100000000E-03 0. -1.
    9900012    2    1    2    0    0  0.15122766870E+02 -0.68055491534E+01 -0.27234302509E+02  0.59301940189E+02  0.49999993000E+02 0.  0.
        -12    1    1    2    0    0 -0.15122766870E+02  0.68055491534E+01  0.27234302509E+02  0.31886059811E+02  0.00000000000E+00 0.  1.
         11    1    3    3    0    0  0.13916692487E+02  0.22647066267E+01 -0.28907483941E+02  0.32162802334E+02  0.51100000000E-03 0. -1.
        -11    1    3    3    0    0  0.95059128035E+01 -0.10922038594E+02  0.79975687198E+01  0.16541294114E+02  0.51100000000E-03 0.  1.
        -12    1    3    3    0    0 -0.82998384209E+01  0.18517828138E+01 -0.63243872879E+01  0.10597843742E+02  0.00000000000E+00 0.  1.
</event>
<event>
 7    1  0.6055092E-013  0.5930196E+02  0.7816164E-02  0.1266605E+00
        -11   -1    0    0    0    0  0.00000000000E+00  0.00000000000E+00  0.45593999997E+02  0.45594000000E+02  0.51100000000E-03 0.  1.
         11   -1    0    0    0    0 -0.00000000000E+00 -0.00000000000E+00 -0.45593999997E+02  0.45594000000E+02  0.51100000000E-03 0. -1.
    9900012    2    1    2    0    0  0.14867020918E+02 -0.16717527246E+02 -0.22720372866E+02  0.59301962752E+02  0.50000034148E+02 0.  0.
        -12    1    1    2    0    0 -0.14867020918E+02  0.16717527246E+02  0.22720372866E+02  0.31886037248E+02  0.00000000000E+00 0.  1.
         11    1    3    3    0    0  0.14509042301E+02  0.48221709837E+00 -0.14881997115E+02  0.20789869653E+02  0.51100000000E-03 0. -1.
        -11    1    3    3    0    0 -0.29438990292E+01 -0.15537145891E+02  0.11033000364E+02  0.19282026378E+02  0.51100000000E-03 0.  1.
        -12    1    3    3    0    0  0.33018776468E+01 -0.16625984531E+01 -0.18871376115E+02  0.19230066721E+02  0.00000000000E+00 0.  1.
</event>
<event>
 7    1  0.6055092E-013  0.5930187E+02  0.7816164E-02  0.1266605E+00
        -11   -1    0    0    0    0  0.00000000000E+00  0.00000000000E+00  0.45593999997E+02  0.45594000000E+02  0.51100000000E-03 0. -1.
         11   -1    0    0    0    0 -0.00000000000E+00 -0.00000000000E+00 -0.45593999997E+02  0.45594000000E+02  0.51100000000E-03 0.  1.
    9900012    2    1    2    0    0  0.13627167980E+02 -0.45378028259E+01  0.28468121508E+02  0.59301869726E+02  0.49999864492E+02 0.  0.
        -12    1    1    2    0    0 -0.13627167980E+02  0.45378028259E+01 -0.28468121508E+02  0.31886130274E+02  0.00000000000E+00 0.  1.
         11    1    3    3    0    0  0.26205125439E+02  0.88107711614E+01  0.19727840250E+02  0.33963597703E+02  0.51100000000E-03 0. -1.
        -11    1    3    3    0    0 -0.90543055145E+01 -0.40461643623E+01 -0.26009998511E+01  0.10252662819E+02  0.51100000000E-03 0.  1.
        -12    1    3    3    0    0 -0.35236519455E+01 -0.93024096249E+01  0.11341281109E+02  0.15085609204E+02  0.00000000000E+00 0.  1.
</event>
<event>
 7    1  0.6055092E-013  0.5930195E+02  0.7816164E-02  0.1266605E+00
        -11   -1    0    0    0    0  0.00000000000E+00  0.00000000000E+00  0.45593999997E+02  0.45594000000E+02  0.51100000000E-03 0. -1.
         11   -1    0    0    0    0 -0.00000000000E+00 -0.00000000000E+00 -0.45593999997E+02  0.45594000000E+02  0.51100000000E-03 0.  1.
    9900012    2    1    2    0    0  0.24061653040E+02 -0.18120339381E+02  0.10459943313E+02  0.59301948811E+02  0.50000008724E+02 0.  0.
        -12    1    1    2    0    0 -0.24061653040E+02  0.18120339381E+02 -0.10459943313E+02  0.31886051189E+02  0.00000000000E+00 0.  1.
         11    1    3    3    0    0  0.14461674477E+02 -0.18133928385E+02 -0.49181141319E+01  0.23710066095E+02  0.51100000000E-03 0. -1.
        -11    1    3    3    0    0 -0.62043946467E+01  0.10496045466E+02  0.19335170163E+01  0.12345038342E+02  0.51100000000E-03 0.  1.
         12    1    3    3    0    0  0.15804373209E+02 -0.10482456462E+02  0.13444540429E+02  0.23246844374E+02  0.00000000000E+00 0. -1.
</event>
<event>
 7    1  0.6055092E-013  0.5930196E+02  0.7816164E-02  0.1266605E+00
        -11   -1    0    0    0    0  0.00000000000E+00  0.00000000000E+00  0.45593999997E+02  0.45594000000E+02  0.51100000000E-03 0.  1.
         11   -1    0    0    0    0 -0.00000000000E+00 -0.00000000000E+00 -0.45593999997E+02  0.45594000000E+02  0.51100000000E-03 0. -1.
    9900012    2    1    2    0    0  0.13733013301E+02  0.17583520722E+02 -0.22780341105E+02  0.59301956091E+02  0.50000022001E+02 0.  0.
        -12    1    1    2    0    0 -0.13733013301E+02 -0.17583520722E+02  0.22780341105E+02  0.31886043909E+02  0.00000000000E+00 0.  1.
         11    1    3    3    0    0  0.10309108655E+02 -0.32876200984E+01 -0.16034901941E+02  0.19344359583E+02  0.51100000000E-03 0. -1.
        -11    1    3    3    0    0 -0.14670515165E+02  0.11782250066E+02 -0.57876961758E+01  0.19686108277E+02  0.51100000000E-03 0.  1.
        -12    1    3    3    0    0  0.18094419811E+02  0.90888907550E+01 -0.95774298827E+00  0.20271488231E+02  0.00000000000E+00 0.  1.
</event>
<event>
 7    1  0.6055092E-013  0.5930181E+02  0.7816164E-02  0.1266605E+00
        -11   -1    0    0    0    0  0.00000000000E+00  0.00000000000E+00  0.45593999997E+02  0.45594000000E+02  0.51100000000E-03 0. -1.
         11   -1    0    0    0    0 -0.00000000000E+00 -0.00000000000E+00 -0.45593999997E+02  0.45594000000E+02  0.51100000000E-03 0.  1.
    9900012    2    1    2    0    0  0.10859498635E+02 -0.10963799779E+02  0.27903320329E+02  0.59301813311E+02  0.49999761603E+02 0.  0.
        -12    1    1    2    0    0 -0.10859498635E+02  0.10963799779E+02 -0.27903320329E+02  0.31886186689E+02  0.00000000000E+00 0.  1.
         11    1    3    3    0    0 -0.17801987583E+01 -0.78026961530E+01  0.24042464289E+02  0.25339519811E+02  0.51100000000E-03 0.  1.
        -11    1    3    3    0    0  0.42941108829E+01  0.13975508511E+02  0.66477965858E+00  0.14635441868E+02  0.51100000000E-03 0. -1.
         12    1    3    3    0    0  0.83455865099E+01 -0.17136612138E+02  0.31960763815E+01  0.19326851631E+02  0.00000000000E+00 0. -1.
</event>
<event>
 7    1  0.6055092E-013  0.5930198E+02  0.7816164E-02  0.1266605E+00
        -11   -1    0    0    0    0  0.00000000000E+00  0.00000000000E+00  0.45593999997E+02  0.45594000000E+02  0.51100000000E-03 0. -1.
         11   -1    0    0    0    0 -0.00000000000E+00 -0.00000000000E+00 -0.45593999997E+02  0.45594000000E+02  0.51100000000E-03 0.  1.
    9900012    2    1    2    0    0 -0.10203202940E+02 -0.33620729882E+01  0.30021817401E+02  0.59301977905E+02  0.50000061783E+02 0.  0.
        -12    1    1    2    0    0  0.10203202940E+02  0.33620729882E+01 -0.30021817401E+02  0.31886022095E+02  0.00000000000E+00 0.  1.
         11    1    3    3    0    0 -0.14177227582E+01  0.16718052266E+02  0.21781113571E+02  0.27494001492E+02  0.51100000000E-03 0. -1.
        -11    1    3    3    0    0 -0.15255057788E+02 -0.12892860894E+02  0.93882923253E+01  0.22069949778E+02  0.51100000000E-03 0.  1.
        -12    1    3    3    0    0  0.64695776066E+01 -0.71872643596E+01 -0.11475884956E+01  0.97380266347E+01  0.00000000000E+00 0.  1.
</event>
<event>
 7    1  0.6055092E-013  0.5930193E+02  0.7816164E-02  0.1266605E+00
        -11   -1    0    0    0    0  0.00000000000E+00  0.00000000000E+00  0.45593999997E+02  0.45594000000E+02  0.51100000000E-03 0.  1.
         11   -1    0    0    0    0 -0.00000000000E+00 -0.00000000000E+00 -0.45593999997E+02  0.45594000000E+02  0.51100000000E-03 0. -1.
    9900012    2    1    2    0    0 -0.31099562265E+02 -0.22664285480E+01 -0.66634697526E+01  0.59301932501E+02  0.49999978977E+02 0.  0.
        -12    1    1    2    0    0  0.31099562265E+02  0.22664285480E+01  0.66634697526E+01  0.31886067499E+02  0.00000000000E+00 0.  1.
         11    1    3    3    0    0 -0.19002005737E+02  0.26791563345E+01 -0.16896107836E+02  0.25568194324E+02  0.51100000000E-03 0. -1.
        -11    1    3    3    0    0  0.51532242132E+01  0.84063740715E+01  0.57416894638E+00  0.98768676746E+01  0.51100000000E-03 0.  1.
        -12    1    3    3    0    0 -0.17250780741E+02 -0.13351958954E+02  0.96584691373E+01  0.23856870502E+02  0.00000000000E+00 0.  1.
</event>
<event>
 7    1  0.6055092E-013  0.5930194E+02  0.7816164E-02  0.1266605E+00
        -11   -1    0    0    0    0  0.00000000000E+00  0.00000000000E+00  0.45593999997E+02  0.45594000000E+02  0.51100000000E-03 0.  1.
         11   -1    0    0    0    0 -0.00000000000E+00 -0.00000000000E+00 -0.45593999997E+02  0.45594000000E+02  0.51100000000E-03 0. -1.
    9900012    2    1    2    0    0 -0.46288199745E+01  0.13963551367E+02 -0.28289824163E+02  0.59301938902E+02  0.49999990652E+02 0.  0.
        -12    1    1    2    0    0  0.46288199745E+01 -0.13963551367E+02  0.28289824163E+02  0.31886061098E+02  0.00000000000E+00 0.  1.
         11    1    3    3    0    0  0.92738677752E+01  0.63428634387E+01 -0.14026580781E+02  0.17971686309E+02  0.51100000000E-03 0. -1.
        -11    1    3    3    0    0 -0.13199710784E+02 -0.62633907382E+01 -0.21236928822E+02  0.25777307353E+02  0.51100000000E-03 0.  1.
        -12    1    3    3    0    0 -0.70297696594E+00  0.13884078667E+02  0.69736854397E+01  0.15552945241E+02  0.00000000000E+00 0.  1.
</event>
<event>
 7    1  0.6055092E-013  0.5930194E+02  0.7816164E-02  0.1266605E+00
        -11   -1    0    0    0    0  0.00000000000E+00  0.00000000000E+00  0.45593999997E+02  0.45594000000E+02  0.51100000000E-03 0. -1.
         11   -1    0    0    0    0 -0.00000000000E+00 -0.00000000000E+00 -0.45593999997E+02  0.45594000000E+02  0.51100000000E-03 0.  1.
    9900012    2    1    2    0    0  0.19008632104E+02  0.23880067932E+02  0.92268534263E+01  0.59301944066E+02  0.50000000070E+02 0.  0.
        -12    1    1    2    0    0 -0.19008632104E+02 -0.23880067932E+02 -0.92268534263E+01  0.31886055934E+02  0.00000000000E+00 0.  1.
         11    1    3    3    0    0  0.87478079822E-01  0.21792759436E+02  0.23861805965E+02  0.32315906307E+02  0.51100000000E-03 0. -1.
        -11    1    3    3    0    0  0.19043724246E+02 -0.11368896141E+01 -0.10616951929E+02  0.21832902227E+02  0.51100000000E-03 0.  1.
        -12    1    3    3    0    0 -0.12257022213E+00  0.32241981094E+01 -0.40180006099E+01  0.51531355318E+01  0.00000000000E+00 0.  1.
</event>
<event>
 7    1  0.6055092E-013  0.5930196E+02  0.7816164E-02  0.1266605E+00
        -11   -1    0    0    0    0  0.00000000000E+00  0.00000000000E+00  0.45593999997E+02  0.45594000000E+02  0.51100000000E-03 0.  1.
         11   -1    0    0    0    0 -0.00000000000E+00 -0.00000000000E+00 -0.45593999997E+02  0.45594000000E+02  0.51100000000E-03 0. -1.
    9900012    2    1    2    0    0  0.11843972594E+02 -0.26889809751E+02  0.12384588598E+02  0.59301959324E+02  0.50000027896E+02 0.  0.
        -12    1    1    2    0    0 -0.11843972594E+02  0.26889809751E+02 -0.12384588598E+02  0.31886040676E+02  0.00000000000E+00 0.  1.
         11    1    3    3    0    0  0.15786107356E+02  0.36349661931E+01  0.12339045242E+02  0.20363354400E+02  0.51100000000E-03 0. -1.
        -11    1    3    3    0    0 -0.10343689369E+02 -0.90091890775E+01 -0.70149166504E+01  0.15406701577E+02  0.51100000000E-03 0.  1.
        -12    1    3    3    0    0  0.64015546078E+01 -0.21515586867E+02  0.70604600069E+01  0.23531903347E+02  0.00000000000E+00 0.  1.
</event>
<event>
 7    1  0.6055092E-013  0.5930195E+02  0.7816164E-02  0.1266605E+00
        -11   -1    0    0    0    0  0.00000000000E+00  0.00000000000E+00  0.45593999997E+02  0.45594000000E+02  0.51100000000E-03 0. -1.
         11   -1    0    0    0    0 -0.00000000000E+00 -0.00000000000E+00 -0.45593999997E+02  0.45594000000E+02  0.51100000000E-03 0.  1.
    9900012    2    1    2    0    0 -0.12183590336E+01  0.29736069760E+02  0.11445609784E+02  0.59301949338E+02  0.50000009684E+02 0.  0.
        -12    1    1    2    0    0  0.12183590336E+01 -0.29736069760E+02 -0.11445609784E+02  0.31886050662E+02  0.00000000000E+00 0.  1.
         11    1    3    3    0    0 -0.16499120792E+02 -0.67671792509E+01  0.17057385226E+01  0.17914386568E+02  0.51100000000E-03 0. -1.
        -11    1    3    3    0    0  0.45659799861E+01  0.11080764598E+02 -0.40958162331E+00  0.11991633529E+02  0.51100000000E-03 0.  1.
         12    1    3    3    0    0  0.10714781772E+02  0.25422484412E+02  0.10149452885E+02  0.29395929242E+02  0.00000000000E+00 0. -1.
</event>
<event>
 7    1  0.6055092E-013  0.5930195E+02  0.7816164E-02  0.1266605E+00
        -11   -1    0    0    0    0  0.00000000000E+00  0.00000000000E+00  0.45593999997E+02  0.45594000000E+02  0.51100000000E-03 0.  1.
         11   -1    0    0    0    0 -0.00000000000E+00 -0.00000000000E+00 -0.45593999997E+02  0.45594000000E+02  0.51100000000E-03 0. -1.
    9900012    2    1    2    0    0 -0.28730993142E+02  0.13824989727E+02  0.34615940680E+00  0.59301950790E+02  0.50000012334E+02 0.  0.
        -12    1    1    2    0    0  0.28730993142E+02 -0.13824989727E+02 -0.34615940680E+00  0.31886049210E+02  0.00000000000E+00 0.  1.
         11    1    3    3    0    0 -0.57838733769E+01 -0.10151314808E+02 -0.14054031357E+02  0.18276164292E+02  0.51100000000E-03 0. -1.
        -11    1    3    3    0    0 -0.96787659730E+01  0.22096721782E+02  0.49450722780E+01  0.24625136840E+02  0.51100000000E-03 0.  1.
        -12    1    3    3    0    0 -0.13268353792E+02  0.18795827532E+01  0.94551184855E+01  0.16400649659E+02  0.00000000000E+00 0.  1.
</event>
<event>
 7    1  0.6055092E-013  0.5930196E+02  0.7816164E-02  0.1266605E+00
        -11   -1    0    0    0    0  0.00000000000E+00  0.00000000000E+00  0.45593999997E+02  0.45594000000E+02  0.51100000000E-03 0.  1.
         11   -1    0    0    0    0 -0.00000000000E+00 -0.00000000000E+00 -0.45593999997E+02  0.45594000000E+02  0.51100000000E-03 0. -1.
    9900012    2    1    2    0    0 -0.25369111476E+02  0.40662072088E+01  0.18883687258E+02  0.59301960694E+02  0.50000030396E+02 0.  0.
        -12    1    1    2    0    0  0.25369111476E+02 -0.40662072088E+01 -0.18883687258E+02  0.31886039306E+02  0.00000000000E+00 0.  1.
         11    1    3    3    0    0 -0.11881395132E+02  0.17835874091E+02  0.91179677541E+00  0.21450345649E+02  0.51100000000E-03 0. -1.
        -11    1    3    3    0    0 -0.15027654210E+02 -0.10560277920E+02 -0.11482366341E+01  0.18402942928E+02  0.51100000000E-03 0.  1.
        -12    1    3    3    0    0  0.15399378657E+01 -0.32093889619E+01  0.19120127117E+02  0.19448672117E+02  0.00000000000E+00 0.  1.
</event>
<event>
 7    1  0.6055092E-013  0.5930194E+02  0.7816164E-02  0.1266605E+00
        -11   -1    0    0    0    0  0.00000000000E+00  0.00000000000E+00  0.45593999997E+02  0.45594000000E+02  0.51100000000E-03 0.  1.
         11   -1    0    0    0    0 -0.00000000000E+00 -0.00000000000E+00 -0.45593999997E+02  0.45594000000E+02  0.51100000000E-03 0. -1.
    9900012    2    1    2    0    0 -0.30304420550E+01 -0.20771549149E+02 -0.24001661511E+02  0.59301943668E+02  0.49999999344E+02 0.  0.
        -12    1    1    2    0    0  0.30304420550E+01  0.20771549149E+02  0.24001661511E+02  0.31886056332E+02  0.00000000000E+00 0.  1.
         11    1    3    3    0    0  0.42097448993E+01 -0.19169250231E+02 -0.61413154813E+01  0.20564480607E+02  0.51100000000E-03 0. -1.
        -11    1    3    3    0    0 -0.59530078872E+01  0.15696428706E+02 -0.64992422977E+01  0.18001564591E+02  0.51100000000E-03 0.  1.
        -12    1    3    3    0    0 -0.12871790672E+01 -0.17298727623E+02 -0.11361103732E+02  0.20735898470E+02  0.00000000000E+00 0.  1.
</event>
<event>
 7    1  0.6055092E-013  0.5930197E+02  0.7816164E-02  0.1266605E+00
        -11   -1    0    0    0    0  0.00000000000E+00  0.00000000000E+00  0.45593999997E+02  0.45594000000E+02  0.51100000000E-03 0. -1.
         11   -1    0    0    0    0 -0.00000000000E+00 -0.00000000000E+00 -0.45593999997E+02  0.45594000000E+02  0.51100000000E-03 0.  1.
    9900012    2    1    2    0    0 -0.62879762520E+01  0.27706153740E+02  0.14475809840E+02  0.59301973735E+02  0.50000054180E+02 0.  0.
        -12    1    1    2    0    0  0.62879762520E+01 -0.27706153740E+02 -0.14475809840E+02  0.31886026265E+02  0.00000000000E+00 0.  1.
         11    1    3    3    0    0 -0.17155439246E+02  0.69500818675E+01  0.19748007478E+02  0.27066520524E+02  0.51100000000E-03 0. -1.
        -11    1    3    3    0    0  0.37657496792E+01  0.17289077601E+02 -0.12388983561E+02  0.21600462701E+02  0.51100000000E-03 0.  1.
         12    1    3    3    0    0  0.71017133143E+01  0.34669942718E+01  0.71167859231E+01  0.10634990510E+02  0.00000000000E+00 0. -1.
</event>
<event>
 7    1  0.6055092E-013  0.5930202E+02  0.7816164E-02  0.1266604E+00
        -11   -1    0    0    0    0  0.00000000000E+00  0.00000000000E+00  0.45593999997E+02  0.45594000000E+02  0.51100000000E-03 0.  1.
         11   -1    0    0    0    0 -0.00000000000E+00 -0.00000000000E+00 -0.45593999997E+02  0.45594000000E+02  0.51100000000E-03 0. -1.
    9900012    2    1    2    0    0  0.14176648498E+02 -0.24571529375E+02 -0.14559475852E+02  0.59302019451E+02  0.50000137554E+02 0.  0.
        -12    1    1    2    0    0 -0.14176648498E+02  0.24571529375E+02  0.14559475852E+02  0.31885980549E+02  0.00000000000E+00 0.  1.
         11    1    3    3    0    0  0.27491555836E+02 -0.74324509638E+01 -0.70055202755E+01  0.29327534574E+02  0.51100000000E-03 0. -1.
        -11    1    3    3    0    0  0.38369908123E+00 -0.39553587083E+01  0.55918598563E+01  0.68601009037E+01  0.51100000000E-03 0.  1.
         12    1    3    3    0    0 -0.13698606419E+02 -0.13183719703E+02 -0.13145815433E+02  0.23114383973E+02  0.00000000000E+00 0. -1.
</event>
<event>
 7    1  0.6055092E-013  0.5930195E+02  0.7816164E-02  0.1266605E+00
        -11   -1    0    0    0    0  0.00000000000E+00  0.00000000000E+00  0.45593999997E+02  0.45594000000E+02  0.51100000000E-03 0. -1.
         11   -1    0    0    0    0 -0.00000000000E+00 -0.00000000000E+00 -0.45593999997E+02  0.45594000000E+02  0.51100000000E-03 0.  1.
    9900012    2    1    2    0    0 -0.23348447180E+02 -0.97313826225E+01  0.19413152471E+02  0.59301948467E+02  0.50000008097E+02 0.  0.
        -12    1    1    2    0    0  0.23348447180E+02  0.97313826225E+01 -0.19413152471E+02  0.31886051533E+02  0.00000000000E+00 0.  1.
         11    1    3    3    0    0  0.14287707376E+02  0.16600200417E+00  0.13241767532E+02  0.19481030423E+02  0.51100000000E-03 0. -1.
        -11    1    3    3    0    0 -0.34457903309E+02 -0.98678287896E+01  0.42182167229E+01  0.36090365724E+02  0.51100000000E-03 0.  1.
         12    1    3    3    0    0 -0.31782512464E+01 -0.29555836988E-01  0.19531682166E+01  0.37305523204E+01  0.00000000000E+00 0. -1.
</event>
<event>
 7    1  0.6055092E-013  0.5930193E+02  0.7816164E-02  0.1266605E+00
        -11   -1    0    0    0    0  0.00000000000E+00  0.00000000000E+00  0.45593999997E+02  0.45594000000E+02  0.51100000000E-03 0.  1.
         11   -1    0    0    0    0 -0.00000000000E+00 -0.00000000000E+00 -0.45593999997E+02  0.45594000000E+02  0.51100000000E-03 0. -1.
    9900012    2    1    2    0    0  0.21845090330E+02 -0.19844316162E+02 -0.12071323663E+02  0.59301926074E+02  0.49999967256E+02 0.  0.
        -12    1    1    2    0    0 -0.21845090330E+02  0.19844316162E+02  0.12071323663E+02  0.31886073926E+02  0.00000000000E+00 0.  1.
         11    1    3    3    0    0  0.28988432421E+02 -0.27463730455E+02 -0.92614101042E+01  0.40992187331E+02  0.51100000000E-03 0. -1.
        -11    1    3    3    0    0 -0.11380998005E+02  0.75304067169E+01 -0.33080281085E+01  0.14041979602E+02  0.51100000000E-03 0.  1.
        -12    1    3    3    0    0  0.42376559129E+01  0.89007575910E-01  0.49811455007E+00  0.42677591415E+01  0.00000000000E+00 0.  1.
</event>
<event>
 7    1  0.6055092E-013  0.5930194E+02  0.7816164E-02  0.1266605E+00
        -11   -1    0    0    0    0  0.00000000000E+00  0.00000000000E+00  0.45593999997E+02  0.45594000000E+02  0.51100000000E-03 0.  1.
         11   -1    0    0    0    0 -0.00000000000E+00 -0.00000000000E+00 -0.45593999997E+02  0.45594000000E+02  0.51100000000E-03 0. -1.
    9900012    2    1    2    0    0  0.93024926235E+01  0.43656463584E+01 -0.30184855804E+02  0.59301941023E+02  0.49999994521E+02 0.  0.
        -12    1    1    2    0    0 -0.93024926235E+01 -0.43656463584E+01  0.30184855804E+02  0.31886058977E+02  0.00000000000E+00 0.  1.
         11    1    3    3    0    0 -0.67585892286E+01 -0.93642839956E+01 -0.14305161112E+02  0.18384938885E+02  0.51100000000E-03 0. -1.
        -11    1    3    3    0    0  0.19423321625E+02  0.12481583215E+02 -0.23221573015E+02  0.32745943200E+02  0.51100000000E-03 0.  1.
        -12    1    3    3    0    0 -0.33622397727E+01  0.12483471396E+01  0.73418783229E+01  0.81710589386E+01  0.00000000000E+00 0.  1.
</event>
<event>
 7    1  0.6055092E-013  0.5930197E+02  0.7816164E-02  0.1266605E+00
        -11   -1    0    0    0    0  0.00000000000E+00  0.00000000000E+00  0.45593999997E+02  0.45594000000E+02  0.51100000000E-03 0.  1.
         11   -1    0    0    0    0 -0.00000000000E+00 -0.00000000000E+00 -0.45593999997E+02  0.45594000000E+02  0.51100000000E-03 0. -1.
    9900012    2    1    2    0    0  0.28160597948E+02 -0.14836731291E+02  0.18896906520E+01  0.59301971665E+02  0.50000050404E+02 0.  0.
        -12    1    1    2    0    0 -0.28160597948E+02  0.14836731291E+02 -0.18896906520E+01  0.31886028335E+02  0.00000000000E+00 0.  1.
         11    1    3    3    0    0  0.23675577219E+02 -0.23797865858E+02 -0.23735794162E+01  0.33652715426E+02  0.51100000000E-03 0. -1.
        -11    1    3    3    0    0 -0.86451172759E+01  0.82133902185E+01  0.35714843212E+00  0.11930020405E+02  0.51100000000E-03 0.  1.
         12    1    3    3    0    0  0.13130138005E+02  0.74774434826E+00  0.39061216361E+01  0.13719235834E+02  0.00000000000E+00 0. -1.
</event>
<event>
 7    1  0.6055092E-013  0.5930194E+02  0.7816164E-02  0.1266605E+00
        -11   -1    0    0    0    0  0.00000000000E+00  0.00000000000E+00  0.45593999997E+02  0.45594000000E+02  0.51100000000E-03 0.  1.
         11   -1    0    0    0    0 -0.00000000000E+00 -0.00000000000E+00 -0.45593999997E+02  0.45594000000E+02  0.51100000000E-03 0. -1.
    9900012    2    1    2    0    0 -0.16692713288E+02  0.28797504642E+01 -0.27014459435E+02  0.59301942573E+02  0.49999997347E+02 0.  0.
        -12    1    1    2    0    0  0.16692713288E+02 -0.28797504642E+01  0.27014459435E+02  0.31886057427E+02  0.00000000000E+00 0.  1.
         11    1    3    3    0    0 -0.11647177144E+02 -0.10628936396E+02 -0.27456985262E+01  0.16005308026E+02  0.51100000000E-03 0. -1.
        -11    1    3    3    0    0  0.10298658582E+01  0.23194469238E+02 -0.10732730604E+02  0.25578028333E+02  0.51100000000E-03 0.  1.
        -12    1    3    3    0    0 -0.60754020022E+01 -0.96857823780E+01 -0.13536030305E+02  0.17718606214E+02  0.00000000000E+00 0.  1.
</event>
<event>
 7    1  0.6055092E-013  0.5930194E+02  0.7816164E-02  0.1266605E+00
        -11   -1    0    0    0    0  0.00000000000E+00  0.00000000000E+00  0.45593999997E+02  0.45594000000E+02  0.51100000000E-03 0.  1.
         11   -1    0    0    0    0 -0.00000000000E+00 -0.00000000000E+00 -0.45593999997E+02  0.45594000000E+02  0.51100000000E-03 0. -1.
    9900012    2    1    2    0    0  0.30012301334E+02  0.10384203436E+02 -0.28549411102E+01  0.59301943469E+02  0.49999998980E+02 0.  0.
        -12    1    1    2    0    0 -0.30012301334E+02 -0.10384203436E+02  0.28549411102E+01  0.31886056531E+02  0.00000000000E+00 0.  1.
         11    1    3    3    0    0  0.15681062920E+02  0.15641363350E+02 -0.63780347025E+01  0.23048368894E+02  0.51100000000E-03 0. -1.
        -11    1    3    3    0    0 -0.97730327988E+01 -0.27895550733E+01 -0.39395137130E+01  0.10900163125E+02  0.51100000000E-03 0.  1.
        -12    1    3    3    0    0  0.24104271213E+02 -0.24676048403E+01  0.74626073053E+01  0.25353411450E+02  0.00000000000E+00 0.  1.
</event>
<event>
 7    1  0.6055092E-013  0.5930186E+02  0.7816164E-02  0.1266605E+00
        -11   -1    0    0    0    0  0.00000000000E+00  0.00000000000E+00  0.45593999997E+02  0.45594000000E+02  0.51100000000E-03 0.  1.
         11   -1    0    0    0    0 -0.00000000000E+00 -0.00000000000E+00 -0.45593999997E+02  0.45594000000E+02  0.51100000000E-03 0. -1.
    9900012    2    1    2    0    0  0.40835785023E+01  0.31533500677E+02  0.23851365620E+01  0.59301856384E+02  0.49999840158E+02 0.  0.
        -12    1    1    2    0    0 -0.40835785023E+01 -0.31533500677E+02 -0.23851365620E+01  0.31886143616E+02  0.00000000000E+00 0.  1.
         11    1    3    3    0    0 -0.68897278981E+01  0.35419112763E+02 -0.52836632328E+01  0.36467780256E+02  0.51100000000E-03 0. -1.
        -11    1    3    3    0    0  0.13857519706E+01  0.15663842958E+01  0.11090680089E+02  0.11286144310E+02  0.51100000000E-03 0.  1.
         12    1    3    3    0    0  0.95875544297E+01 -0.54519963820E+01 -0.34218802947E+01  0.11547931817E+02  0.00000000000E+00 0. -1.
</event>
<event>
 7    1  0.6055092E-013  0.5930200E+02  0.7816164E-02  0.1266605E+00
        -11   -1    0    0    0    0  0.00000000000E+00  0.00000000000E+00  0.45593999997E+02  0.45594000000E+02  0.51100000000E-03 0. -1.
         11   -1    0    0    0    0 -0.00000000000E+00 -0.00000000000E+00 -0.45593999997E+02  0.45594000000E+02  0.51100000000E-03 0.  1.
    9900012    2    1    2    0    0 -0.37762311300E+01 -0.23630679760E+02  0.21072452241E+02  0.59301996944E+02  0.50000096506E+02 0.  0.
        -12    1    1    2    0    0  0.37762311300E+01  0.23630679760E+02 -0.21072452241E+02  0.31886003056E+02  0.00000000000E+00 0.  1.
         11    1    3    3    0    0 -0.19808172853E+02 -0.89715531663E+01  0.24308829820E+02  0.32615512957E+02  0.51100000000E-03 0. -1.
        -11    1    3    3    0    0 -0.17418185156E+01 -0.14385798866E+01 -0.39200739087E+01  0.45244252168E+01  0.51100000000E-03 0.  1.
         12    1    3    3    0    0  0.17773760239E+02 -0.13220546707E+02  0.68369632973E+00  0.22162058770E+02  0.00000000000E+00 0. -1.
</event>
<event>
 7    1  0.6055092E-013  0.5930192E+02  0.7816164E-02  0.1266605E+00
        -11   -1    0    0    0    0  0.00000000000E+00  0.00000000000E+00  0.45593999997E+02  0.45594000000E+02  0.51100000000E-03 0.  1.
         11   -1    0    0    0    0 -0.00000000000E+00 -0.00000000000E+00 -0.45593999997E+02  0.45594000000E+02  0.51100000000E-03 0. -1.
    9900012    2    1    2    0    0  0.19481413729E+02  0.21255907933E+02 -0.13615536548E+02  0.59301922498E+02  0.49999960735E+02 0.  0.
        -12    1    1    2    0    0 -0.19481413729E+02 -0.21255907933E+02  0.13615536548E+02  0.31886077502E+02  0.00000000000E+00 0.  1.
         11    1    3    3    0    0  0.13347620460E+02  0.34034760988E+02 -0.10669382620E+02  0.38083587715E+02  0.51100000000E-03 0. -1.
        -11    1    3    3    0    0 -0.13395743114E+01 -0.10507713550E+02 -0.67190442298E+01  0.12544004903E+02  0.51100000000E-03 0.  1.
         12    1    3    3    0    0  0.74733675806E+01 -0.22711395051E+01  0.37728903016E+01  0.86743298804E+01  0.00000000000E+00 0. -1.
</event>
<event>
 7    1  0.6055092E-013  0.5930196E+02  0.7816164E-02  0.1266605E+00
        -11   -1    0    0    0    0  0.00000000000E+00  0.00000000000E+00  0.45593999997E+02  0.45594000000E+02  0.51100000000E-03 0.  1.
         11   -1    0    0    0    0 -0.00000000000E+00 -0.00000000000E+00 -0.45593999997E+02  0.45594000000E+02  0.51100000000E-03 0. -1.
    9900012    2    1    2    0    0 -0.20279252400E+02 -0.10669241453E+01 -0.24583188002E+02  0.59301960149E+02  0.50000029402E+02 0.  0.
        -12    1    1    2    0    0  0.20279252400E+02  0.10669241453E+01  0.24583188002E+02  0.31886039851E+02  0.00000000000E+00 0.  1.
         11    1    3    3    0    0 -0.41621228340E+01 -0.24896246176E+01  0.11001127423E+02  0.12022741037E+02  0.51100000000E-03 0.  1.
        -11    1    3    3    0    0 -0.23515043402E+02  0.16113820510E+00 -0.28611740372E+02  0.37035319886E+02  0.51100000000E-03 0. -1.
         12    1    3    3    0    0  0.73979138357E+01  0.12615622671E+01 -0.69725750529E+01  0.10243899226E+02  0.00000000000E+00 0. -1.
</event>
<event>
 7    1  0.6055092E-013  0.5930187E+02  0.7816164E-02  0.1266605E+00
        -11   -1    0    0    0    0  0.00000000000E+00  0.00000000000E+00  0.45593999997E+02  0.45594000000E+02  0.51100000000E-03 0.  1.
         11   -1    0    0    0    0 -0.00000000000E+00 -0.00000000000E+00 -0.45593999997E+02  0.45594000000E+02  0.51100000000E-03 0. -1.
    9900012    2    1    2    0    0  0.15861204173E+01  0.32168342680E+01 -0.31683778123E+02  0.59301865132E+02  0.49999856112E+02 0.  0.
        -12    1    1    2    0    0 -0.15861204173E+01 -0.32168342680E+01  0.31683778123E+02  0.31886134868E+02  0.00000000000E+00 0.  1.
         11    1    3    3    0    0  0.28060628563E+01 -0.41962331353E+01  0.95681343816E+01  0.10818112455E+02  0.51100000000E-03 0.  1.
        -11    1    3    3    0    0 -0.53205983582E+00  0.14556208054E+02 -0.13642800951E+02  0.19957261802E+02  0.51100000000E-03 0. -1.
         12    1    3    3    0    0 -0.68788260315E+00 -0.71431406510E+01 -0.27609111554E+02  0.28526490875E+02  0.00000000000E+00 0. -1.
</event>
