<event>
 7    1  0.1465498E-013  0.7246154E+02  0.7816164E-02  0.1226708E+00
        -11   -1    0    0    0    0  0.00000000000E+00  0.00000000000E+00  0.45593999997E+02  0.45594000000E+02  0.51100000000E-03 0.  1.
         11   -1    0    0    0    0 -0.00000000000E+00 -0.00000000000E+00 -0.45593999997E+02  0.45594000000E+02  0.51100000000E-03 0. -1.
    9900012    2    1    2    0    0  0.21920297383E+01  0.79807716456E+01  0.16798292894E+02  0.72461538653E+02  0.69999958781E+02 0.  0.
         12    1    1    2    0    0 -0.21920297383E+01 -0.79807716456E+01 -0.16798292894E+02  0.18726461347E+02  0.00000000000E+00 0. -1.
         11    1    3    3    0    0 -0.25028495765E+01  0.14371198830E+02 -0.25060438293E+02  0.28996916724E+02  0.51100000000E-03 0. -1.
        -11    1    3    3    0    0 -0.25063773301E+01 -0.99609899524E+00  0.10464365054E+02  0.10806344283E+02  0.51100000000E-03 0.  1.
        -12    1    3    3    0    0  0.72012566449E+01 -0.53943281889E+01  0.31394366133E+02  0.32658277645E+02  0.00000000000E+00 0.  1.
</event>
<event>
 7    1  0.1465498E-013  0.7246153E+02  0.7816164E-02  0.1226708E+00
        -11   -1    0    0    0    0  0.00000000000E+00  0.00000000000E+00  0.45593999997E+02  0.45594000000E+02  0.51100000000E-03 0.  1.
         11   -1    0    0    0    0 -0.00000000000E+00 -0.00000000000E+00 -0.45593999997E+02  0.45594000000E+02  0.51100000000E-03 0. -1.
    9900012    2    1    2    0    0  0.13009943413E+02  0.46595270981E+01  0.12637676164E+02  0.72461529985E+02  0.69999947489E+02 0.  0.
         12    1    1    2    0    0 -0.13009943413E+02 -0.46595270981E+01 -0.12637676164E+02  0.18726470015E+02  0.00000000000E+00 0. -1.
         11    1    3    3    0    0  0.43982219179E+01  0.18872442251E+00 -0.18289408774E+02  0.18811763515E+02  0.51100000000E-03 0. -1.
        -11    1    3    3    0    0 -0.25450121086E+01 -0.58383182540E+01 -0.89457653181E+01  0.10981337080E+02  0.51100000000E-03 0.  1.
        -12    1    3    3    0    0  0.11156733604E+02  0.10309120930E+02  0.39872850257E+02  0.42668429391E+02  0.00000000000E+00 0.  1.
</event>
<event>
 7    1  0.1465498E-013  0.7246157E+02  0.7816164E-02  0.1226708E+00
        -11   -1    0    0    0    0  0.00000000000E+00  0.00000000000E+00  0.45593999997E+02  0.45594000000E+02  0.51100000000E-03 0. -1.
         11   -1    0    0    0    0 -0.00000000000E+00 -0.00000000000E+00 -0.45593999997E+02  0.45594000000E+02  0.51100000000E-03 0.  1.
    9900012    2    1    2    0    0 -0.14228713862E+02 -0.12114439198E+02 -0.12097028256E+01  0.72461566379E+02  0.69999994899E+02 0.  0.
         12    1    1    2    0    0  0.14228713862E+02  0.12114439198E+02  0.12097028256E+01  0.18726433621E+02  0.00000000000E+00 0. -1.
         11    1    3    3    0    0  0.53857351385E+01 -0.17330452557E+01  0.56293936697E+01  0.79812068129E+01  0.51100000000E-03 0. -1.
        -11    1    3    3    0    0 -0.50442385702E+01 -0.31507724365E+02 -0.17841147540E+02  0.36558002998E+02  0.51100000000E-03 0.  1.
         12    1    3    3    0    0 -0.14570210430E+02  0.21126330423E+02  0.11002051045E+02  0.27922356568E+02  0.00000000000E+00 0. -1.
</event>
<event>
 7    1  0.1465498E-013  0.7246147E+02  0.7816164E-02  0.1226708E+00
        -11   -1    0    0    0    0  0.00000000000E+00  0.00000000000E+00  0.45593999997E+02  0.45594000000E+02  0.51100000000E-03 0.  1.
         11   -1    0    0    0    0 -0.00000000000E+00 -0.00000000000E+00 -0.45593999997E+02  0.45594000000E+02  0.51100000000E-03 0. -1.
    9900012    2    1    2    0    0 -0.12960825318E+02 -0.19964028230E+01  0.13368413120E+02  0.72461465711E+02  0.69999863760E+02 0.  0.
         12    1    1    2    0    0  0.12960825318E+02  0.19964028230E+01 -0.13368413120E+02  0.18726534289E+02  0.00000000000E+00 0. -1.
         11    1    3    3    0    0 -0.19353225668E+02 -0.70891535764E+01  0.20679620301E+02  0.29196748761E+02  0.51100000000E-03 0. -1.
        -11    1    3    3    0    0 -0.75853035218E+01 -0.13951255818E+02  0.49704952523E+01  0.16639717297E+02  0.51100000000E-03 0.  1.
         12    1    3    3    0    0  0.13977703872E+02  0.19044006571E+02 -0.12281702434E+02  0.26624999652E+02  0.00000000000E+00 0. -1.
</event>
<event>
 7    1  0.1465498E-013  0.7246155E+02  0.7816164E-02  0.1226708E+00
        -11   -1    0    0    0    0  0.00000000000E+00  0.00000000000E+00  0.45593999997E+02  0.45594000000E+02  0.51100000000E-03 0. -1.
         11   -1    0    0    0    0 -0.00000000000E+00 -0.00000000000E+00 -0.45593999997E+02  0.45594000000E+02  0.51100000000E-03 0.  1.
    9900012    2    1    2    0    0  0.19413727620E+00 -0.15349144321E+01 -0.18662425331E+02  0.72461554239E+02  0.69999979085E+02 0.  0.
         12    1    1    2    0    0 -0.19413727620E+00  0.15349144321E+01  0.18662425331E+02  0.18726445761E+02  0.00000000000E+00 0. -1.
         11    1    3    3    0    0  0.18563654351E+02 -0.79631765271E+01 -0.28299371251E+02  0.34768892084E+02  0.51100000000E-03 0. -1.
        -11    1    3    3    0    0 -0.80572073214E+01 -0.10591774985E+02 -0.36068802958E+01  0.13788178737E+02  0.51100000000E-03 0.  1.
         12    1    3    3    0    0 -0.10312309754E+02  0.17020037080E+02  0.13243826215E+02  0.23904483418E+02  0.00000000000E+00 0. -1.
</event>
<event>
 7    1  0.1465498E-013  0.7246118E+02  0.7816164E-02  0.1226709E+00
        -11   -1    0    0    0    0  0.00000000000E+00  0.00000000000E+00  0.45593999997E+02  0.45594000000E+02  0.51100000000E-03 0. -1.
         11   -1    0    0    0    0 -0.00000000000E+00 -0.00000000000E+00 -0.45593999997E+02  0.45594000000E+02  0.51100000000E-03 0.  1.
    9900012    2    1    2    0    0  0.14538173420E+02  0.58674755353E+01 -0.10242467649E+02  0.72461177016E+02  0.69999487679E+02 0.  0.
         12    1    1    2    0    0 -0.14538173420E+02 -0.58674755353E+01  0.10242467649E+02  0.18726822984E+02  0.00000000000E+00 0. -1.
         11    1    3    3    0    0 -0.15217199652E+02  0.52664026287E+01  0.62522658689E+01  0.17273939639E+02  0.51100000000E-03 0. -1.
        -11    1    3    3    0    0 -0.89625248365E+01  0.44198645008E+01 -0.12607718586E+02  0.16087778649E+02  0.51100000000E-03 0.  1.
        -12    1    3    3    0    0  0.38717897909E+02 -0.38187915943E+01 -0.38870149319E+01  0.39099458728E+02  0.00000000000E+00 0.  1.
</event>
<event>
 7    1  0.1465498E-013  0.7246150E+02  0.7816164E-02  0.1226708E+00
        -11   -1    0    0    0    0  0.00000000000E+00  0.00000000000E+00  0.45593999997E+02  0.45594000000E+02  0.51100000000E-03 0. -1.
         11   -1    0    0    0    0 -0.00000000000E+00 -0.00000000000E+00 -0.45593999997E+02  0.45594000000E+02  0.51100000000E-03 0.  1.
    9900012    2    1    2    0    0 -0.69687865828E+01 -0.83992860324E+00 -0.17361226658E+02  0.72461503863E+02  0.69999913461E+02 0.  0.
         12    1    1    2    0    0  0.69687865828E+01  0.83992860324E+00  0.17361226658E+02  0.18726496137E+02  0.00000000000E+00 0. -1.
         11    1    3    3    0    0  0.24466080660E+01  0.85882898379E+01  0.38073839955E+01  0.97077693894E+01  0.51100000000E-03 0. -1.
        -11    1    3    3    0    0  0.10816173157E+02 -0.28899845308E+02 -0.13225220822E+02  0.33572267225E+02  0.51100000000E-03 0.  1.
         12    1    3    3    0    0 -0.20231567806E+02  0.19471626867E+02 -0.79433898316E+01  0.29181467248E+02  0.00000000000E+00 0. -1.
</event>
<event>
 7    1  0.1465498E-013  0.7246158E+02  0.7816164E-02  0.1226708E+00
        -11   -1    0    0    0    0  0.00000000000E+00  0.00000000000E+00  0.45593999997E+02  0.45594000000E+02  0.51100000000E-03 0. -1.
         11   -1    0    0    0    0 -0.00000000000E+00 -0.00000000000E+00 -0.45593999997E+02  0.45594000000E+02  0.51100000000E-03 0.  1.
    9900012    2    1    2    0    0 -0.11023895054E+02  0.94338421882E+01 -0.11838707121E+02  0.72461584782E+02  0.70000018873E+02 0.  0.
         12    1    1    2    0    0  0.11023895054E+02 -0.94338421882E+01  0.11838707121E+02  0.18726415218E+02  0.00000000000E+00 0. -1.
         11    1    3    3    0    0 -0.18559490595E+02  0.94804170514E+01  0.16946016897E+01  0.20909439824E+02  0.51100000000E-03 0. -1.
        -11    1    3    3    0    0  0.14764917688E+02  0.11470393702E+02 -0.26719011215E+02  0.32611014804E+02  0.51100000000E-03 0.  1.
         12    1    3    3    0    0 -0.72293221470E+01 -0.11516968565E+02  0.13185702403E+02  0.18941130154E+02  0.00000000000E+00 0. -1.
</event>
<event>
 7    1  0.1465498E-013  0.7246156E+02  0.7816164E-02  0.1226708E+00
        -11   -1    0    0    0    0  0.00000000000E+00  0.00000000000E+00  0.45593999997E+02  0.45594000000E+02  0.51100000000E-03 0.  1.
         11   -1    0    0    0    0 -0.00000000000E+00 -0.00000000000E+00 -0.45593999997E+02  0.45594000000E+02  0.51100000000E-03 0. -1.
    9900012    2    1    2    0    0 -0.54727346573E+01  0.12297813520E+02  0.13018928968E+02  0.72461560043E+02  0.69999986645E+02 0.  0.
         12    1    1    2    0    0  0.54727346573E+01 -0.12297813520E+02 -0.13018928968E+02  0.18726439957E+02  0.00000000000E+00 0. -1.
         11    1    3    3    0    0 -0.49147571321E+01 -0.72854430136E+01 -0.45210617639E+01  0.98829407216E+01  0.51100000000E-03 0. -1.
        -11    1    3    3    0    0  0.11644904435E+02  0.30929515584E+02 -0.61490948796E+01  0.33616217837E+02  0.51100000000E-03 0.  1.
         12    1    3    3    0    0 -0.12202881961E+02 -0.11346259051E+02  0.23689085612E+02  0.28962401484E+02  0.00000000000E+00 0. -1.
</event>
<event>
 7    1  0.1465498E-013  0.7246162E+02  0.7816164E-02  0.1226708E+00
        -11   -1    0    0    0    0  0.00000000000E+00  0.00000000000E+00  0.45593999997E+02  0.45594000000E+02  0.51100000000E-03 0. -1.
         11   -1    0    0    0    0 -0.00000000000E+00 -0.00000000000E+00 -0.45593999997E+02  0.45594000000E+02  0.51100000000E-03 0.  1.
    9900012    2    1    2    0    0  0.68491024347E+01  0.17282168247E+02  0.22569285567E+01  0.72461621013E+02  0.70000066070E+02 0.  0.
         12    1    1    2    0    0 -0.68491024347E+01 -0.17282168247E+02 -0.22569285567E+01  0.18726378987E+02  0.00000000000E+00 0. -1.
         11    1    3    3    0    0  0.40058544657E+01 -0.21907454359E+02  0.12102835881E+02  0.25346835367E+02  0.51100000000E-03 0. -1.
        -11    1    3    3    0    0  0.53284500993E+01 -0.13045814614E+01 -0.16060171257E+01  0.57160829700E+01  0.51100000000E-03 0.  1.
        -12    1    3    3    0    0 -0.24852021303E+01  0.40494204068E+02 -0.82398901991E+01  0.41398702675E+02  0.00000000000E+00 0.  1.
</event>
<event>
 7    1  0.1465498E-013  0.7246163E+02  0.7816164E-02  0.1226708E+00
        -11   -1    0    0    0    0  0.00000000000E+00  0.00000000000E+00  0.45593999997E+02  0.45594000000E+02  0.51100000000E-03 0.  1.
         11   -1    0    0    0    0 -0.00000000000E+00 -0.00000000000E+00 -0.45593999997E+02  0.45594000000E+02  0.51100000000E-03 0. -1.
    9900012    2    1    2    0    0  0.16945943413E+02  0.74674323620E+01 -0.27837645441E+01  0.72461631178E+02  0.70000079312E+02 0.  0.
         12    1    1    2    0    0 -0.16945943413E+02 -0.74674323620E+01  0.27837645441E+01  0.18726368822E+02  0.00000000000E+00 0. -1.
         11    1    3    3    0    0  0.38205517009E+02 -0.32704315314E+00  0.27002565493E+01  0.38302217596E+02  0.51100000000E-03 0. -1.
        -11    1    3    3    0    0 -0.59125390003E+01  0.12594485532E+01 -0.14131826114E+02  0.15370518458E+02  0.51100000000E-03 0.  1.
        -12    1    3    3    0    0 -0.15347034596E+02  0.65350269620E+01  0.86478050209E+01  0.18788895123E+02  0.00000000000E+00 0.  1.
</event>
<event>
 7    1  0.1465498E-013  0.7246160E+02  0.7816164E-02  0.1226708E+00
        -11   -1    0    0    0    0  0.00000000000E+00  0.00000000000E+00  0.45593999997E+02  0.45594000000E+02  0.51100000000E-03 0.  1.
         11   -1    0    0    0    0 -0.00000000000E+00 -0.00000000000E+00 -0.45593999997E+02  0.45594000000E+02  0.51100000000E-03 0. -1.
    9900012    2    1    2    0    0 -0.54176670746E+01  0.76083549998E+01  0.16230827586E+02  0.72461602950E+02  0.70000042540E+02 0.  0.
         12    1    1    2    0    0  0.54176670746E+01 -0.76083549998E+01 -0.16230827586E+02  0.18726397050E+02  0.00000000000E+00 0. -1.
         11    1    3    3    0    0 -0.64511601576E+01  0.16433603865E+02 -0.84405248190E+01  0.19568425150E+02  0.51100000000E-03 0. -1.
        -11    1    3    3    0    0 -0.82233196664E+01  0.39994091454E+01 -0.10742753244E+02  0.14107622315E+02  0.51100000000E-03 0.  1.
        -12    1    3    3    0    0  0.92568127494E+01 -0.12824658010E+02  0.35414105650E+02  0.38785555485E+02  0.00000000000E+00 0.  1.
</event>
<event>
 7    1  0.1465498E-013  0.7246154E+02  0.7816164E-02  0.1226708E+00
        -11   -1    0    0    0    0  0.00000000000E+00  0.00000000000E+00  0.45593999997E+02  0.45594000000E+02  0.51100000000E-03 0.  1.
         11   -1    0    0    0    0 -0.00000000000E+00 -0.00000000000E+00 -0.45593999997E+02  0.45594000000E+02  0.51100000000E-03 0. -1.
    9900012    2    1    2    0    0  0.83131132841E+01  0.12078119604E+02  0.11648664461E+02  0.72461542530E+02  0.69999963832E+02 0.  0.
         12    1    1    2    0    0 -0.83131132841E+01 -0.12078119604E+02 -0.11648664461E+02  0.18726457470E+02  0.00000000000E+00 0. -1.
         11    1    3    3    0    0 -0.10768356199E+02 -0.34653151316E+01  0.31816278713E-01  0.11312246316E+02  0.51100000000E-03 0. -1.
        -11    1    3    3    0    0 -0.11381498095E+02  0.52954991035E+01 -0.14899288251E+02  0.19482546043E+02  0.51100000000E-03 0.  1.
        -12    1    3    3    0    0  0.30462967578E+02  0.10247935632E+02  0.26516136434E+02  0.41666750171E+02  0.00000000000E+00 0.  1.
</event>
<event>
 7    1  0.1465498E-013  0.7246162E+02  0.7816164E-02  0.1226708E+00
        -11   -1    0    0    0    0  0.00000000000E+00  0.00000000000E+00  0.45593999997E+02  0.45594000000E+02  0.51100000000E-03 0. -1.
         11   -1    0    0    0    0 -0.00000000000E+00 -0.00000000000E+00 -0.45593999997E+02  0.45594000000E+02  0.51100000000E-03 0.  1.
    9900012    2    1    2    0    0 -0.16763980353E+02 -0.74900844854E+01 -0.36803284735E+01  0.72461622333E+02  0.70000067789E+02 0.  0.
         12    1    1    2    0    0  0.16763980353E+02  0.74900844854E+01  0.36803284735E+01  0.18726377667E+02  0.00000000000E+00 0. -1.
         11    1    3    3    0    0  0.18903429609E+02 -0.11370441554E+01  0.22483567848E+01  0.19070595924E+02  0.51100000000E-03 0. -1.
        -11    1    3    3    0    0 -0.35911125253E+01 -0.17330588544E+02 -0.80047995917E+01  0.19424783273E+02  0.51100000000E-03 0.  1.
         12    1    3    3    0    0 -0.32076297437E+02  0.10977548214E+02  0.20761143334E+01  0.33966243136E+02  0.00000000000E+00 0. -1.
</event>
<event>
 7    1  0.1465498E-013  0.7246157E+02  0.7816164E-02  0.1226708E+00
        -11   -1    0    0    0    0  0.00000000000E+00  0.00000000000E+00  0.45593999997E+02  0.45594000000E+02  0.51100000000E-03 0.  1.
         11   -1    0    0    0    0 -0.00000000000E+00 -0.00000000000E+00 -0.45593999997E+02  0.45594000000E+02  0.51100000000E-03 0. -1.
    9900012    2    1    2    0    0 -0.65663124570E+01  0.13013603753E+02  0.11756230428E+02  0.72461566922E+02  0.69999995608E+02 0.  0.
         12    1    1    2    0    0  0.65663124570E+01 -0.13013603753E+02 -0.11756230428E+02  0.18726433078E+02  0.00000000000E+00 0. -1.
         11    1    3    3    0    0 -0.12713572004E+02 -0.46959370199E+01 -0.91766550846E+01  0.16367581874E+02  0.51100000000E-03 0. -1.
        -11    1    3    3    0    0 -0.17635241872E+02  0.11900961522E+02  0.23235546647E+02  0.31504369051E+02  0.51100000000E-03 0.  1.
        -12    1    3    3    0    0  0.23782501418E+02  0.58085792514E+01 -0.23026611347E+01  0.24589615998E+02  0.00000000000E+00 0.  1.
</event>
<event>
 7    1  0.1465498E-013  0.7246157E+02  0.7816164E-02  0.1226708E+00
        -11   -1    0    0    0    0  0.00000000000E+00  0.00000000000E+00  0.45593999997E+02  0.45594000000E+02  0.51100000000E-03 0. -1.
         11   -1    0    0    0    0 -0.00000000000E+00 -0.00000000000E+00 -0.45593999997E+02  0.45594000000E+02  0.51100000000E-03 0.  1.
    9900012    2    1    2    0    0  0.18613286445E+02  0.20554349877E+01 -0.45591675305E-03  0.72461568266E+02  0.69999997358E+02 0.  0.
         12    1    1    2    0    0 -0.18613286445E+02 -0.20554349877E+01  0.45591675305E-03  0.18726431734E+02  0.00000000000E+00 0. -1.
         11    1    3    3    0    0 -0.83744343110E+01 -0.11273837933E+02  0.25484725891E+01  0.14273236654E+02  0.51100000000E-03 0. -1.
        -11    1    3    3    0    0 -0.48688463570E+01 -0.79714271561E+01  0.13685748131E+02  0.16569520751E+02  0.51100000000E-03 0.  1.
        -12    1    3    3    0    0  0.31856567113E+02  0.21300700077E+02 -0.16234676637E+02  0.41618810861E+02  0.00000000000E+00 0.  1.
</event>
<event>
 7    1  0.1465498E-013  0.7246158E+02  0.7816164E-02  0.1226708E+00
        -11   -1    0    0    0    0  0.00000000000E+00  0.00000000000E+00  0.45593999997E+02  0.45594000000E+02  0.51100000000E-03 0.  1.
         11   -1    0    0    0    0 -0.00000000000E+00 -0.00000000000E+00 -0.45593999997E+02  0.45594000000E+02  0.51100000000E-03 0. -1.
    9900012    2    1    2    0    0 -0.33242148449E+01 -0.16890822034E+02  0.73707878808E+01  0.72461580499E+02  0.70000013294E+02 0.  0.
         12    1    1    2    0    0  0.33242148449E+01  0.16890822034E+02 -0.73707878808E+01  0.18726419501E+02  0.00000000000E+00 0. -1.
         11    1    3    3    0    0 -0.14589415557E+02 -0.23141506724E+02 -0.18936550789E+02  0.33271208811E+02  0.51100000000E-03 0. -1.
        -11    1    3    3    0    0  0.55709952385E+00 -0.75329084076E+01  0.18666643204E+02  0.20136996740E+02  0.51100000000E-03 0.  1.
        -12    1    3    3    0    0  0.10708101188E+02  0.13783593097E+02  0.76406954658E+01  0.19053374948E+02  0.00000000000E+00 0.  1.
</event>
<event>
 7    1  0.1465498E-013  0.7246162E+02  0.7816164E-02  0.1226708E+00
        -11   -1    0    0    0    0  0.00000000000E+00  0.00000000000E+00  0.45593999997E+02  0.45594000000E+02  0.51100000000E-03 0. -1.
         11   -1    0    0    0    0 -0.00000000000E+00 -0.00000000000E+00 -0.45593999997E+02  0.45594000000E+02  0.51100000000E-03 0.  1.
    9900012    2    1    2    0    0 -0.61685376575E+01 -0.17639623284E+02  0.12125231939E+01  0.72461618103E+02  0.70000062280E+02 0.  0.
         12    1    1    2    0    0  0.61685376575E+01  0.17639623284E+02 -0.12125231939E+01  0.18726381897E+02  0.00000000000E+00 0. -1.
         11    1    3    3    0    0 -0.20075936285E+02 -0.19738850252E+02  0.10018790466E+02  0.29883801459E+02  0.51100000000E-03 0. -1.
        -11    1    3    3    0    0  0.10188144435E+02 -0.61822421798E+01  0.13790124359E+02  0.18225968712E+02  0.51100000000E-03 0.  1.
        -12    1    3    3    0    0  0.37192541927E+01  0.82814691474E+01 -0.22596391630E+02  0.24351847932E+02  0.00000000000E+00 0.  1.
</event>
<event>
 7    1  0.1465498E-013  0.7246158E+02  0.7816164E-02  0.1226708E+00
        -11   -1    0    0    0    0  0.00000000000E+00  0.00000000000E+00  0.45593999997E+02  0.45594000000E+02  0.51100000000E-03 0.  1.
         11   -1    0    0    0    0 -0.00000000000E+00 -0.00000000000E+00 -0.45593999997E+02  0.45594000000E+02  0.51100000000E-03 0. -1.
    9900012    2    1    2    0    0 -0.50973789498E+00 -0.10975850525E+01  0.18687272587E+02  0.72461583300E+02  0.70000016943E+02 0.  0.
         12    1    1    2    0    0  0.50973789498E+00  0.10975850525E+01 -0.18687272587E+02  0.18726416700E+02  0.00000000000E+00 0. -1.
         11    1    3    3    0    0 -0.11359534980E+02  0.22432717079E+02  0.26576450258E+02  0.36586521276E+02  0.51100000000E-03 0.  1.
        -11    1    3    3    0    0 -0.61747128172E+01 -0.36017427561E+01 -0.64452105005E+01  0.96249866448E+01  0.51100000000E-03 0. -1.
        -12    1    3    3    0    0  0.17024509903E+02 -0.19928559376E+02 -0.14439671705E+01  0.26250075379E+02  0.00000000000E+00 0.  1.
</event>
<event>
 7    1  0.1465498E-013  0.7246159E+02  0.7816164E-02  0.1226708E+00
        -11   -1    0    0    0    0  0.00000000000E+00  0.00000000000E+00  0.45593999997E+02  0.45594000000E+02  0.51100000000E-03 0.  1.
         11   -1    0    0    0    0 -0.00000000000E+00 -0.00000000000E+00 -0.45593999997E+02  0.45594000000E+02  0.51100000000E-03 0. -1.
    9900012    2    1    2    0    0  0.49898838165E+01  0.12489896564E+02 -0.13030037171E+02  0.72461592833E+02  0.70000029361E+02 0.  0.
         12    1    1    2    0    0 -0.49898838165E+01 -0.12489896564E+02  0.13030037171E+02  0.18726407167E+02  0.00000000000E+00 0. -1.
         11    1    3    3    0    0  0.17328835044E+02 -0.36338559278E+01  0.81707554446E+01  0.19500119940E+02  0.51100000000E-03 0. -1.
        -11    1    3    3    0    0 -0.29660916933E+01  0.29989729202E+02 -0.20026943012E+02  0.36183698045E+02  0.51100000000E-03 0.  1.
        -12    1    3    3    0    0 -0.93728595338E+01 -0.13865976710E+02 -0.11738496038E+01  0.16777774848E+02  0.00000000000E+00 0.  1.
</event>
<event>
 7    1  0.1465498E-013  0.7246158E+02  0.7816164E-02  0.1226708E+00
        -11   -1    0    0    0    0  0.00000000000E+00  0.00000000000E+00  0.45593999997E+02  0.45594000000E+02  0.51100000000E-03 0.  1.
         11   -1    0    0    0    0 -0.00000000000E+00 -0.00000000000E+00 -0.45593999997E+02  0.45594000000E+02  0.51100000000E-03 0. -1.
    9900012    2    1    2    0    0  0.16583550229E+02 -0.86500213257E+01  0.91745665670E+00  0.72461581927E+02  0.70000015153E+02 0.  0.
         12    1    1    2    0    0 -0.16583550229E+02  0.86500213257E+01 -0.91745665670E+00  0.18726418073E+02  0.00000000000E+00 0. -1.
         11    1    3    3    0    0  0.50454366443E+01 -0.15197382223E+00 -0.10708769484E+02  0.11838803618E+02  0.51100000000E-03 0. -1.
        -11    1    3    3    0    0  0.12364489829E+02 -0.70968070337E+01 -0.22403121625E+02  0.26554569053E+02  0.51100000000E-03 0.  1.
        -12    1    3    3    0    0 -0.82637624419E+00 -0.14012404698E+01  0.34029347766E+02  0.34068209256E+02  0.00000000000E+00 0.  1.
</event>
<event>
 7    1  0.1465498E-013  0.7246158E+02  0.7816164E-02  0.1226708E+00
        -11   -1    0    0    0    0  0.00000000000E+00  0.00000000000E+00  0.45593999997E+02  0.45594000000E+02  0.51100000000E-03 0.  1.
         11   -1    0    0    0    0 -0.00000000000E+00 -0.00000000000E+00 -0.45593999997E+02  0.45594000000E+02  0.51100000000E-03 0. -1.
    9900012    2    1    2    0    0 -0.15473165622E+02 -0.10547836508E+02 -0.56891186780E-01  0.72461576264E+02  0.70000007776E+02 0.  0.
         12    1    1    2    0    0  0.15473165622E+02  0.10547836508E+02  0.56891186780E-01  0.18726423736E+02  0.00000000000E+00 0. -1.
         11    1    3    3    0    0 -0.90593947062E+01  0.10990821498E+02 -0.15315657677E+02  0.20915070165E+02  0.51100000000E-03 0. -1.
        -11    1    3    3    0    0 -0.90687460005E+01  0.11702847839E+02  0.98008897145E+01  0.17755456655E+02  0.51100000000E-03 0.  1.
         12    1    3    3    0    0  0.26549750852E+01 -0.33241505846E+02  0.54578767760E+01  0.33791049444E+02  0.00000000000E+00 0. -1.
</event>
<event>
 7    1  0.1465498E-013  0.7246156E+02  0.7816164E-02  0.1226708E+00
        -11   -1    0    0    0    0  0.00000000000E+00  0.00000000000E+00  0.45593999997E+02  0.45594000000E+02  0.51100000000E-03 0. -1.
         11   -1    0    0    0    0 -0.00000000000E+00 -0.00000000000E+00 -0.45593999997E+02  0.45594000000E+02  0.51100000000E-03 0.  1.
    9900012    2    1    2    0    0 -0.14372493564E+02 -0.10167882926E+01 -0.11961492212E+02  0.72461555446E+02  0.69999980657E+02 0.  0.
         12    1    1    2    0    0  0.14372493564E+02  0.10167882926E+01  0.11961492212E+02  0.18726444554E+02  0.00000000000E+00 0. -1.
         11    1    3    3    0    0 -0.93353211537E+00  0.12495251082E+02 -0.54926497746E+01  0.13681081230E+02  0.51100000000E-03 0. -1.
        -11    1    3    3    0    0 -0.60990222178E+01 -0.88359900224E+01 -0.30970700869E+02  0.32778912493E+02  0.51100000000E-03 0.  1.
         12    1    3    3    0    0 -0.73399392311E+01 -0.46760493521E+01  0.24501858431E+02  0.26001561723E+02  0.00000000000E+00 0. -1.
</event>
<event>
 7    1  0.1465498E-013  0.7246145E+02  0.7816164E-02  0.1226708E+00
        -11   -1    0    0    0    0  0.00000000000E+00  0.00000000000E+00  0.45593999997E+02  0.45594000000E+02  0.51100000000E-03 0.  1.
         11   -1    0    0    0    0 -0.00000000000E+00 -0.00000000000E+00 -0.45593999997E+02  0.45594000000E+02  0.51100000000E-03 0. -1.
    9900012    2    1    2    0    0 -0.10332532187E+01 -0.14963146774E+02  0.11212501115E+02  0.72461453205E+02  0.69999847469E+02 0.  0.
         12    1    1    2    0    0  0.10332532187E+01  0.14963146774E+02 -0.11212501115E+02  0.18726546795E+02  0.00000000000E+00 0. -1.
         11    1    3    3    0    0 -0.21604903547E-01 -0.40455812384E+01  0.10208305065E+02  0.10980741637E+02  0.51100000000E-03 0. -1.
        -11    1    3    3    0    0 -0.26061724317E+02  0.88856448615E+01 -0.73003270489E+01  0.28486188483E+02  0.51100000000E-03 0.  1.
         12    1    3    3    0    0  0.25050076002E+02 -0.19803210397E+02  0.83045230988E+01  0.32994523085E+02  0.00000000000E+00 0. -1.
</event>
<event>
 7    1  0.1465498E-013  0.7246169E+02  0.7816164E-02  0.1226708E+00
        -11   -1    0    0    0    0  0.00000000000E+00  0.00000000000E+00  0.45593999997E+02  0.45594000000E+02  0.51100000000E-03 0. -1.
         11   -1    0    0    0    0 -0.00000000000E+00 -0.00000000000E+00 -0.45593999997E+02  0.45594000000E+02  0.51100000000E-03 0.  1.
    9900012    2    1    2    0    0 -0.16854458331E+02  0.51207824391E+01 -0.63544984335E+01  0.72461686194E+02  0.70000150981E+02 0.  0.
         12    1    1    2    0    0  0.16854458331E+02 -0.51207824391E+01  0.63544984335E+01  0.18726313806E+02  0.00000000000E+00 0. -1.
         11    1    3    3    0    0 -0.28709535194E+01  0.17290299752E+02 -0.16923667657E+01  0.17608547503E+02  0.51100000000E-03 0. -1.
        -11    1    3    3    0    0 -0.25450427329E+02 -0.84236245944E+01 -0.21343489651E+02  0.34266984887E+02  0.51100000000E-03 0.  1.
         12    1    3    3    0    0  0.11466922517E+02 -0.37458927185E+01  0.16681357983E+02  0.20586153804E+02  0.00000000000E+00 0. -1.
</event>
<event>
 7    1  0.1465498E-013  0.7246154E+02  0.7816164E-02  0.1226708E+00
        -11   -1    0    0    0    0  0.00000000000E+00  0.00000000000E+00  0.45593999997E+02  0.45594000000E+02  0.51100000000E-03 0. -1.
         11   -1    0    0    0    0 -0.00000000000E+00 -0.00000000000E+00 -0.45593999997E+02  0.45594000000E+02  0.51100000000E-03 0.  1.
    9900012    2    1    2    0    0  0.15664361286E+02  0.94924415177E+01 -0.38989367890E+01  0.72461538280E+02  0.69999958295E+02 0.  0.
         12    1    1    2    0    0 -0.15664361286E+02 -0.94924415177E+01  0.38989367890E+01  0.18726461720E+02  0.00000000000E+00 0. -1.
         11    1    3    3    0    0 -0.44627388443E+01 -0.23865305395E+01 -0.50276720099E+01  0.71336562931E+01  0.51100000000E-03 0. -1.
        -11    1    3    3    0    0 -0.18413596931E+02 -0.86507542310E+01  0.64379181420E+01  0.21338764983E+02  0.51100000000E-03 0.  1.
        -12    1    3    3    0    0  0.38540697062E+02  0.20529726288E+02 -0.53091829212E+01  0.43989117004E+02  0.00000000000E+00 0.  1.
</event>
<event>
 7    1  0.1465498E-013  0.7246161E+02  0.7816164E-02  0.1226708E+00
        -11   -1    0    0    0    0  0.00000000000E+00  0.00000000000E+00  0.45593999997E+02  0.45594000000E+02  0.51100000000E-03 0. -1.
         11   -1    0    0    0    0 -0.00000000000E+00 -0.00000000000E+00 -0.45593999997E+02  0.45594000000E+02  0.51100000000E-03 0.  1.
    9900012    2    1    2    0    0  0.87167150144E+01  0.15300207855E+02 -0.63718416498E+01  0.72461605604E+02  0.70000045998E+02 0.  0.
         12    1    1    2    0    0 -0.87167150144E+01 -0.15300207855E+02  0.63718416498E+01  0.18726394396E+02  0.00000000000E+00 0. -1.
         11    1    3    3    0    0 -0.48103922941E+01  0.87472834172E+01  0.11036946283E+01  0.10043554316E+02  0.51100000000E-03 0. -1.
        -11    1    3    3    0    0 -0.23841218284E+02  0.40930649922E+01 -0.60822166086E+01  0.24942939470E+02  0.51100000000E-03 0.  1.
         12    1    3    3    0    0  0.37368325592E+02  0.24598594455E+01 -0.13933196695E+01  0.37475111818E+02  0.00000000000E+00 0. -1.
</event>
<event>
 7    1  0.1465498E-013  0.7246176E+02  0.7816164E-02  0.1226708E+00
        -11   -1    0    0    0    0  0.00000000000E+00  0.00000000000E+00  0.45593999997E+02  0.45594000000E+02  0.51100000000E-03 0. -1.
         11   -1    0    0    0    0 -0.00000000000E+00 -0.00000000000E+00 -0.45593999997E+02  0.45594000000E+02  0.51100000000E-03 0.  1.
    9900012    2    1    2    0    0 -0.93832770295E+01  0.79473680973E+01 -0.14123231192E+02  0.72461756202E+02  0.70000242178E+02 0.  0.
         12    1    1    2    0    0  0.93832770295E+01 -0.79473680973E+01  0.14123231192E+02  0.18726243798E+02  0.00000000000E+00 0. -1.
         11    1    3    3    0    0 -0.10391751749E+02 -0.25256308168E+02 -0.17142192768E+01  0.27364359205E+02  0.51100000000E-03 0. -1.
        -11    1    3    3    0    0 -0.10226018228E+02  0.19344545975E+02  0.22639738702E+01  0.21997920032E+02  0.51100000000E-03 0.  1.
        -12    1    3    3    0    0  0.11234492948E+02  0.13859130291E+02 -0.14672985786E+02  0.23099476965E+02  0.00000000000E+00 0.  1.
</event>
<event>
 7    1  0.1465498E-013  0.7246157E+02  0.7816164E-02  0.1226708E+00
        -11   -1    0    0    0    0  0.00000000000E+00  0.00000000000E+00  0.45593999997E+02  0.45594000000E+02  0.51100000000E-03 0. -1.
         11   -1    0    0    0    0 -0.00000000000E+00 -0.00000000000E+00 -0.45593999997E+02  0.45594000000E+02  0.51100000000E-03 0.  1.
    9900012    2    1    2    0    0 -0.17781045420E+02 -0.19120523327E+01 -0.55549530081E+01  0.72461574199E+02  0.70000005087E+02 0.  0.
         12    1    1    2    0    0  0.17781045420E+02  0.19120523327E+01  0.55549530081E+01  0.18726425801E+02  0.00000000000E+00 0. -1.
         11    1    3    3    0    0 -0.31078141006E+02  0.21029934968E+02 -0.99540779409E+01  0.38822579526E+02  0.51100000000E-03 0.  1.
        -11    1    3    3    0    0 -0.43756391251E+01 -0.11479700249E+02  0.15466367810E+01  0.12382318892E+02  0.51100000000E-03 0. -1.
        -12    1    3    3    0    0  0.17672734711E+02 -0.11462287051E+02  0.28524881518E+01  0.21256675781E+02  0.00000000000E+00 0.  1.
</event>
<event>
 7    1  0.1465498E-013  0.7246137E+02  0.7816164E-02  0.1226709E+00
        -11   -1    0    0    0    0  0.00000000000E+00  0.00000000000E+00  0.45593999997E+02  0.45594000000E+02  0.51100000000E-03 0.  1.
         11   -1    0    0    0    0 -0.00000000000E+00 -0.00000000000E+00 -0.45593999997E+02  0.45594000000E+02  0.51100000000E-03 0. -1.
    9900012    2    1    2    0    0  0.18674578683E+02 -0.13591427129E+01 -0.31526151478E+00  0.72461373295E+02  0.69999743372E+02 0.  0.
         12    1    1    2    0    0 -0.18674578683E+02  0.13591427129E+01  0.31526151478E+00  0.18726626705E+02  0.00000000000E+00 0. -1.
         11    1    3    3    0    0  0.30700055442E+01 -0.14563307488E+01 -0.10525496029E+01  0.35572031456E+01  0.51100000000E-03 0. -1.
        -11    1    3    3    0    0 -0.16329143926E+02 -0.18917014591E+01 -0.23560483317E+02  0.28728310952E+02  0.51100000000E-03 0.  1.
         12    1    3    3    0    0  0.31933717065E+02  0.19888894949E+01  0.24297771405E+02  0.40175859198E+02  0.00000000000E+00 0. -1.
</event>
<event>
 7    1  0.1465498E-013  0.7246157E+02  0.7816164E-02  0.1226708E+00
        -11   -1    0    0    0    0  0.00000000000E+00  0.00000000000E+00  0.45593999997E+02  0.45594000000E+02  0.51100000000E-03 0. -1.
         11   -1    0    0    0    0 -0.00000000000E+00 -0.00000000000E+00 -0.45593999997E+02  0.45594000000E+02  0.51100000000E-03 0.  1.
    9900012    2    1    2    0    0 -0.17770279309E+02  0.40714074951E+01 -0.42801854810E+01  0.72461570189E+02  0.69999999863E+02 0.  0.
         12    1    1    2    0    0  0.17770279309E+02 -0.40714074951E+01  0.42801854810E+01  0.18726429811E+02  0.00000000000E+00 0. -1.
         11    1    3    3    0    0 -0.28246430065E+02  0.16791392186E+02  0.92659466699E+01  0.34141901396E+02  0.51100000000E-03 0. -1.
        -11    1    3    3    0    0 -0.80424952976E+01  0.55899557319E+01 -0.33215518286E+01  0.10342245525E+02  0.51100000000E-03 0.  1.
        -12    1    3    3    0    0  0.18518646054E+02 -0.18309940423E+02 -0.10224580322E+02  0.27977423268E+02  0.00000000000E+00 0.  1.
</event>
<event>
 7    1  0.1465498E-013  0.7246154E+02  0.7816164E-02  0.1226708E+00
        -11   -1    0    0    0    0  0.00000000000E+00  0.00000000000E+00  0.45593999997E+02  0.45594000000E+02  0.51100000000E-03 0.  1.
         11   -1    0    0    0    0 -0.00000000000E+00 -0.00000000000E+00 -0.45593999997E+02  0.45594000000E+02  0.51100000000E-03 0. -1.
    9900012    2    1    2    0    0  0.12557757934E+02  0.33056605237E+01  0.13492800946E+02  0.72461538690E+02  0.69999958830E+02 0.  0.
         12    1    1    2    0    0 -0.12557757934E+02 -0.33056605237E+01 -0.13492800946E+02  0.18726461310E+02  0.00000000000E+00 0. -1.
         11    1    3    3    0    0 -0.43385182443E+01  0.93085622755E+01 -0.18505561289E+02  0.21164306535E+02  0.51100000000E-03 0. -1.
        -11    1    3    3    0    0  0.73665297627E+01 -0.13318322305E+02 -0.18952769001E+01  0.15337390409E+02  0.51100000000E-03 0.  1.
        -12    1    3    3    0    0  0.95297464157E+01  0.73154205532E+01  0.33893639135E+02  0.35959841747E+02  0.00000000000E+00 0.  1.
</event>
<event>
 7    1  0.1465498E-013  0.7246202E+02  0.7816164E-02  0.1226707E+00
        -11   -1    0    0    0    0  0.00000000000E+00  0.00000000000E+00  0.45593999997E+02  0.45594000000E+02  0.51100000000E-03 0.  1.
         11   -1    0    0    0    0 -0.00000000000E+00 -0.00000000000E+00 -0.45593999997E+02  0.45594000000E+02  0.51100000000E-03 0. -1.
    9900012    2    1    2    0    0 -0.75984806559E+00  0.18604189657E+02  0.19922409848E+01  0.72462021627E+02  0.70000587942E+02 0.  0.
         12    1    1    2    0    0  0.75984806559E+00 -0.18604189657E+02 -0.19922409848E+01  0.18725978373E+02  0.00000000000E+00 0. -1.
         11    1    3    3    0    0 -0.53257426823E+01  0.47681824218E+01  0.32904346879E+01  0.78693112419E+01  0.51100000000E-03 0. -1.
        -11    1    3    3    0    0  0.13243151879E+02 -0.88036742165E+01 -0.25681727046E+02  0.30206569745E+02  0.51100000000E-03 0.  1.
         12    1    3    3    0    0 -0.86772572628E+01  0.22639681452E+02  0.24383533343E+02  0.34386140640E+02  0.00000000000E+00 0. -1.
</event>
<event>
 7    1  0.1465498E-013  0.7246151E+02  0.7816164E-02  0.1226708E+00
        -11   -1    0    0    0    0  0.00000000000E+00  0.00000000000E+00  0.45593999997E+02  0.45594000000E+02  0.51100000000E-03 0.  1.
         11   -1    0    0    0    0 -0.00000000000E+00 -0.00000000000E+00 -0.45593999997E+02  0.45594000000E+02  0.51100000000E-03 0. -1.
    9900012    2    1    2    0    0  0.53768726329E+01  0.81896295108E+01  0.15959344541E+02  0.72461508898E+02  0.69999920019E+02 0.  0.
         12    1    1    2    0    0 -0.53768726329E+01 -0.81896295108E+01 -0.15959344541E+02  0.18726491102E+02  0.00000000000E+00 0. -1.
         11    1    3    3    0    0  0.51123329086E+01  0.84811875689E+00  0.45120206069E+01  0.68712141148E+01  0.51100000000E-03 0. -1.
        -11    1    3    3    0    0  0.31541097341E+02  0.15293463503E+00  0.71100595434E-01  0.31541548251E+02  0.51100000000E-03 0.  1.
         12    1    3    3    0    0 -0.31276557617E+02  0.71885761189E+01  0.11376223338E+02  0.34048746532E+02  0.00000000000E+00 0. -1.
</event>
<event>
 7    1  0.1465498E-013  0.7246155E+02  0.7816164E-02  0.1226708E+00
        -11   -1    0    0    0    0  0.00000000000E+00  0.00000000000E+00  0.45593999997E+02  0.45594000000E+02  0.51100000000E-03 0.  1.
         11   -1    0    0    0    0 -0.00000000000E+00 -0.00000000000E+00 -0.45593999997E+02  0.45594000000E+02  0.51100000000E-03 0. -1.
    9900012    2    1    2    0    0  0.95117471218E+01 -0.97877768079E+01  0.12822087232E+02  0.72461552683E+02  0.69999977058E+02 0.  0.
         12    1    1    2    0    0 -0.95117471218E+01  0.97877768079E+01 -0.12822087232E+02  0.18726447317E+02  0.00000000000E+00 0. -1.
         11    1    3    3    0    0 -0.82203313964E+01 -0.15275326529E+02  0.72988662809E+01  0.18819747556E+02  0.51100000000E-03 0. -1.
        -11    1    3    3    0    0 -0.42881971579E+01 -0.65859831839E+00  0.23911856564E+02  0.24302248274E+02  0.51100000000E-03 0.  1.
         12    1    3    3    0    0  0.22020275676E+02  0.61461480393E+01 -0.18388635613E+02  0.29339556852E+02  0.00000000000E+00 0. -1.
</event>
<event>
 7    1  0.1465498E-013  0.7246160E+02  0.7816164E-02  0.1226708E+00
        -11   -1    0    0    0    0  0.00000000000E+00  0.00000000000E+00  0.45593999997E+02  0.45594000000E+02  0.51100000000E-03 0.  1.
         11   -1    0    0    0    0 -0.00000000000E+00 -0.00000000000E+00 -0.45593999997E+02  0.45594000000E+02  0.51100000000E-03 0. -1.
    9900012    2    1    2    0    0 -0.82592580956E+00  0.29987098240E+01  0.18466284683E+02  0.72461599276E+02  0.70000037754E+02 0.  0.
         12    1    1    2    0    0  0.82592580956E+00 -0.29987098240E+01 -0.18466284683E+02  0.18726400724E+02  0.00000000000E+00 0. -1.
         11    1    3    3    0    0  0.17673542142E+02  0.15570180515E+02 -0.94915930507E+01  0.25394388199E+02  0.51100000000E-03 0. -1.
        -11    1    3    3    0    0  0.50124980906E+01 -0.88199165950E+01 -0.25805219245E+00  0.10148037103E+02  0.51100000000E-03 0.  1.
        -12    1    3    3    0    0 -0.23511966042E+02 -0.37515540960E+01  0.28215929927E+02  0.36919173974E+02  0.00000000000E+00 0.  1.
</event>
<event>
 7    1  0.1465498E-013  0.7246164E+02  0.7816164E-02  0.1226708E+00
        -11   -1    0    0    0    0  0.00000000000E+00  0.00000000000E+00  0.45593999997E+02  0.45594000000E+02  0.51100000000E-03 0. -1.
         11   -1    0    0    0    0 -0.00000000000E+00 -0.00000000000E+00 -0.45593999997E+02  0.45594000000E+02  0.51100000000E-03 0.  1.
    9900012    2    1    2    0    0  0.32796389993E+01  0.15138392484E+02 -0.10523758965E+02  0.72461642593E+02  0.70000094183E+02 0.  0.
         12    1    1    2    0    0 -0.32796389993E+01 -0.15138392484E+02  0.10523758965E+02  0.18726357407E+02  0.00000000000E+00 0. -1.
         11    1    3    3    0    0 -0.23024511395E+02  0.24216165330E+01  0.14628649856E+02  0.27385940708E+02  0.51100000000E-03 0. -1.
        -11    1    3    3    0    0  0.10431516127E+02  0.79914497615E+01  0.19792339812E+01  0.13288986621E+02  0.51100000000E-03 0.  1.
        -12    1    3    3    0    0  0.15872634268E+02  0.47253261899E+01 -0.27131642802E+02  0.31786715264E+02  0.00000000000E+00 0.  1.
</event>
<event>
 7    1  0.1465498E-013  0.7246160E+02  0.7816164E-02  0.1226708E+00
        -11   -1    0    0    0    0  0.00000000000E+00  0.00000000000E+00  0.45593999997E+02  0.45594000000E+02  0.51100000000E-03 0. -1.
         11   -1    0    0    0    0 -0.00000000000E+00 -0.00000000000E+00 -0.45593999997E+02  0.45594000000E+02  0.51100000000E-03 0.  1.
    9900012    2    1    2    0    0  0.14384046993E+02 -0.99175815125E+01 -0.67393507700E+01  0.72461599391E+02  0.70000037904E+02 0.  0.
         12    1    1    2    0    0 -0.14384046993E+02  0.99175815125E+01  0.67393507700E+01  0.18726400609E+02  0.00000000000E+00 0. -1.
         11    1    3    3    0    0 -0.86254774143E+01  0.68208241430E+01  0.43449180067E+01  0.11823739483E+02  0.51100000000E-03 0. -1.
        -11    1    3    3    0    0 -0.12023211428E+02  0.83795788901E+01 -0.95723888406E+01  0.17504444687E+02  0.51100000000E-03 0.  1.
        -12    1    3    3    0    0  0.35032735835E+02 -0.25117984546E+02 -0.15118799362E+01  0.43133415222E+02  0.00000000000E+00 0.  1.
</event>
<event>
 7    1  0.1465498E-013  0.7246158E+02  0.7816164E-02  0.1226708E+00
        -11   -1    0    0    0    0  0.00000000000E+00  0.00000000000E+00  0.45593999997E+02  0.45594000000E+02  0.51100000000E-03 0. -1.
         11   -1    0    0    0    0 -0.00000000000E+00 -0.00000000000E+00 -0.45593999997E+02  0.45594000000E+02  0.51100000000E-03 0.  1.
    9900012    2    1    2    0    0  0.72187967233E+00  0.16206112472E+02 -0.93551930580E+01  0.72461579390E+02  0.70000011849E+02 0.  0.
         12    1    1    2    0    0 -0.72187967233E+00 -0.16206112472E+02  0.93551930580E+01  0.18726420610E+02  0.00000000000E+00 0. -1.
         11    1    3    3    0    0  0.47425269564E+00 -0.44543662223E+01  0.72491405431E+01  0.85215217500E+01  0.51100000000E-03 0. -1.
        -11    1    3    3    0    0  0.19665712982E+02  0.17921035957E+02  0.12057903288E+02  0.29211244903E+02  0.51100000000E-03 0.  1.
        -12    1    3    3    0    0 -0.19418086005E+02  0.27394427372E+01 -0.28662236889E+02  0.34728812737E+02  0.00000000000E+00 0.  1.
</event>
<event>
 7    1  0.1637757E-013  0.7246160E+02  0.7816164E-02  0.1226708E+00
        -11   -1    0    0    0    0  0.00000000000E+00  0.00000000000E+00  0.45593999997E+02  0.45594000000E+02  0.51100000000E-03 0. -1.
         11   -1    0    0    0    0 -0.00000000000E+00 -0.00000000000E+00 -0.45593999997E+02  0.45594000000E+02  0.51100000000E-03 0.  1.
    9900012    2    1    2    0    0 -0.11145607813E+02 -0.29105571953E+01 -0.14764221358E+02  0.72461597542E+02  0.70000035495E+02 0.  0.
         12    1    1    2    0    0  0.11145607813E+02  0.29105571953E+01  0.14764221358E+02  0.18726402458E+02  0.00000000000E+00 0. -1.
         11    1    3    3    0    0  0.12491554522E+02  0.17298463909E+02  0.12375445577E+02  0.24666322010E+02  0.51100000000E-03 0. -1.
        -11    1    3    3    0    0 -0.21850370989E+02 -0.30466888209E+01 -0.16081848556E+02  0.27301041709E+02  0.51100000000E-03 0.  1.
        -12    1    3    3    0    0 -0.17867913461E+01 -0.17162332283E+02 -0.11057818379E+02  0.20494233824E+02  0.00000000000E+00 0.  1.
</event>
<event>
 7    1  0.1465498E-013  0.7246171E+02  0.7816164E-02  0.1226708E+00
        -11   -1    0    0    0    0  0.00000000000E+00  0.00000000000E+00  0.45593999997E+02  0.45594000000E+02  0.51100000000E-03 0.  1.
         11   -1    0    0    0    0 -0.00000000000E+00 -0.00000000000E+00 -0.45593999997E+02  0.45594000000E+02  0.51100000000E-03 0. -1.
    9900012    2    1    2    0    0  0.10361491544E+02 -0.10504028813E+02  0.11531640935E+02  0.72461711767E+02  0.70000184294E+02 0.  0.
         12    1    1    2    0    0 -0.10361491544E+02  0.10504028813E+02 -0.11531640935E+02  0.18726288233E+02  0.00000000000E+00 0. -1.
         11    1    3    3    0    0 -0.52273872390E+01  0.47739763138E+01 -0.58199208265E+01  0.91644915777E+01  0.51100000000E-03 0. -1.
        -11    1    3    3    0    0  0.41170407938E+01 -0.35067172986E+02  0.19478722722E+02  0.40324648607E+02  0.51100000000E-03 0.  1.
         12    1    3    3    0    0  0.11471837989E+02  0.19789167859E+02 -0.21271609602E+01  0.22972571583E+02  0.00000000000E+00 0. -1.
</event>
<event>
 7    1  0.1465498E-013  0.7246151E+02  0.7816164E-02  0.1226708E+00
        -11   -1    0    0    0    0  0.00000000000E+00  0.00000000000E+00  0.45593999997E+02  0.45594000000E+02  0.51100000000E-03 0.  1.
         11   -1    0    0    0    0 -0.00000000000E+00 -0.00000000000E+00 -0.45593999997E+02  0.45594000000E+02  0.51100000000E-03 0. -1.
    9900012    2    1    2    0    0  0.93096684587E+01 -0.11306296344E+02  0.11669576379E+02  0.72461514032E+02  0.69999926708E+02 0.  0.
         12    1    1    2    0    0 -0.93096684587E+01  0.11306296344E+02 -0.11669576379E+02  0.18726485968E+02  0.00000000000E+00 0. -1.
         11    1    3    3    0    0 -0.46595124795E+01  0.11134777951E+02 -0.28594368670E+00  0.12073777396E+02  0.51100000000E-03 0. -1.
        -11    1    3    3    0    0  0.83717624786E+01  0.95464613032E+01  0.22845423535E+02  0.26136845777E+02  0.51100000000E-03 0.  1.
         12    1    3    3    0    0  0.55974184595E+01 -0.31987535598E+02 -0.10889903470E+02  0.34250890859E+02  0.00000000000E+00 0. -1.
</event>
<event>
 7    1  0.1465498E-013  0.7246158E+02  0.7816164E-02  0.1226708E+00
        -11   -1    0    0    0    0  0.00000000000E+00  0.00000000000E+00  0.45593999997E+02  0.45594000000E+02  0.51100000000E-03 0. -1.
         11   -1    0    0    0    0 -0.00000000000E+00 -0.00000000000E+00 -0.45593999997E+02  0.45594000000E+02  0.51100000000E-03 0.  1.
    9900012    2    1    2    0    0  0.14219890246E+02 -0.10178330436E+02  0.66988906456E+01  0.72461579494E+02  0.70000011985E+02 0.  0.
         12    1    1    2    0    0 -0.14219890246E+02  0.10178330436E+02 -0.66988906456E+01  0.18726420506E+02  0.00000000000E+00 0. -1.
         11    1    3    3    0    0 -0.13758965349E+01 -0.25674680139E+02  0.26481773561E+02  0.36910250916E+02  0.51100000000E-03 0. -1.
        -11    1    3    3    0    0 -0.22819768004E+01 -0.29688028152E+01 -0.16214109946E+01  0.40804634722E+01  0.51100000000E-03 0.  1.
        -12    1    3    3    0    0  0.17877763581E+02  0.18465152519E+02 -0.18161471920E+02  0.31470865106E+02  0.00000000000E+00 0.  1.
</event>
<event>
 7    1  0.1465498E-013  0.7246163E+02  0.7816164E-02  0.1226708E+00
        -11   -1    0    0    0    0  0.00000000000E+00  0.00000000000E+00  0.45593999997E+02  0.45594000000E+02  0.51100000000E-03 0. -1.
         11   -1    0    0    0    0 -0.00000000000E+00 -0.00000000000E+00 -0.45593999997E+02  0.45594000000E+02  0.51100000000E-03 0.  1.
    9900012    2    1    2    0    0 -0.18512466928E+02 -0.20213812404E+01  0.19696831895E+01  0.72461626466E+02  0.70000073174E+02 0.  0.
         12    1    1    2    0    0  0.18512466928E+02  0.20213812404E+01 -0.19696831895E+01  0.18726373534E+02  0.00000000000E+00 0. -1.
         11    1    3    3    0    0 -0.19570533498E+02 -0.15130262750E+02 -0.11310414006E+02  0.27200295909E+02  0.51100000000E-03 0. -1.
        -11    1    3    3    0    0 -0.70176536055E+01  0.10015842995E+02 -0.12848799080E+02  0.17738551550E+02  0.51100000000E-03 0.  1.
         12    1    3    3    0    0  0.80757201757E+01  0.30930385148E+01  0.26128896276E+02  0.27522779006E+02  0.00000000000E+00 0. -1.
</event>
<event>
 7    1  0.1465498E-013  0.7246154E+02  0.7816164E-02  0.1226708E+00
        -11   -1    0    0    0    0  0.00000000000E+00  0.00000000000E+00  0.45593999997E+02  0.45594000000E+02  0.51100000000E-03 0. -1.
         11   -1    0    0    0    0 -0.00000000000E+00 -0.00000000000E+00 -0.45593999997E+02  0.45594000000E+02  0.51100000000E-03 0.  1.
    9900012    2    1    2    0    0  0.88953944352E+01 -0.14290727592E+02 -0.82053180219E+01  0.72461543285E+02  0.69999964815E+02 0.  0.
         12    1    1    2    0    0 -0.88953944352E+01  0.14290727592E+02  0.82053180219E+01  0.18726456715E+02  0.00000000000E+00 0. -1.
         11    1    3    3    0    0  0.17643027866E+02 -0.13209589804E+01 -0.43529776596E+01  0.18220037861E+02  0.51100000000E-03 0. -1.
        -11    1    3    3    0    0  0.16084157330E+02 -0.17840305748E+02 -0.13026103533E+02  0.27325006857E+02  0.51100000000E-03 0.  1.
         12    1    3    3    0    0 -0.24831790761E+02  0.48705371365E+01  0.91737631707E+01  0.26916498567E+02  0.00000000000E+00 0. -1.
</event>
<event>
 7    1  0.1465498E-013  0.7246157E+02  0.7816164E-02  0.1226708E+00
        -11   -1    0    0    0    0  0.00000000000E+00  0.00000000000E+00  0.45593999997E+02  0.45594000000E+02  0.51100000000E-03 0. -1.
         11   -1    0    0    0    0 -0.00000000000E+00 -0.00000000000E+00 -0.45593999997E+02  0.45594000000E+02  0.51100000000E-03 0.  1.
    9900012    2    1    2    0    0 -0.16206203101E+02 -0.93797254329E+01 -0.24292706152E+00  0.72461567299E+02  0.69999996098E+02 0.  0.
         12    1    1    2    0    0  0.16206203101E+02  0.93797254329E+01  0.24292706152E+00  0.18726432701E+02  0.00000000000E+00 0. -1.
         11    1    3    3    0    0  0.31072172773E+01 -0.18870558414E+02  0.12050146104E+02  0.22604397702E+02  0.51100000000E-03 0. -1.
        -11    1    3    3    0    0 -0.10496205949E+02 -0.10323843496E+02  0.10737545717E+02  0.18222156078E+02  0.51100000000E-03 0.  1.
        -12    1    3    3    0    0 -0.88172144296E+01  0.19814676477E+02 -0.23030618883E+02  0.31635013519E+02  0.00000000000E+00 0.  1.
</event>
<event>
 7    1  0.1465498E-013  0.7246159E+02  0.7816164E-02  0.1226708E+00
        -11   -1    0    0    0    0  0.00000000000E+00  0.00000000000E+00  0.45593999997E+02  0.45594000000E+02  0.51100000000E-03 0. -1.
         11   -1    0    0    0    0 -0.00000000000E+00 -0.00000000000E+00 -0.45593999997E+02  0.45594000000E+02  0.51100000000E-03 0.  1.
    9900012    2    1    2    0    0  0.15731711202E+02 -0.87172389678E+01 -0.52155156425E+01  0.72461585608E+02  0.70000019949E+02 0.  0.
         12    1    1    2    0    0 -0.15731711202E+02  0.87172389678E+01  0.52155156425E+01  0.18726414392E+02  0.00000000000E+00 0. -1.
         11    1    3    3    0    0 -0.13346039474E+01 -0.10148621593E+02  0.24597698709E+02  0.26642493689E+02  0.51100000000E-03 0. -1.
        -11    1    3    3    0    0 -0.66831633711E+01 -0.45158605268E+01 -0.11894001508E+01  0.81530572133E+01  0.51100000000E-03 0.  1.
        -12    1    3    3    0    0  0.23749478520E+02  0.59472431519E+01 -0.28623814201E+02  0.37666034706E+02  0.00000000000E+00 0.  1.
</event>
<event>
 7    1  0.1465498E-013  0.7246156E+02  0.7816164E-02  0.1226708E+00
        -11   -1    0    0    0    0  0.00000000000E+00  0.00000000000E+00  0.45593999997E+02  0.45594000000E+02  0.51100000000E-03 0.  1.
         11   -1    0    0    0    0 -0.00000000000E+00 -0.00000000000E+00 -0.45593999997E+02  0.45594000000E+02  0.51100000000E-03 0. -1.
    9900012    2    1    2    0    0 -0.12721423848E+02 -0.52196245652E+01  0.12712222915E+02  0.72461555683E+02  0.69999980966E+02 0.  0.
         12    1    1    2    0    0  0.12721423848E+02  0.52196245652E+01 -0.12712222915E+02  0.18726444317E+02  0.00000000000E+00 0. -1.
         11    1    3    3    0    0  0.12450532690E+02 -0.12544641532E+02  0.42230834491E+01  0.18171907701E+02  0.51100000000E-03 0. -1.
        -11    1    3    3    0    0 -0.31882241670E+01 -0.17250075105E+02 -0.56261730222E+01  0.18422369218E+02  0.51100000000E-03 0.  1.
        -12    1    3    3    0    0 -0.21983732371E+02  0.24575092072E+02  0.14115312488E+02  0.35867278764E+02  0.00000000000E+00 0.  1.
</event>
<event>
 7    1  0.1465498E-013  0.7246161E+02  0.7816164E-02  0.1226708E+00
        -11   -1    0    0    0    0  0.00000000000E+00  0.00000000000E+00  0.45593999997E+02  0.45594000000E+02  0.51100000000E-03 0.  1.
         11   -1    0    0    0    0 -0.00000000000E+00 -0.00000000000E+00 -0.45593999997E+02  0.45594000000E+02  0.51100000000E-03 0. -1.
    9900012    2    1    2    0    0 -0.13926313736E+02 -0.12237944581E+02 -0.26397425621E+01  0.72461608393E+02  0.70000049630E+02 0.  0.
         12    1    1    2    0    0  0.13926313736E+02  0.12237944581E+02  0.26397425621E+01  0.18726391607E+02  0.00000000000E+00 0. -1.
         11    1    3    3    0    0  0.11564946115E+01  0.11588096648E+02  0.88208377583E+01  0.14609197197E+02  0.51100000000E-03 0. -1.
        -11    1    3    3    0    0 -0.72212812813E+01  0.14961575811E+02  0.13054745375E+00  0.16613629856E+02  0.51100000000E-03 0.  1.
         12    1    3    3    0    0 -0.78615270662E+01 -0.38787617039E+02 -0.11591127774E+02  0.41238781341E+02  0.00000000000E+00 0. -1.
</event>
<event>
 7    1  0.1465498E-013  0.7246152E+02  0.7816164E-02  0.1226708E+00
        -11   -1    0    0    0    0  0.00000000000E+00  0.00000000000E+00  0.45593999997E+02  0.45594000000E+02  0.51100000000E-03 0.  1.
         11   -1    0    0    0    0 -0.00000000000E+00 -0.00000000000E+00 -0.45593999997E+02  0.45594000000E+02  0.51100000000E-03 0. -1.
    9900012    2    1    2    0    0 -0.71888481800E+01 -0.11306656785E+02  0.13082852837E+02  0.72461519707E+02  0.69999934101E+02 0.  0.
         12    1    1    2    0    0  0.71888481800E+01  0.11306656785E+02 -0.13082852837E+02  0.18726480293E+02  0.00000000000E+00 0. -1.
         11    1    3    3    0    0 -0.55758983861E+01 -0.22857011675E+02  0.25198828742E+01  0.23661856129E+02  0.51100000000E-03 0. -1.
        -11    1    3    3    0    0 -0.41826479599E+01 -0.17535220009E+02  0.92354411973E+00  0.18050801055E+02  0.51100000000E-03 0.  1.
         12    1    3    3    0    0  0.25696981660E+01  0.29085574899E+02  0.96394258430E+01  0.30748862523E+02  0.00000000000E+00 0. -1.
</event>
<event>
 7    1  0.1465498E-013  0.7246154E+02  0.7816164E-02  0.1226708E+00
        -11   -1    0    0    0    0  0.00000000000E+00  0.00000000000E+00  0.45593999997E+02  0.45594000000E+02  0.51100000000E-03 0. -1.
         11   -1    0    0    0    0 -0.00000000000E+00 -0.00000000000E+00 -0.45593999997E+02  0.45594000000E+02  0.51100000000E-03 0.  1.
    9900012    2    1    2    0    0 -0.76027649426E+01  0.42941487907E+01 -0.16566184669E+02  0.72461542164E+02  0.69999963355E+02 0.  0.
         12    1    1    2    0    0  0.76027649426E+01 -0.42941487907E+01  0.16566184669E+02  0.18726457836E+02  0.00000000000E+00 0. -1.
         11    1    3    3    0    0  0.39767903633E+01  0.12851121247E+02 -0.55756692837E+01  0.14562083200E+02  0.51100000000E-03 0. -1.
        -11    1    3    3    0    0 -0.29183264373E+02  0.53555766864E+01  0.53410837888E+01  0.30147508976E+02  0.51100000000E-03 0.  1.
         12    1    3    3    0    0  0.17603709068E+02 -0.13912549143E+02 -0.16331599174E+02  0.27751949988E+02  0.00000000000E+00 0. -1.
</event>
<event>
 7    1  0.1465498E-013  0.7246157E+02  0.7816164E-02  0.1226708E+00
        -11   -1    0    0    0    0  0.00000000000E+00  0.00000000000E+00  0.45593999997E+02  0.45594000000E+02  0.51100000000E-03 0.  1.
         11   -1    0    0    0    0 -0.00000000000E+00 -0.00000000000E+00 -0.45593999997E+02  0.45594000000E+02  0.51100000000E-03 0. -1.
    9900012    2    1    2    0    0 -0.17105698092E+02 -0.48872071729E+00  0.76049529537E+01  0.72461573096E+02  0.70000003650E+02 0.  0.
         12    1    1    2    0    0  0.17105698092E+02  0.48872071729E+00 -0.76049529537E+01  0.18726426904E+02  0.00000000000E+00 0. -1.
         11    1    3    3    0    0 -0.13798896051E+02  0.13481955573E+02 -0.52469353985E+01  0.19992573362E+02  0.51100000000E-03 0. -1.
        -11    1    3    3    0    0  0.70511087904E+01  0.16718702708E+02  0.17498188211E+01  0.18228961067E+02  0.51100000000E-03 0.  1.
        -12    1    3    3    0    0 -0.10357910832E+02 -0.30689378998E+02  0.11102069531E+02  0.34240038668E+02  0.00000000000E+00 0.  1.
</event>
<event>
 7    1  0.1465498E-013  0.7246147E+02  0.7816164E-02  0.1226708E+00
        -11   -1    0    0    0    0  0.00000000000E+00  0.00000000000E+00  0.45593999997E+02  0.45594000000E+02  0.51100000000E-03 0.  1.
         11   -1    0    0    0    0 -0.00000000000E+00 -0.00000000000E+00 -0.45593999997E+02  0.45594000000E+02  0.51100000000E-03 0. -1.
    9900012    2    1    2    0    0  0.65646061334E+01 -0.48981101431E+01  0.16840348207E+02  0.72461471641E+02  0.69999871485E+02 0.  0.
         12    1    1    2    0    0 -0.65646061334E+01  0.48981101431E+01 -0.16840348207E+02  0.18726528359E+02  0.00000000000E+00 0. -1.
         11    1    3    3    0    0 -0.61812833279E+01  0.73009656767E+01  0.90471819588E+00  0.96088958089E+01  0.51100000000E-03 0.  1.
        -11    1    3    3    0    0 -0.10309559495E+02 -0.25294313502E+00  0.31111730556E+02  0.32776375267E+02  0.51100000000E-03 0. -1.
        -12    1    3    3    0    0  0.23055448956E+02 -0.11946132685E+02 -0.15176100545E+02  0.30076200565E+02  0.00000000000E+00 0.  1.
</event>
<event>
 7    1  0.1465498E-013  0.7246155E+02  0.7816164E-02  0.1226708E+00
        -11   -1    0    0    0    0  0.00000000000E+00  0.00000000000E+00  0.45593999997E+02  0.45594000000E+02  0.51100000000E-03 0.  1.
         11   -1    0    0    0    0 -0.00000000000E+00 -0.00000000000E+00 -0.45593999997E+02  0.45594000000E+02  0.51100000000E-03 0. -1.
    9900012    2    1    2    0    0  0.10079128433E+02  0.15778150372E+02 -0.37538761911E+00  0.72461554128E+02  0.69999978940E+02 0.  0.
         12    1    1    2    0    0 -0.10079128433E+02 -0.15778150372E+02  0.37538761911E+00  0.18726445872E+02  0.00000000000E+00 0. -1.
         11    1    3    3    0    0 -0.11811500622E+02  0.14330494760E+02  0.13286221699E+02  0.22834147988E+02  0.51100000000E-03 0. -1.
        -11    1    3    3    0    0 -0.85977524321E+00  0.18055962489E+02  0.53515811250E+00  0.18084340999E+02  0.51100000000E-03 0.  1.
         12    1    3    3    0    0  0.22750404298E+02 -0.16608306878E+02 -0.14196767431E+02  0.31543065142E+02  0.00000000000E+00 0. -1.
</event>
<event>
 7    1  0.1465498E-013  0.7246155E+02  0.7816164E-02  0.1226708E+00
        -11   -1    0    0    0    0  0.00000000000E+00  0.00000000000E+00  0.45593999997E+02  0.45594000000E+02  0.51100000000E-03 0. -1.
         11   -1    0    0    0    0 -0.00000000000E+00 -0.00000000000E+00 -0.45593999997E+02  0.45594000000E+02  0.51100000000E-03 0.  1.
    9900012    2    1    2    0    0  0.45045703057E+01  0.17986300211E-02 -0.18176601347E+02  0.72461548297E+02  0.69999971344E+02 0.  0.
         12    1    1    2    0    0 -0.45045703057E+01 -0.17986300211E-02  0.18176601347E+02  0.18726451703E+02  0.00000000000E+00 0. -1.
         11    1    3    3    0    0  0.61695706133E+00 -0.18827299708E+01  0.19407423721E+02  0.19508290645E+02  0.51100000000E-03 0. -1.
        -11    1    3    3    0    0  0.48655151377E+01 -0.16863366607E+02 -0.24212322029E+02  0.29904563351E+02  0.51100000000E-03 0.  1.
         12    1    3    3    0    0 -0.97790189327E+00  0.18747895208E+02 -0.13371703038E+02  0.23048694301E+02  0.00000000000E+00 0. -1.
</event>
<event>
 7    1  0.1465498E-013  0.7246160E+02  0.7816164E-02  0.1226708E+00
        -11   -1    0    0    0    0  0.00000000000E+00  0.00000000000E+00  0.45593999997E+02  0.45594000000E+02  0.51100000000E-03 0.  1.
         11   -1    0    0    0    0 -0.00000000000E+00 -0.00000000000E+00 -0.45593999997E+02  0.45594000000E+02  0.51100000000E-03 0. -1.
    9900012    2    1    2    0    0  0.16120598357E+02  0.82479293940E+01  0.47724254589E+01  0.72461599507E+02  0.70000038055E+02 0.  0.
         12    1    1    2    0    0 -0.16120598357E+02 -0.82479293940E+01 -0.47724254589E+01  0.18726400493E+02  0.00000000000E+00 0. -1.
         11    1    3    3    0    0  0.47975109045E+01 -0.11034163682E+01 -0.25575933463E+02  0.26045383685E+02  0.51100000000E-03 0. -1.
        -11    1    3    3    0    0 -0.74732557300E+01 -0.56713600872E+01  0.15570751514E+02  0.18178618744E+02  0.51100000000E-03 0.  1.
        -12    1    3    3    0    0  0.18796343182E+02  0.15022705849E+02  0.14777607407E+02  0.28237597078E+02  0.00000000000E+00 0.  1.
</event>
<event>
 7    1  0.1465498E-013  0.7246158E+02  0.7816164E-02  0.1226708E+00
        -11   -1    0    0    0    0  0.00000000000E+00  0.00000000000E+00  0.45593999997E+02  0.45594000000E+02  0.51100000000E-03 0.  1.
         11   -1    0    0    0    0 -0.00000000000E+00 -0.00000000000E+00 -0.45593999997E+02  0.45594000000E+02  0.51100000000E-03 0. -1.
    9900012    2    1    2    0    0 -0.96205188964E+01  0.13608976378E+02 -0.85393418306E+01  0.72461575333E+02  0.70000006564E+02 0.  0.
         12    1    1    2    0    0  0.96205188964E+01 -0.13608976378E+02  0.85393418306E+01  0.18726424667E+02  0.00000000000E+00 0. -1.
         11    1    3    3    0    0  0.15053332053E+02  0.72716760918E+01 -0.93122250443E+01  0.19136290514E+02  0.51100000000E-03 0. -1.
        -11    1    3    3    0    0  0.47907135144E+01 -0.14019666790E+02  0.79297158714E+01  0.16804237172E+02  0.51100000000E-03 0.  1.
         12    1    3    3    0    0 -0.29464564464E+02  0.20356967076E+02 -0.71568326577E+01  0.36521047648E+02  0.00000000000E+00 0. -1.
</event>
<event>
 7    1  0.1465498E-013  0.7246154E+02  0.7816164E-02  0.1226708E+00
        -11   -1    0    0    0    0  0.00000000000E+00  0.00000000000E+00  0.45593999997E+02  0.45594000000E+02  0.51100000000E-03 0.  1.
         11   -1    0    0    0    0 -0.00000000000E+00 -0.00000000000E+00 -0.45593999997E+02  0.45594000000E+02  0.51100000000E-03 0. -1.
    9900012    2    1    2    0    0  0.49074373969E+01 -0.15203476947E+02  0.97699400197E+01  0.72461537946E+02  0.69999957860E+02 0.  0.
         12    1    1    2    0    0 -0.49074373969E+01  0.15203476947E+02 -0.97699400197E+01  0.18726462054E+02  0.00000000000E+00 0. -1.
         11    1    3    3    0    0  0.11172964271E+02  0.20545114756E+01 -0.10920551200E+02  0.15758000722E+02  0.51100000000E-03 0. -1.
        -11    1    3    3    0    0  0.20858195938E+02 -0.80495092681E+01  0.18828956680E+01  0.22436671625E+02  0.51100000000E-03 0.  1.
        -12    1    3    3    0    0 -0.27123722812E+02 -0.92084791547E+01  0.18807595551E+02  0.34266865598E+02  0.00000000000E+00 0.  1.
</event>
<event>
 7    1  0.1465498E-013  0.7246153E+02  0.7816164E-02  0.1226708E+00
        -11   -1    0    0    0    0  0.00000000000E+00  0.00000000000E+00  0.45593999997E+02  0.45594000000E+02  0.51100000000E-03 0. -1.
         11   -1    0    0    0    0 -0.00000000000E+00 -0.00000000000E+00 -0.45593999997E+02  0.45594000000E+02  0.51100000000E-03 0.  1.
    9900012    2    1    2    0    0 -0.71317786786E+01  0.17047225196E+02 -0.30348832607E+01  0.72461530220E+02  0.69999947796E+02 0.  0.
         12    1    1    2    0    0  0.71317786786E+01 -0.17047225196E+02  0.30348832607E+01  0.18726469780E+02  0.00000000000E+00 0. -1.
         11    1    3    3    0    0 -0.20033152350E+02 -0.11019170672E+02 -0.10163281320E+02  0.25020823384E+02  0.51100000000E-03 0. -1.
        -11    1    3    3    0    0 -0.29608361793E+01 -0.72863216668E+01  0.32103581373E+01  0.84949063528E+01  0.51100000000E-03 0.  1.
        -12    1    3    3    0    0  0.15862209851E+02  0.35352717535E+02  0.39180399219E+01  0.38945800483E+02  0.00000000000E+00 0.  1.
</event>
<event>
 7    1  0.1465498E-013  0.7246161E+02  0.7816164E-02  0.1226708E+00
        -11   -1    0    0    0    0  0.00000000000E+00  0.00000000000E+00  0.45593999997E+02  0.45594000000E+02  0.51100000000E-03 0. -1.
         11   -1    0    0    0    0 -0.00000000000E+00 -0.00000000000E+00 -0.45593999997E+02  0.45594000000E+02  0.51100000000E-03 0.  1.
    9900012    2    1    2    0    0  0.10276883700E+02  0.85833596511E+01 -0.13091573985E+02  0.72461609241E+02  0.70000050735E+02 0.  0.
         12    1    1    2    0    0 -0.10276883700E+02 -0.85833596511E+01  0.13091573985E+02  0.18726390759E+02  0.00000000000E+00 0. -1.
         11    1    3    3    0    0  0.56413351327E+01  0.15889949967E+02 -0.15668987796E+02  0.23018087471E+02  0.51100000000E-03 0. -1.
        -11    1    3    3    0    0  0.21046639057E+02  0.15340797573E+01  0.15992096817E+02  0.26477567433E+02  0.51100000000E-03 0.  1.
         12    1    3    3    0    0 -0.16411090490E+02 -0.88406700732E+01 -0.13414683005E+02  0.22965954336E+02  0.00000000000E+00 0. -1.
</event>
<event>
 7    1  0.1465498E-013  0.7246114E+02  0.7816164E-02  0.1226709E+00
        -11   -1    0    0    0    0  0.00000000000E+00  0.00000000000E+00  0.45593999997E+02  0.45594000000E+02  0.51100000000E-03 0.  1.
         11   -1    0    0    0    0 -0.00000000000E+00 -0.00000000000E+00 -0.45593999997E+02  0.45594000000E+02  0.51100000000E-03 0. -1.
    9900012    2    1    2    0    0  0.12302684179E+02  0.91578354576E+01  0.10745843329E+02  0.72461143960E+02  0.69999444618E+02 0.  0.
         12    1    1    2    0    0 -0.12302684179E+02 -0.91578354576E+01 -0.10745843329E+02  0.18726856040E+02  0.00000000000E+00 0. -1.
         11    1    3    3    0    0  0.85561688201E+01  0.95293772687E+01  0.10773487204E+01  0.12852149102E+02  0.51100000000E-03 0. -1.
        -11    1    3    3    0    0 -0.19401161596E+02  0.17406264687E+02  0.14801330002E+02  0.29974363909E+02  0.51100000000E-03 0.  1.
         12    1    3    3    0    0  0.23147676956E+02 -0.17777806498E+02 -0.51328353935E+01  0.29634630950E+02  0.00000000000E+00 0. -1.
</event>
<event>
 7    1  0.1465498E-013  0.7246135E+02  0.7816164E-02  0.1226709E+00
        -11   -1    0    0    0    0  0.00000000000E+00  0.00000000000E+00  0.45593999997E+02  0.45594000000E+02  0.51100000000E-03 0. -1.
         11   -1    0    0    0    0 -0.00000000000E+00 -0.00000000000E+00 -0.45593999997E+02  0.45594000000E+02  0.51100000000E-03 0.  1.
    9900012    2    1    2    0    0  0.57372728681E+01  0.16146064334E+02  0.75548500544E+01  0.72461349130E+02  0.69999711892E+02 0.  0.
         12    1    1    2    0    0 -0.57372728681E+01 -0.16146064334E+02 -0.75548500544E+01  0.18726650870E+02  0.00000000000E+00 0. -1.
         11    1    3    3    0    0 -0.13068788831E+02  0.53758952323E+01  0.17297234868E+02  0.22335796950E+02  0.51100000000E-03 0. -1.
        -11    1    3    3    0    0  0.16593398622E+02  0.37604262475E+01  0.15999209466E+02  0.23355007754E+02  0.51100000000E-03 0.  1.
         12    1    3    3    0    0  0.22126630775E+01  0.70097428543E+01 -0.25741594280E+02  0.26770544426E+02  0.00000000000E+00 0. -1.
</event>
<event>
 7    1  0.1465498E-013  0.7246137E+02  0.7816164E-02  0.1226709E+00
        -11   -1    0    0    0    0  0.00000000000E+00  0.00000000000E+00  0.45593999997E+02  0.45594000000E+02  0.51100000000E-03 0.  1.
         11   -1    0    0    0    0 -0.00000000000E+00 -0.00000000000E+00 -0.45593999997E+02  0.45594000000E+02  0.51100000000E-03 0. -1.
    9900012    2    1    2    0    0  0.13417075385E+02  0.11080104602E+02 -0.69209848212E+01  0.72461370277E+02  0.69999739440E+02 0.  0.
         12    1    1    2    0    0 -0.13417075385E+02 -0.11080104602E+02  0.69209848212E+01  0.18726629723E+02  0.00000000000E+00 0. -1.
         11    1    3    3    0    0  0.18730550291E+02 -0.16054404823E+02 -0.12369473659E+02  0.27596762623E+02  0.51100000000E-03 0. -1.
        -11    1    3    3    0    0  0.68122893757E+01 -0.24850699819E+01  0.10193133605E+02  0.12509309825E+02  0.51100000000E-03 0.  1.
        -12    1    3    3    0    0 -0.12125764281E+02  0.29619579407E+02 -0.47446447672E+01  0.32355297829E+02  0.00000000000E+00 0.  1.
</event>
<event>
 7    1  0.1465498E-013  0.7246159E+02  0.7816164E-02  0.1226708E+00
        -11   -1    0    0    0    0  0.00000000000E+00  0.00000000000E+00  0.45593999997E+02  0.45594000000E+02  0.51100000000E-03 0.  1.
         11   -1    0    0    0    0 -0.00000000000E+00 -0.00000000000E+00 -0.45593999997E+02  0.45594000000E+02  0.51100000000E-03 0. -1.
    9900012    2    1    2    0    0  0.17534173012E+02  0.60118856555E+01 -0.26624458366E+01  0.72461585229E+02  0.70000019455E+02 0.  0.
         12    1    1    2    0    0 -0.17534173012E+02 -0.60118856555E+01  0.26624458366E+01  0.18726414771E+02  0.00000000000E+00 0. -1.
         11    1    3    3    0    0 -0.10801264867E+02 -0.10508609569E+02 -0.10275190999E+02  0.18239455807E+02  0.51100000000E-03 0. -1.
        -11    1    3    3    0    0  0.37340518436E+00 -0.12197013660E+02 -0.33758737430E+01  0.12661085951E+02  0.51100000000E-03 0.  1.
         12    1    3    3    0    0  0.27962032695E+02  0.28717508885E+02  0.10988618905E+02  0.41561043471E+02  0.00000000000E+00 0. -1.
</event>
<event>
 7    1  0.1465498E-013  0.7246130E+02  0.7816164E-02  0.1226709E+00
        -11   -1    0    0    0    0  0.00000000000E+00  0.00000000000E+00  0.45593999997E+02  0.45594000000E+02  0.51100000000E-03 0. -1.
         11   -1    0    0    0    0 -0.00000000000E+00 -0.00000000000E+00 -0.45593999997E+02  0.45594000000E+02  0.51100000000E-03 0.  1.
    9900012    2    1    2    0    0  0.45574375711E+01  0.18040602442E+02  0.21108328581E+01  0.72461302772E+02  0.69999651502E+02 0.  0.
         12    1    1    2    0    0 -0.45574375711E+01 -0.18040602442E+02 -0.21108328581E+01  0.18726697228E+02  0.00000000000E+00 0. -1.
         11    1    3    3    0    0 -0.52775084902E+01  0.90470412031E+01 -0.38531858128E+01  0.11160111629E+02  0.51100000000E-03 0. -1.
        -11    1    3    3    0    0  0.25695715717E+02  0.26324499663E+02  0.82400278441E+01  0.37698105361E+02  0.51100000000E-03 0.  1.
         12    1    3    3    0    0 -0.15860769655E+02 -0.17330938424E+02 -0.22760091732E+01  0.23603085783E+02  0.00000000000E+00 0. -1.
</event>
<event>
 7    1  0.1465498E-013  0.7246156E+02  0.7816164E-02  0.1226708E+00
        -11   -1    0    0    0    0  0.00000000000E+00  0.00000000000E+00  0.45593999997E+02  0.45594000000E+02  0.51100000000E-03 0.  1.
         11   -1    0    0    0    0 -0.00000000000E+00 -0.00000000000E+00 -0.45593999997E+02  0.45594000000E+02  0.51100000000E-03 0. -1.
    9900012    2    1    2    0    0  0.23793998813E+01  0.11354572018E+02  0.14700052847E+02  0.72461564054E+02  0.69999991871E+02 0.  0.
         12    1    1    2    0    0 -0.23793998813E+01 -0.11354572018E+02 -0.14700052847E+02  0.18726435946E+02  0.00000000000E+00 0. -1.
         11    1    3    3    0    0 -0.12895996430E+01  0.43943097094E+01  0.14627596861E+02  0.15327740057E+02  0.51100000000E-03 0.  1.
        -11    1    3    3    0    0  0.37963656683E-01  0.29586869045E+02  0.11229213008E+02  0.31646160686E+02  0.51100000000E-03 0. -1.
        -12    1    3    3    0    0  0.36310358677E+01 -0.22626606736E+02 -0.11156757022E+02  0.25487663312E+02  0.00000000000E+00 0.  1.
</event>
<event>
 7    1  0.1465498E-013  0.7246142E+02  0.7816164E-02  0.1226708E+00
        -11   -1    0    0    0    0  0.00000000000E+00  0.00000000000E+00  0.45593999997E+02  0.45594000000E+02  0.51100000000E-03 0.  1.
         11   -1    0    0    0    0 -0.00000000000E+00 -0.00000000000E+00 -0.45593999997E+02  0.45594000000E+02  0.51100000000E-03 0. -1.
    9900012    2    1    2    0    0 -0.18703355458E+01  0.12328060999E+02  0.13971602248E+02  0.72461416958E+02  0.69999800251E+02 0.  0.
         12    1    1    2    0    0  0.18703355458E+01 -0.12328060999E+02 -0.13971602248E+02  0.18726583042E+02  0.00000000000E+00 0. -1.
         11    1    3    3    0    0  0.12525964235E+02 -0.19017563591E+01  0.50544048923E+01  0.13640508287E+02  0.51100000000E-03 0. -1.
        -11    1    3    3    0    0  0.71923256130E+01 -0.10497185299E+02  0.20401630261E+02  0.24044686824E+02  0.51100000000E-03 0.  1.
         12    1    3    3    0    0 -0.21588625394E+02  0.24727002657E+02 -0.11484432905E+02  0.34776221847E+02  0.00000000000E+00 0. -1.
</event>
<event>
 7    1  0.1465498E-013  0.7246156E+02  0.7816164E-02  0.1226708E+00
        -11   -1    0    0    0    0  0.00000000000E+00  0.00000000000E+00  0.45593999997E+02  0.45594000000E+02  0.51100000000E-03 0.  1.
         11   -1    0    0    0    0 -0.00000000000E+00 -0.00000000000E+00 -0.45593999997E+02  0.45594000000E+02  0.51100000000E-03 0. -1.
    9900012    2    1    2    0    0  0.65527589061E+01 -0.10036501871E+02  0.14387820670E+02  0.72461564068E+02  0.69999991888E+02 0.  0.
         12    1    1    2    0    0 -0.65527589061E+01  0.10036501871E+02 -0.14387820670E+02  0.18726435932E+02  0.00000000000E+00 0. -1.
         11    1    3    3    0    0 -0.51698863326E+01  0.11851440989E+02 -0.92811781910E+01  0.15916175643E+02  0.51100000000E-03 0. -1.
        -11    1    3    3    0    0 -0.13878380886E+02 -0.20933386269E+02  0.73457691629E+01  0.26168233444E+02  0.51100000000E-03 0.  1.
         12    1    3    3    0    0  0.25601026125E+02 -0.95455659106E+00  0.16323229699E+02  0.30377154981E+02  0.00000000000E+00 0. -1.
</event>
<event>
 7    1  0.1465498E-013  0.7246160E+02  0.7816164E-02  0.1226708E+00
        -11   -1    0    0    0    0  0.00000000000E+00  0.00000000000E+00  0.45593999997E+02  0.45594000000E+02  0.51100000000E-03 0.  1.
         11   -1    0    0    0    0 -0.00000000000E+00 -0.00000000000E+00 -0.45593999997E+02  0.45594000000E+02  0.51100000000E-03 0. -1.
    9900012    2    1    2    0    0  0.17147709435E+02  0.43073998226E+01 -0.61709293185E+01  0.72461601501E+02  0.70000040652E+02 0.  0.
         12    1    1    2    0    0 -0.17147709435E+02 -0.43073998226E+01  0.61709293185E+01  0.18726398499E+02  0.00000000000E+00 0. -1.
         11    1    3    3    0    0 -0.35279791871E+00 -0.35433452326E+01 -0.22135032395E+02  0.22419621343E+02  0.51100000000E-03 0. -1.
        -11    1    3    3    0    0  0.11278535344E+01 -0.10194082206E+02  0.22574931640E+02  0.24795542027E+02  0.51100000000E-03 0.  1.
        -12    1    3    3    0    0  0.16372653820E+02  0.18044827261E+02 -0.66108285635E+01  0.25246438130E+02  0.00000000000E+00 0.  1.
</event>
<event>
 7    1  0.1465498E-013  0.7246157E+02  0.7816164E-02  0.1226708E+00
        -11   -1    0    0    0    0  0.00000000000E+00  0.00000000000E+00  0.45593999997E+02  0.45594000000E+02  0.51100000000E-03 0.  1.
         11   -1    0    0    0    0 -0.00000000000E+00 -0.00000000000E+00 -0.45593999997E+02  0.45594000000E+02  0.51100000000E-03 0. -1.
    9900012    2    1    2    0    0 -0.54106099184E+01  0.17870892155E+02  0.14268350777E+01  0.72461565623E+02  0.69999993915E+02 0.  0.
         12    1    1    2    0    0  0.54106099184E+01 -0.17870892155E+02 -0.14268350777E+01  0.18726434377E+02  0.00000000000E+00 0. -1.
         11    1    3    3    0    0  0.49332658424E+01  0.21470332047E+02 -0.81249093724E+01  0.23480341196E+02  0.51100000000E-03 0. -1.
        -11    1    3    3    0    0 -0.38621453295E+01  0.21394807978E+02  0.93612548947E+00  0.21760751507E+02  0.51100000000E-03 0.  1.
         12    1    3    3    0    0 -0.64817304313E+01 -0.24994247870E+02  0.86156189606E+01  0.27220472921E+02  0.00000000000E+00 0. -1.
</event>
<event>
 7    1  0.1465498E-013  0.7246160E+02  0.7816164E-02  0.1226708E+00
        -11   -1    0    0    0    0  0.00000000000E+00  0.00000000000E+00  0.45593999997E+02  0.45594000000E+02  0.51100000000E-03 0. -1.
         11   -1    0    0    0    0 -0.00000000000E+00 -0.00000000000E+00 -0.45593999997E+02  0.45594000000E+02  0.51100000000E-03 0.  1.
    9900012    2    1    2    0    0 -0.63261807655E+00  0.34411295533E+01 -0.18396644497E+02  0.72461598665E+02  0.70000036958E+02 0.  0.
         12    1    1    2    0    0  0.63261807655E+00 -0.34411295533E+01  0.18396644497E+02  0.18726401335E+02  0.00000000000E+00 0. -1.
         11    1    3    3    0    0 -0.10327791223E+02  0.37567620113E+01  0.14839219644E+02  0.18465615946E+02  0.51100000000E-03 0. -1.
        -11    1    3    3    0    0  0.13976040621E+02  0.58147493646E+01  0.42891095259E+01  0.15733323947E+02  0.51100000000E-03 0.  1.
        -12    1    3    3    0    0 -0.42808674744E+01 -0.61303818226E+01 -0.37524973667E+02  0.38262658772E+02  0.00000000000E+00 0.  1.
</event>
<event>
 7    1  0.1465498E-013  0.7246100E+02  0.7816164E-02  0.1226710E+00
        -11   -1    0    0    0    0  0.00000000000E+00  0.00000000000E+00  0.45593999997E+02  0.45594000000E+02  0.51100000000E-03 0.  1.
         11   -1    0    0    0    0 -0.00000000000E+00 -0.00000000000E+00 -0.45593999997E+02  0.45594000000E+02  0.51100000000E-03 0. -1.
    9900012    2    1    2    0    0  0.16620999544E+02  0.67579618991E+01  0.53640283540E+01  0.72461001440E+02  0.69999258958E+02 0.  0.
         12    1    1    2    0    0 -0.16620999544E+02 -0.67579618991E+01 -0.53640283540E+01  0.18726998560E+02  0.00000000000E+00 0. -1.
         11    1    3    3    0    0  0.69660052604E+01  0.11298994675E+01  0.18534664837E+00  0.70594798488E+01  0.51100000000E-03 0. -1.
        -11    1    3    3    0    0  0.32517592273E+02 -0.60882549414E+01  0.16916841504E+02  0.37156966806E+02  0.51100000000E-03 0.  1.
         12    1    3    3    0    0 -0.22862597989E+02  0.11716317373E+02 -0.11738159799E+02  0.28244554786E+02  0.00000000000E+00 0. -1.
</event>
<event>
 7    1  0.1465498E-013  0.7246161E+02  0.7816164E-02  0.1226708E+00
        -11   -1    0    0    0    0  0.00000000000E+00  0.00000000000E+00  0.45593999997E+02  0.45594000000E+02  0.51100000000E-03 0. -1.
         11   -1    0    0    0    0 -0.00000000000E+00 -0.00000000000E+00 -0.45593999997E+02  0.45594000000E+02  0.51100000000E-03 0.  1.
    9900012    2    1    2    0    0  0.33967731511E+01 -0.16251414369E+02 -0.86620434376E+01  0.72461613981E+02  0.70000056909E+02 0.  0.
         12    1    1    2    0    0 -0.33967731511E+01  0.16251414369E+02  0.86620434376E+01  0.18726386019E+02  0.00000000000E+00 0. -1.
         11    1    3    3    0    0 -0.56065380264E+01  0.35611945629E+01 -0.70883947859E+01  0.97139444232E+01  0.51100000000E-03 0.  1.
        -11    1    3    3    0    0 -0.23845613627E+02 -0.74938891821E+00 -0.57456473195E+01  0.24539505626E+02  0.51100000000E-03 0. -1.
         12    1    3    3    0    0  0.32848924805E+02 -0.19063220014E+02  0.41719986677E+01  0.38208163931E+02  0.00000000000E+00 0. -1.
</event>
<event>
 7    1  0.1465498E-013  0.7246156E+02  0.7816164E-02  0.1226708E+00
        -11   -1    0    0    0    0  0.00000000000E+00  0.00000000000E+00  0.45593999997E+02  0.45594000000E+02  0.51100000000E-03 0.  1.
         11   -1    0    0    0    0 -0.00000000000E+00 -0.00000000000E+00 -0.45593999997E+02  0.45594000000E+02  0.51100000000E-03 0. -1.
    9900012    2    1    2    0    0 -0.11594494068E+02 -0.57918907031E+01  0.13516703008E+02  0.72461560113E+02  0.69999986738E+02 0.  0.
         12    1    1    2    0    0  0.11594494068E+02  0.57918907031E+01 -0.13516703008E+02  0.18726439887E+02  0.00000000000E+00 0. -1.
         11    1    3    3    0    0 -0.14769192090E+02 -0.12719082956E+02 -0.13008798021E+02  0.23433585565E+02  0.51100000000E-03 0. -1.
        -11    1    3    3    0    0  0.44537787310E+01 -0.93613919308E+01  0.30499233716E+02  0.32212964182E+02  0.51100000000E-03 0.  1.
         12    1    3    3    0    0 -0.12790807088E+01  0.16288584183E+02 -0.39737326860E+01  0.16815010366E+02  0.00000000000E+00 0. -1.
</event>
<event>
 7    1  0.1465498E-013  0.7246161E+02  0.7816164E-02  0.1226708E+00
        -11   -1    0    0    0    0  0.00000000000E+00  0.00000000000E+00  0.45593999997E+02  0.45594000000E+02  0.51100000000E-03 0. -1.
         11   -1    0    0    0    0 -0.00000000000E+00 -0.00000000000E+00 -0.45593999997E+02  0.45594000000E+02  0.51100000000E-03 0.  1.
    9900012    2    1    2    0    0 -0.10141818271E+02 -0.13756450023E+00 -0.15741742287E+02  0.72461605471E+02  0.70000045824E+02 0.  0.
         12    1    1    2    0    0  0.10141818271E+02  0.13756450023E+00  0.15741742287E+02  0.18726394529E+02  0.00000000000E+00 0. -1.
         11    1    3    3    0    0  0.10501910324E+02 -0.21522125231E+02 -0.11419673680E+01  0.23974905310E+02  0.51100000000E-03 0. -1.
        -11    1    3    3    0    0 -0.37224445383E+01 -0.88413101797E+01 -0.94502549714E+01  0.13465982263E+02  0.51100000000E-03 0.  1.
        -12    1    3    3    0    0 -0.16921284056E+02  0.30225870910E+02 -0.51495199474E+01  0.35020717898E+02  0.00000000000E+00 0.  1.
</event>
<event>
 7    1  0.1465498E-013  0.7246158E+02  0.7816164E-02  0.1226708E+00
        -11   -1    0    0    0    0  0.00000000000E+00  0.00000000000E+00  0.45593999997E+02  0.45594000000E+02  0.51100000000E-03 0. -1.
         11   -1    0    0    0    0 -0.00000000000E+00 -0.00000000000E+00 -0.45593999997E+02  0.45594000000E+02  0.51100000000E-03 0.  1.
    9900012    2    1    2    0    0 -0.40201303860E+01  0.15263718011E+02  0.10076512614E+02  0.72461584371E+02  0.70000018337E+02 0.  0.
         12    1    1    2    0    0  0.40201303860E+01 -0.15263718011E+02 -0.10076512614E+02  0.18726415629E+02  0.00000000000E+00 0. -1.
         11    1    3    3    0    0  0.65738665037E+01  0.61634066041E+01 -0.27012931805E+01  0.94074591088E+01  0.51100000000E-03 0.  1.
        -11    1    3    3    0    0  0.18759858437E+02  0.18615452589E+02  0.17697697310E+02  0.31806852312E+02  0.51100000000E-03 0. -1.
        -12    1    3    3    0    0 -0.29353855327E+02 -0.95151411821E+01 -0.49198915152E+01  0.31247272950E+02  0.00000000000E+00 0.  1.
</event>
<event>
 7    1  0.1465498E-013  0.7246156E+02  0.7816164E-02  0.1226708E+00
        -11   -1    0    0    0    0  0.00000000000E+00  0.00000000000E+00  0.45593999997E+02  0.45594000000E+02  0.51100000000E-03 0.  1.
         11   -1    0    0    0    0 -0.00000000000E+00 -0.00000000000E+00 -0.45593999997E+02  0.45594000000E+02  0.51100000000E-03 0. -1.
    9900012    2    1    2    0    0  0.13259466278E+02  0.11228490629E+02 -0.69847803600E+01  0.72461558682E+02  0.69999984872E+02 0.  0.
         12    1    1    2    0    0 -0.13259466278E+02 -0.11228490629E+02  0.69847803600E+01  0.18726441318E+02  0.00000000000E+00 0. -1.
         11    1    3    3    0    0 -0.14698496917E+01 -0.54982782701E+01 -0.78062875068E+01  0.96607270406E+01  0.51100000000E-03 0. -1.
        -11    1    3    3    0    0 -0.20817805764E+02  0.13411330120E+02  0.86869987091E+01  0.26243261216E+02  0.51100000000E-03 0.  1.
         12    1    3    3    0    0  0.35547121734E+02  0.33154387784E+01 -0.78654915622E+01  0.36557570425E+02  0.00000000000E+00 0. -1.
</event>
<event>
 7    1  0.1465498E-013  0.7246159E+02  0.7816164E-02  0.1226708E+00
        -11   -1    0    0    0    0  0.00000000000E+00  0.00000000000E+00  0.45593999997E+02  0.45594000000E+02  0.51100000000E-03 0. -1.
         11   -1    0    0    0    0 -0.00000000000E+00 -0.00000000000E+00 -0.45593999997E+02  0.45594000000E+02  0.51100000000E-03 0.  1.
    9900012    2    1    2    0    0  0.14463717786E+02  0.10088697636E+02 -0.63005835818E+01  0.72461593360E+02  0.70000030048E+02 0.  0.
         12    1    1    2    0    0 -0.14463717786E+02 -0.10088697636E+02  0.63005835818E+01  0.18726406640E+02  0.00000000000E+00 0. -1.
         11    1    3    3    0    0  0.33043945908E+02  0.19882359728E+02 -0.13250200187E+02  0.40777179829E+02  0.51100000000E-03 0. -1.
        -11    1    3    3    0    0  0.21999866990E+01 -0.30169435256E+00 -0.53112410660E+01  0.57567562811E+01  0.51100000000E-03 0.  1.
         12    1    3    3    0    0 -0.20780214822E+02 -0.94919677402E+01  0.12260857672E+02  0.25927657250E+02  0.00000000000E+00 0. -1.
</event>
<event>
 7    1  0.1465498E-013  0.7246165E+02  0.7816164E-02  0.1226708E+00
        -11   -1    0    0    0    0  0.00000000000E+00  0.00000000000E+00  0.45593999997E+02  0.45594000000E+02  0.51100000000E-03 0.  1.
         11   -1    0    0    0    0 -0.00000000000E+00 -0.00000000000E+00 -0.45593999997E+02  0.45594000000E+02  0.51100000000E-03 0. -1.
    9900012    2    1    2    0    0  0.96855216249E+01  0.14512349080E+02 -0.68013631778E+01  0.72461651022E+02  0.70000105163E+02 0.  0.
         12    1    1    2    0    0 -0.96855216249E+01 -0.14512349080E+02  0.68013631778E+01  0.18726348978E+02  0.00000000000E+00 0. -1.
         11    1    3    3    0    0 -0.11588204399E+01  0.21771451840E+01  0.99351973391E+01  0.10236746182E+02  0.51100000000E-03 0. -1.
        -11    1    3    3    0    0  0.24701753166E+01  0.64778420302E+01  0.21529258239E+02  0.22617983200E+02  0.51100000000E-03 0.  1.
         12    1    3    3    0    0  0.83741667482E+01  0.58573618656E+01 -0.38265818756E+02  0.39606921640E+02  0.00000000000E+00 0. -1.
</event>
<event>
 7    1  0.1465498E-013  0.7246185E+02  0.7816164E-02  0.1226707E+00
        -11   -1    0    0    0    0  0.00000000000E+00  0.00000000000E+00  0.45593999997E+02  0.45594000000E+02  0.51100000000E-03 0.  1.
         11   -1    0    0    0    0 -0.00000000000E+00 -0.00000000000E+00 -0.45593999997E+02  0.45594000000E+02  0.51100000000E-03 0. -1.
    9900012    2    1    2    0    0 -0.10515264364E+02  0.15472342151E+02  0.83944427644E+00  0.72461846551E+02  0.70000359875E+02 0.  0.
         12    1    1    2    0    0  0.10515264364E+02 -0.15472342151E+02 -0.83944427644E+00  0.18726153449E+02  0.00000000000E+00 0. -1.
         11    1    3    3    0    0 -0.16255735478E+01 -0.19677033143E+02 -0.78446413139E+01  0.21245388212E+02  0.51100000000E-03 0. -1.
        -11    1    3    3    0    0  0.97794008013E+01 -0.77148675512E+00 -0.14673896820E-01  0.98097954836E+01  0.51100000000E-03 0.  1.
        -12    1    3    3    0    0 -0.18669091617E+02  0.35920862050E+02  0.86987594872E+01  0.41406662856E+02  0.00000000000E+00 0.  1.
</event>
<event>
 7    1  0.1465498E-013  0.7246170E+02  0.7816164E-02  0.1226708E+00
        -11   -1    0    0    0    0  0.00000000000E+00  0.00000000000E+00  0.45593999997E+02  0.45594000000E+02  0.51100000000E-03 0. -1.
         11   -1    0    0    0    0 -0.00000000000E+00 -0.00000000000E+00 -0.45593999997E+02  0.45594000000E+02  0.51100000000E-03 0.  1.
    9900012    2    1    2    0    0  0.72818676598E+01 -0.14592128231E+02 -0.92042606453E+01  0.72461702530E+02  0.70000172261E+02 0.  0.
         12    1    1    2    0    0 -0.72818676598E+01  0.14592128231E+02  0.92042606453E+01  0.18726297470E+02  0.00000000000E+00 0. -1.
         11    1    3    3    0    0  0.91588137002E+01 -0.58850570708E+01  0.25006467787E+02  0.27273452230E+02  0.51100000000E-03 0. -1.
        -11    1    3    3    0    0  0.71327495963E+01  0.54777599993E+00  0.14159277778E+01  0.72925322819E+01  0.51100000000E-03 0.  1.
        -12    1    3    3    0    0 -0.90096956367E+01 -0.92548471597E+01 -0.35626656210E+02  0.37895718018E+02  0.00000000000E+00 0.  1.
</event>
<event>
 7    1  0.1465498E-013  0.7246155E+02  0.7816164E-02  0.1226708E+00
        -11   -1    0    0    0    0  0.00000000000E+00  0.00000000000E+00  0.45593999997E+02  0.45594000000E+02  0.51100000000E-03 0. -1.
         11   -1    0    0    0    0 -0.00000000000E+00 -0.00000000000E+00 -0.45593999997E+02  0.45594000000E+02  0.51100000000E-03 0.  1.
    9900012    2    1    2    0    0 -0.86235192180E+01  0.15575299560E+02 -0.58073007647E+01  0.72461553934E+02  0.69999978687E+02 0.  0.
         12    1    1    2    0    0  0.86235192180E+01 -0.15575299560E+02  0.58073007647E+01  0.18726446066E+02  0.00000000000E+00 0. -1.
         11    1    3    3    0    0 -0.39254789929E+01  0.13107492730E+02  0.78354170731E+01  0.15767355897E+02  0.51100000000E-03 0. -1.
        -11    1    3    3    0    0  0.92419807024E+00  0.24089268344E+02 -0.22199186733E+02  0.32771189836E+02  0.51100000000E-03 0.  1.
        -12    1    3    3    0    0 -0.56222382953E+01 -0.21621461514E+02  0.85564688950E+01  0.23923008201E+02  0.00000000000E+00 0.  1.
</event>
<event>
 7    1  0.1465498E-013  0.7246154E+02  0.7816164E-02  0.1226708E+00
        -11   -1    0    0    0    0  0.00000000000E+00  0.00000000000E+00  0.45593999997E+02  0.45594000000E+02  0.51100000000E-03 0. -1.
         11   -1    0    0    0    0 -0.00000000000E+00 -0.00000000000E+00 -0.45593999997E+02  0.45594000000E+02  0.51100000000E-03 0.  1.
    9900012    2    1    2    0    0  0.10908234138E+02 -0.13573718182E+02  0.68880231913E+01  0.72461541157E+02  0.69999962044E+02 0.  0.
         12    1    1    2    0    0 -0.10908234138E+02  0.13573718182E+02 -0.68880231913E+01  0.18726458843E+02  0.00000000000E+00 0. -1.
         11    1    3    3    0    0 -0.24846779289E+02 -0.19044212291E+02 -0.15591105178E+00  0.31306050075E+02  0.51100000000E-03 0. -1.
        -11    1    3    3    0    0  0.14214835042E+01 -0.43897708145E+01  0.21842902722E+01  0.51050785901E+01  0.51100000000E-03 0.  1.
        -12    1    3    3    0    0  0.34333529923E+02  0.98602649232E+01  0.48596439709E+01  0.36050412492E+02  0.00000000000E+00 0.  1.
</event>
<event>
 7    1  0.1465498E-013  0.7246158E+02  0.7816164E-02  0.1226708E+00
        -11   -1    0    0    0    0  0.00000000000E+00  0.00000000000E+00  0.45593999997E+02  0.45594000000E+02  0.51100000000E-03 0.  1.
         11   -1    0    0    0    0 -0.00000000000E+00 -0.00000000000E+00 -0.45593999997E+02  0.45594000000E+02  0.51100000000E-03 0. -1.
    9900012    2    1    2    0    0  0.16655411203E+02  0.41218806944E+01 -0.75024187970E+01  0.72461577208E+02  0.70000009006E+02 0.  0.
         12    1    1    2    0    0 -0.16655411203E+02 -0.41218806944E+01  0.75024187970E+01  0.18726422792E+02  0.00000000000E+00 0. -1.
         11    1    3    3    0    0  0.12566579969E+02 -0.14493708296E+02 -0.16780744501E+02  0.25486857369E+02  0.51100000000E-03 0. -1.
        -11    1    3    3    0    0 -0.12730425009E+02 -0.55111433165E+01  0.10715780841E+02  0.17528958351E+02  0.51100000000E-03 0.  1.
        -12    1    3    3    0    0  0.16819256243E+02  0.24126732306E+02 -0.14374551367E+01  0.29445761488E+02  0.00000000000E+00 0.  1.
</event>
<event>
 7    1  0.1465498E-013  0.7246155E+02  0.7816164E-02  0.1226708E+00
        -11   -1    0    0    0    0  0.00000000000E+00  0.00000000000E+00  0.45593999997E+02  0.45594000000E+02  0.51100000000E-03 0. -1.
         11   -1    0    0    0    0 -0.00000000000E+00 -0.00000000000E+00 -0.45593999997E+02  0.45594000000E+02  0.51100000000E-03 0.  1.
    9900012    2    1    2    0    0 -0.99246424675E+01  0.15329523934E+02 -0.41457159866E+01  0.72461553643E+02  0.69999978308E+02 0.  0.
         12    1    1    2    0    0  0.99246424675E+01 -0.15329523934E+02  0.41457159866E+01  0.18726446357E+02  0.00000000000E+00 0. -1.
         11    1    3    3    0    0  0.17606568661E+02 -0.12313726075E+02 -0.16156361569E+02  0.26882096817E+02  0.51100000000E-03 0. -1.
        -11    1    3    3    0    0  0.29391374134E+01  0.25525179812E+01 -0.99982916846E+00  0.40191461041E+01  0.51100000000E-03 0.  1.
        -12    1    3    3    0    0 -0.30470348542E+02  0.25090732028E+02  0.13010474751E+02  0.41560310721E+02  0.00000000000E+00 0.  1.
</event>
<event>
 7    1  0.1465498E-013  0.7246147E+02  0.7816164E-02  0.1226708E+00
        -11   -1    0    0    0    0  0.00000000000E+00  0.00000000000E+00  0.45593999997E+02  0.45594000000E+02  0.51100000000E-03 0. -1.
         11   -1    0    0    0    0 -0.00000000000E+00 -0.00000000000E+00 -0.45593999997E+02  0.45594000000E+02  0.51100000000E-03 0.  1.
    9900012    2    1    2    0    0 -0.17954083758E+02  0.23569387874E+01 -0.47727076581E+01  0.72461467421E+02  0.69999865988E+02 0.  0.
         12    1    1    2    0    0  0.17954083758E+02 -0.23569387874E+01  0.47727076581E+01  0.18726532579E+02  0.00000000000E+00 0. -1.
         11    1    3    3    0    0  0.67980216555E+00  0.11796323170E+02  0.19634106886E+02  0.22915355654E+02  0.51100000000E-03 0. -1.
        -11    1    3    3    0    0 -0.25312984288E+02 -0.43413940364E+01 -0.21691801481E+01  0.25774022165E+02  0.51100000000E-03 0.  1.
        -12    1    3    3    0    0  0.66790983646E+01 -0.50979903458E+01 -0.22237634396E+02  0.23772089602E+02  0.00000000000E+00 0.  1.
</event>
<event>
 7    1  0.1465498E-013  0.7246158E+02  0.7816164E-02  0.1226708E+00
        -11   -1    0    0    0    0  0.00000000000E+00  0.00000000000E+00  0.45593999997E+02  0.45594000000E+02  0.51100000000E-03 0.  1.
         11   -1    0    0    0    0 -0.00000000000E+00 -0.00000000000E+00 -0.45593999997E+02  0.45594000000E+02  0.51100000000E-03 0. -1.
    9900012    2    1    2    0    0 -0.12938328976E+02 -0.85106141168E+01 -0.10528430638E+02  0.72461581201E+02  0.70000014208E+02 0.  0.
         12    1    1    2    0    0  0.12938328976E+02  0.85106141168E+01  0.10528430638E+02  0.18726418799E+02  0.00000000000E+00 0. -1.
         11    1    3    3    0    0  0.25575320153E+01  0.13343503847E+02 -0.32872613953E+01  0.13978417387E+02  0.51100000000E-03 0. -1.
        -11    1    3    3    0    0  0.13409712546E+02 -0.13941277728E+02 -0.18213153942E+02  0.26568752173E+02  0.51100000000E-03 0.  1.
        -12    1    3    3    0    0 -0.28905573537E+02 -0.79128402356E+01  0.10971984700E+02  0.31914411640E+02  0.00000000000E+00 0.  1.
</event>
<event>
 7    1  0.1465498E-013  0.7246156E+02  0.7816164E-02  0.1226708E+00
        -11   -1    0    0    0    0  0.00000000000E+00  0.00000000000E+00  0.45593999997E+02  0.45594000000E+02  0.51100000000E-03 0.  1.
         11   -1    0    0    0    0 -0.00000000000E+00 -0.00000000000E+00 -0.45593999997E+02  0.45594000000E+02  0.51100000000E-03 0. -1.
    9900012    2    1    2    0    0 -0.18169794487E+02  0.32560775306E+01  0.31521434330E+01  0.72461561983E+02  0.69999989173E+02 0.  0.
         12    1    1    2    0    0  0.18169794487E+02 -0.32560775306E+01 -0.31521434330E+01  0.18726438017E+02  0.00000000000E+00 0. -1.
         11    1    3    3    0    0 -0.18932122399E+02 -0.85895457174E+01 -0.74730277141E+01  0.22091892124E+02  0.51100000000E-03 0. -1.
        -11    1    3    3    0    0  0.82997017105E+01 -0.16875288339E+02  0.83889386060E+01  0.20592102763E+02  0.51100000000E-03 0.  1.
        -12    1    3    3    0    0 -0.75373737984E+01  0.28720911587E+02  0.22362325412E+01  0.29777567096E+02  0.00000000000E+00 0.  1.
</event>
<event>
 7    1  0.1465498E-013  0.7246158E+02  0.7816164E-02  0.1226708E+00
        -11   -1    0    0    0    0  0.00000000000E+00  0.00000000000E+00  0.45593999997E+02  0.45594000000E+02  0.51100000000E-03 0. -1.
         11   -1    0    0    0    0 -0.00000000000E+00 -0.00000000000E+00 -0.45593999997E+02  0.45594000000E+02  0.51100000000E-03 0.  1.
    9900012    2    1    2    0    0 -0.24666886865E+01 -0.58157508205E+01 -0.17628706725E+02  0.72461579854E+02  0.70000012454E+02 0.  0.
         12    1    1    2    0    0  0.24666886865E+01  0.58157508205E+01  0.17628706725E+02  0.18726420146E+02  0.00000000000E+00 0. -1.
         11    1    3    3    0    0  0.11388210893E+02 -0.24677909165E+02 -0.11496329042E+02  0.29510271599E+02  0.51100000000E-03 0. -1.
        -11    1    3    3    0    0 -0.31324682055E+01 -0.97268806596E+01 -0.70317156644E+01  0.12404418159E+02  0.51100000000E-03 0.  1.
         12    1    3    3    0    0 -0.10722431374E+02  0.28589039004E+02  0.89933798184E+00  0.30546890096E+02  0.00000000000E+00 0. -1.
</event>
<event>
 7    1  0.1465498E-013  0.7246154E+02  0.7816164E-02  0.1226708E+00
        -11   -1    0    0    0    0  0.00000000000E+00  0.00000000000E+00  0.45593999997E+02  0.45594000000E+02  0.51100000000E-03 0. -1.
         11   -1    0    0    0    0 -0.00000000000E+00 -0.00000000000E+00 -0.45593999997E+02  0.45594000000E+02  0.51100000000E-03 0.  1.
    9900012    2    1    2    0    0  0.13058519688E+01  0.12674859476E+02 -0.13723080233E+02  0.72461541627E+02  0.69999962656E+02 0.  0.
         12    1    1    2    0    0 -0.13058519688E+01 -0.12674859476E+02  0.13723080233E+02  0.18726458373E+02  0.00000000000E+00 0. -1.
         11    1    3    3    0    0 -0.90925626958E+01  0.49109292890E+01  0.30033031823E+01  0.10761586924E+02  0.51100000000E-03 0. -1.
        -11    1    3    3    0    0 -0.66768616159E+01 -0.99128441481E+01  0.16498639586E+02  0.20372777635E+02  0.51100000000E-03 0.  1.
        -12    1    3    3    0    0  0.17075276281E+02  0.17676774335E+02 -0.33225023001E+02  0.41327177068E+02  0.00000000000E+00 0.  1.
</event>
<event>
 7    1  0.1465498E-013  0.7246177E+02  0.7816164E-02  0.1226707E+00
        -11   -1    0    0    0    0  0.00000000000E+00  0.00000000000E+00  0.45593999997E+02  0.45594000000E+02  0.51100000000E-03 0. -1.
         11   -1    0    0    0    0 -0.00000000000E+00 -0.00000000000E+00 -0.45593999997E+02  0.45594000000E+02  0.51100000000E-03 0.  1.
    9900012    2    1    2    0    0 -0.11705495621E+02 -0.14611691647E+02 -0.38946174696E+00  0.72461765970E+02  0.70000254903E+02 0.  0.
         12    1    1    2    0    0  0.11705495621E+02  0.14611691647E+02  0.38946174696E+00  0.18726234030E+02  0.00000000000E+00 0. -1.
         11    1    3    3    0    0  0.76348317719E+01 -0.18186302685E+02  0.19602222585E+02  0.27807901612E+02  0.51100000000E-03 0. -1.
        -11    1    3    3    0    0 -0.11483951638E+02 -0.92853908461E+01  0.48965069923E+01  0.15558772746E+02  0.51100000000E-03 0.  1.
        -12    1    3    3    0    0 -0.78563757549E+01  0.12860001884E+02 -0.24888191324E+02  0.29095091611E+02  0.00000000000E+00 0.  1.
</event>
<event>
 7    1  0.1465498E-013  0.7246148E+02  0.7816164E-02  0.1226708E+00
        -11   -1    0    0    0    0  0.00000000000E+00  0.00000000000E+00  0.45593999997E+02  0.45594000000E+02  0.51100000000E-03 0.  1.
         11   -1    0    0    0    0 -0.00000000000E+00 -0.00000000000E+00 -0.45593999997E+02  0.45594000000E+02  0.51100000000E-03 0. -1.
    9900012    2    1    2    0    0 -0.18180277713E+02  0.44780564242E+01  0.32724872296E+00  0.72461479266E+02  0.69999881419E+02 0.  0.
         12    1    1    2    0    0  0.18180277713E+02 -0.44780564242E+01 -0.32724872296E+00  0.18726520734E+02  0.00000000000E+00 0. -1.
         11    1    3    3    0    0 -0.12763861514E+02  0.77140681180E+01  0.61495267116E+01  0.16131946154E+02  0.51100000000E-03 0. -1.
        -11    1    3    3    0    0 -0.18093135203E+02 -0.40121129978E+00  0.20275601115E+02  0.27177610506E+02  0.51100000000E-03 0.  1.
         12    1    3    3    0    0  0.12676719003E+02 -0.28348003940E+01 -0.26097879104E+02  0.29151922607E+02  0.00000000000E+00 0. -1.
</event>
<event>
 7    1  0.1465498E-013  0.7246165E+02  0.7816164E-02  0.1226708E+00
        -11   -1    0    0    0    0  0.00000000000E+00  0.00000000000E+00  0.45593999997E+02  0.45594000000E+02  0.51100000000E-03 0.  1.
         11   -1    0    0    0    0 -0.00000000000E+00 -0.00000000000E+00 -0.45593999997E+02  0.45594000000E+02  0.51100000000E-03 0. -1.
    9900012    2    1    2    0    0 -0.94165371624E+00 -0.53916980608E+01  0.17908627174E+02  0.72461653667E+02  0.70000108609E+02 0.  0.
         12    1    1    2    0    0  0.94165371624E+00  0.53916980608E+01 -0.17908627174E+02  0.18726346333E+02  0.00000000000E+00 0. -1.
         11    1    3    3    0    0 -0.92954186397E+01  0.53629669967E+00  0.35543883772E+02  0.36743163932E+02  0.51100000000E-03 0. -1.
        -11    1    3    3    0    0  0.33327519489E+01 -0.13337371451E+01  0.82268367915E+01  0.89759085435E+01  0.51100000000E-03 0.  1.
        -12    1    3    3    0    0  0.50210129745E+01 -0.45942576154E+01 -0.25862093389E+02  0.26742581192E+02  0.00000000000E+00 0.  1.
</event>
<event>
 7    1  0.1465498E-013  0.7246155E+02  0.7816164E-02  0.1226708E+00
        -11   -1    0    0    0    0  0.00000000000E+00  0.00000000000E+00  0.45593999997E+02  0.45594000000E+02  0.51100000000E-03 0. -1.
         11   -1    0    0    0    0 -0.00000000000E+00 -0.00000000000E+00 -0.45593999997E+02  0.45594000000E+02  0.51100000000E-03 0.  1.
    9900012    2    1    2    0    0  0.21318217962E+01  0.13979724300E+02 -0.12276104444E+02  0.72461545558E+02  0.69999967776E+02 0.  0.
         12    1    1    2    0    0 -0.21318217962E+01 -0.13979724300E+02  0.12276104444E+02  0.18726454442E+02  0.00000000000E+00 0. -1.
         11    1    3    3    0    0  0.18441826681E+01 -0.24633768214E+01 -0.48910268872E+01  0.57785274378E+01  0.51100000000E-03 0. -1.
        -11    1    3    3    0    0 -0.57923730972E+01  0.35267211619E+01 -0.34970787089E+02  0.35622258465E+02  0.51100000000E-03 0.  1.
         12    1    3    3    0    0  0.60800122253E+01  0.12916379959E+02  0.27585709533E+02  0.31060759655E+02  0.00000000000E+00 0. -1.
</event>
<event>
 7    1  0.1465498E-013  0.7246179E+02  0.7816164E-02  0.1226707E+00
        -11   -1    0    0    0    0  0.00000000000E+00  0.00000000000E+00  0.45593999997E+02  0.45594000000E+02  0.51100000000E-03 0.  1.
         11   -1    0    0    0    0 -0.00000000000E+00 -0.00000000000E+00 -0.45593999997E+02  0.45594000000E+02  0.51100000000E-03 0. -1.
    9900012    2    1    2    0    0 -0.14744599815E+02 -0.11463225863E+02 -0.13646223217E+01  0.72461789359E+02  0.70000285372E+02 0.  0.
         12    1    1    2    0    0  0.14744599815E+02  0.11463225863E+02  0.13646223217E+01  0.18726210641E+02  0.00000000000E+00 0. -1.
         11    1    3    3    0    0 -0.19631708833E+02 -0.53446512902E+01 -0.15716292042E+02  0.25709358703E+02  0.51100000000E-03 0. -1.
        -11    1    3    3    0    0 -0.18096588241E+02 -0.43364324867E+01  0.14672454576E+02  0.23697512026E+02  0.51100000000E-03 0.  1.
        -12    1    3    3    0    0  0.22983697259E+02 -0.17821420861E+01 -0.32078485629E+00  0.23054918630E+02  0.00000000000E+00 0.  1.
</event>
<event>
 7    1  0.1465498E-013  0.7246158E+02  0.7816164E-02  0.1226708E+00
        -11   -1    0    0    0    0  0.00000000000E+00  0.00000000000E+00  0.45593999997E+02  0.45594000000E+02  0.51100000000E-03 0.  1.
         11   -1    0    0    0    0 -0.00000000000E+00 -0.00000000000E+00 -0.45593999997E+02  0.45594000000E+02  0.51100000000E-03 0. -1.
    9900012    2    1    2    0    0  0.21935214539E+01 -0.37775352412E+01  0.18209814174E+02  0.72461584403E+02  0.70000018379E+02 0.  0.
         12    1    1    2    0    0 -0.21935214539E+01  0.37775352412E+01 -0.18209814174E+02  0.18726415597E+02  0.00000000000E+00 0. -1.
         11    1    3    3    0    0  0.17916995377E+02 -0.22743163466E+02  0.13302986238E+02  0.31862825533E+02  0.51100000000E-03 0. -1.
        -11    1    3    3    0    0  0.27438247941E+01 -0.72108154260E+01  0.36602215845E+01  0.85394177739E+01  0.51100000000E-03 0.  1.
        -12    1    3    3    0    0 -0.18467298718E+02  0.26176443651E+02  0.12466063510E+01  0.32059341097E+02  0.00000000000E+00 0.  1.
</event>
<event>
 7    1  0.1465498E-013  0.7246153E+02  0.7816164E-02  0.1226708E+00
        -11   -1    0    0    0    0  0.00000000000E+00  0.00000000000E+00  0.45593999997E+02  0.45594000000E+02  0.51100000000E-03 0.  1.
         11   -1    0    0    0    0 -0.00000000000E+00 -0.00000000000E+00 -0.45593999997E+02  0.45594000000E+02  0.51100000000E-03 0. -1.
    9900012    2    1    2    0    0 -0.10979470020E+02 -0.11338969537E+02 -0.10077684746E+02  0.72461528844E+02  0.69999946004E+02 0.  0.
         12    1    1    2    0    0  0.10979470020E+02  0.11338969537E+02  0.10077684746E+02  0.18726471156E+02  0.00000000000E+00 0. -1.
         11    1    3    3    0    0  0.80010217172E+00  0.10618694402E+02 -0.13973340266E+02  0.17568468139E+02  0.51100000000E-03 0. -1.
        -11    1    3    3    0    0  0.65824501742E+01  0.85309407506E+00 -0.17440923437E+02  0.18661249433E+02  0.51100000000E-03 0.  1.
        -12    1    3    3    0    0 -0.18362022366E+02 -0.22810758015E+02  0.21336578956E+02  0.36231811273E+02  0.00000000000E+00 0.  1.
</event>
<event>
 7    1  0.1465498E-013  0.7246156E+02  0.7816164E-02  0.1226708E+00
        -11   -1    0    0    0    0  0.00000000000E+00  0.00000000000E+00  0.45593999997E+02  0.45594000000E+02  0.51100000000E-03 0.  1.
         11   -1    0    0    0    0 -0.00000000000E+00 -0.00000000000E+00 -0.45593999997E+02  0.45594000000E+02  0.51100000000E-03 0. -1.
    9900012    2    1    2    0    0  0.44948293086E+01 -0.87783238131E+01  0.15919083881E+02  0.72461556369E+02  0.69999981859E+02 0.  0.
         12    1    1    2    0    0 -0.44948293086E+01  0.87783238131E+01 -0.15919083881E+02  0.18726443631E+02  0.00000000000E+00 0. -1.
         11    1    3    3    0    0 -0.58237886806E+01  0.44112377603E+01 -0.26865480534E+01  0.77841553092E+01  0.51100000000E-03 0. -1.
        -11    1    3    3    0    0  0.19899222314E+01 -0.30494208431E+02  0.29603419965E+02  0.42546668639E+02  0.51100000000E-03 0.  1.
         12    1    3    3    0    0  0.83286957579E+01  0.17304646858E+02 -0.10997788031E+02  0.22130732421E+02  0.00000000000E+00 0. -1.
</event>
<event>
 7    1  0.1465498E-013  0.7246153E+02  0.7816164E-02  0.1226708E+00
        -11   -1    0    0    0    0  0.00000000000E+00  0.00000000000E+00  0.45593999997E+02  0.45594000000E+02  0.51100000000E-03 0. -1.
         11   -1    0    0    0    0 -0.00000000000E+00 -0.00000000000E+00 -0.45593999997E+02  0.45594000000E+02  0.51100000000E-03 0.  1.
    9900012    2    1    2    0    0 -0.46222294494E+00 -0.95730159901E+01 -0.16088016784E+02  0.72461532922E+02  0.69999951315E+02 0.  0.
         12    1    1    2    0    0  0.46222294494E+00  0.95730159901E+01  0.16088016784E+02  0.18726467078E+02  0.00000000000E+00 0. -1.
         11    1    3    3    0    0  0.12284207824E+02  0.52584843038E+01 -0.11976750225E+02  0.17944246021E+02  0.51100000000E-03 0. -1.
        -11    1    3    3    0    0 -0.13796351909E+01 -0.33698649273E+01 -0.26592673348E+02  0.26840820758E+02  0.51100000000E-03 0.  1.
         12    1    3    3    0    0 -0.11366795578E+02 -0.11461635367E+02  0.22481406789E+02  0.27676466144E+02  0.00000000000E+00 0. -1.
</event>
<event>
 7    1  0.1465498E-013  0.7246157E+02  0.7816164E-02  0.1226708E+00
        -11   -1    0    0    0    0  0.00000000000E+00  0.00000000000E+00  0.45593999997E+02  0.45594000000E+02  0.51100000000E-03 0. -1.
         11   -1    0    0    0    0 -0.00000000000E+00 -0.00000000000E+00 -0.45593999997E+02  0.45594000000E+02  0.51100000000E-03 0.  1.
    9900012    2    1    2    0    0 -0.77886799966E+01 -0.14341724507E+01 -0.16969350558E+02  0.72461568277E+02  0.69999997372E+02 0.  0.
         12    1    1    2    0    0  0.77886799966E+01  0.14341724507E+01  0.16969350558E+02  0.18726431723E+02  0.00000000000E+00 0. -1.
         11    1    3    3    0    0 -0.19250778521E+02 -0.30855830099E+01 -0.10449001184E+02  0.22120011803E+02  0.51100000000E-03 0. -1.
        -11    1    3    3    0    0 -0.16543808634E+01  0.60559848065E+01 -0.25832515554E+02  0.26584408742E+02  0.51100000000E-03 0.  1.
         12    1    3    3    0    0  0.13116479387E+02 -0.44045742473E+01  0.19312166180E+02  0.23757147733E+02  0.00000000000E+00 0. -1.
</event>
<event>
 7    1  0.1465498E-013  0.7246136E+02  0.7816164E-02  0.1226709E+00
        -11   -1    0    0    0    0  0.00000000000E+00  0.00000000000E+00  0.45593999997E+02  0.45594000000E+02  0.51100000000E-03 0.  1.
         11   -1    0    0    0    0 -0.00000000000E+00 -0.00000000000E+00 -0.45593999997E+02  0.45594000000E+02  0.51100000000E-03 0. -1.
    9900012    2    1    2    0    0 -0.10201467755E+02 -0.15703757322E+02  0.95369173997E-01  0.72461360321E+02  0.69999726470E+02 0.  0.
         12    1    1    2    0    0  0.10201467755E+02  0.15703757322E+02 -0.95369173997E-01  0.18726639679E+02  0.00000000000E+00 0. -1.
         11    1    3    3    0    0  0.27296064689E+01  0.13463264132E+02 -0.82843541085E+01  0.16041843904E+02  0.51100000000E-03 0. -1.
        -11    1    3    3    0    0 -0.13645743389E+02  0.88262160207E+01  0.86678414548E+01  0.18418465670E+02  0.51100000000E-03 0.  1.
         12    1    3    3    0    0  0.71466916550E+00 -0.37993237475E+02 -0.28811817227E+00  0.38001050748E+02  0.00000000000E+00 0. -1.
</event>
<event>
 7    1  0.1465498E-013  0.7246154E+02  0.7816164E-02  0.1226708E+00
        -11   -1    0    0    0    0  0.00000000000E+00  0.00000000000E+00  0.45593999997E+02  0.45594000000E+02  0.51100000000E-03 0.  1.
         11   -1    0    0    0    0 -0.00000000000E+00 -0.00000000000E+00 -0.45593999997E+02  0.45594000000E+02  0.51100000000E-03 0. -1.
    9900012    2    1    2    0    0  0.10493133097E+02 -0.10075156805E+02  0.11792606631E+02  0.72461542834E+02  0.69999964228E+02 0.  0.
         12    1    1    2    0    0 -0.10493133097E+02  0.10075156805E+02 -0.11792606631E+02  0.18726457166E+02  0.00000000000E+00 0. -1.
         11    1    3    3    0    0  0.14490213567E+02 -0.35429269161E+02 -0.60801499919E+01  0.38757807300E+02  0.51100000000E-03 0. -1.
        -11    1    3    3    0    0  0.45415786504E+01  0.85658712540E+01  0.69712909711E+01  0.11941481694E+02  0.51100000000E-03 0.  1.
        -12    1    3    3    0    0 -0.85386591200E+01  0.16788241102E+02  0.10901465652E+02  0.21762253840E+02  0.00000000000E+00 0.  1.
</event>
<event>
 7    1  0.1465498E-013  0.7246158E+02  0.7816164E-02  0.1226708E+00
        -11   -1    0    0    0    0  0.00000000000E+00  0.00000000000E+00  0.45593999997E+02  0.45594000000E+02  0.51100000000E-03 0. -1.
         11   -1    0    0    0    0 -0.00000000000E+00 -0.00000000000E+00 -0.45593999997E+02  0.45594000000E+02  0.51100000000E-03 0.  1.
    9900012    2    1    2    0    0  0.16146043904E+02 -0.35979547679E+01 -0.87771737465E+01  0.72461580394E+02  0.70000013157E+02 0.  0.
         12    1    1    2    0    0 -0.16146043904E+02  0.35979547679E+01  0.87771737465E+01  0.18726419606E+02  0.00000000000E+00 0. -1.
         11    1    3    3    0    0  0.35573901353E+01 -0.22570877152E+02  0.17407844105E+02  0.28725120655E+02  0.51100000000E-03 0. -1.
        -11    1    3    3    0    0 -0.20672587995E+01 -0.56930885371E+01 -0.25830560201E+01  0.65846028506E+01  0.51100000000E-03 0.  1.
        -12    1    3    3    0    0  0.14655912568E+02  0.24666010921E+02 -0.23601961832E+02  0.37151856889E+02  0.00000000000E+00 0.  1.
</event>
<event>
 7    1  0.1465498E-013  0.7246157E+02  0.7816164E-02  0.1226708E+00
        -11   -1    0    0    0    0  0.00000000000E+00  0.00000000000E+00  0.45593999997E+02  0.45594000000E+02  0.51100000000E-03 0.  1.
         11   -1    0    0    0    0 -0.00000000000E+00 -0.00000000000E+00 -0.45593999997E+02  0.45594000000E+02  0.51100000000E-03 0. -1.
    9900012    2    1    2    0    0  0.62231216995E+01  0.15884476453E+02  0.77224025541E+01  0.72461565821E+02  0.69999994172E+02 0.  0.
         12    1    1    2    0    0 -0.62231216995E+01 -0.15884476453E+02 -0.77224025541E+01  0.18726434179E+02  0.00000000000E+00 0. -1.
         11    1    3    3    0    0  0.12653688884E+02 -0.84316583245E+00 -0.75842801676E+01  0.14776605731E+02  0.51100000000E-03 0. -1.
        -11    1    3    3    0    0 -0.86503764668E+01  0.18983612502E+02 -0.15955017903E+02  0.26263456612E+02  0.51100000000E-03 0.  1.
        -12    1    3    3    0    0  0.22198092819E+01 -0.22559702170E+01  0.31261700625E+02  0.31421503478E+02  0.00000000000E+00 0.  1.
</event>
<event>
 7    1  0.1465498E-013  0.7246160E+02  0.7816164E-02  0.1226708E+00
        -11   -1    0    0    0    0  0.00000000000E+00  0.00000000000E+00  0.45593999997E+02  0.45594000000E+02  0.51100000000E-03 0. -1.
         11   -1    0    0    0    0 -0.00000000000E+00 -0.00000000000E+00 -0.45593999997E+02  0.45594000000E+02  0.51100000000E-03 0.  1.
    9900012    2    1    2    0    0 -0.10456883735E+02 -0.24179012125E+01 -0.15345531553E+02  0.72461601457E+02  0.70000040595E+02 0.  0.
         12    1    1    2    0    0  0.10456883735E+02  0.24179012125E+01  0.15345531553E+02  0.18726398543E+02  0.00000000000E+00 0. -1.
         11    1    3    3    0    0  0.80722133643E+00 -0.66609761150E+00  0.23399090545E+01  0.25632922109E+01  0.51100000000E-03 0. -1.
        -11    1    3    3    0    0 -0.15454634887E+02 -0.28420151394E+02 -0.26159734722E+02  0.41603875609E+02  0.51100000000E-03 0.  1.
         12    1    3    3    0    0  0.41905298149E+01  0.26668347793E+02  0.84742941140E+01  0.28294433637E+02  0.00000000000E+00 0. -1.
</event>
<event>
 7    1  0.1465498E-013  0.7246153E+02  0.7816164E-02  0.1226708E+00
        -11   -1    0    0    0    0  0.00000000000E+00  0.00000000000E+00  0.45593999997E+02  0.45594000000E+02  0.51100000000E-03 0. -1.
         11   -1    0    0    0    0 -0.00000000000E+00 -0.00000000000E+00 -0.45593999997E+02  0.45594000000E+02  0.51100000000E-03 0.  1.
    9900012    2    1    2    0    0  0.20471667829E+01 -0.97563196197E+00 -0.18588652186E+02  0.72461528371E+02  0.69999945387E+02 0.  0.
         12    1    1    2    0    0 -0.20471667829E+01  0.97563196197E+00  0.18588652186E+02  0.18726471629E+02  0.00000000000E+00 0. -1.
         11    1    3    3    0    0  0.14006754313E+02  0.12384672686E+02 -0.23081843140E+02  0.29704221366E+02  0.51100000000E-03 0. -1.
        -11    1    3    3    0    0 -0.21538853813E+01  0.10867854708E+02  0.11220066116E+02  0.15768302765E+02  0.51100000000E-03 0.  1.
        -12    1    3    3    0    0 -0.98057021489E+01 -0.24228159356E+02 -0.67268751625E+01  0.26989004240E+02  0.00000000000E+00 0.  1.
</event>
<event>
 7    1  0.1465498E-013  0.7246121E+02  0.7816164E-02  0.1226709E+00
        -11   -1    0    0    0    0  0.00000000000E+00  0.00000000000E+00  0.45593999997E+02  0.45594000000E+02  0.51100000000E-03 0.  1.
         11   -1    0    0    0    0 -0.00000000000E+00 -0.00000000000E+00 -0.45593999997E+02  0.45594000000E+02  0.51100000000E-03 0. -1.
    9900012    2    1    2    0    0 -0.30133948446E+01 -0.11602491310E+02  0.14387293578E+02  0.72461212513E+02  0.69999533922E+02 0.  0.
         12    1    1    2    0    0  0.30133948446E+01  0.11602491310E+02 -0.14387293578E+02  0.18726787487E+02  0.00000000000E+00 0. -1.
         11    1    3    3    0    0 -0.47454921336E+01 -0.12827855166E+02 -0.20175464448E+02  0.24374637017E+02  0.51100000000E-03 0. -1.
        -11    1    3    3    0    0 -0.13418768409E+02  0.48086598088E+01  0.58171982481E+01  0.15395660118E+02  0.51100000000E-03 0.  1.
        -12    1    3    3    0    0  0.15150865698E+02 -0.35832959526E+01  0.28745559778E+02  0.32690915377E+02  0.00000000000E+00 0.  1.
</event>
<event>
 7    1  0.1465498E-013  0.7246161E+02  0.7816164E-02  0.1226708E+00
        -11   -1    0    0    0    0  0.00000000000E+00  0.00000000000E+00  0.45593999997E+02  0.45594000000E+02  0.51100000000E-03 0.  1.
         11   -1    0    0    0    0 -0.00000000000E+00 -0.00000000000E+00 -0.45593999997E+02  0.45594000000E+02  0.51100000000E-03 0. -1.
    9900012    2    1    2    0    0  0.10799251905E+02 -0.13630925720E+02  0.69463353332E+01  0.72461613476E+02  0.70000056252E+02 0.  0.
         12    1    1    2    0    0 -0.10799251905E+02  0.13630925720E+02 -0.69463353332E+01  0.18726386524E+02  0.00000000000E+00 0. -1.
         11    1    3    3    0    0 -0.79721298033E+01 -0.16714915866E+02 -0.15274112105E+02  0.24005036282E+02  0.51100000000E-03 0. -1.
        -11    1    3    3    0    0  0.13307998444E+02 -0.16512604919E+02  0.49672016127E+01  0.21781690383E+02  0.51100000000E-03 0.  1.
         12    1    3    3    0    0  0.54633832637E+01  0.19596595066E+02  0.17253245826E+02  0.26674886811E+02  0.00000000000E+00 0. -1.
</event>
<event>
 7    1  0.1465498E-013  0.7246113E+02  0.7816164E-02  0.1226709E+00
        -11   -1    0    0    0    0  0.00000000000E+00  0.00000000000E+00  0.45593999997E+02  0.45594000000E+02  0.51100000000E-03 0.  1.
         11   -1    0    0    0    0 -0.00000000000E+00 -0.00000000000E+00 -0.45593999997E+02  0.45594000000E+02  0.51100000000E-03 0. -1.
    9900012    2    1    2    0    0  0.32111651403E+01 -0.17564265425E+02 -0.56463071098E+01  0.72461126650E+02  0.69999422069E+02 0.  0.
         12    1    1    2    0    0 -0.32111651403E+01  0.17564265425E+02  0.56463071098E+01  0.18726873350E+02  0.00000000000E+00 0. -1.
         11    1    3    3    0    0 -0.65748327219E+01  0.19973305813E+02  0.39412292178E+01  0.21393799532E+02  0.51100000000E-03 0. -1.
        -11    1    3    3    0    0 -0.90862277339E+01 -0.40976126114E+01  0.34018248966E+01  0.10531969257E+02  0.51100000000E-03 0.  1.
         12    1    3    3    0    0  0.18872225596E+02 -0.33439958627E+02 -0.12989361224E+02  0.40535357861E+02  0.00000000000E+00 0. -1.
</event>
<event>
 7    1  0.1465498E-013  0.7246157E+02  0.7816164E-02  0.1226708E+00
        -11   -1    0    0    0    0  0.00000000000E+00  0.00000000000E+00  0.45593999997E+02  0.45594000000E+02  0.51100000000E-03 0.  1.
         11   -1    0    0    0    0 -0.00000000000E+00 -0.00000000000E+00 -0.45593999997E+02  0.45594000000E+02  0.51100000000E-03 0. -1.
    9900012    2    1    2    0    0 -0.15189446701E+02 -0.30979861161E+01  0.10505356606E+02  0.72461566103E+02  0.69999994541E+02 0.  0.
         12    1    1    2    0    0  0.15189446701E+02  0.30979861161E+01 -0.10505356606E+02  0.18726433897E+02  0.00000000000E+00 0. -1.
         11    1    3    3    0    0 -0.64227148009E+01 -0.14314408786E+02 -0.37201357547E+01  0.16124297647E+02  0.51100000000E-03 0. -1.
        -11    1    3    3    0    0 -0.24506980438E+02 -0.11333875905E+02  0.75974095049E+01  0.28049411129E+02  0.51100000000E-03 0.  1.
         12    1    3    3    0    0  0.15740248537E+02  0.22550298576E+02  0.66280828554E+01  0.28287857328E+02  0.00000000000E+00 0. -1.
</event>
<event>
 7    1  0.1465498E-013  0.7246163E+02  0.7816164E-02  0.1226708E+00
        -11   -1    0    0    0    0  0.00000000000E+00  0.00000000000E+00  0.45593999997E+02  0.45594000000E+02  0.51100000000E-03 0.  1.
         11   -1    0    0    0    0 -0.00000000000E+00 -0.00000000000E+00 -0.45593999997E+02  0.45594000000E+02  0.51100000000E-03 0. -1.
    9900012    2    1    2    0    0 -0.14645446776E+02  0.39695920105E+01  0.10974075350E+02  0.72461625503E+02  0.70000071920E+02 0.  0.
         12    1    1    2    0    0  0.14645446776E+02 -0.39695920105E+01 -0.10974075350E+02  0.18726374497E+02  0.00000000000E+00 0. -1.
         11    1    3    3    0    0 -0.85687103139E+01  0.11969869219E+02  0.20559181736E+02  0.25285974758E+02  0.51100000000E-03 0. -1.
        -11    1    3    3    0    0 -0.20347339802E+02 -0.17888037829E+02  0.50123650386E+00  0.27096999330E+02  0.51100000000E-03 0.  1.
         12    1    3    3    0    0  0.14270603340E+02  0.98877606211E+01 -0.10086342889E+02  0.20078651416E+02  0.00000000000E+00 0. -1.
</event>
<event>
 7    1  0.1465498E-013  0.7246160E+02  0.7816164E-02  0.1226708E+00
        -11   -1    0    0    0    0  0.00000000000E+00  0.00000000000E+00  0.45593999997E+02  0.45594000000E+02  0.51100000000E-03 0.  1.
         11   -1    0    0    0    0 -0.00000000000E+00 -0.00000000000E+00 -0.45593999997E+02  0.45594000000E+02  0.51100000000E-03 0. -1.
    9900012    2    1    2    0    0  0.37609275472E+01 -0.18058513376E+02  0.32285333799E+01  0.72461603947E+02  0.70000043838E+02 0.  0.
         12    1    1    2    0    0 -0.37609275472E+01  0.18058513376E+02 -0.32285333799E+01  0.18726396053E+02  0.00000000000E+00 0. -1.
         11    1    3    3    0    0  0.57636618906E+01 -0.74228406581E+01 -0.22944383524E+02  0.24794416658E+02  0.51100000000E-03 0. -1.
        -11    1    3    3    0    0 -0.13582332629E+02 -0.19621562331E+02  0.10095872935E+02  0.25911621302E+02  0.51100000000E-03 0.  1.
        -12    1    3    3    0    0  0.11579598285E+02  0.89858896131E+01  0.16077043970E+02  0.21755565986E+02  0.00000000000E+00 0.  1.
</event>
<event>
 7    1  0.1465498E-013  0.7246165E+02  0.7816164E-02  0.1226708E+00
        -11   -1    0    0    0    0  0.00000000000E+00  0.00000000000E+00  0.45593999997E+02  0.45594000000E+02  0.51100000000E-03 0. -1.
         11   -1    0    0    0    0 -0.00000000000E+00 -0.00000000000E+00 -0.45593999997E+02  0.45594000000E+02  0.51100000000E-03 0.  1.
    9900012    2    1    2    0    0  0.78754417956E+01 -0.13359567017E+01 -0.16937198760E+02  0.72461653169E+02  0.70000107960E+02 0.  0.
         12    1    1    2    0    0 -0.78754417956E+01  0.13359567017E+01  0.16937198760E+02  0.18726346831E+02  0.00000000000E+00 0. -1.
         11    1    3    3    0    0  0.33781393098E+01  0.19524876600E+02 -0.16761415111E+02  0.25953374891E+02  0.51100000000E-03 0. -1.
        -11    1    3    3    0    0  0.28683183606E+01 -0.43126143311E+01 -0.19984936746E+02  0.20645183205E+02  0.51100000000E-03 0.  1.
         12    1    3    3    0    0  0.16289841252E+01 -0.16548218970E+02  0.19809153097E+02  0.25863095073E+02  0.00000000000E+00 0. -1.
</event>
<event>
 7    1  0.1465498E-013  0.7246159E+02  0.7816164E-02  0.1226708E+00
        -11   -1    0    0    0    0  0.00000000000E+00  0.00000000000E+00  0.45593999997E+02  0.45594000000E+02  0.51100000000E-03 0. -1.
         11   -1    0    0    0    0 -0.00000000000E+00 -0.00000000000E+00 -0.45593999997E+02  0.45594000000E+02  0.51100000000E-03 0.  1.
    9900012    2    1    2    0    0  0.16967680130E+02  0.52280130167E+01  0.59535048369E+01  0.72461587932E+02  0.70000022977E+02 0.  0.
         12    1    1    2    0    0 -0.16967680130E+02 -0.52280130167E+01 -0.59535048369E+01  0.18726412068E+02  0.00000000000E+00 0. -1.
         11    1    3    3    0    0  0.49504619288E+01  0.16474147654E+02 -0.26765879462E+01  0.17408869508E+02  0.51100000000E-03 0. -1.
        -11    1    3    3    0    0  0.19192409239E+02  0.68007926603E+01 -0.14390956859E+02  0.24933892452E+02  0.51100000000E-03 0.  1.
         12    1    3    3    0    0 -0.71751910385E+01 -0.18046927298E+02  0.23021049642E+02  0.30118825973E+02  0.00000000000E+00 0. -1.
</event>
<event>
 7    1  0.1465498E-013  0.7246134E+02  0.7816164E-02  0.1226709E+00
        -11   -1    0    0    0    0  0.00000000000E+00  0.00000000000E+00  0.45593999997E+02  0.45594000000E+02  0.51100000000E-03 0. -1.
         11   -1    0    0    0    0 -0.00000000000E+00 -0.00000000000E+00 -0.45593999997E+02  0.45594000000E+02  0.51100000000E-03 0.  1.
    9900012    2    1    2    0    0 -0.35984440456E+01  0.14140961585E+02 -0.11737639181E+02  0.72461340724E+02  0.69999700942E+02 0.  0.
         12    1    1    2    0    0  0.35984440456E+01 -0.14140961585E+02  0.11737639181E+02  0.18726659276E+02  0.00000000000E+00 0. -1.
         11    1    3    3    0    0  0.33761283372E+01  0.57028311583E+00 -0.21198081524E+02  0.21472822961E+02  0.51100000000E-03 0. -1.
        -11    1    3    3    0    0  0.66954350464E+00 -0.11070322577E+02 -0.12783439041E+02  0.16923848393E+02  0.51100000000E-03 0.  1.
         12    1    3    3    0    0 -0.76441158875E+01  0.24641001046E+02  0.22243881384E+02  0.34064669370E+02  0.00000000000E+00 0. -1.
</event>
<event>
 7    1  0.1465498E-013  0.7246157E+02  0.7816164E-02  0.1226708E+00
        -11   -1    0    0    0    0  0.00000000000E+00  0.00000000000E+00  0.45593999997E+02  0.45594000000E+02  0.51100000000E-03 0.  1.
         11   -1    0    0    0    0 -0.00000000000E+00 -0.00000000000E+00 -0.45593999997E+02  0.45594000000E+02  0.51100000000E-03 0. -1.
    9900012    2    1    2    0    0  0.36277415736E+01 -0.15675252180E+02  0.95814952444E+01  0.72461572393E+02  0.70000002733E+02 0.  0.
         12    1    1    2    0    0 -0.36277415736E+01  0.15675252180E+02 -0.95814952444E+01  0.18726427607E+02  0.00000000000E+00 0. -1.
         11    1    3    3    0    0 -0.57373830576E+01 -0.61405179150E+01 -0.15389076396E+01  0.85435216157E+01  0.51100000000E-03 0. -1.
        -11    1    3    3    0    0  0.32235349921E+02 -0.19678587769E+02  0.88935206954E+01  0.38800248862E+02  0.51100000000E-03 0.  1.
         12    1    3    3    0    0 -0.22870225290E+02  0.10143853504E+02  0.22268821886E+01  0.25117801915E+02  0.00000000000E+00 0. -1.
</event>
<event>
 7    1  0.1726684E-013  0.7246135E+02  0.7816164E-02  0.1226709E+00
        -11   -1    0    0    0    0  0.00000000000E+00  0.00000000000E+00  0.45593999997E+02  0.45594000000E+02  0.51100000000E-03 0. -1.
         11   -1    0    0    0    0 -0.00000000000E+00 -0.00000000000E+00 -0.45593999997E+02  0.45594000000E+02  0.51100000000E-03 0.  1.
    9900012    2    1    2    0    0  0.14027843593E+02  0.86737490820E+01 -0.88697830475E+01  0.72461351332E+02  0.69999714761E+02 0.  0.
         12    1    1    2    0    0 -0.14027843593E+02 -0.86737490820E+01  0.88697830475E+01  0.18726648668E+02  0.00000000000E+00 0. -1.
         11    1    3    3    0    0  0.19463437940E+02 -0.18993754434E+02 -0.16928251866E+01  0.27248005089E+02  0.51100000000E-03 0. -1.
        -11    1    3    3    0    0 -0.97222584268E+01 -0.54826964815E+01 -0.85308940803E+00  0.11194196328E+02  0.51100000000E-03 0.  1.
        -12    1    3    3    0    0  0.42866640795E+01  0.33150199997E+02 -0.63238684528E+01  0.34019149916E+02  0.00000000000E+00 0.  1.
</event>
<event>
 7    1  0.1465498E-013  0.7246156E+02  0.7816164E-02  0.1226708E+00
        -11   -1    0    0    0    0  0.00000000000E+00  0.00000000000E+00  0.45593999997E+02  0.45594000000E+02  0.51100000000E-03 0.  1.
         11   -1    0    0    0    0 -0.00000000000E+00 -0.00000000000E+00 -0.45593999997E+02  0.45594000000E+02  0.51100000000E-03 0. -1.
    9900012    2    1    2    0    0 -0.15622776658E+02 -0.90703077164E+01 -0.49333333795E+01  0.72461563852E+02  0.69999991608E+02 0.  0.
         12    1    1    2    0    0  0.15622776658E+02  0.90703077164E+01  0.49333333795E+01  0.18726436148E+02  0.00000000000E+00 0. -1.
         11    1    3    3    0    0 -0.18230075604E+02  0.88435268628E+01 -0.19830017924E+02  0.28350894784E+02  0.51100000000E-03 0. -1.
        -11    1    3    3    0    0 -0.11222712015E+02 -0.49938397344E+01 -0.78057978888E+01  0.14553974756E+02  0.51100000000E-03 0.  1.
         12    1    3    3    0    0  0.13830010962E+02 -0.12919994845E+02  0.22702482434E+02  0.29556694312E+02  0.00000000000E+00 0. -1.
</event>
<event>
 7    1  0.1605869E-013  0.7246160E+02  0.7816164E-02  0.1226708E+00
        -11   -1    0    0    0    0  0.00000000000E+00  0.00000000000E+00  0.45593999997E+02  0.45594000000E+02  0.51100000000E-03 0. -1.
         11   -1    0    0    0    0 -0.00000000000E+00 -0.00000000000E+00 -0.45593999997E+02  0.45594000000E+02  0.51100000000E-03 0.  1.
    9900012    2    1    2    0    0 -0.91663995099E+01 -0.82274918717E+01 -0.14105441622E+02  0.72461601899E+02  0.70000041171E+02 0.  0.
         12    1    1    2    0    0  0.91663995099E+01  0.82274918717E+01  0.14105441622E+02  0.18726398101E+02  0.00000000000E+00 0. -1.
         11    1    3    3    0    0  0.10115725343E+02 -0.66664907742E+01  0.15064509283E+02  0.19331565861E+02  0.51100000000E-03 0. -1.
        -11    1    3    3    0    0 -0.86627670790E+01 -0.19213970056E+02 -0.55633311513E+01  0.21798413533E+02  0.51100000000E-03 0.  1.
        -12    1    3    3    0    0 -0.10619357774E+02  0.17652968959E+02 -0.23606619754E+02  0.31331622505E+02  0.00000000000E+00 0.  1.
</event>
<event>
 7    1  0.1465498E-013  0.7246158E+02  0.7816164E-02  0.1226708E+00
        -11   -1    0    0    0    0  0.00000000000E+00  0.00000000000E+00  0.45593999997E+02  0.45594000000E+02  0.51100000000E-03 0. -1.
         11   -1    0    0    0    0 -0.00000000000E+00 -0.00000000000E+00 -0.45593999997E+02  0.45594000000E+02  0.51100000000E-03 0.  1.
    9900012    2    1    2    0    0 -0.85262238969E+01  0.13878534947E+02  0.92395142064E+01  0.72461578853E+02  0.70000011149E+02 0.  0.
         12    1    1    2    0    0  0.85262238969E+01 -0.13878534947E+02 -0.92395142064E+01  0.18726421147E+02  0.00000000000E+00 0. -1.
         11    1    3    3    0    0  0.18609355574E+02  0.15558734256E+02  0.13127900681E+02  0.27581227367E+02  0.51100000000E-03 0. -1.
        -11    1    3    3    0    0  0.15334071057E+00 -0.15468931603E+01 -0.15243767527E+02  0.15322820905E+02  0.51100000000E-03 0.  1.
        -12    1    3    3    0    0 -0.27288920181E+02 -0.13330614864E+00  0.11355381052E+02  0.29557530581E+02  0.00000000000E+00 0.  1.
</event>
<event>
 7    1  0.1897388E-013  0.7246157E+02  0.7816164E-02  0.1226708E+00
        -11   -1    0    0    0    0  0.00000000000E+00  0.00000000000E+00  0.45593999997E+02  0.45594000000E+02  0.51100000000E-03 0.  1.
         11   -1    0    0    0    0 -0.00000000000E+00 -0.00000000000E+00 -0.45593999997E+02  0.45594000000E+02  0.51100000000E-03 0. -1.
    9900012    2    1    2    0    0  0.53999896878E+01 -0.76983162963E+01  0.16194296456E+02  0.72461569477E+02  0.69999998935E+02 0.  0.
         12    1    1    2    0    0 -0.53999896878E+01  0.76983162963E+01 -0.16194296456E+02  0.18726430523E+02  0.00000000000E+00 0. -1.
         11    1    3    3    0    0 -0.12551370318E+02  0.26010544957E+01 -0.15408681566E+02  0.20043199575E+02  0.51100000000E-03 0. -1.
        -11    1    3    3    0    0 -0.69036894060E+01 -0.14941144836E+02  0.14021976289E+02  0.21622084907E+02  0.51100000000E-03 0.  1.
        -12    1    3    3    0    0  0.24855049412E+02  0.46417740439E+01  0.17581001734E+02  0.30796284995E+02  0.00000000000E+00 0.  1.
</event>
<event>
 7    1  0.1465498E-013  0.7246158E+02  0.7816164E-02  0.1226708E+00
        -11   -1    0    0    0    0  0.00000000000E+00  0.00000000000E+00  0.45593999997E+02  0.45594000000E+02  0.51100000000E-03 0. -1.
         11   -1    0    0    0    0 -0.00000000000E+00 -0.00000000000E+00 -0.45593999997E+02  0.45594000000E+02  0.51100000000E-03 0.  1.
    9900012    2    1    2    0    0  0.85567657846E+01 -0.16388982687E+02 -0.29768756343E+01  0.72461580621E+02  0.70000013453E+02 0.  0.
         12    1    1    2    0    0 -0.85567657846E+01  0.16388982687E+02  0.29768756343E+01  0.18726419379E+02  0.00000000000E+00 0. -1.
         11    1    3    3    0    0 -0.20330188535E+02  0.79499030036E+01  0.10746246979E+02  0.24331036723E+02  0.51100000000E-03 0. -1.
        -11    1    3    3    0    0  0.39959948016E+01  0.50758707377E+01  0.16121098965E+01  0.66581781878E+01  0.51100000000E-03 0.  1.
        -12    1    3    3    0    0  0.24890959518E+02 -0.29414756428E+02 -0.15335232510E+02  0.41472365710E+02  0.00000000000E+00 0.  1.
</event>
<event>
 7    1  0.1465498E-013  0.7246149E+02  0.7816164E-02  0.1226708E+00
        -11   -1    0    0    0    0  0.00000000000E+00  0.00000000000E+00  0.45593999997E+02  0.45594000000E+02  0.51100000000E-03 0.  1.
         11   -1    0    0    0    0 -0.00000000000E+00 -0.00000000000E+00 -0.45593999997E+02  0.45594000000E+02  0.51100000000E-03 0. -1.
    9900012    2    1    2    0    0 -0.13105266722E+02 -0.56492108354E+01 -0.12125208813E+02  0.72461487039E+02  0.69999891545E+02 0.  0.
         12    1    1    2    0    0  0.13105266722E+02  0.56492108354E+01  0.12125208813E+02  0.18726512961E+02  0.00000000000E+00 0. -1.
         11    1    3    3    0    0 -0.74016699454E+01 -0.19693231643E+01  0.61894958068E+01  0.98474773577E+01  0.51100000000E-03 0. -1.
        -11    1    3    3    0    0  0.16378399459E+02 -0.55687881264E+01  0.14800640736E+02  0.22766693578E+02  0.51100000000E-03 0.  1.
         12    1    3    3    0    0 -0.22081996235E+02  0.18889004553E+01 -0.33115345356E+02  0.39847316104E+02  0.00000000000E+00 0. -1.
</event>
<event>
 7    1  0.1465498E-013  0.7246156E+02  0.7816164E-02  0.1226708E+00
        -11   -1    0    0    0    0  0.00000000000E+00  0.00000000000E+00  0.45593999997E+02  0.45594000000E+02  0.51100000000E-03 0.  1.
         11   -1    0    0    0    0 -0.00000000000E+00 -0.00000000000E+00 -0.45593999997E+02  0.45594000000E+02  0.51100000000E-03 0. -1.
    9900012    2    1    2    0    0 -0.17410781701E+02 -0.56582606034E+01  0.39406082647E+01  0.72461558107E+02  0.69999984123E+02 0.  0.
         12    1    1    2    0    0  0.17410781701E+02  0.56582606034E+01 -0.39406082647E+01  0.18726441893E+02  0.00000000000E+00 0. -1.
         11    1    3    3    0    0 -0.12934412796E+02 -0.17951681772E+02 -0.36285548988E+00  0.22129021153E+02  0.51100000000E-03 0. -1.
        -11    1    3    3    0    0 -0.12119589456E+02 -0.15748595867E+02  0.71710193268E+01  0.21126434598E+02  0.51100000000E-03 0.  1.
        -12    1    3    3    0    0  0.76432205518E+01  0.28042017036E+02 -0.28675555722E+01  0.29206102356E+02  0.00000000000E+00 0.  1.
</event>
<event>
 7    1  0.1465498E-013  0.7246162E+02  0.7816164E-02  0.1226708E+00
        -11   -1    0    0    0    0  0.00000000000E+00  0.00000000000E+00  0.45593999997E+02  0.45594000000E+02  0.51100000000E-03 0. -1.
         11   -1    0    0    0    0 -0.00000000000E+00 -0.00000000000E+00 -0.45593999997E+02  0.45594000000E+02  0.51100000000E-03 0.  1.
    9900012    2    1    2    0    0  0.14271507555E+02  0.50420376644E+00 -0.12113924422E+02  0.72461619831E+02  0.70000064531E+02 0.  0.
         12    1    1    2    0    0 -0.14271507555E+02 -0.50420376644E+00  0.12113924422E+02  0.18726380169E+02  0.00000000000E+00 0. -1.
         11    1    3    3    0    0  0.15954014729E+01 -0.37550120294E+00  0.22268145784E+02  0.22328381579E+02  0.51100000000E-03 0. -1.
        -11    1    3    3    0    0  0.17974472137E+02  0.72576305269E+00 -0.29161076097E+01  0.18223942067E+02  0.51100000000E-03 0.  1.
         12    1    3    3    0    0 -0.52983660550E+01  0.15394191670E+00 -0.31465962596E+02  0.31909296186E+02  0.00000000000E+00 0. -1.
</event>
<event>
 7    1  0.1465498E-013  0.7246158E+02  0.7816164E-02  0.1226708E+00
        -11   -1    0    0    0    0  0.00000000000E+00  0.00000000000E+00  0.45593999997E+02  0.45594000000E+02  0.51100000000E-03 0.  1.
         11   -1    0    0    0    0 -0.00000000000E+00 -0.00000000000E+00 -0.45593999997E+02  0.45594000000E+02  0.51100000000E-03 0. -1.
    9900012    2    1    2    0    0  0.40188624221E+01 -0.30626461311E+01  0.18031854322E+02  0.72461579445E+02  0.70000011921E+02 0.  0.
         12    1    1    2    0    0 -0.40188624221E+01  0.30626461311E+01 -0.18031854322E+02  0.18726420555E+02  0.00000000000E+00 0. -1.
         11    1    3    3    0    0 -0.22403865852E+02  0.62430009433E+01  0.42986065731E+01  0.23651348473E+02  0.51100000000E-03 0. -1.
        -11    1    3    3    0    0 -0.78310403351E+00 -0.10402759532E+02  0.18432358017E+02  0.21179765819E+02  0.51100000000E-03 0.  1.
         12    1    3    3    0    0  0.27205832307E+02  0.10971124577E+01 -0.46991102679E+01  0.27630465153E+02  0.00000000000E+00 0. -1.
</event>
<event>
 7    1  0.1465498E-013  0.7246154E+02  0.7816164E-02  0.1226708E+00
        -11   -1    0    0    0    0  0.00000000000E+00  0.00000000000E+00  0.45593999997E+02  0.45594000000E+02  0.51100000000E-03 0.  1.
         11   -1    0    0    0    0 -0.00000000000E+00 -0.00000000000E+00 -0.45593999997E+02  0.45594000000E+02  0.51100000000E-03 0. -1.
    9900012    2    1    2    0    0  0.64914304335E+01  0.16180717217E+02  0.68356404013E+01  0.72461541221E+02  0.69999962126E+02 0.  0.
         12    1    1    2    0    0 -0.64914304335E+01 -0.16180717217E+02 -0.68356404013E+01  0.18726458779E+02  0.00000000000E+00 0. -1.
         11    1    3    3    0    0 -0.87564868367E+01  0.36284577203E+02  0.14156338152E+02  0.39920527485E+02  0.51100000000E-03 0. -1.
        -11    1    3    3    0    0 -0.24818374684E+01 -0.11464964882E+02 -0.75650894676E+00  0.11754881667E+02  0.51100000000E-03 0.  1.
        -12    1    3    3    0    0  0.17729754739E+02 -0.86388951047E+01 -0.65641888040E+01  0.20786132069E+02  0.00000000000E+00 0.  1.
</event>
<event>
 7    1  0.1465498E-013  0.7246154E+02  0.7816164E-02  0.1226708E+00
        -11   -1    0    0    0    0  0.00000000000E+00  0.00000000000E+00  0.45593999997E+02  0.45594000000E+02  0.51100000000E-03 0. -1.
         11   -1    0    0    0    0 -0.00000000000E+00 -0.00000000000E+00 -0.45593999997E+02  0.45594000000E+02  0.51100000000E-03 0.  1.
    9900012    2    1    2    0    0  0.13255387448E+02  0.11457714386E+02  0.66102857907E+01  0.72461537612E+02  0.69999957425E+02 0.  0.
         12    1    1    2    0    0 -0.13255387448E+02 -0.11457714386E+02 -0.66102857907E+01  0.18726462388E+02  0.00000000000E+00 0. -1.
         11    1    3    3    0    0  0.17885297793E+02  0.10508350668E+02 -0.11240129729E+02  0.23593427634E+02  0.51100000000E-03 0.  1.
        -11    1    3    3    0    0  0.16383572382E+02  0.11717613539E+02  0.14938083019E+02  0.25077285252E+02  0.51100000000E-03 0. -1.
         12    1    3    3    0    0 -0.21013482728E+02 -0.10768249821E+02  0.29123325006E+01  0.23790824726E+02  0.00000000000E+00 0. -1.
</event>
<event>
 7    1  0.2004420E-013  0.7246155E+02  0.7816164E-02  0.1226708E+00
        -11   -1    0    0    0    0  0.00000000000E+00  0.00000000000E+00  0.45593999997E+02  0.45594000000E+02  0.51100000000E-03 0.  1.
         11   -1    0    0    0    0 -0.00000000000E+00 -0.00000000000E+00 -0.45593999997E+02  0.45594000000E+02  0.51100000000E-03 0. -1.
    9900012    2    1    2    0    0 -0.13761820910E+02  0.24891374995E+01 -0.12453774860E+02  0.72461547360E+02  0.69999970123E+02 0.  0.
         12    1    1    2    0    0  0.13761820910E+02 -0.24891374995E+01  0.12453774860E+02  0.18726452640E+02  0.00000000000E+00 0. -1.
         11    1    3    3    0    0 -0.10917930507E+02  0.16653948506E+02  0.15835627725E+02  0.25442529613E+02  0.51100000000E-03 0. -1.
        -11    1    3    3    0    0  0.36370290367E+01 -0.72116943004E+01  0.68662631372E+01  0.10601041676E+02  0.51100000000E-03 0.  1.
        -12    1    3    3    0    0 -0.64809194395E+01 -0.69531167061E+01 -0.35155665722E+02  0.36417976070E+02  0.00000000000E+00 0.  1.
</event>
<event>
 7    1  0.1465498E-013  0.7246157E+02  0.7816164E-02  0.1226708E+00
        -11   -1    0    0    0    0  0.00000000000E+00  0.00000000000E+00  0.45593999997E+02  0.45594000000E+02  0.51100000000E-03 0.  1.
         11   -1    0    0    0    0 -0.00000000000E+00 -0.00000000000E+00 -0.45593999997E+02  0.45594000000E+02  0.51100000000E-03 0. -1.
    9900012    2    1    2    0    0  0.32983279800E+01  0.30713730207E-01  0.18433643539E+02  0.72461571485E+02  0.70000001551E+02 0.  0.
         12    1    1    2    0    0 -0.32983279800E+01 -0.30713730207E-01 -0.18433643539E+02  0.18726428515E+02  0.00000000000E+00 0. -1.
         11    1    3    3    0    0 -0.22324124681E+02 -0.79319144952E+01 -0.22872843377E+01  0.23801543653E+02  0.51100000000E-03 0. -1.
        -11    1    3    3    0    0 -0.22264023358E+00  0.10752580599E+02  0.19937140084E+02  0.22652971399E+02  0.51100000000E-03 0.  1.
         12    1    3    3    0    0  0.25845092895E+02 -0.27899523737E+01  0.78378779307E+00  0.26007056433E+02  0.00000000000E+00 0. -1.
</event>
<event>
 7    1  0.1465498E-013  0.7246157E+02  0.7816164E-02  0.1226708E+00
        -11   -1    0    0    0    0  0.00000000000E+00  0.00000000000E+00  0.45593999997E+02  0.45594000000E+02  0.51100000000E-03 0. -1.
         11   -1    0    0    0    0 -0.00000000000E+00 -0.00000000000E+00 -0.45593999997E+02  0.45594000000E+02  0.51100000000E-03 0.  1.
    9900012    2    1    2    0    0 -0.14440044457E+02  0.55105445341E+01 -0.10573474981E+02  0.72461565258E+02  0.69999993439E+02 0.  0.
         12    1    1    2    0    0  0.14440044457E+02 -0.55105445341E+01  0.10573474981E+02  0.18726434742E+02  0.00000000000E+00 0. -1.
         11    1    3    3    0    0  0.11463108994E+02 -0.58266662385E+01 -0.10967608271E+02  0.16900927155E+02  0.51100000000E-03 0. -1.
        -11    1    3    3    0    0 -0.11118736483E+02  0.11214304008E+02 -0.22991927936E+02  0.27892932184E+02  0.51100000000E-03 0.  1.
         12    1    3    3    0    0 -0.14784416968E+02  0.12290676414E+00  0.23386061225E+02  0.27667705918E+02  0.00000000000E+00 0. -1.
</event>
<event>
 7    1  0.1465498E-013  0.7246157E+02  0.7816164E-02  0.1226708E+00
        -11   -1    0    0    0    0  0.00000000000E+00  0.00000000000E+00  0.45593999997E+02  0.45594000000E+02  0.51100000000E-03 0.  1.
         11   -1    0    0    0    0 -0.00000000000E+00 -0.00000000000E+00 -0.45593999997E+02  0.45594000000E+02  0.51100000000E-03 0. -1.
    9900012    2    1    2    0    0 -0.14116190359E+02  0.54864819879E+01  0.11014117677E+02  0.72461572069E+02  0.70000002312E+02 0.  0.
         12    1    1    2    0    0  0.14116190359E+02 -0.54864819879E+01 -0.11014117677E+02  0.18726427931E+02  0.00000000000E+00 0. -1.
         11    1    3    3    0    0 -0.45213319373E+00  0.23107707488E+01  0.12829949708E+01  0.26814477870E+01  0.51100000000E-03 0. -1.
        -11    1    3    3    0    0 -0.88503325510E+01  0.24365868844E+02  0.30288094366E+02  0.39867187151E+02  0.51100000000E-03 0.  1.
         12    1    3    3    0    0 -0.48137246141E+01 -0.21190157605E+02 -0.20556971659E+02  0.29912937131E+02  0.00000000000E+00 0. -1.
</event>
<event>
 7    1  0.1465498E-013  0.7246157E+02  0.7816164E-02  0.1226708E+00
        -11   -1    0    0    0    0  0.00000000000E+00  0.00000000000E+00  0.45593999997E+02  0.45594000000E+02  0.51100000000E-03 0.  1.
         11   -1    0    0    0    0 -0.00000000000E+00 -0.00000000000E+00 -0.45593999997E+02  0.45594000000E+02  0.51100000000E-03 0. -1.
    9900012    2    1    2    0    0  0.88073919683E+01  0.92044309673E+01  0.13725436051E+02  0.72461566877E+02  0.69999995548E+02 0.  0.
         12    1    1    2    0    0 -0.88073919683E+01 -0.92044309673E+01 -0.13725436051E+02  0.18726433123E+02  0.00000000000E+00 0. -1.
         11    1    3    3    0    0  0.35160924464E+01  0.10749591326E+02  0.48407634768E+01  0.12302422976E+02  0.51100000000E-03 0. -1.
        -11    1    3    3    0    0  0.16858319622E+02 -0.26535075873E+02  0.75286818184E+00  0.31446462485E+02  0.51100000000E-03 0.  1.
         12    1    3    3    0    0 -0.11567020101E+02  0.24989915514E+02  0.81318043925E+01  0.28712681416E+02  0.00000000000E+00 0. -1.
</event>
<event>
 7    1  0.1465498E-013  0.7246167E+02  0.7816164E-02  0.1226708E+00
        -11   -1    0    0    0    0  0.00000000000E+00  0.00000000000E+00  0.45593999997E+02  0.45594000000E+02  0.51100000000E-03 0.  1.
         11   -1    0    0    0    0 -0.00000000000E+00 -0.00000000000E+00 -0.45593999997E+02  0.45594000000E+02  0.51100000000E-03 0. -1.
    9900012    2    1    2    0    0 -0.18518634462E+02  0.21712301615E+01  0.17382471266E+01  0.72461666514E+02  0.70000125344E+02 0.  0.
         12    1    1    2    0    0  0.18518634462E+02 -0.21712301615E+01 -0.17382471266E+01  0.18726333486E+02  0.00000000000E+00 0. -1.
         11    1    3    3    0    0  0.11469843244E+02  0.32315167246E-02 -0.43036381472E+01  0.12250657781E+02  0.51100000000E-03 0. -1.
        -11    1    3    3    0    0 -0.31163599758E+02 -0.18469705319E+02  0.12865968075E+02  0.38442594855E+02  0.51100000000E-03 0.  1.
         12    1    3    3    0    0  0.11751220513E+01  0.20637703964E+02 -0.68240828007E+01  0.21768413879E+02  0.00000000000E+00 0. -1.
</event>
<event>
 7    1  0.1465498E-013  0.7246171E+02  0.7816164E-02  0.1226708E+00
        -11   -1    0    0    0    0  0.00000000000E+00  0.00000000000E+00  0.45593999997E+02  0.45594000000E+02  0.51100000000E-03 0.  1.
         11   -1    0    0    0    0 -0.00000000000E+00 -0.00000000000E+00 -0.45593999997E+02  0.45594000000E+02  0.51100000000E-03 0. -1.
    9900012    2    1    2    0    0  0.36841692924E+01  0.18159440768E+02 -0.27084277295E+01  0.72461709039E+02  0.70000180741E+02 0.  0.
         12    1    1    2    0    0 -0.36841692924E+01 -0.18159440768E+02  0.27084277295E+01  0.18726290961E+02  0.00000000000E+00 0. -1.
         11    1    3    3    0    0 -0.13458953256E+02  0.13306650597E+02 -0.11084133775E+02  0.21933271408E+02  0.51100000000E-03 0. -1.
        -11    1    3    3    0    0  0.14148657622E+02  0.25239949477E+02  0.22076706226E+01  0.29019189719E+02  0.51100000000E-03 0.  1.
        -12    1    3    3    0    0  0.29944649265E+01 -0.20387159306E+02  0.61680354225E+01  0.21509247912E+02  0.00000000000E+00 0.  1.
</event>
<event>
 7    1  0.1465498E-013  0.7246160E+02  0.7816164E-02  0.1226708E+00
        -11   -1    0    0    0    0  0.00000000000E+00  0.00000000000E+00  0.45593999997E+02  0.45594000000E+02  0.51100000000E-03 0.  1.
         11   -1    0    0    0    0 -0.00000000000E+00 -0.00000000000E+00 -0.45593999997E+02  0.45594000000E+02  0.51100000000E-03 0. -1.
    9900012    2    1    2    0    0  0.82600470940E+01  0.10356258490E+02  0.13236224236E+02  0.72461598852E+02  0.70000037202E+02 0.  0.
         12    1    1    2    0    0 -0.82600470940E+01 -0.10356258490E+02 -0.13236224236E+02  0.18726401148E+02  0.00000000000E+00 0. -1.
         11    1    3    3    0    0 -0.64895893585E+01 -0.36250412947E+01  0.16212013677E+02  0.17834939925E+02  0.51100000000E-03 0. -1.
        -11    1    3    3    0    0 -0.12792798699E+02  0.18430345223E+02  0.91200732086E+01  0.24217949112E+02  0.51100000000E-03 0.  1.
         12    1    3    3    0    0  0.27542435152E+02 -0.44490454385E+01 -0.12095862649E+02  0.30408709815E+02  0.00000000000E+00 0. -1.
</event>
<event>
 7    1  0.1465498E-013  0.7246166E+02  0.7816164E-02  0.1226708E+00
        -11   -1    0    0    0    0  0.00000000000E+00  0.00000000000E+00  0.45593999997E+02  0.45594000000E+02  0.51100000000E-03 0. -1.
         11   -1    0    0    0    0 -0.00000000000E+00 -0.00000000000E+00 -0.45593999997E+02  0.45594000000E+02  0.51100000000E-03 0.  1.
    9900012    2    1    2    0    0  0.18543533815E+02 -0.60126897914E-01 -0.26094933093E+01  0.72461662479E+02  0.70000120088E+02 0.  0.
         12    1    1    2    0    0 -0.18543533815E+02  0.60126897914E-01  0.26094933093E+01  0.18726337521E+02  0.00000000000E+00 0. -1.
         11    1    3    3    0    0 -0.35061032465E+01  0.20854744232E+02 -0.36243298801E+01  0.21455742455E+02  0.51100000000E-03 0. -1.
        -11    1    3    3    0    0 -0.10719318199E+01  0.40760894499E+01 -0.13389985361E+02  0.14037636955E+02  0.51100000000E-03 0.  1.
         12    1    3    3    0    0  0.23121568882E+02 -0.24990960580E+02  0.14404821932E+02  0.36968283070E+02  0.00000000000E+00 0. -1.
</event>
<event>
 7    1  0.1465498E-013  0.7246154E+02  0.7816164E-02  0.1226708E+00
        -11   -1    0    0    0    0  0.00000000000E+00  0.00000000000E+00  0.45593999997E+02  0.45594000000E+02  0.51100000000E-03 0. -1.
         11   -1    0    0    0    0 -0.00000000000E+00 -0.00000000000E+00 -0.45593999997E+02  0.45594000000E+02  0.51100000000E-03 0.  1.
    9900012    2    1    2    0    0 -0.14038733670E+02 -0.43328963746E+01  0.11611209222E+02  0.72461542415E+02  0.69999963682E+02 0.  0.
         12    1    1    2    0    0  0.14038733670E+02  0.43328963746E+01 -0.11611209222E+02  0.18726457585E+02  0.00000000000E+00 0. -1.
         11    1    3    3    0    0 -0.29992812195E+02  0.14131358267E+02 -0.20939389775E+01  0.33221207843E+02  0.51100000000E-03 0. -1.
        -11    1    3    3    0    0  0.39475887477E+01 -0.32515108230E+01 -0.84051559160E+01  0.98388223780E+01  0.51100000000E-03 0.  1.
         12    1    3    3    0    0  0.12006489777E+02 -0.15212743818E+02  0.22110304116E+02  0.29401512195E+02  0.00000000000E+00 0. -1.
</event>
<event>
 7    1  0.1465498E-013  0.7246160E+02  0.7816164E-02  0.1226708E+00
        -11   -1    0    0    0    0  0.00000000000E+00  0.00000000000E+00  0.45593999997E+02  0.45594000000E+02  0.51100000000E-03 0. -1.
         11   -1    0    0    0    0 -0.00000000000E+00 -0.00000000000E+00 -0.45593999997E+02  0.45594000000E+02  0.51100000000E-03 0.  1.
    9900012    2    1    2    0    0 -0.22583529494E+01  0.87646046954E+01 -0.16393887966E+02  0.72461601089E+02  0.70000040116E+02 0.  0.
         12    1    1    2    0    0  0.22583529494E+01 -0.87646046954E+01  0.16393887966E+02  0.18726398911E+02  0.00000000000E+00 0. -1.
         11    1    3    3    0    0  0.27833493886E+01  0.35912325571E+00 -0.58063053051E+01  0.64489677383E+01  0.51100000000E-03 0. -1.
        -11    1    3    3    0    0  0.41251551883E+01  0.32001726259E+02  0.95669859355E+01  0.33654934394E+02  0.51100000000E-03 0.  1.
         12    1    3    3    0    0 -0.91668575263E+01 -0.23596244820E+02 -0.20154568597E+02  0.32357698957E+02  0.00000000000E+00 0. -1.
</event>
<event>
 7    1  0.1465498E-013  0.7246135E+02  0.7816164E-02  0.1226709E+00
        -11   -1    0    0    0    0  0.00000000000E+00  0.00000000000E+00  0.45593999997E+02  0.45594000000E+02  0.51100000000E-03 0.  1.
         11   -1    0    0    0    0 -0.00000000000E+00 -0.00000000000E+00 -0.45593999997E+02  0.45594000000E+02  0.51100000000E-03 0. -1.
    9900012    2    1    2    0    0 -0.11132332479E+02 -0.69021800934E+01  0.13383517639E+02  0.72461348915E+02  0.69999711611E+02 0.  0.
         12    1    1    2    0    0  0.11132332479E+02  0.69021800934E+01 -0.13383517639E+02  0.18726651085E+02  0.00000000000E+00 0. -1.
         11    1    3    3    0    0  0.10511205942E+01 -0.11979178192E+02  0.22347151974E+02  0.25377170179E+02  0.51100000000E-03 0. -1.
        -11    1    3    3    0    0 -0.68809289576E+01  0.90977916098E+01  0.16893758002E+02  0.20384210928E+02  0.51100000000E-03 0.  1.
         12    1    3    3    0    0 -0.53025241160E+01 -0.40207935108E+01 -0.25857392337E+02  0.26699967807E+02  0.00000000000E+00 0. -1.
</event>
<event>
 7    1  0.1465498E-013  0.7246161E+02  0.7816164E-02  0.1226708E+00
        -11   -1    0    0    0    0  0.00000000000E+00  0.00000000000E+00  0.45593999997E+02  0.45594000000E+02  0.51100000000E-03 0.  1.
         11   -1    0    0    0    0 -0.00000000000E+00 -0.00000000000E+00 -0.45593999997E+02  0.45594000000E+02  0.51100000000E-03 0. -1.
    9900012    2    1    2    0    0 -0.63253804939E+01 -0.13975826462E+02  0.10739811196E+02  0.72461609312E+02  0.70000050828E+02 0.  0.
         12    1    1    2    0    0  0.63253804939E+01  0.13975826462E+02 -0.10739811196E+02  0.18726390688E+02  0.00000000000E+00 0. -1.
         11    1    3    3    0    0  0.18242367015E+01 -0.18545379405E+01  0.43597845612E+01  0.50768959214E+01  0.51100000000E-03 0. -1.
        -11    1    3    3    0    0 -0.32036272145E+02  0.71512912910E+00  0.19235775089E+02  0.37374445630E+02  0.51100000000E-03 0.  1.
         12    1    3    3    0    0  0.23886654949E+02 -0.12836417650E+02 -0.12855748454E+02  0.30010267761E+02  0.00000000000E+00 0. -1.
</event>
<event>
 7    1  0.1465498E-013  0.7246154E+02  0.7816164E-02  0.1226708E+00
        -11   -1    0    0    0    0  0.00000000000E+00  0.00000000000E+00  0.45593999997E+02  0.45594000000E+02  0.51100000000E-03 0.  1.
         11   -1    0    0    0    0 -0.00000000000E+00 -0.00000000000E+00 -0.45593999997E+02  0.45594000000E+02  0.51100000000E-03 0. -1.
    9900012    2    1    2    0    0  0.15673789363E+02 -0.86146432280E+01  0.55498227818E+01  0.72461540541E+02  0.69999961241E+02 0.  0.
         12    1    1    2    0    0 -0.15673789363E+02  0.86146432280E+01 -0.55498227818E+01  0.18726459459E+02  0.00000000000E+00 0. -1.
         11    1    3    3    0    0 -0.97706974820E+00  0.76010410846E+01  0.18650648733E+01  0.78872655658E+01  0.51100000000E-03 0. -1.
        -11    1    3    3    0    0 -0.20744009313E+02  0.46716467747E+01 -0.20370729843E+01  0.21360895875E+02  0.51100000000E-03 0.  1.
        -12    1    3    3    0    0  0.37394868425E+02 -0.20887331087E+02  0.57218308928E+01  0.43213379100E+02  0.00000000000E+00 0.  1.
</event>
<event>
 7    1  0.1465498E-013  0.7246160E+02  0.7816164E-02  0.1226708E+00
        -11   -1    0    0    0    0  0.00000000000E+00  0.00000000000E+00  0.45593999997E+02  0.45594000000E+02  0.51100000000E-03 0.  1.
         11   -1    0    0    0    0 -0.00000000000E+00 -0.00000000000E+00 -0.45593999997E+02  0.45594000000E+02  0.51100000000E-03 0. -1.
    9900012    2    1    2    0    0 -0.16123412482E+01  0.35391844221E+00  0.18653505973E+02  0.72461596511E+02  0.70000034152E+02 0.  0.
         12    1    1    2    0    0  0.16123412482E+01 -0.35391844221E+00 -0.18653505973E+02  0.18726403489E+02  0.00000000000E+00 0. -1.
         11    1    3    3    0    0  0.62366190289E+01 -0.15303701130E+01  0.15380727869E+01  0.66032656885E+01  0.51100000000E-03 0. -1.
        -11    1    3    3    0    0  0.22327061245E+02  0.15423481272E+02  0.18354756862E+02  0.32760930056E+02  0.51100000000E-03 0.  1.
         12    1    3    3    0    0 -0.30176021522E+02 -0.13539192717E+02 -0.12393236762E+01  0.33097400767E+02  0.00000000000E+00 0. -1.
</event>
<event>
 7    1  0.1465498E-013  0.7246165E+02  0.7816164E-02  0.1226708E+00
        -11   -1    0    0    0    0  0.00000000000E+00  0.00000000000E+00  0.45593999997E+02  0.45594000000E+02  0.51100000000E-03 0.  1.
         11   -1    0    0    0    0 -0.00000000000E+00 -0.00000000000E+00 -0.45593999997E+02  0.45594000000E+02  0.51100000000E-03 0. -1.
    9900012    2    1    2    0    0 -0.18701673983E+02 -0.42066699524E+00 -0.86404114954E+00  0.72461651248E+02  0.70000105457E+02 0.  0.
         12    1    1    2    0    0  0.18701673983E+02  0.42066699524E+00  0.86404114954E+00  0.18726348752E+02  0.00000000000E+00 0. -1.
         11    1    3    3    0    0 -0.37091236989E+01  0.17114130808E+02 -0.10999371959E+02  0.20679392053E+02  0.51100000000E-03 0. -1.
        -11    1    3    3    0    0 -0.14937795171E+02  0.68591588958E+01 -0.10773754493E+02  0.19653487514E+02  0.51100000000E-03 0.  1.
        -12    1    3    3    0    0 -0.54755113192E-01 -0.24393956699E+02  0.20909085302E+02  0.32128771681E+02  0.00000000000E+00 0.  1.
</event>
<event>
 7    1  0.1465498E-013  0.7246158E+02  0.7816164E-02  0.1226708E+00
        -11   -1    0    0    0    0  0.00000000000E+00  0.00000000000E+00  0.45593999997E+02  0.45594000000E+02  0.51100000000E-03 0. -1.
         11   -1    0    0    0    0 -0.00000000000E+00 -0.00000000000E+00 -0.45593999997E+02  0.45594000000E+02  0.51100000000E-03 0.  1.
    9900012    2    1    2    0    0 -0.38904453639E+01  0.17249045618E+02 -0.61655193307E+01  0.72461581002E+02  0.70000013949E+02 0.  0.
         12    1    1    2    0    0  0.38904453639E+01 -0.17249045618E+02  0.61655193307E+01  0.18726418998E+02  0.00000000000E+00 0. -1.
         11    1    3    3    0    0 -0.12043930838E+02 -0.67506517895E+01  0.16473950553E+02  0.21494618319E+02  0.51100000000E-03 0. -1.
        -11    1    3    3    0    0  0.40794826862E+01  0.21532805983E+02  0.53628998783E+01  0.22562460146E+02  0.51100000000E-03 0.  1.
        -12    1    3    3    0    0  0.40740027875E+01  0.24668914251E+01 -0.28002369762E+02  0.28404502536E+02  0.00000000000E+00 0.  1.
</event>
<event>
 7    1  0.1465498E-013  0.7246156E+02  0.7816164E-02  0.1226708E+00
        -11   -1    0    0    0    0  0.00000000000E+00  0.00000000000E+00  0.45593999997E+02  0.45594000000E+02  0.51100000000E-03 0. -1.
         11   -1    0    0    0    0 -0.00000000000E+00 -0.00000000000E+00 -0.45593999997E+02  0.45594000000E+02  0.51100000000E-03 0.  1.
    9900012    2    1    2    0    0  0.12238491655E+01 -0.89847815983E+00 -0.18664791230E+02  0.72461561432E+02  0.69999988455E+02 0.  0.
         12    1    1    2    0    0 -0.12238491655E+01  0.89847815983E+00  0.18664791230E+02  0.18726438568E+02  0.00000000000E+00 0. -1.
         11    1    3    3    0    0 -0.74281441740E+00  0.19006569542E+02  0.19101125784E+02  0.26956529181E+02  0.51100000000E-03 0. -1.
        -11    1    3    3    0    0 -0.14480117833E+01 -0.29567953522E+00  0.10975745070E+01  0.18408787498E+01  0.51100000000E-03 0.  1.
        -12    1    3    3    0    0  0.34146753662E+01 -0.19609368167E+02 -0.38863491521E+02  0.43664153501E+02  0.00000000000E+00 0.  1.
</event>
<event>
 7    1  0.1465498E-013  0.7246151E+02  0.7816164E-02  0.1226708E+00
        -11   -1    0    0    0    0  0.00000000000E+00  0.00000000000E+00  0.45593999997E+02  0.45594000000E+02  0.51100000000E-03 0. -1.
         11   -1    0    0    0    0 -0.00000000000E+00 -0.00000000000E+00 -0.45593999997E+02  0.45594000000E+02  0.51100000000E-03 0.  1.
    9900012    2    1    2    0    0 -0.43902305470E+01 -0.68442399787E+01 -0.16869011684E+02  0.72461513401E+02  0.69999925886E+02 0.  0.
         12    1    1    2    0    0  0.43902305470E+01  0.68442399787E+01  0.16869011684E+02  0.18726486599E+02  0.00000000000E+00 0. -1.
         11    1    3    3    0    0 -0.89255730069E+01 -0.20266377988E+01 -0.18023803435E+01  0.93285416563E+01  0.51100000000E-03 0. -1.
        -11    1    3    3    0    0  0.84959411917E+01 -0.17040199910E+02 -0.34751594542E+02  0.39626036304E+02  0.51100000000E-03 0.  1.
         12    1    3    3    0    0 -0.39605987318E+01  0.12222597730E+02  0.19684963201E+02  0.23506935441E+02  0.00000000000E+00 0. -1.
</event>
<event>
 7    1  0.1465498E-013  0.7246159E+02  0.7816164E-02  0.1226708E+00
        -11   -1    0    0    0    0  0.00000000000E+00  0.00000000000E+00  0.45593999997E+02  0.45594000000E+02  0.51100000000E-03 0.  1.
         11   -1    0    0    0    0 -0.00000000000E+00 -0.00000000000E+00 -0.45593999997E+02  0.45594000000E+02  0.51100000000E-03 0. -1.
    9900012    2    1    2    0    0  0.18355092533E+02 -0.25860298459E+01 -0.26611173902E+01  0.72461587690E+02  0.70000022660E+02 0.  0.
         12    1    1    2    0    0 -0.18355092533E+02  0.25860298459E+01  0.26611173902E+01  0.18726412310E+02  0.00000000000E+00 0. -1.
         11    1    3    3    0    0  0.13583509840E+02 -0.59473927652E+01 -0.16698010401E+02  0.22331743593E+02  0.51100000000E-03 0. -1.
        -11    1    3    3    0    0  0.22125842685E+02 -0.10516284101E+02  0.13332731186E+01  0.24534114276E+02  0.51100000000E-03 0.  1.
        -12    1    3    3    0    0 -0.17354259992E+02  0.13877647020E+02  0.12703619893E+02  0.25595729821E+02  0.00000000000E+00 0.  1.
</event>
<event>
 7    1  0.1465498E-013  0.7246155E+02  0.7816164E-02  0.1226708E+00
        -11   -1    0    0    0    0  0.00000000000E+00  0.00000000000E+00  0.45593999997E+02  0.45594000000E+02  0.51100000000E-03 0.  1.
         11   -1    0    0    0    0 -0.00000000000E+00 -0.00000000000E+00 -0.45593999997E+02  0.45594000000E+02  0.51100000000E-03 0. -1.
    9900012    2    1    2    0    0 -0.92760927354E+01 -0.62915490675E+01  0.15001677122E+02  0.72461553391E+02  0.69999977981E+02 0.  0.
         12    1    1    2    0    0  0.92760927354E+01  0.62915490675E+01 -0.15001677122E+02  0.18726446609E+02  0.00000000000E+00 0. -1.
         11    1    3    3    0    0  0.88422299533E+01 -0.69850885375E+01  0.57172391978E+01  0.12635795057E+02  0.51100000000E-03 0. -1.
        -11    1    3    3    0    0  0.71065394874E+01  0.88400624413E+00  0.27688841368E+02  0.28599935438E+02  0.51100000000E-03 0.  1.
         12    1    3    3    0    0 -0.25224862176E+02 -0.19046677406E+00 -0.18404403443E+02  0.31225822896E+02  0.00000000000E+00 0. -1.
</event>
<event>
 7    1  0.1465498E-013  0.7246157E+02  0.7816164E-02  0.1226708E+00
        -11   -1    0    0    0    0  0.00000000000E+00  0.00000000000E+00  0.45593999997E+02  0.45594000000E+02  0.51100000000E-03 0.  1.
         11   -1    0    0    0    0 -0.00000000000E+00 -0.00000000000E+00 -0.45593999997E+02  0.45594000000E+02  0.51100000000E-03 0. -1.
    9900012    2    1    2    0    0  0.15081266501E+02  0.10541368070E+02  0.34805579901E+01  0.72461566170E+02  0.69999994627E+02 0.  0.
         12    1    1    2    0    0 -0.15081266501E+02 -0.10541368070E+02 -0.34805579901E+01  0.18726433830E+02  0.00000000000E+00 0. -1.
         11    1    3    3    0    0  0.14570318748E+02  0.12794076726E+02  0.10199568602E+02  0.21909216956E+02  0.51100000000E-03 0. -1.
        -11    1    3    3    0    0  0.94208454743E+01  0.21842844552E+02  0.74622770240E+00  0.23799559736E+02  0.51100000000E-03 0.  1.
         12    1    3    3    0    0 -0.89098977210E+01 -0.24095553208E+02 -0.74652383140E+01  0.26752789479E+02  0.00000000000E+00 0. -1.
</event>
<event>
 7    1  0.1465498E-013  0.7246161E+02  0.7816164E-02  0.1226708E+00
        -11   -1    0    0    0    0  0.00000000000E+00  0.00000000000E+00  0.45593999997E+02  0.45594000000E+02  0.51100000000E-03 0. -1.
         11   -1    0    0    0    0 -0.00000000000E+00 -0.00000000000E+00 -0.45593999997E+02  0.45594000000E+02  0.51100000000E-03 0.  1.
    9900012    2    1    2    0    0  0.14287447749E+02 -0.12042248808E+02  0.12373151897E+01  0.72461605034E+02  0.70000045255E+02 0.  0.
         12    1    1    2    0    0 -0.14287447749E+02  0.12042248808E+02 -0.12373151897E+01  0.18726394966E+02  0.00000000000E+00 0. -1.
         11    1    3    3    0    0  0.21613086870E+01 -0.42591941295E+01 -0.10346330734E+02  0.11395549560E+02  0.51100000000E-03 0.  1.
        -11    1    3    3    0    0 -0.13263914275E+02 -0.21324827121E+02 -0.78863375083E+01  0.26322499752E+02  0.51100000000E-03 0. -1.
         12    1    3    3    0    0  0.25390053337E+02  0.13541772443E+02  0.19469983432E+02  0.34743555722E+02  0.00000000000E+00 0. -1.
</event>
<event>
 7    1  0.1465498E-013  0.7246156E+02  0.7816164E-02  0.1226708E+00
        -11   -1    0    0    0    0  0.00000000000E+00  0.00000000000E+00  0.45593999997E+02  0.45594000000E+02  0.51100000000E-03 0.  1.
         11   -1    0    0    0    0 -0.00000000000E+00 -0.00000000000E+00 -0.45593999997E+02  0.45594000000E+02  0.51100000000E-03 0. -1.
    9900012    2    1    2    0    0  0.12072416395E+02 -0.90353681601E+01  0.11103974939E+02  0.72461564812E+02  0.69999992858E+02 0.  0.
         12    1    1    2    0    0 -0.12072416395E+02  0.90353681601E+01 -0.11103974939E+02  0.18726435188E+02  0.00000000000E+00 0. -1.
         11    1    3    3    0    0  0.12394906048E+01 -0.99165770750E+01 -0.41516975568E+01  0.10821803487E+02  0.51100000000E-03 0. -1.
        -11    1    3    3    0    0 -0.18397822582E+02  0.32071490830E+00 -0.11756031490E+02  0.21835453063E+02  0.51100000000E-03 0.  1.
        -12    1    3    3    0    0  0.29230748372E+02  0.56049400660E+00  0.27011703986E+02  0.39804308262E+02  0.00000000000E+00 0.  1.
</event>
<event>
 7    1  0.1465498E-013  0.7246159E+02  0.7816164E-02  0.1226708E+00
        -11   -1    0    0    0    0  0.00000000000E+00  0.00000000000E+00  0.45593999997E+02  0.45594000000E+02  0.51100000000E-03 0.  1.
         11   -1    0    0    0    0 -0.00000000000E+00 -0.00000000000E+00 -0.45593999997E+02  0.45594000000E+02  0.51100000000E-03 0. -1.
    9900012    2    1    2    0    0 -0.13604716741E+02 -0.12866691478E+02 -0.19558244954E+00  0.72461592986E+02  0.70000029559E+02 0.  0.
         12    1    1    2    0    0  0.13604716741E+02  0.12866691478E+02  0.19558244954E+00  0.18726407014E+02  0.00000000000E+00 0. -1.
         11    1    3    3    0    0  0.32490282378E+01  0.19024101723E+01  0.52914993867E+01  0.64942524569E+01  0.51100000000E-03 0. -1.
        -11    1    3    3    0    0  0.22554966790E+02 -0.47005639686E+01  0.57947640830E+01  0.23757127764E+02  0.51100000000E-03 0.  1.
         12    1    3    3    0    0 -0.39408711769E+02 -0.10068537681E+02 -0.11281845919E+02  0.42210212765E+02  0.00000000000E+00 0. -1.
</event>
<event>
 7    1  0.1465498E-013  0.7246152E+02  0.7816164E-02  0.1226708E+00
        -11   -1    0    0    0    0  0.00000000000E+00  0.00000000000E+00  0.45593999997E+02  0.45594000000E+02  0.51100000000E-03 0. -1.
         11   -1    0    0    0    0 -0.00000000000E+00 -0.00000000000E+00 -0.45593999997E+02  0.45594000000E+02  0.51100000000E-03 0.  1.
    9900012    2    1    2    0    0  0.78440363734E+01 -0.16927237703E+02  0.16188891268E+01  0.72461519154E+02  0.69999933380E+02 0.  0.
         12    1    1    2    0    0 -0.78440363734E+01  0.16927237703E+02 -0.16188891268E+01  0.18726480846E+02  0.00000000000E+00 0. -1.
         11    1    3    3    0    0  0.40189977455E+00  0.59367013114E+00  0.18809596718E+02  0.18823254145E+02  0.51100000000E-03 0. -1.
        -11    1    3    3    0    0  0.63992131097E+01  0.81171099143E+01  0.11287765752E+02  0.15305262419E+02  0.51100000000E-03 0.  1.
        -12    1    3    3    0    0  0.10429234892E+01 -0.25638017749E+02 -0.28478473344E+02  0.38333002589E+02  0.00000000000E+00 0.  1.
</event>
<event>
 7    1  0.1465498E-013  0.7246160E+02  0.7816164E-02  0.1226708E+00
        -11   -1    0    0    0    0  0.00000000000E+00  0.00000000000E+00  0.45593999997E+02  0.45594000000E+02  0.51100000000E-03 0.  1.
         11   -1    0    0    0    0 -0.00000000000E+00 -0.00000000000E+00 -0.45593999997E+02  0.45594000000E+02  0.51100000000E-03 0. -1.
    9900012    2    1    2    0    0 -0.10727633848E+02  0.13731437142E+02 -0.68588417658E+01  0.72461596065E+02  0.70000033571E+02 0.  0.
         12    1    1    2    0    0  0.10727633848E+02 -0.13731437142E+02  0.68588417658E+01  0.18726403935E+02  0.00000000000E+00 0. -1.
         11    1    3    3    0    0 -0.20377461958E+01  0.40702850071E+02  0.38282476945E+01  0.40933237035E+02  0.51100000000E-03 0.  1.
        -11    1    3    3    0    0 -0.40615982127E+01 -0.12690354169E+02 -0.97045339956E+01  0.16483920932E+02  0.51100000000E-03 0. -1.
        -12    1    3    3    0    0 -0.46282894399E+01 -0.14281058760E+02 -0.98255546468E+00  0.15044438098E+02  0.00000000000E+00 0.  1.
</event>
<event>
 7    1  0.1465498E-013  0.7246157E+02  0.7816164E-02  0.1226708E+00
        -11   -1    0    0    0    0  0.00000000000E+00  0.00000000000E+00  0.45593999997E+02  0.45594000000E+02  0.51100000000E-03 0.  1.
         11   -1    0    0    0    0 -0.00000000000E+00 -0.00000000000E+00 -0.45593999997E+02  0.45594000000E+02  0.51100000000E-03 0. -1.
    9900012    2    1    2    0    0 -0.30098817151E+01  0.16141582840E+02  0.90038317332E+01  0.72461572941E+02  0.70000003447E+02 0.  0.
         12    1    1    2    0    0  0.30098817151E+01 -0.16141582840E+02 -0.90038317332E+01  0.18726427059E+02  0.00000000000E+00 0. -1.
         11    1    3    3    0    0  0.10897279543E+01  0.55571188617E+01  0.16540056666E+01  0.58995603280E+01  0.51100000000E-03 0. -1.
        -11    1    3    3    0    0  0.16956445421E+02  0.54179334507E+01  0.30204552220E+02  0.35059806321E+02  0.51100000000E-03 0.  1.
         12    1    3    3    0    0 -0.21056055091E+02  0.51665305281E+01 -0.22854726153E+02  0.31502206291E+02  0.00000000000E+00 0. -1.
</event>
<event>
 7    1  0.1465498E-013  0.7246156E+02  0.7816164E-02  0.1226708E+00
        -11   -1    0    0    0    0  0.00000000000E+00  0.00000000000E+00  0.45593999997E+02  0.45594000000E+02  0.51100000000E-03 0. -1.
         11   -1    0    0    0    0 -0.00000000000E+00 -0.00000000000E+00 -0.45593999997E+02  0.45594000000E+02  0.51100000000E-03 0.  1.
    9900012    2    1    2    0    0 -0.83394158943E+01  0.73373449614E+01 -0.15076375799E+02  0.72461558914E+02  0.69999985174E+02 0.  0.
         12    1    1    2    0    0  0.83394158943E+01 -0.73373449614E+01  0.15076375799E+02  0.18726441086E+02  0.00000000000E+00 0. -1.
         11    1    3    3    0    0 -0.94882690287E+01  0.89470228198E+01  0.12506288379E+02  0.18068860390E+02  0.51100000000E-03 0. -1.
        -11    1    3    3    0    0 -0.57455026470E+01  0.96522081591E+01  0.96995978917E+01  0.14841095732E+02  0.51100000000E-03 0.  1.
        -12    1    3    3    0    0  0.68943557815E+01 -0.11261886017E+02 -0.37282262070E+02  0.39551602791E+02  0.00000000000E+00 0.  1.
</event>
<event>
 7    1  0.1465498E-013  0.7246158E+02  0.7816164E-02  0.1226708E+00
        -11   -1    0    0    0    0  0.00000000000E+00  0.00000000000E+00  0.45593999997E+02  0.45594000000E+02  0.51100000000E-03 0. -1.
         11   -1    0    0    0    0 -0.00000000000E+00 -0.00000000000E+00 -0.45593999997E+02  0.45594000000E+02  0.51100000000E-03 0.  1.
    9900012    2    1    2    0    0  0.13276716498E+02  0.80230417563E+01 -0.10489919315E+02  0.72461579968E+02  0.70000012601E+02 0.  0.
         12    1    1    2    0    0 -0.13276716498E+02 -0.80230417563E+01  0.10489919315E+02  0.18726420032E+02  0.00000000000E+00 0. -1.
         11    1    3    3    0    0 -0.10138996809E+02  0.12731446295E+02  0.40249282374E+01  0.16765709906E+02  0.51100000000E-03 0. -1.
        -11    1    3    3    0    0  0.14124167224E+02  0.21375851353E+02 -0.33450783143E+01  0.25838124352E+02  0.51100000000E-03 0.  1.
        -12    1    3    3    0    0  0.92915460834E+01 -0.26084255892E+02 -0.11169769238E+02  0.29857745710E+02  0.00000000000E+00 0.  1.
</event>
<event>
 7    1  0.1465498E-013  0.7246156E+02  0.7816164E-02  0.1226708E+00
        -11   -1    0    0    0    0  0.00000000000E+00  0.00000000000E+00  0.45593999997E+02  0.45594000000E+02  0.51100000000E-03 0.  1.
         11   -1    0    0    0    0 -0.00000000000E+00 -0.00000000000E+00 -0.45593999997E+02  0.45594000000E+02  0.51100000000E-03 0. -1.
    9900012    2    1    2    0    0  0.11401022111E+01  0.18272200676E+02  0.39378393796E+01  0.72461555341E+02  0.69999980520E+02 0.  0.
         12    1    1    2    0    0 -0.11401022111E+01 -0.18272200676E+02 -0.39378393796E+01  0.18726444659E+02  0.00000000000E+00 0. -1.
         11    1    3    3    0    0 -0.17348919509E+02  0.16528625907E+02 -0.86386068288E+01  0.25471670749E+02  0.51100000000E-03 0. -1.
        -11    1    3    3    0    0 -0.57496637818E+01 -0.14350735786E+02  0.44338578125E+00  0.15466054520E+02  0.51100000000E-03 0.  1.
        -12    1    3    3    0    0  0.24238685502E+02  0.16094310555E+02  0.12133060427E+02  0.31523830072E+02  0.00000000000E+00 0.  1.
</event>
<event>
 7    1  0.1502574E-013  0.7246156E+02  0.7816164E-02  0.1226708E+00
        -11   -1    0    0    0    0  0.00000000000E+00  0.00000000000E+00  0.45593999997E+02  0.45594000000E+02  0.51100000000E-03 0. -1.
         11   -1    0    0    0    0 -0.00000000000E+00 -0.00000000000E+00 -0.45593999997E+02  0.45594000000E+02  0.51100000000E-03 0.  1.
    9900012    2    1    2    0    0 -0.44813998673E+01 -0.10063173084E+02 -0.15143612993E+02  0.72461563826E+02  0.69999991574E+02 0.  0.
         12    1    1    2    0    0  0.44813998673E+01  0.10063173084E+02  0.15143612993E+02  0.18726436174E+02  0.00000000000E+00 0. -1.
         11    1    3    3    0    0  0.79138902412E+01  0.17891723741E+02  0.60444605382E+01  0.20476301928E+02  0.51100000000E-03 0. -1.
        -11    1    3    3    0    0  0.10051056272E+02  0.17706355090E+01 -0.51350975010E+01  0.11424889885E+02  0.51100000000E-03 0.  1.
        -12    1    3    3    0    0 -0.22446346380E+02 -0.29725532334E+02 -0.16052976031E+02  0.40560372013E+02  0.00000000000E+00 0.  1.
</event>
<event>
 7    1  0.1465498E-013  0.7246156E+02  0.7816164E-02  0.1226708E+00
        -11   -1    0    0    0    0  0.00000000000E+00  0.00000000000E+00  0.45593999997E+02  0.45594000000E+02  0.51100000000E-03 0.  1.
         11   -1    0    0    0    0 -0.00000000000E+00 -0.00000000000E+00 -0.45593999997E+02  0.45594000000E+02  0.51100000000E-03 0. -1.
    9900012    2    1    2    0    0 -0.62434916425E+01 -0.13861625542E+02  0.10934066601E+02  0.72461557119E+02  0.69999982836E+02 0.  0.
         12    1    1    2    0    0  0.62434916425E+01  0.13861625542E+02 -0.10934066601E+02  0.18726442881E+02  0.00000000000E+00 0. -1.
         11    1    3    3    0    0 -0.22755005760E+02 -0.66261086205E+00  0.42409486999E+01  0.23156316339E+02  0.51100000000E-03 0. -1.
        -11    1    3    3    0    0  0.21005917407E+02  0.10956186287E+02 -0.52447420757E+00  0.23697292198E+02  0.51100000000E-03 0.  1.
         12    1    3    3    0    0 -0.44944032896E+01 -0.24155200967E+02  0.72175921084E+01  0.25607948581E+02  0.00000000000E+00 0. -1.
</event>
<event>
 7    1  0.1465498E-013  0.7246157E+02  0.7816164E-02  0.1226708E+00
        -11   -1    0    0    0    0  0.00000000000E+00  0.00000000000E+00  0.45593999997E+02  0.45594000000E+02  0.51100000000E-03 0. -1.
         11   -1    0    0    0    0 -0.00000000000E+00 -0.00000000000E+00 -0.45593999997E+02  0.45594000000E+02  0.51100000000E-03 0.  1.
    9900012    2    1    2    0    0  0.14145459638E+02 -0.11852675169E+02  0.31779101955E+01  0.72461573479E+02  0.70000004148E+02 0.  0.
         12    1    1    2    0    0 -0.14145459638E+02  0.11852675169E+02 -0.31779101955E+01  0.18726426521E+02  0.00000000000E+00 0. -1.
         11    1    3    3    0    0 -0.11206784537E+02 -0.49750564051E+01  0.26142698829E+01  0.12537049620E+02  0.51100000000E-03 0. -1.
        -11    1    3    3    0    0  0.11439315044E+02  0.14437786680E+02 -0.20008464178E+02  0.27196438221E+02  0.51100000000E-03 0.  1.
         12    1    3    3    0    0  0.13912929132E+02 -0.21315405445E+02  0.20572104491E+02  0.32728085637E+02  0.00000000000E+00 0. -1.
</event>
<event>
 7    1  0.1465498E-013  0.7246158E+02  0.7816164E-02  0.1226708E+00
        -11   -1    0    0    0    0  0.00000000000E+00  0.00000000000E+00  0.45593999997E+02  0.45594000000E+02  0.51100000000E-03 0.  1.
         11   -1    0    0    0    0 -0.00000000000E+00 -0.00000000000E+00 -0.45593999997E+02  0.45594000000E+02  0.51100000000E-03 0. -1.
    9900012    2    1    2    0    0 -0.35094884159E+01 -0.18220273302E+02  0.25266659708E+01  0.72461577249E+02  0.70000009059E+02 0.  0.
         12    1    1    2    0    0  0.35094884159E+01  0.18220273302E+02 -0.25266659708E+01  0.18726422751E+02  0.00000000000E+00 0. -1.
         11    1    3    3    0    0 -0.69686882034E+01  0.51645292946E+01 -0.23831001148E+01  0.89952289870E+01  0.51100000000E-03 0. -1.
        -11    1    3    3    0    0 -0.21651616995E+02 -0.18610079570E+02  0.18985092241E+02  0.34286459539E+02  0.51100000000E-03 0.  1.
         12    1    3    3    0    0  0.25110816783E+02 -0.47747230266E+01 -0.14075326155E+02  0.29179888722E+02  0.00000000000E+00 0. -1.
</event>
<event>
 7    1  0.1465498E-013  0.7246123E+02  0.7816164E-02  0.1226709E+00
        -11   -1    0    0    0    0  0.00000000000E+00  0.00000000000E+00  0.45593999997E+02  0.45594000000E+02  0.51100000000E-03 0.  1.
         11   -1    0    0    0    0 -0.00000000000E+00 -0.00000000000E+00 -0.45593999997E+02  0.45594000000E+02  0.51100000000E-03 0. -1.
    9900012    2    1    2    0    0 -0.10617940004E+02 -0.12679172642E+02  0.87857747391E+01  0.72461230215E+02  0.69999556982E+02 0.  0.
         12    1    1    2    0    0  0.10617940004E+02  0.12679172642E+02 -0.87857747391E+01  0.18726769785E+02  0.00000000000E+00 0. -1.
         11    1    3    3    0    0 -0.15624395786E+02  0.29197230193E+01  0.23038022704E+02  0.27989230368E+02  0.51100000000E-03 0. -1.
        -11    1    3    3    0    0 -0.27563387844E+01 -0.22971179947E+02  0.38372100195E+01  0.23452008286E+02  0.51100000000E-03 0.  1.
         12    1    3    3    0    0  0.77627945660E+01  0.73722842850E+01 -0.18089457985E+02  0.21019991561E+02  0.00000000000E+00 0. -1.
</event>
<event>
 7    1  0.1465498E-013  0.7246222E+02  0.7816164E-02  0.1226706E+00
        -11   -1    0    0    0    0  0.00000000000E+00  0.00000000000E+00  0.45593999997E+02  0.45594000000E+02  0.51100000000E-03 0.  1.
         11   -1    0    0    0    0 -0.00000000000E+00 -0.00000000000E+00 -0.45593999997E+02  0.45594000000E+02  0.51100000000E-03 0. -1.
    9900012    2    1    2    0    0  0.97471588932E+01  0.15983421699E+02  0.42177909912E+00  0.72462221690E+02  0.70000848559E+02 0.  0.
         12    1    1    2    0    0 -0.97471588932E+01 -0.15983421699E+02 -0.42177909912E+00  0.18725778310E+02  0.00000000000E+00 0. -1.
         11    1    3    3    0    0  0.29845598361E+02  0.12891803605E+02 -0.22144328736E-01  0.32510903284E+02  0.51100000000E-03 0. -1.
        -11    1    3    3    0    0  0.75285607879E+01 -0.64148953633E+01  0.36853838691E+01  0.10555196094E+02  0.51100000000E-03 0.  1.
         12    1    3    3    0    0 -0.27627000255E+02  0.95065134573E+01 -0.32414604412E+01  0.29396122312E+02  0.00000000000E+00 0. -1.
</event>
<event>
 7    1  0.1465498E-013  0.7246154E+02  0.7816164E-02  0.1226708E+00
        -11   -1    0    0    0    0  0.00000000000E+00  0.00000000000E+00  0.45593999997E+02  0.45594000000E+02  0.51100000000E-03 0.  1.
         11   -1    0    0    0    0 -0.00000000000E+00 -0.00000000000E+00 -0.45593999997E+02  0.45594000000E+02  0.51100000000E-03 0. -1.
    9900012    2    1    2    0    0 -0.14730354673E+02  0.11040852413E+02  0.34346232228E+01  0.72461537240E+02  0.69999956941E+02 0.  0.
         12    1    1    2    0    0  0.14730354673E+02 -0.11040852413E+02 -0.34346232228E+01  0.18726462760E+02  0.00000000000E+00 0. -1.
         11    1    3    3    0    0  0.90787861417E+01  0.12259003850E+01 -0.53697475231E+01  0.10618916060E+02  0.51100000000E-03 0. -1.
        -11    1    3    3    0    0  0.10484803568E+02 -0.12753293394E+02 -0.68919189822E+01  0.17890672032E+02  0.51100000000E-03 0.  1.
         12    1    3    3    0    0 -0.34293944383E+02  0.22568245422E+02  0.15696289728E+02  0.43951949149E+02  0.00000000000E+00 0. -1.
</event>
<event>
 7    1  0.1465498E-013  0.7246151E+02  0.7816164E-02  0.1226708E+00
        -11   -1    0    0    0    0  0.00000000000E+00  0.00000000000E+00  0.45593999997E+02  0.45594000000E+02  0.51100000000E-03 0. -1.
         11   -1    0    0    0    0 -0.00000000000E+00 -0.00000000000E+00 -0.45593999997E+02  0.45594000000E+02  0.51100000000E-03 0.  1.
    9900012    2    1    2    0    0 -0.13989339575E+02  0.11754200639E+02 -0.41010361185E+01  0.72461512031E+02  0.69999924101E+02 0.  0.
         12    1    1    2    0    0  0.13989339575E+02 -0.11754200639E+02  0.41010361185E+01  0.18726487969E+02  0.00000000000E+00 0. -1.
         11    1    3    3    0    0 -0.19195305996E+02 -0.28854947476E+01 -0.69443667205E+01  0.20615772642E+02  0.51100000000E-03 0. -1.
        -11    1    3    3    0    0 -0.62565861178E+01  0.89468766310E+01 -0.21629364993E+02  0.24228514225E+02  0.51100000000E-03 0.  1.
         12    1    3    3    0    0  0.11462552539E+02  0.56928187552E+01  0.24472695595E+02  0.27617225164E+02  0.00000000000E+00 0. -1.
</event>
<event>
 7    1  0.1757094E-013  0.7246149E+02  0.7816164E-02  0.1226708E+00
        -11   -1    0    0    0    0  0.00000000000E+00  0.00000000000E+00  0.45593999997E+02  0.45594000000E+02  0.51100000000E-03 0. -1.
         11   -1    0    0    0    0 -0.00000000000E+00 -0.00000000000E+00 -0.45593999997E+02  0.45594000000E+02  0.51100000000E-03 0.  1.
    9900012    2    1    2    0    0  0.16510238814E+01  0.12339904494E+02 -0.13988678041E+02  0.72461488416E+02  0.69999893339E+02 0.  0.
         12    1    1    2    0    0 -0.16510238814E+01 -0.12339904494E+02  0.13988678041E+02  0.18726511584E+02  0.00000000000E+00 0. -1.
         11    1    3    3    0    0  0.11449156803E+02  0.64353750897E+01  0.13768945485E+02  0.19028428838E+02  0.51100000000E-03 0. -1.
        -11    1    3    3    0    0  0.68175707473E+01  0.20227656484E+02 -0.52049906211E+01  0.21971101141E+02  0.51100000000E-03 0.  1.
        -12    1    3    3    0    0 -0.16615703669E+02 -0.14323127080E+02 -0.22552632904E+02  0.31461958437E+02  0.00000000000E+00 0.  1.
</event>
<event>
 7    1  0.1465498E-013  0.7246147E+02  0.7816164E-02  0.1226708E+00
        -11   -1    0    0    0    0  0.00000000000E+00  0.00000000000E+00  0.45593999997E+02  0.45594000000E+02  0.51100000000E-03 0.  1.
         11   -1    0    0    0    0 -0.00000000000E+00 -0.00000000000E+00 -0.45593999997E+02  0.45594000000E+02  0.51100000000E-03 0. -1.
    9900012    2    1    2    0    0  0.15298317952E+01  0.34148186454E+01  0.18348883625E+02  0.72461470637E+02  0.69999870178E+02 0.  0.
         12    1    1    2    0    0 -0.15298317952E+01 -0.34148186454E+01 -0.18348883625E+02  0.18726529363E+02  0.00000000000E+00 0. -1.
         11    1    3    3    0    0  0.95557346952E+01  0.14952160332E+00 -0.14496822327E+02  0.17363533054E+02  0.51100000000E-03 0. -1.
        -11    1    3    3    0    0 -0.50450618104E+01 -0.18893603682E+02  0.66442218881E+01  0.20653488653E+02  0.51100000000E-03 0.  1.
         12    1    3    3    0    0 -0.29808410896E+01  0.22158900724E+02  0.26201484064E+02  0.34444448930E+02  0.00000000000E+00 0. -1.
</event>
<event>
 7    1  0.1465498E-013  0.7246152E+02  0.7816164E-02  0.1226708E+00
        -11   -1    0    0    0    0  0.00000000000E+00  0.00000000000E+00  0.45593999997E+02  0.45594000000E+02  0.51100000000E-03 0.  1.
         11   -1    0    0    0    0 -0.00000000000E+00 -0.00000000000E+00 -0.45593999997E+02  0.45594000000E+02  0.51100000000E-03 0. -1.
    9900012    2    1    2    0    0  0.14956107728E+02 -0.78823621723E+01  0.80538237829E+01  0.72461524910E+02  0.69999940878E+02 0.  0.
         12    1    1    2    0    0 -0.14956107728E+02  0.78823621723E+01 -0.80538237829E+01  0.18726475090E+02  0.00000000000E+00 0. -1.
         11    1    3    3    0    0  0.18186388067E+02 -0.20677654234E+02  0.16884166528E+02  0.32301473266E+02  0.51100000000E-03 0. -1.
        -11    1    3    3    0    0 -0.15603962273E+02 -0.41441803883E+01  0.24696227963E+01  0.16332694411E+02  0.51100000000E-03 0.  1.
        -12    1    3    3    0    0  0.12373681933E+02  0.16939472450E+02 -0.11299965542E+02  0.23827357233E+02  0.00000000000E+00 0.  1.
</event>
<event>
 7    1  0.1465498E-013  0.7246157E+02  0.7816164E-02  0.1226708E+00
        -11   -1    0    0    0    0  0.00000000000E+00  0.00000000000E+00  0.45593999997E+02  0.45594000000E+02  0.51100000000E-03 0. -1.
         11   -1    0    0    0    0 -0.00000000000E+00 -0.00000000000E+00 -0.45593999997E+02  0.45594000000E+02  0.51100000000E-03 0.  1.
    9900012    2    1    2    0    0 -0.36064607036E+01  0.13227297805E+02 -0.12755829331E+02  0.72461570870E+02  0.70000000750E+02 0.  0.
         12    1    1    2    0    0  0.36064607036E+01 -0.13227297805E+02  0.12755829331E+02  0.18726429130E+02  0.00000000000E+00 0. -1.
         11    1    3    3    0    0  0.14010591562E+01  0.42569540070E+01  0.40815811642E+01  0.60616770978E+01  0.51100000000E-03 0. -1.
        -11    1    3    3    0    0  0.25736343700E+02 -0.60021066035E+01  0.34306990684E+01  0.26648721678E+02  0.51100000000E-03 0.  1.
         12    1    3    3    0    0 -0.30743863559E+02  0.14972450401E+02 -0.20268109564E+02  0.39751172094E+02  0.00000000000E+00 0. -1.
</event>
<event>
 7    1  0.1465498E-013  0.7246162E+02  0.7816164E-02  0.1226708E+00
        -11   -1    0    0    0    0  0.00000000000E+00  0.00000000000E+00  0.45593999997E+02  0.45594000000E+02  0.51100000000E-03 0.  1.
         11   -1    0    0    0    0 -0.00000000000E+00 -0.00000000000E+00 -0.45593999997E+02  0.45594000000E+02  0.51100000000E-03 0. -1.
    9900012    2    1    2    0    0  0.18370692683E+02  0.72634025625E+00  0.35591017978E+01  0.72461624872E+02  0.70000071098E+02 0.  0.
         12    1    1    2    0    0 -0.18370692683E+02 -0.72634025625E+00 -0.35591017978E+01  0.18726375128E+02  0.00000000000E+00 0. -1.
         11    1    3    3    0    0 -0.11724026418E+02  0.26957358019E+01  0.63905075678E+01  0.13621981288E+02  0.51100000000E-03 0. -1.
        -11    1    3    3    0    0  0.15896537524E+02 -0.11306668641E+00  0.23789467880E+02  0.28612086111E+02  0.51100000000E-03 0.  1.
         12    1    3    3    0    0  0.14198181577E+02 -0.18563288592E+01 -0.26620873650E+02  0.30227557474E+02  0.00000000000E+00 0. -1.
</event>
<event>
 7    1  0.1465498E-013  0.7246119E+02  0.7816164E-02  0.1226709E+00
        -11   -1    0    0    0    0  0.00000000000E+00  0.00000000000E+00  0.45593999997E+02  0.45594000000E+02  0.51100000000E-03 0. -1.
         11   -1    0    0    0    0 -0.00000000000E+00 -0.00000000000E+00 -0.45593999997E+02  0.45594000000E+02  0.51100000000E-03 0.  1.
    9900012    2    1    2    0    0 -0.14023019897E+02 -0.12398715328E+02  0.56587485488E+00  0.72461189188E+02  0.69999503537E+02 0.  0.
         12    1    1    2    0    0  0.14023019897E+02  0.12398715328E+02 -0.56587485488E+00  0.18726810812E+02  0.00000000000E+00 0. -1.
         11    1    3    3    0    0  0.16882649890E+02 -0.59005041415E+01 -0.97680736278E+01  0.20377808496E+02  0.51100000000E-03 0. -1.
        -11    1    3    3    0    0  0.67868308972E+01 -0.10450488230E+02 -0.10671227525E+01  0.12506499475E+02  0.51100000000E-03 0.  1.
         12    1    3    3    0    0 -0.37692500684E+02  0.39522770437E+01  0.11401071235E+02  0.39576881218E+02  0.00000000000E+00 0. -1.
</event>
<event>
 7    1  0.1465498E-013  0.7246157E+02  0.7816164E-02  0.1226708E+00
        -11   -1    0    0    0    0  0.00000000000E+00  0.00000000000E+00  0.45593999997E+02  0.45594000000E+02  0.51100000000E-03 0.  1.
         11   -1    0    0    0    0 -0.00000000000E+00 -0.00000000000E+00 -0.45593999997E+02  0.45594000000E+02  0.51100000000E-03 0. -1.
    9900012    2    1    2    0    0  0.12048830425E+02  0.44531208703E+01  0.13626244559E+02  0.72461571060E+02  0.70000000997E+02 0.  0.
         12    1    1    2    0    0 -0.12048830425E+02 -0.44531208703E+01 -0.13626244559E+02  0.18726428940E+02  0.00000000000E+00 0. -1.
         11    1    3    3    0    0 -0.15261169457E+02  0.70757269017E+01 -0.70086758870E+01  0.18223357055E+02  0.51100000000E-03 0. -1.
        -11    1    3    3    0    0 -0.90957473827E+00  0.19705716233E+01  0.25192920548E+02  0.25286235875E+02  0.51100000000E-03 0.  1.
         12    1    3    3    0    0  0.28219574620E+02 -0.45931776548E+01 -0.45580001022E+01  0.28951978130E+02  0.00000000000E+00 0. -1.
</event>
<event>
 7    1  0.1465498E-013  0.7246152E+02  0.7816164E-02  0.1226708E+00
        -11   -1    0    0    0    0  0.00000000000E+00  0.00000000000E+00  0.45593999997E+02  0.45594000000E+02  0.51100000000E-03 0. -1.
         11   -1    0    0    0    0 -0.00000000000E+00 -0.00000000000E+00 -0.45593999997E+02  0.45594000000E+02  0.51100000000E-03 0.  1.
    9900012    2    1    2    0    0 -0.49678437731E+01 -0.40490898128E+01 -0.17595634996E+02  0.72461522195E+02  0.69999937342E+02 0.  0.
         12    1    1    2    0    0  0.49678437731E+01  0.40490898128E+01  0.17595634996E+02  0.18726477805E+02  0.00000000000E+00 0. -1.
         11    1    3    3    0    0  0.10774692841E+01  0.17977573441E+01 -0.31624794551E+01  0.37939620573E+01  0.51100000000E-03 0. -1.
        -11    1    3    3    0    0 -0.10363093582E+02 -0.11790218051E+02 -0.39522068128E+02  0.42525249202E+02  0.51100000000E-03 0.  1.
         12    1    3    3    0    0  0.43177805246E+01  0.59433708943E+01  0.25088912588E+02  0.26142310936E+02  0.00000000000E+00 0. -1.
</event>
<event>
 7    1  0.1465498E-013  0.7246159E+02  0.7816164E-02  0.1226708E+00
        -11   -1    0    0    0    0  0.00000000000E+00  0.00000000000E+00  0.45593999997E+02  0.45594000000E+02  0.51100000000E-03 0. -1.
         11   -1    0    0    0    0 -0.00000000000E+00 -0.00000000000E+00 -0.45593999997E+02  0.45594000000E+02  0.51100000000E-03 0.  1.
    9900012    2    1    2    0    0 -0.14745899674E+01  0.44195111388E+00 -0.18663033754E+02  0.72461586428E+02  0.70000021018E+02 0.  0.
         12    1    1    2    0    0  0.14745899674E+01 -0.44195111388E+00  0.18663033754E+02  0.18726413572E+02  0.00000000000E+00 0. -1.
         11    1    3    3    0    0 -0.19727396134E+02  0.33623653137E+01  0.10257869214E+02  0.22487764224E+02  0.51100000000E-03 0. -1.
        -11    1    3    3    0    0 -0.55242095486E+01  0.10388736165E+02 -0.25195063604E+01  0.12032898355E+02  0.51100000000E-03 0.  1.
        -12    1    3    3    0    0  0.23777015715E+02 -0.13309150365E+02 -0.26401396607E+02  0.37940923850E+02  0.00000000000E+00 0.  1.
</event>
<event>
 7    1  0.1465498E-013  0.7246156E+02  0.7816164E-02  0.1226708E+00
        -11   -1    0    0    0    0  0.00000000000E+00  0.00000000000E+00  0.45593999997E+02  0.45594000000E+02  0.51100000000E-03 0.  1.
         11   -1    0    0    0    0 -0.00000000000E+00 -0.00000000000E+00 -0.45593999997E+02  0.45594000000E+02  0.51100000000E-03 0. -1.
    9900012    2    1    2    0    0 -0.10989718920E+02 -0.12965978809E+01  0.15107096901E+02  0.72461562411E+02  0.69999989730E+02 0.  0.
         12    1    1    2    0    0  0.10989718920E+02  0.12965978809E+01 -0.15107096901E+02  0.18726437589E+02  0.00000000000E+00 0. -1.
         11    1    3    3    0    0  0.27881758077E+02 -0.27905420545E+00  0.13295525120E+02  0.30890796253E+02  0.51100000000E-03 0. -1.
        -11    1    3    3    0    0 -0.30604892733E+01  0.36736762085E+01  0.26051052148E+01  0.54450954921E+01  0.51100000000E-03 0.  1.
        -12    1    3    3    0    0 -0.35810987723E+02 -0.46912198839E+01 -0.79353343386E+00  0.36125670665E+02  0.00000000000E+00 0.  1.
</event>
<event>
 7    1  0.1465498E-013  0.7246160E+02  0.7816164E-02  0.1226708E+00
        -11   -1    0    0    0    0  0.00000000000E+00  0.00000000000E+00  0.45593999997E+02  0.45594000000E+02  0.51100000000E-03 0. -1.
         11   -1    0    0    0    0 -0.00000000000E+00 -0.00000000000E+00 -0.45593999997E+02  0.45594000000E+02  0.51100000000E-03 0.  1.
    9900012    2    1    2    0    0  0.19210399626E+01 -0.97503677659E+01 -0.15871927677E+02  0.72461597401E+02  0.70000035311E+02 0.  0.
         12    1    1    2    0    0 -0.19210399626E+01  0.97503677659E+01  0.15871927677E+02  0.18726402599E+02  0.00000000000E+00 0. -1.
         11    1    3    3    0    0 -0.10211131166E+02 -0.14777775415E+02 -0.67162989544E+01  0.19177030996E+02  0.51100000000E-03 0. -1.
        -11    1    3    3    0    0 -0.17817803691E+02 -0.82373011060E+01 -0.17940548972E+01  0.19711567444E+02  0.51100000000E-03 0.  1.
         12    1    3    3    0    0  0.29949974819E+02  0.13264708755E+02 -0.73615738258E+01  0.33572998961E+02  0.00000000000E+00 0. -1.
</event>
<event>
 7    1  0.1465498E-013  0.7246159E+02  0.7816164E-02  0.1226708E+00
        -11   -1    0    0    0    0  0.00000000000E+00  0.00000000000E+00  0.45593999997E+02  0.45594000000E+02  0.51100000000E-03 0.  1.
         11   -1    0    0    0    0 -0.00000000000E+00 -0.00000000000E+00 -0.45593999997E+02  0.45594000000E+02  0.51100000000E-03 0. -1.
    9900012    2    1    2    0    0  0.77697578999E+01 -0.42283145263E+01  0.16505476876E+02  0.72461586877E+02  0.70000021602E+02 0.  0.
         12    1    1    2    0    0 -0.77697578999E+01  0.42283145263E+01 -0.16505476876E+02  0.18726413123E+02  0.00000000000E+00 0. -1.
         11    1    3    3    0    0  0.44962138950E+01 -0.25499922459E+01 -0.88699548295E+00  0.52445363086E+01  0.51100000000E-03 0. -1.
        -11    1    3    3    0    0  0.24324417963E+02 -0.21525350828E+02 -0.17462328455E+01  0.32527947475E+02  0.51100000000E-03 0.  1.
         12    1    3    3    0    0 -0.21050873958E+02  0.19847028547E+02  0.19138705204E+02  0.34689103094E+02  0.00000000000E+00 0. -1.
</event>
<event>
 7    1  0.1465498E-013  0.7246159E+02  0.7816164E-02  0.1226708E+00
        -11   -1    0    0    0    0  0.00000000000E+00  0.00000000000E+00  0.45593999997E+02  0.45594000000E+02  0.51100000000E-03 0. -1.
         11   -1    0    0    0    0 -0.00000000000E+00 -0.00000000000E+00 -0.45593999997E+02  0.45594000000E+02  0.51100000000E-03 0.  1.
    9900012    2    1    2    0    0 -0.15725417936E+02 -0.44092201083E+01 -0.91623478571E+01  0.72461585247E+02  0.70000019479E+02 0.  0.
         12    1    1    2    0    0  0.15725417936E+02  0.44092201083E+01  0.91623478571E+01  0.18726414753E+02  0.00000000000E+00 0. -1.
         11    1    3    3    0    0 -0.20454792526E+02  0.16984382668E+02  0.18615613132E+01  0.26652076893E+02  0.51100000000E-03 0. -1.
        -11    1    3    3    0    0  0.19500798586E+02 -0.25773206024E+01 -0.94865623426E+01  0.21838465887E+02  0.51100000000E-03 0.  1.
        -12    1    3    3    0    0 -0.14771423996E+02 -0.18816282174E+02 -0.15373468277E+01  0.23971042468E+02  0.00000000000E+00 0.  1.
</event>
<event>
 7    1  0.1465498E-013  0.7246155E+02  0.7816164E-02  0.1226708E+00
        -11   -1    0    0    0    0  0.00000000000E+00  0.00000000000E+00  0.45593999997E+02  0.45594000000E+02  0.51100000000E-03 0. -1.
         11   -1    0    0    0    0 -0.00000000000E+00 -0.00000000000E+00 -0.45593999997E+02  0.45594000000E+02  0.51100000000E-03 0.  1.
    9900012    2    1    2    0    0  0.13283463214E+02 -0.11317134488E+01 -0.13150994656E+02  0.72461552640E+02  0.69999977002E+02 0.  0.
         12    1    1    2    0    0 -0.13283463214E+02  0.11317134488E+01  0.13150994656E+02  0.18726447360E+02  0.00000000000E+00 0. -1.
         11    1    3    3    0    0  0.39171195665E+01 -0.42442763070E+01  0.27108777155E+01  0.63801696935E+01  0.51100000000E-03 0. -1.
        -11    1    3    3    0    0  0.15770863825E+02  0.14139124126E+01 -0.38958378723E+02  0.42053234918E+02  0.51100000000E-03 0.  1.
         12    1    3    3    0    0 -0.64045201767E+01  0.16986504457E+01  0.23096506351E+02  0.24028148028E+02  0.00000000000E+00 0. -1.
</event>
<event>
 7    1  0.1465498E-013  0.7246153E+02  0.7816164E-02  0.1226708E+00
        -11   -1    0    0    0    0  0.00000000000E+00  0.00000000000E+00  0.45593999997E+02  0.45594000000E+02  0.51100000000E-03 0. -1.
         11   -1    0    0    0    0 -0.00000000000E+00 -0.00000000000E+00 -0.45593999997E+02  0.45594000000E+02  0.51100000000E-03 0.  1.
    9900012    2    1    2    0    0 -0.87788088431E+01 -0.16505936362E+02 -0.10803905623E+01  0.72461530401E+02  0.69999948031E+02 0.  0.
         12    1    1    2    0    0  0.87788088431E+01  0.16505936362E+02  0.10803905623E+01  0.18726469599E+02  0.00000000000E+00 0. -1.
         11    1    3    3    0    0  0.15167378531E+02 -0.14452540131E+02  0.25415240126E+02  0.32937208726E+02  0.51100000000E-03 0. -1.
        -11    1    3    3    0    0 -0.67890825422E+01  0.52167465810E+01 -0.20809268275E+01  0.88111488114E+01  0.51100000000E-03 0.  1.
        -12    1    3    3    0    0 -0.17157104832E+02 -0.72701428122E+01 -0.24414703861E+02  0.30713172863E+02  0.00000000000E+00 0.  1.
</event>
<event>
 7    1  0.1465498E-013  0.7246163E+02  0.7816164E-02  0.1226708E+00
        -11   -1    0    0    0    0  0.00000000000E+00  0.00000000000E+00  0.45593999997E+02  0.45594000000E+02  0.51100000000E-03 0.  1.
         11   -1    0    0    0    0 -0.00000000000E+00 -0.00000000000E+00 -0.45593999997E+02  0.45594000000E+02  0.51100000000E-03 0. -1.
    9900012    2    1    2    0    0 -0.11208107666E+02  0.14040926923E+01  0.14935988801E+02  0.72461630485E+02  0.70000078410E+02 0.  0.
         12    1    1    2    0    0  0.11208107666E+02 -0.14040926923E+01 -0.14935988801E+02  0.18726369515E+02  0.00000000000E+00 0. -1.
         11    1    3    3    0    0  0.10222482068E+02  0.15604115409E+02 -0.83595513846E+01  0.20441860408E+02  0.51100000000E-03 0. -1.
        -11    1    3    3    0    0  0.10326893165E+02  0.16303275635E+01  0.20265368813E+01  0.10649391645E+02  0.51100000000E-03 0.  1.
        -12    1    3    3    0    0 -0.31757482899E+02 -0.15830350280E+02  0.21269003304E+02  0.41370378433E+02  0.00000000000E+00 0.  1.
</event>
<event>
 7    1  0.1465498E-013  0.7246154E+02  0.7816164E-02  0.1226708E+00
        -11   -1    0    0    0    0  0.00000000000E+00  0.00000000000E+00  0.45593999997E+02  0.45594000000E+02  0.51100000000E-03 0. -1.
         11   -1    0    0    0    0 -0.00000000000E+00 -0.00000000000E+00 -0.45593999997E+02  0.45594000000E+02  0.51100000000E-03 0.  1.
    9900012    2    1    2    0    0  0.49220496463E+01 -0.19884886803E+01 -0.17958278289E+02  0.72461536932E+02  0.69999956539E+02 0.  0.
         12    1    1    2    0    0 -0.49220496463E+01  0.19884886803E+01  0.17958278289E+02  0.18726463068E+02  0.00000000000E+00 0. -1.
         11    1    3    3    0    0  0.90626721347E+01  0.84464257127E+01  0.13645191368E+02  0.18430013057E+02  0.51100000000E-03 0. -1.
        -11    1    3    3    0    0  0.14126371014E+02  0.88503603674E+01 -0.16593571070E+02  0.23520838373E+02  0.51100000000E-03 0.  1.
         12    1    3    3    0    0 -0.18266993503E+02 -0.19285274760E+02 -0.15009898587E+02  0.30510685502E+02  0.00000000000E+00 0. -1.
</event>
<event>
 7    1  0.1465498E-013  0.7246154E+02  0.7816164E-02  0.1226708E+00
        -11   -1    0    0    0    0  0.00000000000E+00  0.00000000000E+00  0.45593999997E+02  0.45594000000E+02  0.51100000000E-03 0. -1.
         11   -1    0    0    0    0 -0.00000000000E+00 -0.00000000000E+00 -0.45593999997E+02  0.45594000000E+02  0.51100000000E-03 0.  1.
    9900012    2    1    2    0    0 -0.15665888324E+02 -0.10069486219E+02 -0.19660910860E+01  0.72461544813E+02  0.69999966806E+02 0.  0.
         12    1    1    2    0    0  0.15665888324E+02  0.10069486219E+02  0.19660910860E+01  0.18726455187E+02  0.00000000000E+00 0. -1.
         11    1    3    3    0    0  0.72006241691E+00  0.83639578448E+01  0.20158590667E+02  0.21836736447E+02  0.51100000000E-03 0. -1.
        -11    1    3    3    0    0 -0.27135391755E+02 -0.52967898970E+01 -0.87015919864E+01  0.28984533329E+02  0.51100000000E-03 0.  1.
        -12    1    3    3    0    0  0.10749441014E+02 -0.13136654167E+02 -0.13423089767E+02  0.21640275037E+02  0.00000000000E+00 0.  1.
</event>
<event>
 7    1  0.1465498E-013  0.7246157E+02  0.7816164E-02  0.1226708E+00
        -11   -1    0    0    0    0  0.00000000000E+00  0.00000000000E+00  0.45593999997E+02  0.45594000000E+02  0.51100000000E-03 0. -1.
         11   -1    0    0    0    0 -0.00000000000E+00 -0.00000000000E+00 -0.45593999997E+02  0.45594000000E+02  0.51100000000E-03 0.  1.
    9900012    2    1    2    0    0  0.29719749840E+01 -0.13935308996E+02 -0.12151277337E+02  0.72461574473E+02  0.70000005443E+02 0.  0.
         12    1    1    2    0    0 -0.29719749840E+01  0.13935308996E+02  0.12151277337E+02  0.18726425527E+02  0.00000000000E+00 0. -1.
         11    1    3    3    0    0 -0.10632490660E+02  0.99041115366E+01 -0.22514727344E+02  0.26796533929E+02  0.51100000000E-03 0. -1.
        -11    1    3    3    0    0 -0.59536510956E+01  0.54154697785E+01  0.63397761836E+01  0.10245293388E+02  0.51100000000E-03 0.  1.
        -12    1    3    3    0    0  0.19558116740E+02 -0.29254890311E+02  0.40236738237E+01  0.35419747155E+02  0.00000000000E+00 0.  1.
</event>
<event>
 7    1  0.1465498E-013  0.7246156E+02  0.7816164E-02  0.1226708E+00
        -11   -1    0    0    0    0  0.00000000000E+00  0.00000000000E+00  0.45593999997E+02  0.45594000000E+02  0.51100000000E-03 0.  1.
         11   -1    0    0    0    0 -0.00000000000E+00 -0.00000000000E+00 -0.45593999997E+02  0.45594000000E+02  0.51100000000E-03 0. -1.
    9900012    2    1    2    0    0  0.15078990337E+02 -0.35093375756E+01  0.10535088481E+02  0.72461561761E+02  0.69999988884E+02 0.  0.
         12    1    1    2    0    0 -0.15078990337E+02  0.35093375756E+01 -0.10535088481E+02  0.18726438239E+02  0.00000000000E+00 0. -1.
         11    1    3    3    0    0 -0.14196492002E+01  0.70871376758E-01  0.80031917870E+00  0.16312380736E+01  0.51100000000E-03 0. -1.
        -11    1    3    3    0    0  0.70396240726E+01 -0.24806785802E+02  0.30307973384E+02  0.39793293151E+02  0.51100000000E-03 0.  1.
         12    1    3    3    0    0  0.94590154650E+01  0.21226576850E+02 -0.20573204082E+02  0.31037030536E+02  0.00000000000E+00 0. -1.
</event>
<event>
 7    1  0.1465498E-013  0.7246154E+02  0.7816164E-02  0.1226708E+00
        -11   -1    0    0    0    0  0.00000000000E+00  0.00000000000E+00  0.45593999997E+02  0.45594000000E+02  0.51100000000E-03 0.  1.
         11   -1    0    0    0    0 -0.00000000000E+00 -0.00000000000E+00 -0.45593999997E+02  0.45594000000E+02  0.51100000000E-03 0. -1.
    9900012    2    1    2    0    0 -0.10137725525E+01 -0.13223802583E+02  0.13220573542E+02  0.72461541330E+02  0.69999962269E+02 0.  0.
         12    1    1    2    0    0  0.10137725525E+01  0.13223802583E+02 -0.13220573542E+02  0.18726458670E+02  0.00000000000E+00 0. -1.
         11    1    3    3    0    0 -0.10495014041E+02  0.12983750946E+02 -0.15112837471E+02  0.22519346462E+02  0.51100000000E-03 0. -1.
        -11    1    3    3    0    0 -0.91014071078E+00 -0.13466815196E+02 -0.36483682345E+01  0.13981918991E+02  0.51100000000E-03 0.  1.
         12    1    3    3    0    0  0.10391382200E+02 -0.12740738333E+02  0.31981779248E+02  0.35960275877E+02  0.00000000000E+00 0. -1.
</event>
<event>
 7    1  0.1465498E-013  0.7246160E+02  0.7816164E-02  0.1226708E+00
        -11   -1    0    0    0    0  0.00000000000E+00  0.00000000000E+00  0.45593999997E+02  0.45594000000E+02  0.51100000000E-03 0.  1.
         11   -1    0    0    0    0 -0.00000000000E+00 -0.00000000000E+00 -0.45593999997E+02  0.45594000000E+02  0.51100000000E-03 0. -1.
    9900012    2    1    2    0    0  0.32883832383E+01  0.27023398056E+01  0.18236280123E+02  0.72461601055E+02  0.70000040071E+02 0.  0.
         12    1    1    2    0    0 -0.32883832383E+01 -0.27023398056E+01 -0.18236280123E+02  0.18726398945E+02  0.00000000000E+00 0. -1.
         11    1    3    3    0    0 -0.52754814158E+01 -0.46821322188E+00  0.33494626909E+01  0.62664845303E+01  0.51100000000E-03 0. -1.
        -11    1    3    3    0    0  0.16704310788E+02 -0.22414578653E+02  0.25001990943E+02  0.37503958278E+02  0.51100000000E-03 0.  1.
         12    1    3    3    0    0 -0.81404461337E+01  0.25585131681E+02 -0.10115173511E+02  0.28691158247E+02  0.00000000000E+00 0. -1.
</event>
<event>
 7    1  0.1465498E-013  0.7246149E+02  0.7816164E-02  0.1226708E+00
        -11   -1    0    0    0    0  0.00000000000E+00  0.00000000000E+00  0.45593999997E+02  0.45594000000E+02  0.51100000000E-03 0. -1.
         11   -1    0    0    0    0 -0.00000000000E+00 -0.00000000000E+00 -0.45593999997E+02  0.45594000000E+02  0.51100000000E-03 0.  1.
    9900012    2    1    2    0    0  0.25406349633E+01  0.96627444430E+01 -0.15838516643E+02  0.72461492968E+02  0.69999899267E+02 0.  0.
         12    1    1    2    0    0 -0.25406349633E+01 -0.96627444430E+01  0.15838516643E+02  0.18726507032E+02  0.00000000000E+00 0. -1.
         11    1    3    3    0    0  0.56318411131E+01 -0.12442097475E+02  0.11402579398E+01  0.13704875495E+02  0.51100000000E-03 0. -1.
        -11    1    3    3    0    0  0.20968086436E+02  0.23062220352E+02 -0.40632281880E+01  0.31433047576E+02  0.51100000000E-03 0.  1.
        -12    1    3    3    0    0 -0.24059292586E+02 -0.95737843402E+00 -0.12915546395E+02  0.27323569896E+02  0.00000000000E+00 0.  1.
</event>
<event>
 7    1  0.1465498E-013  0.7246153E+02  0.7816164E-02  0.1226708E+00
        -11   -1    0    0    0    0  0.00000000000E+00  0.00000000000E+00  0.45593999997E+02  0.45594000000E+02  0.51100000000E-03 0.  1.
         11   -1    0    0    0    0 -0.00000000000E+00 -0.00000000000E+00 -0.45593999997E+02  0.45594000000E+02  0.51100000000E-03 0. -1.
    9900012    2    1    2    0    0  0.73684539907E+01  0.45132760084E+01  0.16613755903E+02  0.72461530505E+02  0.69999948167E+02 0.  0.
         12    1    1    2    0    0 -0.73684539907E+01 -0.45132760084E+01 -0.16613755903E+02  0.18726469495E+02  0.00000000000E+00 0. -1.
         11    1    3    3    0    0  0.10464950484E+02  0.21570051123E+02  0.25451435420E+02  0.34965094870E+02  0.51100000000E-03 0. -1.
        -11    1    3    3    0    0  0.48543284424E+01  0.82794026645E+01 -0.29630828280E+00  0.96021253880E+01  0.51100000000E-03 0.  1.
        -12    1    3    3    0    0 -0.79508249356E+01 -0.25336177779E+02 -0.85413712348E+01  0.27894310247E+02  0.00000000000E+00 0.  1.
</event>
<event>
 7    1  0.1465498E-013  0.7246166E+02  0.7816164E-02  0.1226708E+00
        -11   -1    0    0    0    0  0.00000000000E+00  0.00000000000E+00  0.45593999997E+02  0.45594000000E+02  0.51100000000E-03 0. -1.
         11   -1    0    0    0    0 -0.00000000000E+00 -0.00000000000E+00 -0.45593999997E+02  0.45594000000E+02  0.51100000000E-03 0.  1.
    9900012    2    1    2    0    0  0.17215753387E+01  0.71720752559E+01 -0.17212595978E+02  0.72461656378E+02  0.70000112140E+02 0.  0.
         12    1    1    2    0    0 -0.17215753387E+01 -0.71720752559E+01  0.17212595978E+02  0.18726343622E+02  0.00000000000E+00 0. -1.
         11    1    3    3    0    0 -0.24265859703E+02  0.85364807194E+01 -0.78885435869E+01  0.26905995064E+02  0.51100000000E-03 0. -1.
        -11    1    3    3    0    0  0.23214285816E+02  0.11892320548E+02 -0.15850396254E+02  0.30521556573E+02  0.51100000000E-03 0.  1.
         12    1    3    3    0    0  0.27731492248E+01 -0.13256726011E+02  0.65263438629E+01  0.15034104741E+02  0.00000000000E+00 0. -1.
</event>
<event>
 7    1  0.1465498E-013  0.7246159E+02  0.7816164E-02  0.1226708E+00
        -11   -1    0    0    0    0  0.00000000000E+00  0.00000000000E+00  0.45593999997E+02  0.45594000000E+02  0.51100000000E-03 0. -1.
         11   -1    0    0    0    0 -0.00000000000E+00 -0.00000000000E+00 -0.45593999997E+02  0.45594000000E+02  0.51100000000E-03 0.  1.
    9900012    2    1    2    0    0 -0.10521503998E+02 -0.11221408237E+02 -0.10679717568E+02  0.72461590399E+02  0.70000026191E+02 0.  0.
         12    1    1    2    0    0  0.10521503998E+02  0.11221408237E+02  0.10679717568E+02  0.18726409601E+02  0.00000000000E+00 0. -1.
         11    1    3    3    0    0 -0.54739786893E+01 -0.61435678828E+01 -0.88021861584E+01  0.12049329876E+02  0.51100000000E-03 0. -1.
        -11    1    3    3    0    0  0.11641167931E+01  0.99060085199E+01 -0.27966551446E+02  0.29691954680E+02  0.51100000000E-03 0.  1.
         12    1    3    3    0    0 -0.62116421019E+01 -0.14983848874E+02  0.26089020036E+02  0.30720305843E+02  0.00000000000E+00 0. -1.
</event>
<event>
 7    1  0.1465498E-013  0.7246217E+02  0.7816164E-02  0.1226706E+00
        -11   -1    0    0    0    0  0.00000000000E+00  0.00000000000E+00  0.45593999997E+02  0.45594000000E+02  0.51100000000E-03 0. -1.
         11   -1    0    0    0    0 -0.00000000000E+00 -0.00000000000E+00 -0.45593999997E+02  0.45594000000E+02  0.51100000000E-03 0.  1.
    9900012    2    1    2    0    0  0.44673272231E+01  0.14674152869E+02 -0.10740993392E+02  0.72462169872E+02  0.70000781057E+02 0.  0.
         12    1    1    2    0    0 -0.44673272231E+01 -0.14674152869E+02  0.10740993392E+02  0.18725830128E+02  0.00000000000E+00 0. -1.
         11    1    3    3    0    0  0.81607937783E+01  0.13774251157E+01  0.83419677666E+01  0.11750926837E+02  0.51100000000E-03 0. -1.
        -11    1    3    3    0    0 -0.15086425016E+01  0.19879524909E+02 -0.36706893057E+02  0.41771611304E+02  0.51100000000E-03 0.  1.
         12    1    3    3    0    0 -0.21848240535E+01 -0.65827971558E+01  0.17623931898E+02  0.18939631731E+02  0.00000000000E+00 0. -1.
</event>
<event>
 7    1  0.1465498E-013  0.7246155E+02  0.7816164E-02  0.1226708E+00
        -11   -1    0    0    0    0  0.00000000000E+00  0.00000000000E+00  0.45593999997E+02  0.45594000000E+02  0.51100000000E-03 0. -1.
         11   -1    0    0    0    0 -0.00000000000E+00 -0.00000000000E+00 -0.45593999997E+02  0.45594000000E+02  0.51100000000E-03 0.  1.
    9900012    2    1    2    0    0 -0.76460816152E+01  0.15826762041E+02 -0.64599509612E+01  0.72461550064E+02  0.69999973647E+02 0.  0.
         12    1    1    2    0    0  0.76460816152E+01 -0.15826762041E+02  0.64599509612E+01  0.18726449936E+02  0.00000000000E+00 0. -1.
         11    1    3    3    0    0 -0.13581968378E+01 -0.15103215537E+02  0.13339381997E+01  0.15222720177E+02  0.51100000000E-03 0. -1.
        -11    1    3    3    0    0 -0.15886987616E+02  0.20904734488E+01 -0.18990011601E+02  0.24847273404E+02  0.51100000000E-03 0.  1.
         12    1    3    3    0    0  0.95991028385E+01  0.28839504129E+02  0.11196122440E+02  0.32391556483E+02  0.00000000000E+00 0. -1.
</event>
<event>
 7    1  0.1465498E-013  0.7246154E+02  0.7816164E-02  0.1226708E+00
        -11   -1    0    0    0    0  0.00000000000E+00  0.00000000000E+00  0.45593999997E+02  0.45594000000E+02  0.51100000000E-03 0. -1.
         11   -1    0    0    0    0 -0.00000000000E+00 -0.00000000000E+00 -0.45593999997E+02  0.45594000000E+02  0.51100000000E-03 0.  1.
    9900012    2    1    2    0    0  0.40460165919E+01 -0.14205543637E+02 -0.11511403315E+02  0.72461544741E+02  0.69999966713E+02 0.  0.
         12    1    1    2    0    0 -0.40460165919E+01  0.14205543637E+02  0.11511403315E+02  0.18726455259E+02  0.00000000000E+00 0. -1.
         11    1    3    3    0    0  0.11907918341E+02 -0.88849920881E+01 -0.95033112204E+01  0.17636738022E+02  0.51100000000E-03 0. -1.
        -11    1    3    3    0    0 -0.25043118813E+02 -0.18630366658E+02 -0.81130830920E+01  0.32250123708E+02  0.51100000000E-03 0.  1.
         12    1    3    3    0    0  0.17181217063E+02  0.13309815109E+02  0.61049909977E+01  0.22574683012E+02  0.00000000000E+00 0. -1.
</event>
<event>
 7    1  0.1465498E-013  0.7246153E+02  0.7816164E-02  0.1226708E+00
        -11   -1    0    0    0    0  0.00000000000E+00  0.00000000000E+00  0.45593999997E+02  0.45594000000E+02  0.51100000000E-03 0. -1.
         11   -1    0    0    0    0 -0.00000000000E+00 -0.00000000000E+00 -0.45593999997E+02  0.45594000000E+02  0.51100000000E-03 0.  1.
    9900012    2    1    2    0    0 -0.30069411612E+01 -0.12060408070E+02 -0.14006626029E+02  0.72461529145E+02  0.69999946395E+02 0.  0.
         12    1    1    2    0    0  0.30069411612E+01  0.12060408070E+02  0.14006626029E+02  0.18726470855E+02  0.00000000000E+00 0. -1.
         11    1    3    3    0    0 -0.27081212523E+02  0.16472015335E+02 -0.58524136095E+01  0.32233059213E+02  0.51100000000E-03 0.  1.
        -11    1    3    3    0    0  0.31851085787E+01 -0.12630303868E+02 -0.12693076413E+01  0.13087422764E+02  0.51100000000E-03 0. -1.
        -12    1    3    3    0    0  0.20889162783E+02 -0.15902119538E+02 -0.68849047785E+01  0.27141047168E+02  0.00000000000E+00 0.  1.
</event>
<event>
 7    1  0.1465498E-013  0.7246154E+02  0.7816164E-02  0.1226708E+00
        -11   -1    0    0    0    0  0.00000000000E+00  0.00000000000E+00  0.45593999997E+02  0.45594000000E+02  0.51100000000E-03 0. -1.
         11   -1    0    0    0    0 -0.00000000000E+00 -0.00000000000E+00 -0.45593999997E+02  0.45594000000E+02  0.51100000000E-03 0.  1.
    9900012    2    1    2    0    0 -0.54080016317E+01  0.16799615821E+02 -0.62615313320E+01  0.72461538829E+02  0.69999959011E+02 0.  0.
         12    1    1    2    0    0  0.54080016317E+01 -0.16799615821E+02  0.62615313320E+01  0.18726461171E+02  0.00000000000E+00 0. -1.
         11    1    3    3    0    0  0.31494474050E+02  0.41906304528E+01 -0.44090582211E+01  0.32076519043E+02  0.51100000000E-03 0. -1.
        -11    1    3    3    0    0 -0.14189843708E+01  0.98799751373E+00 -0.25020655581E+01  0.30413793006E+01  0.51100000000E-03 0.  1.
        -12    1    3    3    0    0 -0.35483491311E+02  0.11620987854E+02  0.64959244718E+00  0.37343640485E+02  0.00000000000E+00 0.  1.
</event>
<event>
 7    1  0.1465498E-013  0.7246159E+02  0.7816164E-02  0.1226708E+00
        -11   -1    0    0    0    0  0.00000000000E+00  0.00000000000E+00  0.45593999997E+02  0.45594000000E+02  0.51100000000E-03 0. -1.
         11   -1    0    0    0    0 -0.00000000000E+00 -0.00000000000E+00 -0.45593999997E+02  0.45594000000E+02  0.51100000000E-03 0.  1.
    9900012    2    1    2    0    0  0.97751675359E+01  0.13462304864E+02 -0.85959798986E+01  0.72461590226E+02  0.70000025965E+02 0.  0.
         12    1    1    2    0    0 -0.97751675359E+01 -0.13462304864E+02  0.85959798986E+01  0.18726409774E+02  0.00000000000E+00 0. -1.
         11    1    3    3    0    0  0.30464151278E+02 -0.68450911913E+00 -0.15622586531E+02  0.34243222337E+02  0.51100000000E-03 0. -1.
        -11    1    3    3    0    0 -0.25880413533E+01 -0.66040016369E+01 -0.44640902726E+01  0.83808649846E+01  0.51100000000E-03 0.  1.
         12    1    3    3    0    0 -0.18100942389E+02  0.20750815620E+02  0.11490696905E+02  0.29837502905E+02  0.00000000000E+00 0. -1.
</event>
<event>
 7    1  0.1465498E-013  0.7246156E+02  0.7816164E-02  0.1226708E+00
        -11   -1    0    0    0    0  0.00000000000E+00  0.00000000000E+00  0.45593999997E+02  0.45594000000E+02  0.51100000000E-03 0. -1.
         11   -1    0    0    0    0 -0.00000000000E+00 -0.00000000000E+00 -0.45593999997E+02  0.45594000000E+02  0.51100000000E-03 0.  1.
    9900012    2    1    2    0    0  0.25956927431E+01 -0.10275551748E+02 -0.15438743574E+02  0.72461564469E+02  0.69999992412E+02 0.  0.
         12    1    1    2    0    0 -0.25956927431E+01  0.10275551748E+02  0.15438743574E+02  0.18726435531E+02  0.00000000000E+00 0. -1.
         11    1    3    3    0    0  0.24831446925E+01  0.10932901384E+01  0.58835884029E+01  0.64790357035E+01  0.51100000000E-03 0. -1.
        -11    1    3    3    0    0  0.20523912325E+02  0.14686572821E+02  0.22657178666E+01  0.25338900451E+02  0.51100000000E-03 0.  1.
         12    1    3    3    0    0 -0.20411364275E+02 -0.26055414708E+02 -0.23588049844E+02  0.40643628314E+02  0.00000000000E+00 0. -1.
</event>
<event>
 7    1  0.1465498E-013  0.7246081E+02  0.7816164E-02  0.1226710E+00
        -11   -1    0    0    0    0  0.00000000000E+00  0.00000000000E+00  0.45593999997E+02  0.45594000000E+02  0.51100000000E-03 0.  1.
         11   -1    0    0    0    0 -0.00000000000E+00 -0.00000000000E+00 -0.45593999997E+02  0.45594000000E+02  0.51100000000E-03 0. -1.
    9900012    2    1    2    0    0  0.14973322090E+02 -0.17170331234E+01  0.11115711371E+02  0.72460810771E+02  0.69999010572E+02 0.  0.
         12    1    1    2    0    0 -0.14973322090E+02  0.17170331234E+01 -0.11115711371E+02  0.18727189229E+02  0.00000000000E+00 0. -1.
         11    1    3    3    0    0 -0.10560284284E+02  0.30022874464E+01 -0.32706302331E+01  0.11455581890E+02  0.51100000000E-03 0. -1.
        -11    1    3    3    0    0 -0.10493368120E+02  0.11044567981E+02  0.15406883568E+02  0.21667148357E+02  0.51100000000E-03 0.  1.
         12    1    3    3    0    0  0.36026974493E+02 -0.15763888551E+02 -0.10205419642E+01  0.39338080524E+02  0.00000000000E+00 0. -1.
</event>
<event>
 7    1  0.1465498E-013  0.7246162E+02  0.7816164E-02  0.1226708E+00
        -11   -1    0    0    0    0  0.00000000000E+00  0.00000000000E+00  0.45593999997E+02  0.45594000000E+02  0.51100000000E-03 0. -1.
         11   -1    0    0    0    0 -0.00000000000E+00 -0.00000000000E+00 -0.45593999997E+02  0.45594000000E+02  0.51100000000E-03 0.  1.
    9900012    2    1    2    0    0  0.18137080119E+01 -0.62704052526E+01 -0.17551922263E+02  0.72461615034E+02  0.70000058281E+02 0.  0.
         12    1    1    2    0    0 -0.18137080119E+01  0.62704052526E+01  0.17551922263E+02  0.18726384966E+02  0.00000000000E+00 0. -1.
         11    1    3    3    0    0  0.50272290359E+01 -0.18480491432E+02  0.24684265249E+00  0.19153655706E+02  0.51100000000E-03 0. -1.
        -11    1    3    3    0    0  0.75222294992E+01 -0.90303645747E+01 -0.25676580460E+02  0.28238594253E+02  0.51100000000E-03 0.  1.
         12    1    3    3    0    0 -0.10735750523E+02  0.21240450754E+02  0.78778155449E+01  0.25069365075E+02  0.00000000000E+00 0. -1.
</event>
<event>
 7    1  0.1465498E-013  0.7246180E+02  0.7816164E-02  0.1226707E+00
        -11   -1    0    0    0    0  0.00000000000E+00  0.00000000000E+00  0.45593999997E+02  0.45594000000E+02  0.51100000000E-03 0.  1.
         11   -1    0    0    0    0 -0.00000000000E+00 -0.00000000000E+00 -0.45593999997E+02  0.45594000000E+02  0.51100000000E-03 0. -1.
    9900012    2    1    2    0    0 -0.14997569808E+01  0.94721294812E+01  0.16084158287E+02  0.72461797617E+02  0.70000296129E+02 0.  0.
         12    1    1    2    0    0  0.14997569808E+01 -0.94721294812E+01 -0.16084158287E+02  0.18726202383E+02  0.00000000000E+00 0. -1.
         11    1    3    3    0    0  0.98201707646E+00  0.15310154069E+02  0.51008151070E+01  0.16167358788E+02  0.51100000000E-03 0. -1.
        -11    1    3    3    0    0  0.12240670925E+01 -0.50049453528E+01  0.33280036543E+02  0.33676529673E+02  0.51100000000E-03 0.  1.
         12    1    3    3    0    0 -0.37058411498E+01 -0.83307923487E+00 -0.22296693364E+02  0.22617909156E+02  0.00000000000E+00 0. -1.
</event>
<event>
 7    1  0.1481069E-013  0.7246157E+02  0.7816164E-02  0.1226708E+00
        -11   -1    0    0    0    0  0.00000000000E+00  0.00000000000E+00  0.45593999997E+02  0.45594000000E+02  0.51100000000E-03 0. -1.
         11   -1    0    0    0    0 -0.00000000000E+00 -0.00000000000E+00 -0.45593999997E+02  0.45594000000E+02  0.51100000000E-03 0.  1.
    9900012    2    1    2    0    0 -0.11075805834E+01 -0.15275074206E+02 -0.10776118722E+02  0.72461565169E+02  0.69999993323E+02 0.  0.
         12    1    1    2    0    0  0.11075805834E+01  0.15275074206E+02  0.10776118722E+02  0.18726434831E+02  0.00000000000E+00 0. -1.
         11    1    3    3    0    0  0.96420525662E+01 -0.18180571592E+02  0.12934874600E+02  0.24306652223E+02  0.51100000000E-03 0. -1.
        -11    1    3    3    0    0  0.10857080650E+02 -0.10140272990E+02 -0.15839748097E+02  0.21716329261E+02  0.51100000000E-03 0.  1.
        -12    1    3    3    0    0 -0.21606713799E+02  0.13045770375E+02 -0.78712452258E+01  0.26438583686E+02  0.00000000000E+00 0.  1.
</event>
<event>
 7    1  0.1465498E-013  0.7246159E+02  0.7816164E-02  0.1226708E+00
        -11   -1    0    0    0    0  0.00000000000E+00  0.00000000000E+00  0.45593999997E+02  0.45594000000E+02  0.51100000000E-03 0. -1.
         11   -1    0    0    0    0 -0.00000000000E+00 -0.00000000000E+00 -0.45593999997E+02  0.45594000000E+02  0.51100000000E-03 0.  1.
    9900012    2    1    2    0    0  0.40258011062E+01 -0.12314351240E+02 -0.13521400047E+02  0.72461586028E+02  0.70000020496E+02 0.  0.
         12    1    1    2    0    0 -0.40258011062E+01  0.12314351240E+02  0.13521400047E+02  0.18726413972E+02  0.00000000000E+00 0. -1.
         11    1    3    3    0    0  0.23890259353E+01 -0.76462259037E+01 -0.15568676224E+02  0.17508737680E+02  0.51100000000E-03 0. -1.
        -11    1    3    3    0    0  0.18506744915E+02 -0.15280825701E+02 -0.15356985416E+02  0.28492810370E+02  0.51100000000E-03 0.  1.
         12    1    3    3    0    0 -0.16869969744E+02  0.10612700365E+02  0.17404261594E+02  0.26460037978E+02  0.00000000000E+00 0. -1.
</event>
<event>
 7    1  0.1465498E-013  0.7246156E+02  0.7816164E-02  0.1226708E+00
        -11   -1    0    0    0    0  0.00000000000E+00  0.00000000000E+00  0.45593999997E+02  0.45594000000E+02  0.51100000000E-03 0.  1.
         11   -1    0    0    0    0 -0.00000000000E+00 -0.00000000000E+00 -0.45593999997E+02  0.45594000000E+02  0.51100000000E-03 0. -1.
    9900012    2    1    2    0    0 -0.14511942422E+02  0.35075469931E+01  0.11303986596E+02  0.72461562225E+02  0.69999989488E+02 0.  0.
         12    1    1    2    0    0  0.14511942422E+02 -0.35075469931E+01 -0.11303986596E+02  0.18726437775E+02  0.00000000000E+00 0. -1.
         11    1    3    3    0    0 -0.21340663116E+02 -0.80625129602E+01  0.20106438182E+02  0.30408828884E+02  0.51100000000E-03 0. -1.
        -11    1    3    3    0    0 -0.17213562019E+01 -0.14027789020E+02 -0.30727574775E+01  0.14463186742E+02  0.51100000000E-03 0.  1.
         12    1    3    3    0    0  0.85500768961E+01  0.25597848973E+02 -0.57296941085E+01  0.27589546599E+02  0.00000000000E+00 0. -1.
</event>
<event>
 7    1  0.1465498E-013  0.7246155E+02  0.7816164E-02  0.1226708E+00
        -11   -1    0    0    0    0  0.00000000000E+00  0.00000000000E+00  0.45593999997E+02  0.45594000000E+02  0.51100000000E-03 0.  1.
         11   -1    0    0    0    0 -0.00000000000E+00 -0.00000000000E+00 -0.45593999997E+02  0.45594000000E+02  0.51100000000E-03 0. -1.
    9900012    2    1    2    0    0 -0.15712163421E+02 -0.54860401108E+01  0.85855289195E+01  0.72461547525E+02  0.69999970339E+02 0.  0.
         12    1    1    2    0    0  0.15712163421E+02  0.54860401108E+01 -0.85855289195E+01  0.18726452475E+02  0.00000000000E+00 0. -1.
         11    1    3    3    0    0 -0.92849435432E+01  0.16743338121E+02  0.83174499292E+01  0.20874135231E+02  0.51100000000E-03 0. -1.
        -11    1    3    3    0    0 -0.18926595936E+02 -0.10714946892E+02  0.17101252029E+02  0.27667290107E+02  0.51100000000E-03 0.  1.
         12    1    3    3    0    0  0.12499376058E+02 -0.11514431340E+02 -0.16833173039E+02  0.23920122188E+02  0.00000000000E+00 0. -1.
</event>
<event>
 7    1  0.1465498E-013  0.7246156E+02  0.7816164E-02  0.1226708E+00
        -11   -1    0    0    0    0  0.00000000000E+00  0.00000000000E+00  0.45593999997E+02  0.45594000000E+02  0.51100000000E-03 0. -1.
         11   -1    0    0    0    0 -0.00000000000E+00 -0.00000000000E+00 -0.45593999997E+02  0.45594000000E+02  0.51100000000E-03 0.  1.
    9900012    2    1    2    0    0 -0.10215447233E+02  0.73129210933E+01 -0.13886882686E+02  0.72461556456E+02  0.69999981972E+02 0.  0.
         12    1    1    2    0    0  0.10215447233E+02 -0.73129210933E+01  0.13886882686E+02  0.18726443544E+02  0.00000000000E+00 0. -1.
         11    1    3    3    0    0 -0.21927454056E+00  0.10414595975E+02 -0.32308648384E+02  0.33946437976E+02  0.51100000000E-03 0.  1.
        -11    1    3    3    0    0 -0.48312524052E+01  0.11123394589E+02 -0.28035040123E+01  0.12447109785E+02  0.51100000000E-03 0. -1.
        -12    1    3    3    0    0 -0.51649202877E+01 -0.14225069470E+02  0.21225269710E+02  0.26068008694E+02  0.00000000000E+00 0.  1.
</event>
<event>
 7    1  0.1465498E-013  0.7246157E+02  0.7816164E-02  0.1226708E+00
        -11   -1    0    0    0    0  0.00000000000E+00  0.00000000000E+00  0.45593999997E+02  0.45594000000E+02  0.51100000000E-03 0.  1.
         11   -1    0    0    0    0 -0.00000000000E+00 -0.00000000000E+00 -0.45593999997E+02  0.45594000000E+02  0.51100000000E-03 0. -1.
    9900012    2    1    2    0    0  0.17984635477E+02  0.12334347518E+01  0.50705645382E+01  0.72461572170E+02  0.70000002444E+02 0.  0.
         12    1    1    2    0    0 -0.17984635477E+02 -0.12334347518E+01 -0.50705645382E+01  0.18726427830E+02  0.00000000000E+00 0. -1.
         11    1    3    3    0    0  0.14755615124E+01 -0.27505673879E+02 -0.98396626384E+01  0.29249928861E+02  0.51100000000E-03 0. -1.
        -11    1    3    3    0    0  0.11228100877E+01  0.14112559833E+02 -0.40746353977E+01  0.14731860080E+02  0.51100000000E-03 0.  1.
        -12    1    3    3    0    0  0.15386263877E+02  0.14626548797E+02  0.18984862574E+02  0.28479783229E+02  0.00000000000E+00 0.  1.
</event>
<event>
 7    1  0.1465498E-013  0.7246158E+02  0.7816164E-02  0.1226708E+00
        -11   -1    0    0    0    0  0.00000000000E+00  0.00000000000E+00  0.45593999997E+02  0.45594000000E+02  0.51100000000E-03 0.  1.
         11   -1    0    0    0    0 -0.00000000000E+00 -0.00000000000E+00 -0.45593999997E+02  0.45594000000E+02  0.51100000000E-03 0. -1.
    9900012    2    1    2    0    0 -0.32373701588E+01  0.17828342894E+02  0.47274069133E+01  0.72461581442E+02  0.70000014521E+02 0.  0.
         12    1    1    2    0    0  0.32373701588E+01 -0.17828342894E+02 -0.47274069133E+01  0.18726418558E+02  0.00000000000E+00 0. -1.
         11    1    3    3    0    0 -0.19416626211E+02  0.33300180442E+02  0.92790408742E+01  0.39648555972E+02  0.51100000000E-03 0. -1.
        -11    1    3    3    0    0 -0.12540191614E+01 -0.36776197551E+01  0.75808312731E+01  0.85185946125E+01  0.51100000000E-03 0.  1.
        -12    1    3    3    0    0  0.17433275214E+02 -0.11794217792E+02 -0.12132465234E+02  0.24294430857E+02  0.00000000000E+00 0.  1.
</event>
<event>
 7    1  0.1465498E-013  0.7246159E+02  0.7816164E-02  0.1226708E+00
        -11   -1    0    0    0    0  0.00000000000E+00  0.00000000000E+00  0.45593999997E+02  0.45594000000E+02  0.51100000000E-03 0. -1.
         11   -1    0    0    0    0 -0.00000000000E+00 -0.00000000000E+00 -0.45593999997E+02  0.45594000000E+02  0.51100000000E-03 0.  1.
    9900012    2    1    2    0    0  0.13625128376E+02 -0.16043903834E+01 -0.12745991380E+02  0.72461588491E+02  0.70000023704E+02 0.  0.
         12    1    1    2    0    0 -0.13625128376E+02  0.16043903834E+01  0.12745991380E+02  0.18726411509E+02  0.00000000000E+00 0. -1.
         11    1    3    3    0    0  0.46157650962E+01  0.14425520933E+02 -0.11886968934E+02  0.19253596347E+02  0.51100000000E-03 0. -1.
        -11    1    3    3    0    0  0.20613882501E+01 -0.16408997123E+02 -0.23942288048E+02  0.29098757110E+02  0.51100000000E-03 0.  1.
        -12    1    3    3    0    0  0.69479750296E+01  0.37908580646E+00  0.23083265602E+02  0.24109235034E+02  0.00000000000E+00 0.  1.
</event>
<event>
 7    1  0.1465498E-013  0.7246159E+02  0.7816164E-02  0.1226708E+00
        -11   -1    0    0    0    0  0.00000000000E+00  0.00000000000E+00  0.45593999997E+02  0.45594000000E+02  0.51100000000E-03 0.  1.
         11   -1    0    0    0    0 -0.00000000000E+00 -0.00000000000E+00 -0.45593999997E+02  0.45594000000E+02  0.51100000000E-03 0. -1.
    9900012    2    1    2    0    0  0.27903770598E+01  0.12678733470E+02  0.13495998636E+02  0.72461589085E+02  0.70000024479E+02 0.  0.
         12    1    1    2    0    0 -0.27903770598E+01 -0.12678733470E+02 -0.13495998636E+02  0.18726410915E+02  0.00000000000E+00 0. -1.
         11    1    3    3    0    0  0.93687773945E+01 -0.60189997192E+01  0.26128844351E+01  0.11438072950E+02  0.51100000000E-03 0. -1.
        -11    1    3    3    0    0  0.99356247679E+01  0.35811809548E+01  0.29861328578E+02  0.31673971037E+02  0.51100000000E-03 0.  1.
         12    1    3    3    0    0 -0.16514025103E+02  0.15116552235E+02 -0.18978214376E+02  0.29349545098E+02  0.00000000000E+00 0. -1.
</event>
<event>
 7    1  0.1465498E-013  0.7246152E+02  0.7816164E-02  0.1226708E+00
        -11   -1    0    0    0    0  0.00000000000E+00  0.00000000000E+00  0.45593999997E+02  0.45594000000E+02  0.51100000000E-03 0. -1.
         11   -1    0    0    0    0 -0.00000000000E+00 -0.00000000000E+00 -0.45593999997E+02  0.45594000000E+02  0.51100000000E-03 0.  1.
    9900012    2    1    2    0    0 -0.10342772835E-01  0.14206697036E+02 -0.12200436700E+02  0.72461521331E+02  0.69999936217E+02 0.  0.
         12    1    1    2    0    0  0.10342772835E-01 -0.14206697036E+02  0.12200436700E+02  0.18726478669E+02  0.00000000000E+00 0. -1.
         11    1    3    3    0    0 -0.25544595455E+02  0.21037403986E+02 -0.11653423062E+02  0.35084198619E+02  0.51100000000E-03 0. -1.
        -11    1    3    3    0    0  0.72927437464E+01 -0.15529561217E+02 -0.61618825036E+00  0.17167733431E+02  0.51100000000E-03 0.  1.
        -12    1    3    3    0    0  0.18241508935E+02  0.86988542673E+01  0.69174611924E-01  0.20209589282E+02  0.00000000000E+00 0.  1.
</event>
<event>
 7    1  0.1465498E-013  0.7246158E+02  0.7816164E-02  0.1226708E+00
        -11   -1    0    0    0    0  0.00000000000E+00  0.00000000000E+00  0.45593999997E+02  0.45594000000E+02  0.51100000000E-03 0. -1.
         11   -1    0    0    0    0 -0.00000000000E+00 -0.00000000000E+00 -0.45593999997E+02  0.45594000000E+02  0.51100000000E-03 0.  1.
    9900012    2    1    2    0    0  0.75681219997E+01 -0.97103687195E+01 -0.14110673258E+02  0.72461579331E+02  0.70000011772E+02 0.  0.
         12    1    1    2    0    0 -0.75681219997E+01  0.97103687195E+01  0.14110673258E+02  0.18726420669E+02  0.00000000000E+00 0. -1.
         11    1    3    3    0    0  0.15428273436E+02 -0.18619818994E+02  0.16233901563E+01  0.24235607614E+02  0.51100000000E-03 0.  1.
        -11    1    3    3    0    0  0.13929753294E+02  0.15479185313E+02 -0.48302459283E+00  0.20829702778E+02  0.51100000000E-03 0. -1.
         12    1    3    3    0    0 -0.21789904731E+02 -0.65697350391E+01 -0.15251038821E+02  0.27396268939E+02  0.00000000000E+00 0. -1.
</event>
<event>
 7    1  0.1465498E-013  0.7246157E+02  0.7816164E-02  0.1226708E+00
        -11   -1    0    0    0    0  0.00000000000E+00  0.00000000000E+00  0.45593999997E+02  0.45594000000E+02  0.51100000000E-03 0. -1.
         11   -1    0    0    0    0 -0.00000000000E+00 -0.00000000000E+00 -0.45593999997E+02  0.45594000000E+02  0.51100000000E-03 0.  1.
    9900012    2    1    2    0    0 -0.12812849263E+02  0.41015120302E+01 -0.13026423690E+02  0.72461568911E+02  0.69999998198E+02 0.  0.
         12    1    1    2    0    0  0.12812849263E+02 -0.41015120302E+01  0.13026423690E+02  0.18726431089E+02  0.00000000000E+00 0. -1.
         11    1    3    3    0    0  0.52797565323E+01  0.12728219693E+01 -0.39367334798E+01  0.67077399739E+01  0.51100000000E-03 0. -1.
        -11    1    3    3    0    0  0.16198197858E+02 -0.91505685185E+01  0.13493876043E+02  0.22982584906E+02  0.51100000000E-03 0.  1.
        -12    1    3    3    0    0 -0.34290803653E+02  0.11979258579E+02 -0.22583566253E+02  0.42771244031E+02  0.00000000000E+00 0.  1.
</event>
<event>
 7    1  0.1465498E-013  0.7246154E+02  0.7816164E-02  0.1226708E+00
        -11   -1    0    0    0    0  0.00000000000E+00  0.00000000000E+00  0.45593999997E+02  0.45594000000E+02  0.51100000000E-03 0. -1.
         11   -1    0    0    0    0 -0.00000000000E+00 -0.00000000000E+00 -0.45593999997E+02  0.45594000000E+02  0.51100000000E-03 0.  1.
    9900012    2    1    2    0    0 -0.11542333526E+02 -0.14601916026E+02  0.20588350511E+01  0.72461542337E+02  0.69999963580E+02 0.  0.
         12    1    1    2    0    0  0.11542333526E+02  0.14601916026E+02 -0.20588350511E+01  0.18726457663E+02  0.00000000000E+00 0. -1.
         11    1    3    3    0    0 -0.10546016625E+02  0.78173966687E+00  0.72551422332E+00  0.10599809183E+02  0.51100000000E-03 0. -1.
        -11    1    3    3    0    0 -0.24463400717E+02 -0.85644592383E+00 -0.16024874079E+02  0.29257273690E+02  0.51100000000E-03 0.  1.
         12    1    3    3    0    0  0.23467083816E+02 -0.14527209769E+02  0.17358194907E+02  0.32604459464E+02  0.00000000000E+00 0. -1.
</event>
<event>
 7    1  0.1465498E-013  0.7246158E+02  0.7816164E-02  0.1226708E+00
        -11   -1    0    0    0    0  0.00000000000E+00  0.00000000000E+00  0.45593999997E+02  0.45594000000E+02  0.51100000000E-03 0.  1.
         11   -1    0    0    0    0 -0.00000000000E+00 -0.00000000000E+00 -0.45593999997E+02  0.45594000000E+02  0.51100000000E-03 0. -1.
    9900012    2    1    2    0    0  0.14436239356E+02 -0.42766946166E+01  0.11134803078E+02  0.72461575804E+02  0.70000007178E+02 0.  0.
         12    1    1    2    0    0 -0.14436239356E+02  0.42766946166E+01 -0.11134803078E+02  0.18726424196E+02  0.00000000000E+00 0. -1.
         11    1    3    3    0    0  0.68361294678E+00 -0.57980362786E+01  0.59765681713E+01  0.83548739497E+01  0.51100000000E-03 0. -1.
        -11    1    3    3    0    0  0.13089972503E+02  0.16264695842E+02  0.29200295599E+02  0.35896308645E+02  0.51100000000E-03 0.  1.
        -12    1    3    3    0    0  0.66265390632E+00 -0.14743354180E+02 -0.24042060693E+02  0.28210393210E+02  0.00000000000E+00 0.  1.
</event>
<event>
 7    1  0.1465498E-013  0.7246156E+02  0.7816164E-02  0.1226708E+00
        -11   -1    0    0    0    0  0.00000000000E+00  0.00000000000E+00  0.45593999997E+02  0.45594000000E+02  0.51100000000E-03 0.  1.
         11   -1    0    0    0    0 -0.00000000000E+00 -0.00000000000E+00 -0.45593999997E+02  0.45594000000E+02  0.51100000000E-03 0. -1.
    9900012    2    1    2    0    0  0.16497091959E+02 -0.71839215564E+01 -0.51881489518E+01  0.72461557156E+02  0.69999982885E+02 0.  0.
         12    1    1    2    0    0 -0.16497091959E+02  0.71839215564E+01  0.51881489518E+01  0.18726442844E+02  0.00000000000E+00 0. -1.
         11    1    3    3    0    0  0.17459103178E+02  0.19136465977E+02  0.83862082317E+01  0.27227800180E+02  0.51100000000E-03 0. -1.
        -11    1    3    3    0    0  0.11079163256E+02  0.24156578790E+01 -0.23618899050E+00  0.11341915489E+02  0.51100000000E-03 0.  1.
        -12    1    3    3    0    0 -0.12041174475E+02 -0.28736045412E+02 -0.13338168193E+02  0.33891841488E+02  0.00000000000E+00 0.  1.
</event>
<event>
 7    1  0.1465498E-013  0.7246155E+02  0.7816164E-02  0.1226708E+00
        -11   -1    0    0    0    0  0.00000000000E+00  0.00000000000E+00  0.45593999997E+02  0.45594000000E+02  0.51100000000E-03 0.  1.
         11   -1    0    0    0    0 -0.00000000000E+00 -0.00000000000E+00 -0.45593999997E+02  0.45594000000E+02  0.51100000000E-03 0. -1.
    9900012    2    1    2    0    0  0.11380954557E+02  0.11527156114E+02  0.93956678853E+01  0.72461547327E+02  0.69999970081E+02 0.  0.
         12    1    1    2    0    0 -0.11380954557E+02 -0.11527156114E+02 -0.93956678853E+01  0.18726452673E+02  0.00000000000E+00 0. -1.
         11    1    3    3    0    0 -0.21988058067E+02  0.75620679285E+01  0.44790206821E+01  0.23679552265E+02  0.51100000000E-03 0. -1.
        -11    1    3    3    0    0  0.13005816525E+01 -0.81141907040E+01  0.11251941405E+02  0.13933333738E+02  0.51100000000E-03 0.  1.
        -12    1    3    3    0    0  0.32068430972E+02  0.12079278889E+02 -0.63352942018E+01  0.34848661324E+02  0.00000000000E+00 0.  1.
</event>
<event>
 7    1  0.1465498E-013  0.7246162E+02  0.7816164E-02  0.1226708E+00
        -11   -1    0    0    0    0  0.00000000000E+00  0.00000000000E+00  0.45593999997E+02  0.45594000000E+02  0.51100000000E-03 0.  1.
         11   -1    0    0    0    0 -0.00000000000E+00 -0.00000000000E+00 -0.45593999997E+02  0.45594000000E+02  0.51100000000E-03 0. -1.
    9900012    2    1    2    0    0 -0.12675150765E+02 -0.11874148098E+01  0.13733462031E+02  0.72461618070E+02  0.70000062236E+02 0.  0.
         12    1    1    2    0    0  0.12675150765E+02  0.11874148098E+01 -0.13733462031E+02  0.18726381930E+02  0.00000000000E+00 0. -1.
         11    1    3    3    0    0  0.36437276805E+01 -0.77433200839E+01  0.27969514066E+01  0.90032602297E+01  0.51100000000E-03 0. -1.
        -11    1    3    3    0    0  0.15467528702E+02 -0.48519156513E+01  0.22526882329E+02  0.27753305342E+02  0.51100000000E-03 0.  1.
         12    1    3    3    0    0 -0.31786407148E+02  0.11407820925E+02 -0.11590371705E+02  0.35705052498E+02  0.00000000000E+00 0. -1.
</event>
<event>
 7    1  0.1465498E-013  0.7246158E+02  0.7816164E-02  0.1226708E+00
        -11   -1    0    0    0    0  0.00000000000E+00  0.00000000000E+00  0.45593999997E+02  0.45594000000E+02  0.51100000000E-03 0.  1.
         11   -1    0    0    0    0 -0.00000000000E+00 -0.00000000000E+00 -0.45593999997E+02  0.45594000000E+02  0.51100000000E-03 0. -1.
    9900012    2    1    2    0    0 -0.60727947665E+01  0.15906169961E+01  0.17642846721E+02  0.72461576446E+02  0.70000008014E+02 0.  0.
         12    1    1    2    0    0  0.60727947665E+01 -0.15906169961E+01 -0.17642846721E+02  0.18726423554E+02  0.00000000000E+00 0. -1.
         11    1    3    3    0    0  0.23784821598E+02  0.10787856462E+01  0.11286514418E+02  0.26348945422E+02  0.51100000000E-03 0. -1.
        -11    1    3    3    0    0  0.64189965722E+01  0.55146722926E+01 -0.16641435173E+01  0.86246450012E+01  0.51100000000E-03 0.  1.
        -12    1    3    3    0    0 -0.36276612936E+02 -0.50028409427E+01  0.80204758202E+01  0.37487986022E+02  0.00000000000E+00 0.  1.
</event>
<event>
 7    1  0.1465498E-013  0.7246157E+02  0.7816164E-02  0.1226708E+00
        -11   -1    0    0    0    0  0.00000000000E+00  0.00000000000E+00  0.45593999997E+02  0.45594000000E+02  0.51100000000E-03 0.  1.
         11   -1    0    0    0    0 -0.00000000000E+00 -0.00000000000E+00 -0.45593999997E+02  0.45594000000E+02  0.51100000000E-03 0. -1.
    9900012    2    1    2    0    0  0.31686164650E+01 -0.18418992272E+02 -0.11747018066E+01  0.72461565984E+02  0.69999994385E+02 0.  0.
         12    1    1    2    0    0 -0.31686164650E+01  0.18418992272E+02  0.11747018066E+01  0.18726434016E+02  0.00000000000E+00 0. -1.
         11    1    3    3    0    0  0.10974177789E+02 -0.24746629264E+02 -0.27212725399E+02  0.38384380443E+02  0.51100000000E-03 0. -1.
        -11    1    3    3    0    0  0.94439982866E+00 -0.62512703170E+01  0.50534931290E+01  0.80937052503E+01  0.51100000000E-03 0.  1.
        -12    1    3    3    0    0 -0.87499611527E+01  0.12578907309E+02  0.20984530463E+02  0.25983480291E+02  0.00000000000E+00 0.  1.
</event>
<event>
 7    1  0.1465498E-013  0.7246159E+02  0.7816164E-02  0.1226708E+00
        -11   -1    0    0    0    0  0.00000000000E+00  0.00000000000E+00  0.45593999997E+02  0.45594000000E+02  0.51100000000E-03 0. -1.
         11   -1    0    0    0    0 -0.00000000000E+00 -0.00000000000E+00 -0.45593999997E+02  0.45594000000E+02  0.51100000000E-03 0.  1.
    9900012    2    1    2    0    0  0.72782987739E+01 -0.95822439640E+01 -0.14348711579E+02  0.72461586665E+02  0.70000021326E+02 0.  0.
         12    1    1    2    0    0 -0.72782987739E+01  0.95822439640E+01  0.14348711579E+02  0.18726413335E+02  0.00000000000E+00 0. -1.
         11    1    3    3    0    0  0.87148451724E+01 -0.13419224062E+02 -0.17070411643E+02  0.23397073636E+02  0.51100000000E-03 0. -1.
        -11    1    3    3    0    0 -0.84417112414E+01  0.13939118428E+02 -0.18429067916E+02  0.24600651530E+02  0.51100000000E-03 0.  1.
         12    1    3    3    0    0  0.70051648429E+01 -0.10102138330E+02  0.21150767980E+02  0.24463861499E+02  0.00000000000E+00 0. -1.
</event>
<event>
 7    1  0.1465498E-013  0.7246183E+02  0.7816164E-02  0.1226707E+00
        -11   -1    0    0    0    0  0.00000000000E+00  0.00000000000E+00  0.45593999997E+02  0.45594000000E+02  0.51100000000E-03 0.  1.
         11   -1    0    0    0    0 -0.00000000000E+00 -0.00000000000E+00 -0.45593999997E+02  0.45594000000E+02  0.51100000000E-03 0. -1.
    9900012    2    1    2    0    0  0.35818747236E+01 -0.33452043380E+01 -0.18073438913E+02  0.72461830805E+02  0.70000339363E+02 0.  0.
         12    1    1    2    0    0 -0.35818747236E+01  0.33452043380E+01  0.18073438913E+02  0.18726169195E+02  0.00000000000E+00 0. -1.
         11    1    3    3    0    0  0.10771007659E+02 -0.80791575147E+01 -0.80161915592E+01  0.15669930424E+02  0.51100000000E-03 0. -1.
        -11    1    3    3    0    0  0.20955592458E+02 -0.98027584930E+01  0.12200905106E+01  0.23167208517E+02  0.51100000000E-03 0.  1.
         12    1    3    3    0    0 -0.28144725393E+02  0.14536711670E+02 -0.11277337864E+02  0.33624691864E+02  0.00000000000E+00 0. -1.
</event>
<event>
 7    1  0.1465498E-013  0.7246157E+02  0.7816164E-02  0.1226708E+00
        -11   -1    0    0    0    0  0.00000000000E+00  0.00000000000E+00  0.45593999997E+02  0.45594000000E+02  0.51100000000E-03 0. -1.
         11   -1    0    0    0    0 -0.00000000000E+00 -0.00000000000E+00 -0.45593999997E+02  0.45594000000E+02  0.51100000000E-03 0.  1.
    9900012    2    1    2    0    0 -0.18506287031E+02 -0.28628935583E+01 -0.21588401887E-01  0.72461567204E+02  0.69999995974E+02 0.  0.
         12    1    1    2    0    0  0.18506287031E+02  0.28628935583E+01  0.21588401887E-01  0.18726432796E+02  0.00000000000E+00 0. -1.
         11    1    3    3    0    0 -0.15784453582E+00 -0.54726885042E+01  0.14776785981E+01  0.56708701856E+01  0.51100000000E-03 0. -1.
        -11    1    3    3    0    0 -0.39655836354E+02 -0.82973872994E+01 -0.93868681762E+01  0.41587802147E+02  0.51100000000E-03 0.  1.
         12    1    3    3    0    0  0.21307393859E+02  0.10907182245E+02  0.78876011762E+01  0.25202894872E+02  0.00000000000E+00 0. -1.
</event>
<event>
 7    1  0.1465498E-013  0.7246157E+02  0.7816164E-02  0.1226708E+00
        -11   -1    0    0    0    0  0.00000000000E+00  0.00000000000E+00  0.45593999997E+02  0.45594000000E+02  0.51100000000E-03 0.  1.
         11   -1    0    0    0    0 -0.00000000000E+00 -0.00000000000E+00 -0.45593999997E+02  0.45594000000E+02  0.51100000000E-03 0. -1.
    9900012    2    1    2    0    0  0.15265340030E+02  0.86339462054E+01  0.65653229669E+01  0.72461572178E+02  0.70000002454E+02 0.  0.
         12    1    1    2    0    0 -0.15265340030E+02 -0.86339462054E+01 -0.65653229669E+01  0.18726427822E+02  0.00000000000E+00 0. -1.
         11    1    3    3    0    0 -0.98944157754E+01  0.17206495511E+02  0.15803770618E+02  0.25371679434E+02  0.51100000000E-03 0. -1.
        -11    1    3    3    0    0  0.48492412792E+01  0.75460907312E+01  0.11002656134E+02  0.14195670768E+02  0.51100000000E-03 0.  1.
         12    1    3    3    0    0  0.20310514526E+02 -0.16118640037E+02 -0.20241103784E+02  0.32894221975E+02  0.00000000000E+00 0. -1.
</event>
<event>
 7    1  0.1465498E-013  0.7246161E+02  0.7816164E-02  0.1226708E+00
        -11   -1    0    0    0    0  0.00000000000E+00  0.00000000000E+00  0.45593999997E+02  0.45594000000E+02  0.51100000000E-03 0.  1.
         11   -1    0    0    0    0 -0.00000000000E+00 -0.00000000000E+00 -0.45593999997E+02  0.45594000000E+02  0.51100000000E-03 0. -1.
    9900012    2    1    2    0    0  0.11174496939E+02 -0.12043161682E+02  0.89872341014E+01  0.72461614819E+02  0.70000058002E+02 0.  0.
         12    1    1    2    0    0 -0.11174496939E+02  0.12043161682E+02 -0.89872341014E+01  0.18726385181E+02  0.00000000000E+00 0. -1.
         11    1    3    3    0    0  0.21836707536E+02  0.15750771220E+02 -0.38312657274E+01  0.27195720019E+02  0.51100000000E-03 0. -1.
        -11    1    3    3    0    0  0.10233058747E+02 -0.25286726427E+01  0.43526168106E+01  0.11404163714E+02  0.51100000000E-03 0.  1.
        -12    1    3    3    0    0 -0.20895269343E+02 -0.25265260259E+02  0.84658830182E+01  0.33861731086E+02  0.00000000000E+00 0.  1.
</event>
<event>
 7    1  0.1465498E-013  0.7246137E+02  0.7816164E-02  0.1226709E+00
        -11   -1    0    0    0    0  0.00000000000E+00  0.00000000000E+00  0.45593999997E+02  0.45594000000E+02  0.51100000000E-03 0. -1.
         11   -1    0    0    0    0 -0.00000000000E+00 -0.00000000000E+00 -0.45593999997E+02  0.45594000000E+02  0.51100000000E-03 0.  1.
    9900012    2    1    2    0    0  0.16882301254E+02 -0.52426637974E+01 -0.61797324112E+01  0.72461368909E+02  0.69999737658E+02 0.  0.
         12    1    1    2    0    0 -0.16882301254E+02  0.52426637974E+01  0.61797324112E+01  0.18726631091E+02  0.00000000000E+00 0. -1.
         11    1    3    3    0    0  0.25968259502E+02 -0.17964395041E+02  0.19286020047E+01  0.31635257178E+02  0.51100000000E-03 0. -1.
        -11    1    3    3    0    0 -0.59387015155E+01 -0.12897925275E+02 -0.30238368752E+01  0.14517859408E+02  0.51100000000E-03 0.  1.
         12    1    3    3    0    0 -0.31472567319E+01  0.25619656519E+02 -0.50844975408E+01  0.26308252324E+02  0.00000000000E+00 0. -1.
</event>
<event>
 7    1  0.1817842E-013  0.7246156E+02  0.7816164E-02  0.1226708E+00
        -11   -1    0    0    0    0  0.00000000000E+00  0.00000000000E+00  0.45593999997E+02  0.45594000000E+02  0.51100000000E-03 0. -1.
         11   -1    0    0    0    0 -0.00000000000E+00 -0.00000000000E+00 -0.45593999997E+02  0.45594000000E+02  0.51100000000E-03 0.  1.
    9900012    2    1    2    0    0 -0.70858898383E+01  0.90953251975E+01 -0.14756177839E+02  0.72461559877E+02  0.69999986430E+02 0.  0.
         12    1    1    2    0    0  0.70858898383E+01 -0.90953251975E+01  0.14756177839E+02  0.18726440123E+02  0.00000000000E+00 0. -1.
         11    1    3    3    0    0  0.89048361601E+01  0.57081803617E+01  0.18164581206E+02  0.21019786886E+02  0.51100000000E-03 0. -1.
        -11    1    3    3    0    0 -0.13095698707E+02  0.17272186921E+02 -0.86646830679E+01  0.23343146716E+02  0.51100000000E-03 0.  1.
        -12    1    3    3    0    0 -0.28950272917E+01 -0.13885042086E+02 -0.24256075977E+02  0.28098626275E+02  0.00000000000E+00 0.  1.
</event>
<event>
 7    1  0.1465498E-013  0.7246129E+02  0.7816164E-02  0.1226709E+00
        -11   -1    0    0    0    0  0.00000000000E+00  0.00000000000E+00  0.45593999997E+02  0.45594000000E+02  0.51100000000E-03 0. -1.
         11   -1    0    0    0    0 -0.00000000000E+00 -0.00000000000E+00 -0.45593999997E+02  0.45594000000E+02  0.51100000000E-03 0.  1.
    9900012    2    1    2    0    0 -0.32582701785E+01 -0.91469959559E+01 -0.16012673545E+02  0.72461292504E+02  0.69999638126E+02 0.  0.
         12    1    1    2    0    0  0.32582701785E+01  0.91469959559E+01  0.16012673545E+02  0.18726707496E+02  0.00000000000E+00 0. -1.
         11    1    3    3    0    0 -0.27288657585E+02 -0.18865018308E+01 -0.10435360634E+02  0.29276722388E+02  0.51100000000E-03 0. -1.
        -11    1    3    3    0    0 -0.61465233209E+01 -0.34562688093E+00  0.73910747201E+01  0.96191056057E+01  0.51100000000E-03 0.  1.
        -12    1    3    3    0    0  0.30176910728E+02 -0.69148672441E+01 -0.12968387631E+02  0.33565464511E+02  0.00000000000E+00 0.  1.
</event>
<event>
 7    1  0.1465498E-013  0.7246156E+02  0.7816164E-02  0.1226708E+00
        -11   -1    0    0    0    0  0.00000000000E+00  0.00000000000E+00  0.45593999997E+02  0.45594000000E+02  0.51100000000E-03 0.  1.
         11   -1    0    0    0    0 -0.00000000000E+00 -0.00000000000E+00 -0.45593999997E+02  0.45594000000E+02  0.51100000000E-03 0. -1.
    9900012    2    1    2    0    0  0.11112884028E+02  0.67961680920E+01  0.13453455576E+02  0.72461559893E+02  0.69999986450E+02 0.  0.
         12    1    1    2    0    0 -0.11112884028E+02 -0.67961680920E+01 -0.13453455576E+02  0.18726440107E+02  0.00000000000E+00 0. -1.
         11    1    3    3    0    0  0.36651331005E+01  0.47227773683E+01 -0.11463485176E+01  0.60870306308E+01  0.51100000000E-03 0. -1.
        -11    1    3    3    0    0  0.26574020388E+02  0.10200539841E+02  0.29353633494E+02  0.40888450352E+02  0.51100000000E-03 0.  1.
         12    1    3    3    0    0 -0.19126269461E+02 -0.81271491168E+01 -0.14753829400E+02  0.25486078910E+02  0.00000000000E+00 0. -1.
</event>
<event>
 7    1  0.1465498E-013  0.7246164E+02  0.7816164E-02  0.1226708E+00
        -11   -1    0    0    0    0  0.00000000000E+00  0.00000000000E+00  0.45593999997E+02  0.45594000000E+02  0.51100000000E-03 0.  1.
         11   -1    0    0    0    0 -0.00000000000E+00 -0.00000000000E+00 -0.45593999997E+02  0.45594000000E+02  0.51100000000E-03 0. -1.
    9900012    2    1    2    0    0 -0.17052093410E+02  0.38160105199E+01 -0.67335526318E+01  0.72461640049E+02  0.70000090869E+02 0.  0.
         12    1    1    2    0    0  0.17052093410E+02 -0.38160105199E+01  0.67335526318E+01  0.18726359951E+02  0.00000000000E+00 0. -1.
         11    1    3    3    0    0 -0.10929977050E+01 -0.89757642043E+00  0.13398710989E+02  0.13473148995E+02  0.51100000000E-03 0. -1.
        -11    1    3    3    0    0 -0.13763842114E+02 -0.18059561543E+02  0.67497977019E+01  0.23688623475E+02  0.51100000000E-03 0.  1.
         12    1    3    3    0    0 -0.21952535913E+01  0.22773148483E+02 -0.26882061323E+02  0.35299867579E+02  0.00000000000E+00 0. -1.
</event>
<event>
 7    1  0.1465498E-013  0.7246176E+02  0.7816164E-02  0.1226708E+00
        -11   -1    0    0    0    0  0.00000000000E+00  0.00000000000E+00  0.45593999997E+02  0.45594000000E+02  0.51100000000E-03 0.  1.
         11   -1    0    0    0    0 -0.00000000000E+00 -0.00000000000E+00 -0.45593999997E+02  0.45594000000E+02  0.51100000000E-03 0. -1.
    9900012    2    1    2    0    0  0.17082014309E+02  0.36529070453E+01  0.67478261923E+01  0.72461759025E+02  0.70000245856E+02 0.  0.
         12    1    1    2    0    0 -0.17082014309E+02 -0.36529070453E+01 -0.67478261923E+01  0.18726240975E+02  0.00000000000E+00 0. -1.
         11    1    3    3    0    0 -0.57694778409E+00  0.19089215487E+02 -0.28356963123E+01  0.19307309250E+02  0.51100000000E-03 0.  1.
        -11    1    3    3    0    0 -0.47624572180E+01 -0.74264626245E+01 -0.15959489296E+02  0.18235642153E+02  0.51100000000E-03 0. -1.
        -12    1    3    3    0    0  0.22421419311E+02 -0.80098458167E+01  0.25543011801E+02  0.34918807622E+02  0.00000000000E+00 0.  1.
</event>
<event>
 7    1  0.1465498E-013  0.7246152E+02  0.7816164E-02  0.1226708E+00
        -11   -1    0    0    0    0  0.00000000000E+00  0.00000000000E+00  0.45593999997E+02  0.45594000000E+02  0.51100000000E-03 0. -1.
         11   -1    0    0    0    0 -0.00000000000E+00 -0.00000000000E+00 -0.45593999997E+02  0.45594000000E+02  0.51100000000E-03 0.  1.
    9900012    2    1    2    0    0 -0.17705170105E+01 -0.17616134538E+02 -0.61006617628E+01  0.72461521407E+02  0.69999936315E+02 0.  0.
         12    1    1    2    0    0  0.17705170105E+01  0.17616134538E+02  0.61006617628E+01  0.18726478593E+02  0.00000000000E+00 0. -1.
         11    1    3    3    0    0  0.21333637375E+02 -0.36576232409E+01 -0.48514185070E+01  0.22181942052E+02  0.51100000000E-03 0. -1.
        -11    1    3    3    0    0 -0.31138570041E+01 -0.37995809865E+00 -0.19654273510E+02  0.19903038489E+02  0.51100000000E-03 0.  1.
         12    1    3    3    0    0 -0.19990297381E+02 -0.13578553198E+02  0.18405030254E+02  0.30376540866E+02  0.00000000000E+00 0. -1.
</event>
<event>
 7    1  0.1465498E-013  0.7246156E+02  0.7816164E-02  0.1226708E+00
        -11   -1    0    0    0    0  0.00000000000E+00  0.00000000000E+00  0.45593999997E+02  0.45594000000E+02  0.51100000000E-03 0. -1.
         11   -1    0    0    0    0 -0.00000000000E+00 -0.00000000000E+00 -0.45593999997E+02  0.45594000000E+02  0.51100000000E-03 0.  1.
    9900012    2    1    2    0    0  0.43813895327E+01  0.22491045887E+01 -0.18067222741E+02  0.72461559247E+02  0.69999985609E+02 0.  0.
         12    1    1    2    0    0 -0.43813895327E+01 -0.22491045887E+01  0.18067222741E+02  0.18726440753E+02  0.00000000000E+00 0. -1.
         11    1    3    3    0    0 -0.10158429205E+02 -0.27467110254E+02 -0.55466667841E+01  0.29806062173E+02  0.51100000000E-03 0. -1.
        -11    1    3    3    0    0 -0.46930907216E+01  0.38760410427E+00 -0.48382590707E+01  0.67515989632E+01  0.51100000000E-03 0.  1.
        -12    1    3    3    0    0  0.19232909459E+02  0.29328610738E+02 -0.76822968863E+01  0.35903898111E+02  0.00000000000E+00 0.  1.
</event>
<event>
 7    1  0.1465498E-013  0.7246158E+02  0.7816164E-02  0.1226708E+00
        -11   -1    0    0    0    0  0.00000000000E+00  0.00000000000E+00  0.45593999997E+02  0.45594000000E+02  0.51100000000E-03 0.  1.
         11   -1    0    0    0    0 -0.00000000000E+00 -0.00000000000E+00 -0.45593999997E+02  0.45594000000E+02  0.51100000000E-03 0. -1.
    9900012    2    1    2    0    0  0.78724829012E+01 -0.11579740746E+02  0.12434327698E+02  0.72461577809E+02  0.70000009789E+02 0.  0.
         12    1    1    2    0    0 -0.78724829012E+01  0.11579740746E+02 -0.12434327698E+02  0.18726422191E+02  0.00000000000E+00 0. -1.
         11    1    3    3    0    0 -0.27262467969E+02 -0.95327937208E+01  0.11476463590E+02  0.31077733712E+02  0.51100000000E-03 0.  1.
        -11    1    3    3    0    0  0.13194177204E+01 -0.18623418069E+01 -0.63842242346E+01  0.67799335885E+01  0.51100000000E-03 0. -1.
        -12    1    3    3    0    0  0.33815533149E+02 -0.18460521872E+00  0.73420883424E+01  0.34603910509E+02  0.00000000000E+00 0.  1.
</event>
<event>
 7    1  0.1465498E-013  0.7246126E+02  0.7816164E-02  0.1226709E+00
        -11   -1    0    0    0    0  0.00000000000E+00  0.00000000000E+00  0.45593999997E+02  0.45594000000E+02  0.51100000000E-03 0.  1.
         11   -1    0    0    0    0 -0.00000000000E+00 -0.00000000000E+00 -0.45593999997E+02  0.45594000000E+02  0.51100000000E-03 0. -1.
    9900012    2    1    2    0    0  0.78419593552E+01 -0.93219718916E+01  0.14223051577E+02  0.72461262894E+02  0.69999599553E+02 0.  0.
         12    1    1    2    0    0 -0.78419593552E+01  0.93219718916E+01 -0.14223051577E+02  0.18726737106E+02  0.00000000000E+00 0. -1.
         11    1    3    3    0    0 -0.10388169211E+02  0.52712774173E+01  0.21547350811E+01  0.11846658124E+02  0.51100000000E-03 0. -1.
        -11    1    3    3    0    0 -0.10358545037E+02 -0.13034326351E-01 -0.15273337497E+02  0.18454659676E+02  0.51100000000E-03 0.  1.
        -12    1    3    3    0    0  0.28588673603E+02 -0.14580214983E+02  0.27341653993E+02  0.42159945095E+02  0.00000000000E+00 0.  1.
</event>
<event>
 7    1  0.1465498E-013  0.7246158E+02  0.7816164E-02  0.1226708E+00
        -11   -1    0    0    0    0  0.00000000000E+00  0.00000000000E+00  0.45593999997E+02  0.45594000000E+02  0.51100000000E-03 0.  1.
         11   -1    0    0    0    0 -0.00000000000E+00 -0.00000000000E+00 -0.45593999997E+02  0.45594000000E+02  0.51100000000E-03 0. -1.
    9900012    2    1    2    0    0 -0.78956730662E+01 -0.11374180727E+02  0.12608143075E+02  0.72461577165E+02  0.70000008951E+02 0.  0.
         12    1    1    2    0    0  0.78956730662E+01  0.11374180727E+02 -0.12608143075E+02  0.18726422835E+02  0.00000000000E+00 0. -1.
         11    1    3    3    0    0  0.91183662143E+01  0.10197893668E+02  0.94553840509E+01  0.16629670036E+02  0.51100000000E-03 0. -1.
        -11    1    3    3    0    0  0.10892457790E+02  0.88492633875E+01  0.38182689032E+01  0.14544217988E+02  0.51100000000E-03 0.  1.
        -12    1    3    3    0    0 -0.27906497071E+02 -0.30421337782E+02 -0.66550987888E+00  0.41287689141E+02  0.00000000000E+00 0.  1.
</event>
<event>
 7    1  0.1465498E-013  0.7246150E+02  0.7816164E-02  0.1226708E+00
        -11   -1    0    0    0    0  0.00000000000E+00  0.00000000000E+00  0.45593999997E+02  0.45594000000E+02  0.51100000000E-03 0. -1.
         11   -1    0    0    0    0 -0.00000000000E+00 -0.00000000000E+00 -0.45593999997E+02  0.45594000000E+02  0.51100000000E-03 0.  1.
    9900012    2    1    2    0    0 -0.71864801655E+01 -0.13396162777E+02 -0.10935217896E+02  0.72461503671E+02  0.69999913211E+02 0.  0.
         12    1    1    2    0    0  0.71864801655E+01  0.13396162777E+02  0.10935217896E+02  0.18726496329E+02  0.00000000000E+00 0. -1.
         11    1    3    3    0    0 -0.25693334217E+01 -0.11128131397E+02 -0.33239917893E+01  0.11894776345E+02  0.51100000000E-03 0.  1.
        -11    1    3    3    0    0 -0.29545973427E+01  0.25158227452E+01  0.26145644105E+02  0.26432058480E+02  0.51100000000E-03 0. -1.
         12    1    3    3    0    0 -0.16625494010E+01 -0.47838541257E+01 -0.33756870212E+02  0.34134668847E+02  0.00000000000E+00 0. -1.
</event>
<event>
 7    1  0.1465498E-013  0.7246154E+02  0.7816164E-02  0.1226708E+00
        -11   -1    0    0    0    0  0.00000000000E+00  0.00000000000E+00  0.45593999997E+02  0.45594000000E+02  0.51100000000E-03 0.  1.
         11   -1    0    0    0    0 -0.00000000000E+00 -0.00000000000E+00 -0.45593999997E+02  0.45594000000E+02  0.51100000000E-03 0. -1.
    9900012    2    1    2    0    0 -0.37082441745E+01  0.58752114672E+01  0.17389967912E+02  0.72461543618E+02  0.69999965249E+02 0.  0.
         12    1    1    2    0    0  0.37082441745E+01 -0.58752114672E+01 -0.17389967912E+02  0.18726456382E+02  0.00000000000E+00 0. -1.
         11    1    3    3    0    0 -0.21085640927E+02  0.72484554048E+01  0.60720348389E+01  0.23108742207E+02  0.51100000000E-03 0.  1.
        -11    1    3    3    0    0 -0.82819918639E+01 -0.15346170405E+02 -0.13855981776E+01  0.17493319236E+02  0.51100000000E-03 0. -1.
        -12    1    3    3    0    0  0.25659388616E+02  0.13972926467E+02  0.12703531251E+02  0.31859482175E+02  0.00000000000E+00 0.  1.
</event>
<event>
 7    1  0.1465498E-013  0.7246154E+02  0.7816164E-02  0.1226708E+00
        -11   -1    0    0    0    0  0.00000000000E+00  0.00000000000E+00  0.45593999997E+02  0.45594000000E+02  0.51100000000E-03 0. -1.
         11   -1    0    0    0    0 -0.00000000000E+00 -0.00000000000E+00 -0.45593999997E+02  0.45594000000E+02  0.51100000000E-03 0.  1.
    9900012    2    1    2    0    0 -0.11291461500E+02 -0.49826426095E+01 -0.14083908676E+02  0.72461539742E+02  0.69999960200E+02 0.  0.
         12    1    1    2    0    0  0.11291461500E+02  0.49826426095E+01  0.14083908676E+02  0.18726460258E+02  0.00000000000E+00 0. -1.
         11    1    3    3    0    0 -0.33796463391E+01 -0.95109091160E+01 -0.78769746201E+01  0.12803364051E+02  0.51100000000E-03 0. -1.
        -11    1    3    3    0    0 -0.49003790829E+01 -0.14833839756E+02  0.20972630259E+02  0.26151629726E+02  0.51100000000E-03 0.  1.
         12    1    3    3    0    0 -0.30114360783E+01  0.19362106262E+02 -0.27179564316E+02  0.33506545966E+02  0.00000000000E+00 0. -1.
</event>
<event>
 7    1  0.1465498E-013  0.7246178E+02  0.7816164E-02  0.1226707E+00
        -11   -1    0    0    0    0  0.00000000000E+00  0.00000000000E+00  0.45593999997E+02  0.45594000000E+02  0.51100000000E-03 0.  1.
         11   -1    0    0    0    0 -0.00000000000E+00 -0.00000000000E+00 -0.45593999997E+02  0.45594000000E+02  0.51100000000E-03 0. -1.
    9900012    2    1    2    0    0  0.10139564729E+02 -0.12494624784E+02  0.95783615040E+01  0.72461776930E+02  0.70000269180E+02 0.  0.
         12    1    1    2    0    0 -0.10139564729E+02  0.12494624784E+02 -0.95783615040E+01  0.18726223070E+02  0.00000000000E+00 0. -1.
         11    1    3    3    0    0  0.27088383154E+02 -0.15622257043E+02 -0.15188890349E+01  0.31307226661E+02  0.51100000000E-03 0. -1.
        -11    1    3    3    0    0 -0.40494669847E+01 -0.14012949670E+02  0.13104965092E+02  0.19608698367E+02  0.51100000000E-03 0.  1.
        -12    1    3    3    0    0 -0.12899351440E+02  0.17140581929E+02 -0.20077145535E+01  0.21545851902E+02  0.00000000000E+00 0.  1.
</event>
<event>
 7    1  0.1465498E-013  0.7246176E+02  0.7816164E-02  0.1226708E+00
        -11   -1    0    0    0    0  0.00000000000E+00  0.00000000000E+00  0.45593999997E+02  0.45594000000E+02  0.51100000000E-03 0.  1.
         11   -1    0    0    0    0 -0.00000000000E+00 -0.00000000000E+00 -0.45593999997E+02  0.45594000000E+02  0.51100000000E-03 0. -1.
    9900012    2    1    2    0    0 -0.88101741759E+01 -0.16075556042E+02  0.38248363602E+01  0.72461760542E+02  0.70000247832E+02 0.  0.
         12    1    1    2    0    0  0.88101741759E+01  0.16075556042E+02 -0.38248363602E+01  0.18726239458E+02  0.00000000000E+00 0. -1.
         11    1    3    3    0    0  0.24406280178E+00 -0.18300498013E+02  0.16390224763E+01  0.18375369088E+02  0.51100000000E-03 0. -1.
        -11    1    3    3    0    0 -0.11023464807E+02 -0.64686377753E+01  0.25829188874E+02  0.28818519205E+02  0.51100000000E-03 0.  1.
         12    1    3    3    0    0  0.19692278292E+01  0.86935797463E+01 -0.23643374991E+02  0.25267872249E+02  0.00000000000E+00 0. -1.
</event>
<event>
 7    1  0.1465498E-013  0.7246157E+02  0.7816164E-02  0.1226708E+00
        -11   -1    0    0    0    0  0.00000000000E+00  0.00000000000E+00  0.45593999997E+02  0.45594000000E+02  0.51100000000E-03 0. -1.
         11   -1    0    0    0    0 -0.00000000000E+00 -0.00000000000E+00 -0.45593999997E+02  0.45594000000E+02  0.51100000000E-03 0.  1.
    9900012    2    1    2    0    0  0.32798532979E+01  0.12539503357E+02 -0.13516016037E+02  0.72461567568E+02  0.69999996448E+02 0.  0.
         12    1    1    2    0    0 -0.32798532979E+01 -0.12539503357E+02  0.13516016037E+02  0.18726432432E+02  0.00000000000E+00 0. -1.
         11    1    3    3    0    0  0.88750839728E+01 -0.10255080340E+02  0.46217651595E+01  0.14328101820E+02  0.51100000000E-03 0. -1.
        -11    1    3    3    0    0 -0.16955161466E+02 -0.41282055908E+01 -0.22621553357E+02  0.28570163777E+02  0.51100000000E-03 0.  1.
         12    1    3    3    0    0  0.11359930791E+02  0.26922789288E+02  0.44837721598E+01  0.29563301971E+02  0.00000000000E+00 0. -1.
</event>
<event>
 7    1  0.1465498E-013  0.7246156E+02  0.7816164E-02  0.1226708E+00
        -11   -1    0    0    0    0  0.00000000000E+00  0.00000000000E+00  0.45593999997E+02  0.45594000000E+02  0.51100000000E-03 0.  1.
         11   -1    0    0    0    0 -0.00000000000E+00 -0.00000000000E+00 -0.45593999997E+02  0.45594000000E+02  0.51100000000E-03 0. -1.
    9900012    2    1    2    0    0 -0.10544544153E+02  0.10767303979E+02  0.11115640538E+02  0.72461555839E+02  0.69999981169E+02 0.  0.
         12    1    1    2    0    0  0.10544544153E+02 -0.10767303979E+02 -0.11115640538E+02  0.18726444161E+02  0.00000000000E+00 0. -1.
         11    1    3    3    0    0  0.84921995417E+01  0.19198425503E+02  0.81763717039E+01  0.22528871462E+02  0.51100000000E-03 0.  1.
        -11    1    3    3    0    0 -0.17464775695E+02 -0.15036781791E+01  0.22846189836E+02  0.28796316230E+02  0.51100000000E-03 0. -1.
         12    1    3    3    0    0 -0.15719679997E+01 -0.69274433448E+01 -0.19906921002E+02  0.21136368147E+02  0.00000000000E+00 0. -1.
</event>
<event>
 7    1  0.1465498E-013  0.7246102E+02  0.7816164E-02  0.1226709E+00
        -11   -1    0    0    0    0  0.00000000000E+00  0.00000000000E+00  0.45593999997E+02  0.45594000000E+02  0.51100000000E-03 0.  1.
         11   -1    0    0    0    0 -0.00000000000E+00 -0.00000000000E+00 -0.45593999997E+02  0.45594000000E+02  0.51100000000E-03 0. -1.
    9900012    2    1    2    0    0 -0.10242396317E+02 -0.56599270000E+01  0.14620481113E+02  0.72461016155E+02  0.69999278127E+02 0.  0.
         12    1    1    2    0    0  0.10242396317E+02  0.56599270000E+01 -0.14620481113E+02  0.18726983845E+02  0.00000000000E+00 0. -1.
         11    1    3    3    0    0 -0.57697563054E+01  0.16492847886E+01  0.31402935186E+02  0.31971152102E+02  0.51100000000E-03 0.  1.
        -11    1    3    3    0    0  0.11208180393E+02 -0.10904062740E+02  0.19942531588E+01  0.15763849082E+02  0.51100000000E-03 0. -1.
        -12    1    3    3    0    0 -0.15680820404E+02  0.35948509518E+01 -0.18776707232E+02  0.24726014972E+02  0.00000000000E+00 0.  1.
</event>
<event>
 7    1  0.1465498E-013  0.7246162E+02  0.7816164E-02  0.1226708E+00
        -11   -1    0    0    0    0  0.00000000000E+00  0.00000000000E+00  0.45593999997E+02  0.45594000000E+02  0.51100000000E-03 0.  1.
         11   -1    0    0    0    0 -0.00000000000E+00 -0.00000000000E+00 -0.45593999997E+02  0.45594000000E+02  0.51100000000E-03 0. -1.
    9900012    2    1    2    0    0  0.44108661942E+01 -0.51895315963E+01  0.17443920240E+02  0.72461619353E+02  0.70000063909E+02 0.  0.
         12    1    1    2    0    0 -0.44108661942E+01  0.51895315963E+01 -0.17443920240E+02  0.18726380647E+02  0.00000000000E+00 0. -1.
         11    1    3    3    0    0  0.20976258409E+02 -0.68220529804E+01 -0.13264275137E+02  0.25738780446E+02  0.51100000000E-03 0. -1.
        -11    1    3    3    0    0  0.66760785787E+01 -0.55792019909E+01  0.17099281618E+01  0.88668694941E+01  0.51100000000E-03 0.  1.
        -12    1    3    3    0    0 -0.23241470793E+02  0.72117233750E+01  0.28998267216E+02  0.37855969413E+02  0.00000000000E+00 0.  1.
</event>
<event>
 7    1  0.1465498E-013  0.7246166E+02  0.7816164E-02  0.1226708E+00
        -11   -1    0    0    0    0  0.00000000000E+00  0.00000000000E+00  0.45593999997E+02  0.45594000000E+02  0.51100000000E-03 0.  1.
         11   -1    0    0    0    0 -0.00000000000E+00 -0.00000000000E+00 -0.45593999997E+02  0.45594000000E+02  0.51100000000E-03 0. -1.
    9900012    2    1    2    0    0 -0.10858468433E+01  0.18417402387E+02  0.32087680516E+01  0.72461655817E+02  0.70000111409E+02 0.  0.
         12    1    1    2    0    0  0.10858468433E+01 -0.18417402387E+02 -0.32087680516E+01  0.18726344183E+02  0.00000000000E+00 0. -1.
         11    1    3    3    0    0  0.19676346165E+02 -0.49077798241E+00  0.28431611395E+02  0.34579704860E+02  0.51100000000E-03 0.  1.
        -11    1    3    3    0    0 -0.62305829436E+01  0.63946784630E+01 -0.61953752976E+01  0.10867140921E+02  0.51100000000E-03 0. -1.
        -12    1    3    3    0    0 -0.14531610065E+02  0.12513501906E+02 -0.19027468046E+02  0.27014810036E+02  0.00000000000E+00 0.  1.
</event>
<event>
 7    1  0.1465498E-013  0.7246154E+02  0.7816164E-02  0.1226708E+00
        -11   -1    0    0    0    0  0.00000000000E+00  0.00000000000E+00  0.45593999997E+02  0.45594000000E+02  0.51100000000E-03 0. -1.
         11   -1    0    0    0    0 -0.00000000000E+00 -0.00000000000E+00 -0.45593999997E+02  0.45594000000E+02  0.51100000000E-03 0.  1.
    9900012    2    1    2    0    0  0.14221646027E+02 -0.11949785160E+02 -0.23722506812E+01  0.72461543998E+02  0.69999965744E+02 0.  0.
         12    1    1    2    0    0 -0.14221646027E+02  0.11949785160E+02  0.23722506812E+01  0.18726456002E+02  0.00000000000E+00 0. -1.
         11    1    3    3    0    0  0.18456837807E+02 -0.16940230172E+02 -0.14926794143E+02  0.29162226317E+02  0.51100000000E-03 0. -1.
        -11    1    3    3    0    0  0.14983604324E+02  0.19148823615E-01 -0.59871860170E+01  0.16135524840E+02  0.51100000000E-03 0.  1.
        -12    1    3    3    0    0 -0.19218796104E+02  0.49712961880E+01  0.18541729478E+02  0.27163792841E+02  0.00000000000E+00 0.  1.
</event>
<event>
 7    1  0.1465498E-013  0.7246164E+02  0.7816164E-02  0.1226708E+00
        -11   -1    0    0    0    0  0.00000000000E+00  0.00000000000E+00  0.45593999997E+02  0.45594000000E+02  0.51100000000E-03 0.  1.
         11   -1    0    0    0    0 -0.00000000000E+00 -0.00000000000E+00 -0.45593999997E+02  0.45594000000E+02  0.51100000000E-03 0. -1.
    9900012    2    1    2    0    0 -0.98234496748E+01 -0.90886996258E+01  0.13098550891E+02  0.72461637303E+02  0.70000087292E+02 0.  0.
         12    1    1    2    0    0  0.98234496748E+01  0.90886996258E+01 -0.13098550891E+02  0.18726362697E+02  0.00000000000E+00 0. -1.
         11    1    3    3    0    0 -0.15821465252E+02 -0.91868332229E+00  0.37008312074E+01  0.16274485972E+02  0.51100000000E-03 0. -1.
        -11    1    3    3    0    0 -0.81172796509E+01 -0.48500445915E+01 -0.20711618667E+02  0.22768054584E+02  0.51100000000E-03 0.  1.
        -12    1    3    3    0    0  0.14115295228E+02 -0.33199717120E+01  0.30109338350E+02  0.33419096748E+02  0.00000000000E+00 0.  1.
</event>
<event>
 7    1  0.1489116E-013  0.7246147E+02  0.7816164E-02  0.1226708E+00
        -11   -1    0    0    0    0  0.00000000000E+00  0.00000000000E+00  0.45593999997E+02  0.45594000000E+02  0.51100000000E-03 0. -1.
         11   -1    0    0    0    0 -0.00000000000E+00 -0.00000000000E+00 -0.45593999997E+02  0.45594000000E+02  0.51100000000E-03 0.  1.
    9900012    2    1    2    0    0 -0.94584765017E+00  0.13140843012E+02 -0.13308135416E+02  0.72461471996E+02  0.69999871948E+02 0.  0.
         12    1    1    2    0    0  0.94584765017E+00 -0.13140843012E+02  0.13308135416E+02  0.18726528004E+02  0.00000000000E+00 0. -1.
         11    1    3    3    0    0  0.13121778079E+01  0.31236072062E+02 -0.66591442090E+01  0.31964952844E+02  0.51100000000E-03 0. -1.
        -11    1    3    3    0    0 -0.16589933599E+02 -0.63268545207E+01 -0.11715672822E+02  0.21272328854E+02  0.51100000000E-03 0.  1.
        -12    1    3    3    0    0  0.14331908141E+02 -0.11768374529E+02  0.50666816152E+01  0.19224190298E+02  0.00000000000E+00 0.  1.
</event>
<event>
 7    1  0.1465498E-013  0.7246158E+02  0.7816164E-02  0.1226708E+00
        -11   -1    0    0    0    0  0.00000000000E+00  0.00000000000E+00  0.45593999997E+02  0.45594000000E+02  0.51100000000E-03 0.  1.
         11   -1    0    0    0    0 -0.00000000000E+00 -0.00000000000E+00 -0.45593999997E+02  0.45594000000E+02  0.51100000000E-03 0. -1.
    9900012    2    1    2    0    0  0.57905268993E+01 -0.17525848614E+02 -0.31612249249E+01  0.72461577105E+02  0.70000008873E+02 0.  0.
         12    1    1    2    0    0 -0.57905268993E+01  0.17525848614E+02  0.31612249249E+01  0.18726422895E+02  0.00000000000E+00 0. -1.
         11    1    3    3    0    0  0.82706716657E+01  0.15924028372E+02  0.14138829095E+02  0.22844806364E+02  0.51100000000E-03 0. -1.
        -11    1    3    3    0    0  0.10769380293E+02 -0.99123999690E+01 -0.17228104298E+02  0.22606255837E+02  0.51100000000E-03 0.  1.
        -12    1    3    3    0    0 -0.13249525059E+02 -0.23537477017E+02 -0.71949721894E-01  0.27010514904E+02  0.00000000000E+00 0.  1.
</event>
<event>
 7    1  0.1465498E-013  0.7246155E+02  0.7816164E-02  0.1226708E+00
        -11   -1    0    0    0    0  0.00000000000E+00  0.00000000000E+00  0.45593999997E+02  0.45594000000E+02  0.51100000000E-03 0.  1.
         11   -1    0    0    0    0 -0.00000000000E+00 -0.00000000000E+00 -0.45593999997E+02  0.45594000000E+02  0.51100000000E-03 0. -1.
    9900012    2    1    2    0    0  0.18772319259E+01 -0.18367405585E+02 -0.31296095425E+01  0.72461546959E+02  0.69999969601E+02 0.  0.
         12    1    1    2    0    0 -0.18772319259E+01  0.18367405585E+02  0.31296095425E+01  0.18726453041E+02  0.00000000000E+00 0. -1.
         11    1    3    3    0    0 -0.29244486855E+01  0.21256486494E+01 -0.17292349940E+02  0.17666243206E+02  0.51100000000E-03 0. -1.
        -11    1    3    3    0    0  0.26139612592E+02 -0.55393558257E+01  0.50603690901E+01  0.27195057364E+02  0.51100000000E-03 0.  1.
         12    1    3    3    0    0 -0.21337931980E+02 -0.14953698409E+02  0.91023713079E+01  0.27600246389E+02  0.00000000000E+00 0. -1.
</event>
<event>
 7    1  0.1465498E-013  0.7246156E+02  0.7816164E-02  0.1226708E+00
        -11   -1    0    0    0    0  0.00000000000E+00  0.00000000000E+00  0.45593999997E+02  0.45594000000E+02  0.51100000000E-03 0.  1.
         11   -1    0    0    0    0 -0.00000000000E+00 -0.00000000000E+00 -0.45593999997E+02  0.45594000000E+02  0.51100000000E-03 0. -1.
    9900012    2    1    2    0    0 -0.13523290421E+02 -0.24478436387E+01  0.12720390307E+02  0.72461557416E+02  0.69999983223E+02 0.  0.
         12    1    1    2    0    0  0.13523290421E+02  0.24478436387E+01 -0.12720390307E+02  0.18726442584E+02  0.00000000000E+00 0. -1.
         11    1    3    3    0    0  0.11655062735E+02  0.81152443510E+01 -0.34434656725E+01  0.14613525732E+02  0.51100000000E-03 0. -1.
        -11    1    3    3    0    0  0.99537282641E+01 -0.15281924564E+02 -0.13929669462E+01  0.18290825074E+02  0.51100000000E-03 0.  1.
        -12    1    3    3    0    0 -0.35132081420E+02  0.47188365739E+01  0.17556822926E+02  0.39557206610E+02  0.00000000000E+00 0.  1.
</event>
<event>
 7    1  0.1465498E-013  0.7246193E+02  0.7816164E-02  0.1226707E+00
        -11   -1    0    0    0    0  0.00000000000E+00  0.00000000000E+00  0.45593999997E+02  0.45594000000E+02  0.51100000000E-03 0.  1.
         11   -1    0    0    0    0 -0.00000000000E+00 -0.00000000000E+00 -0.45593999997E+02  0.45594000000E+02  0.51100000000E-03 0. -1.
    9900012    2    1    2    0    0 -0.26755112262E+01 -0.59739426337E+01 -0.17544781133E+02  0.72461930046E+02  0.70000468642E+02 0.  0.
         12    1    1    2    0    0  0.26755112262E+01  0.59739426337E+01  0.17544781133E+02  0.18726069954E+02  0.00000000000E+00 0. -1.
         11    1    3    3    0    0 -0.10155922482E+02 -0.10251566690E+01 -0.10202103301E+02  0.14431791977E+02  0.51100000000E-03 0. -1.
        -11    1    3    3    0    0 -0.37360565190E+00 -0.24642850386E+02  0.13666905554E+02  0.28181447159E+02  0.51100000000E-03 0.  1.
         12    1    3    3    0    0  0.78540169072E+01  0.19694064421E+02 -0.21009583386E+02  0.29848690910E+02  0.00000000000E+00 0. -1.
</event>
<event>
 7    1  0.1465498E-013  0.7246155E+02  0.7816164E-02  0.1226708E+00
        -11   -1    0    0    0    0  0.00000000000E+00  0.00000000000E+00  0.45593999997E+02  0.45594000000E+02  0.51100000000E-03 0.  1.
         11   -1    0    0    0    0 -0.00000000000E+00 -0.00000000000E+00 -0.45593999997E+02  0.45594000000E+02  0.51100000000E-03 0. -1.
    9900012    2    1    2    0    0  0.12831677320E+01 -0.90962198528E+01  0.16318458881E+02  0.72461552518E+02  0.69999976844E+02 0.  0.
         12    1    1    2    0    0 -0.12831677320E+01  0.90962198528E+01 -0.16318458881E+02  0.18726447482E+02  0.00000000000E+00 0. -1.
         11    1    3    3    0    0 -0.10932524883E+02 -0.13497861586E+02  0.86389079279E+01  0.19399564380E+02  0.51100000000E-03 0. -1.
        -11    1    3    3    0    0  0.57876516866E+01 -0.23329620217E+02  0.35186445468E+01  0.24292981522E+02  0.51100000000E-03 0.  1.
         12    1    3    3    0    0  0.64280409285E+01  0.27731261950E+02  0.41609064060E+01  0.28769006616E+02  0.00000000000E+00 0. -1.
</event>
<event>
 7    1  0.1465498E-013  0.7246161E+02  0.7816164E-02  0.1226708E+00
        -11   -1    0    0    0    0  0.00000000000E+00  0.00000000000E+00  0.45593999997E+02  0.45594000000E+02  0.51100000000E-03 0.  1.
         11   -1    0    0    0    0 -0.00000000000E+00 -0.00000000000E+00 -0.45593999997E+02  0.45594000000E+02  0.51100000000E-03 0. -1.
    9900012    2    1    2    0    0 -0.81986872967E+01 -0.16833396880E+02  0.31007351382E+00  0.72461605005E+02  0.70000045217E+02 0.  0.
         12    1    1    2    0    0  0.81986872967E+01  0.16833396880E+02 -0.31007351382E+00  0.18726394995E+02  0.00000000000E+00 0. -1.
         11    1    3    3    0    0  0.68432770036E+01 -0.16769479656E+02  0.55783492789E+01  0.18951619166E+02  0.51100000000E-03 0. -1.
        -11    1    3    3    0    0  0.59528640543E+00 -0.10144847084E+02  0.19821451080E+02  0.22274698908E+02  0.51100000000E-03 0.  1.
         12    1    3    3    0    0 -0.15637250706E+02  0.10080929860E+02 -0.25089726845E+02  0.31235286931E+02  0.00000000000E+00 0. -1.
</event>
<event>
 7    1  0.1465498E-013  0.7246155E+02  0.7816164E-02  0.1226708E+00
        -11   -1    0    0    0    0  0.00000000000E+00  0.00000000000E+00  0.45593999997E+02  0.45594000000E+02  0.51100000000E-03 0.  1.
         11   -1    0    0    0    0 -0.00000000000E+00 -0.00000000000E+00 -0.45593999997E+02  0.45594000000E+02  0.51100000000E-03 0. -1.
    9900012    2    1    2    0    0 -0.17519441715E+01  0.13921983319E+02  0.12401171314E+02  0.72461548711E+02  0.69999971884E+02 0.  0.
         12    1    1    2    0    0  0.17519441715E+01 -0.13921983319E+02 -0.12401171314E+02  0.18726451289E+02  0.00000000000E+00 0. -1.
         11    1    3    3    0    0 -0.15845219874E+02 -0.34406550829E+01  0.36244922438E-01  0.16214512457E+02  0.51100000000E-03 0. -1.
        -11    1    3    3    0    0 -0.17156984881E+02  0.11745148681E+02  0.12941476512E+02  0.24490660716E+02  0.51100000000E-03 0.  1.
        -12    1    3    3    0    0  0.31250260584E+02  0.56174897211E+01 -0.57655011988E+00  0.31756375539E+02  0.00000000000E+00 0.  1.
</event>
<event>
 7    1  0.1465498E-013  0.7246156E+02  0.7816164E-02  0.1226708E+00
        -11   -1    0    0    0    0  0.00000000000E+00  0.00000000000E+00  0.45593999997E+02  0.45594000000E+02  0.51100000000E-03 0. -1.
         11   -1    0    0    0    0 -0.00000000000E+00 -0.00000000000E+00 -0.45593999997E+02  0.45594000000E+02  0.51100000000E-03 0.  1.
    9900012    2    1    2    0    0  0.62656474003E+01 -0.13858375361E+02  0.10925496004E+02  0.72461564997E+02  0.69999993099E+02 0.  0.
         12    1    1    2    0    0 -0.62656474003E+01  0.13858375361E+02 -0.10925496004E+02  0.18726435003E+02  0.00000000000E+00 0. -1.
         11    1    3    3    0    0  0.34374674995E+02  0.47075157797E+01  0.50885200527E+01  0.35066679660E+02  0.51100000000E-03 0. -1.
        -11    1    3    3    0    0  0.89805968201E+00 -0.20968129652E+00  0.27832456598E+01  0.29320528819E+01  0.51100000000E-03 0.  1.
        -12    1    3    3    0    0 -0.29007087276E+02 -0.18356209844E+02  0.30537302916E+01  0.34462832455E+02  0.00000000000E+00 0.  1.
</event>
<event>
 7    1  0.1465498E-013  0.7246157E+02  0.7816164E-02  0.1226708E+00
        -11   -1    0    0    0    0  0.00000000000E+00  0.00000000000E+00  0.45593999997E+02  0.45594000000E+02  0.51100000000E-03 0.  1.
         11   -1    0    0    0    0 -0.00000000000E+00 -0.00000000000E+00 -0.45593999997E+02  0.45594000000E+02  0.51100000000E-03 0. -1.
    9900012    2    1    2    0    0 -0.75784632861E+01  0.96371027137E+01  0.14155296001E+02  0.72461567895E+02  0.69999996875E+02 0.  0.
         12    1    1    2    0    0  0.75784632861E+01 -0.96371027137E+01 -0.14155296001E+02  0.18726432105E+02  0.00000000000E+00 0. -1.
         11    1    3    3    0    0 -0.25303957087E+02 -0.18164121227E+01  0.73616740071E+00  0.25379746649E+02  0.51100000000E-03 0. -1.
        -11    1    3    3    0    0 -0.95118051537E+01  0.14519637172E+02  0.81273726305E+01  0.19166337339E+02  0.51100000000E-03 0.  1.
        -12    1    3    3    0    0  0.27237298955E+02 -0.30661223352E+01  0.52917559698E+01  0.27915483907E+02  0.00000000000E+00 0.  1.
</event>
<event>
 7    1  0.1465498E-013  0.7246155E+02  0.7816164E-02  0.1226708E+00
        -11   -1    0    0    0    0  0.00000000000E+00  0.00000000000E+00  0.45593999997E+02  0.45594000000E+02  0.51100000000E-03 0. -1.
         11   -1    0    0    0    0 -0.00000000000E+00 -0.00000000000E+00 -0.45593999997E+02  0.45594000000E+02  0.51100000000E-03 0.  1.
    9900012    2    1    2    0    0  0.16813685428E+02 -0.81794572920E+01 -0.10375700867E+01  0.72461545692E+02  0.69999967951E+02 0.  0.
         12    1    1    2    0    0 -0.16813685428E+02  0.81794572920E+01  0.10375700867E+01  0.18726454308E+02  0.00000000000E+00 0. -1.
         11    1    3    3    0    0  0.21243039840E+02 -0.13753230735E+02 -0.11434319031E+02  0.27769799230E+02  0.51100000000E-03 0. -1.
        -11    1    3    3    0    0 -0.11498757226E+02  0.10927874371E+02 -0.12462186282E+02  0.20172901209E+02  0.51100000000E-03 0.  1.
         12    1    3    3    0    0  0.70694028142E+01 -0.53541009276E+01  0.22858935226E+02  0.24518845253E+02  0.00000000000E+00 0. -1.
</event>
<event>
 7    1  0.1465498E-013  0.7246157E+02  0.7816164E-02  0.1226708E+00
        -11   -1    0    0    0    0  0.00000000000E+00  0.00000000000E+00  0.45593999997E+02  0.45594000000E+02  0.51100000000E-03 0. -1.
         11   -1    0    0    0    0 -0.00000000000E+00 -0.00000000000E+00 -0.45593999997E+02  0.45594000000E+02  0.51100000000E-03 0.  1.
    9900012    2    1    2    0    0 -0.77650134910E+01 -0.11654801800E+02 -0.12431785826E+02  0.72461571127E+02  0.70000001085E+02 0.  0.
         12    1    1    2    0    0  0.77650134910E+01  0.11654801800E+02  0.12431785826E+02  0.18726428873E+02  0.00000000000E+00 0. -1.
         11    1    3    3    0    0 -0.60358402787E+01  0.10326157040E+02  0.38564271838E+01  0.12567136427E+02  0.51100000000E-03 0. -1.
        -11    1    3    3    0    0 -0.53065074836E+01 -0.18124219252E+02 -0.35372662439E+02  0.40098274195E+02  0.51100000000E-03 0.  1.
         12    1    3    3    0    0  0.35773342713E+01 -0.38567395874E+01  0.19084449429E+02  0.19796160505E+02  0.00000000000E+00 0. -1.
</event>
<event>
 7    1  0.1465498E-013  0.7246156E+02  0.7816164E-02  0.1226708E+00
        -11   -1    0    0    0    0  0.00000000000E+00  0.00000000000E+00  0.45593999997E+02  0.45594000000E+02  0.51100000000E-03 0.  1.
         11   -1    0    0    0    0 -0.00000000000E+00 -0.00000000000E+00 -0.45593999997E+02  0.45594000000E+02  0.51100000000E-03 0. -1.
    9900012    2    1    2    0    0  0.81078098814E+01 -0.16596978375E+02  0.30795170999E+01  0.72461556188E+02  0.69999981624E+02 0.  0.
         12    1    1    2    0    0 -0.81078098814E+01  0.16596978375E+02 -0.30795170999E+01  0.18726443812E+02  0.00000000000E+00 0. -1.
         11    1    3    3    0    0  0.52862664353E+00  0.13201092045E+02 -0.18226388342E+01  0.13336802086E+02  0.51100000000E-03 0. -1.
        -11    1    3    3    0    0  0.11548210613E+02  0.11253739846E+02 -0.46658125391E+01  0.16786233520E+02  0.51100000000E-03 0.  1.
        -12    1    3    3    0    0 -0.39690273748E+01 -0.41051810266E+02  0.95679684732E+01  0.42338520582E+02  0.00000000000E+00 0.  1.
</event>
<event>
 7    1  0.1465498E-013  0.7246161E+02  0.7816164E-02  0.1226708E+00
        -11   -1    0    0    0    0  0.00000000000E+00  0.00000000000E+00  0.45593999997E+02  0.45594000000E+02  0.51100000000E-03 0. -1.
         11   -1    0    0    0    0 -0.00000000000E+00 -0.00000000000E+00 -0.45593999997E+02  0.45594000000E+02  0.51100000000E-03 0.  1.
    9900012    2    1    2    0    0 -0.17649655295E+02  0.13573205375E+01  0.61094157394E+01  0.72461611887E+02  0.70000054182E+02 0.  0.
         12    1    1    2    0    0  0.17649655295E+02 -0.13573205375E+01 -0.61094157394E+01  0.18726388113E+02  0.00000000000E+00 0. -1.
         11    1    3    3    0    0 -0.16061957645E+02  0.20591772518E+02  0.32574625647E+01  0.26317648858E+02  0.51100000000E-03 0. -1.
        -11    1    3    3    0    0 -0.14331509251E+02 -0.16311100442E+02 -0.13223626831E+02  0.25422597465E+02  0.51100000000E-03 0.  1.
         12    1    3    3    0    0  0.12743811600E+02 -0.29233515381E+01  0.16075580006E+02  0.20721365564E+02  0.00000000000E+00 0. -1.
</event>
<event>
 7    1  0.1465498E-013  0.7246155E+02  0.7816164E-02  0.1226708E+00
        -11   -1    0    0    0    0  0.00000000000E+00  0.00000000000E+00  0.45593999997E+02  0.45594000000E+02  0.51100000000E-03 0. -1.
         11   -1    0    0    0    0 -0.00000000000E+00 -0.00000000000E+00 -0.45593999997E+02  0.45594000000E+02  0.51100000000E-03 0.  1.
    9900012    2    1    2    0    0  0.54048104370E+01  0.79593229747E+01 -0.16066020017E+02  0.72461553534E+02  0.69999978166E+02 0.  0.
         12    1    1    2    0    0 -0.54048104370E+01 -0.79593229747E+01  0.16066020017E+02  0.18726446466E+02  0.00000000000E+00 0. -1.
         11    1    3    3    0    0  0.72558721473E+01  0.11257574129E+02 -0.14116712359E+02  0.19459245205E+02  0.51100000000E-03 0. -1.
        -11    1    3    3    0    0 -0.53162678257E+01  0.10201820277E+02 -0.24172366899E+02  0.26770191675E+02  0.51100000000E-03 0.  1.
         12    1    3    3    0    0  0.34652061153E+01 -0.13500071431E+02  0.22223059241E+02  0.26232116653E+02  0.00000000000E+00 0. -1.
</event>
<event>
 7    1  0.1465498E-013  0.7246157E+02  0.7816164E-02  0.1226708E+00
        -11   -1    0    0    0    0  0.00000000000E+00  0.00000000000E+00  0.45593999997E+02  0.45594000000E+02  0.51100000000E-03 0.  1.
         11   -1    0    0    0    0 -0.00000000000E+00 -0.00000000000E+00 -0.45593999997E+02  0.45594000000E+02  0.51100000000E-03 0. -1.
    9900012    2    1    2    0    0  0.22689941779E+01  0.10056674684E+02  0.15633105991E+02  0.72461573667E+02  0.70000004394E+02 0.  0.
         12    1    1    2    0    0 -0.22689941779E+01 -0.10056674684E+02 -0.15633105991E+02  0.18726426333E+02  0.00000000000E+00 0. -1.
         11    1    3    3    0    0 -0.22540804498E+02 -0.36832058987E+01  0.13722019164E+01  0.22880926806E+02  0.51100000000E-03 0. -1.
        -11    1    3    3    0    0  0.19856060786E+02  0.22344568002E+02 -0.26089914274E+01  0.30005827861E+02  0.51100000000E-03 0.  1.
         12    1    3    3    0    0  0.49537378905E+01 -0.86046874194E+01  0.16869895502E+02  0.19574819001E+02  0.00000000000E+00 0. -1.
</event>
<event>
 7    1  0.1465498E-013  0.7246152E+02  0.7816164E-02  0.1226708E+00
        -11   -1    0    0    0    0  0.00000000000E+00  0.00000000000E+00  0.45593999997E+02  0.45594000000E+02  0.51100000000E-03 0.  1.
         11   -1    0    0    0    0 -0.00000000000E+00 -0.00000000000E+00 -0.45593999997E+02  0.45594000000E+02  0.51100000000E-03 0. -1.
    9900012    2    1    2    0    0 -0.56173171543E+01  0.11480757769E+02  0.13686458733E+02  0.72461515983E+02  0.69999929250E+02 0.  0.
         12    1    1    2    0    0  0.56173171543E+01 -0.11480757769E+02 -0.13686458733E+02  0.18726484017E+02  0.00000000000E+00 0. -1.
         11    1    3    3    0    0  0.69813315702E+01  0.17234104069E+02 -0.68198534511E+01  0.19805649065E+02  0.51100000000E-03 0. -1.
        -11    1    3    3    0    0  0.43858840723E+01  0.18364525954E+02  0.98167197655E+01  0.21280502339E+02  0.51100000000E-03 0.  1.
        -12    1    3    3    0    0 -0.16984532797E+02 -0.24117872253E+02  0.10689592419E+02  0.31375364578E+02  0.00000000000E+00 0.  1.
</event>
<event>
 7    1  0.1465498E-013  0.7246160E+02  0.7816164E-02  0.1226708E+00
        -11   -1    0    0    0    0  0.00000000000E+00  0.00000000000E+00  0.45593999997E+02  0.45594000000E+02  0.51100000000E-03 0.  1.
         11   -1    0    0    0    0 -0.00000000000E+00 -0.00000000000E+00 -0.45593999997E+02  0.45594000000E+02  0.51100000000E-03 0. -1.
    9900012    2    1    2    0    0  0.18427996184E+02 -0.74817498786E+00 -0.32445689413E+01  0.72461600539E+02  0.70000039399E+02 0.  0.
         12    1    1    2    0    0 -0.18427996184E+02  0.74817498786E+00  0.32445689413E+01  0.18726399461E+02  0.00000000000E+00 0. -1.
         11    1    3    3    0    0  0.88341560553E+01  0.70693848246E+01 -0.18758883976E+02  0.21906945092E+02  0.51100000000E-03 0. -1.
        -11    1    3    3    0    0  0.16019245792E+02  0.16081155707E+02  0.32334553700E+01  0.22927604291E+02  0.51100000000E-03 0.  1.
         12    1    3    3    0    0 -0.64254056635E+01 -0.23898715520E+02  0.12280859664E+02  0.27627051155E+02  0.00000000000E+00 0. -1.
</event>
<event>
 7    1  0.1465498E-013  0.7246171E+02  0.7816164E-02  0.1226708E+00
        -11   -1    0    0    0    0  0.00000000000E+00  0.00000000000E+00  0.45593999997E+02  0.45594000000E+02  0.51100000000E-03 0.  1.
         11   -1    0    0    0    0 -0.00000000000E+00 -0.00000000000E+00 -0.45593999997E+02  0.45594000000E+02  0.51100000000E-03 0. -1.
    9900012    2    1    2    0    0  0.18131304273E+02 -0.45779906794E+01  0.98576859206E+00  0.72461710110E+02  0.70000182136E+02 0.  0.
         12    1    1    2    0    0 -0.18131304273E+02  0.45779906794E+01 -0.98576859206E+00  0.18726289890E+02  0.00000000000E+00 0. -1.
         11    1    3    3    0    0  0.24334639652E+02 -0.28310334897E+02 -0.19767164225E+00  0.37332141960E+02  0.51100000000E-03 0.  1.
        -11    1    3    3    0    0 -0.10470059689E+02  0.25237046349E+00 -0.30152938861E+01  0.10898524589E+02  0.51100000000E-03 0. -1.
        -12    1    3    3    0    0  0.42667243106E+01  0.23479973754E+02  0.41987341204E+01  0.24231043561E+02  0.00000000000E+00 0.  1.
</event>
<event>
 7    1  0.1465498E-013  0.7246152E+02  0.7816164E-02  0.1226708E+00
        -11   -1    0    0    0    0  0.00000000000E+00  0.00000000000E+00  0.45593999997E+02  0.45594000000E+02  0.51100000000E-03 0.  1.
         11   -1    0    0    0    0 -0.00000000000E+00 -0.00000000000E+00 -0.45593999997E+02  0.45594000000E+02  0.51100000000E-03 0. -1.
    9900012    2    1    2    0    0  0.14859522599E+02 -0.11025813136E+02  0.28821780071E+01  0.72461523630E+02  0.69999939211E+02 0.  0.
         12    1    1    2    0    0 -0.14859522599E+02  0.11025813136E+02 -0.28821780071E+01  0.18726476370E+02  0.00000000000E+00 0. -1.
         11    1    3    3    0    0  0.51741941147E+01 -0.32699172934E+02  0.15971384381E+02  0.36757221259E+02  0.51100000000E-03 0. -1.
        -11    1    3    3    0    0  0.46329864208E+01  0.10188572126E+02  0.61230722968E+01  0.12757883043E+02  0.51100000000E-03 0.  1.
        -12    1    3    3    0    0  0.50523420638E+01  0.11484787673E+02 -0.19212278671E+02  0.22946419328E+02  0.00000000000E+00 0.  1.
</event>
<event>
 7    1  0.1465498E-013  0.7246185E+02  0.7816164E-02  0.1226707E+00
        -11   -1    0    0    0    0  0.00000000000E+00  0.00000000000E+00  0.45593999997E+02  0.45594000000E+02  0.51100000000E-03 0.  1.
         11   -1    0    0    0    0 -0.00000000000E+00 -0.00000000000E+00 -0.45593999997E+02  0.45594000000E+02  0.51100000000E-03 0. -1.
    9900012    2    1    2    0    0  0.15523985837E+02 -0.84173252307E+01  0.62308190825E+01  0.72461852325E+02  0.70000367397E+02 0.  0.
         12    1    1    2    0    0 -0.15523985837E+02  0.84173252307E+01 -0.62308190825E+01  0.18726147675E+02  0.00000000000E+00 0. -1.
         11    1    3    3    0    0  0.35632635919E+01 -0.33399556008E+01 -0.19419231019E+01  0.52557793366E+01  0.51100000000E-03 0. -1.
        -11    1    3    3    0    0  0.35433142196E+02  0.96392173611E+01  0.13253946258E+02  0.39039584640E+02  0.51100000000E-03 0.  1.
         12    1    3    3    0    0 -0.23472419951E+02 -0.14716586991E+02 -0.50812040738E+01  0.28166488348E+02  0.00000000000E+00 0. -1.
</event>
<event>
 7    1  0.1465498E-013  0.7246157E+02  0.7816164E-02  0.1226708E+00
        -11   -1    0    0    0    0  0.00000000000E+00  0.00000000000E+00  0.45593999997E+02  0.45594000000E+02  0.51100000000E-03 0.  1.
         11   -1    0    0    0    0 -0.00000000000E+00 -0.00000000000E+00 -0.45593999997E+02  0.45594000000E+02  0.51100000000E-03 0. -1.
    9900012    2    1    2    0    0  0.16468942917E+02 -0.43073440765E+01  0.78038456088E+01  0.72461566808E+02  0.69999995459E+02 0.  0.
         12    1    1    2    0    0 -0.16468942917E+02  0.43073440765E+01 -0.78038456088E+01  0.18726433192E+02  0.00000000000E+00 0. -1.
         11    1    3    3    0    0  0.30361805185E+01  0.14975946485E+02  0.89877966102E+01  0.17727883501E+02  0.51100000000E-03 0. -1.
        -11    1    3    3    0    0 -0.89837055877E+01  0.63123462373E+01  0.13733598525E+02  0.17583071683E+02  0.51100000000E-03 0.  1.
         12    1    3    3    0    0  0.22416467986E+02 -0.25595636799E+02 -0.14917549527E+02  0.37150611624E+02  0.00000000000E+00 0. -1.
</event>
<event>
 7    1  0.1465498E-013  0.7246154E+02  0.7816164E-02  0.1226708E+00
        -11   -1    0    0    0    0  0.00000000000E+00  0.00000000000E+00  0.45593999997E+02  0.45594000000E+02  0.51100000000E-03 0. -1.
         11   -1    0    0    0    0 -0.00000000000E+00 -0.00000000000E+00 -0.45593999997E+02  0.45594000000E+02  0.51100000000E-03 0.  1.
    9900012    2    1    2    0    0 -0.44939978814E+00  0.92361834430E+00 -0.18698270374E+02  0.72461538882E+02  0.69999959080E+02 0.  0.
         12    1    1    2    0    0  0.44939978814E+00 -0.92361834430E+00  0.18698270374E+02  0.18726461118E+02  0.00000000000E+00 0. -1.
         11    1    3    3    0    0  0.74863231584E+01  0.61926639901E+01 -0.56673898395E+01  0.11247818881E+02  0.51100000000E-03 0.  1.
        -11    1    3    3    0    0  0.16026178523E+02  0.82940557400E+01 -0.25294817201E+02  0.31071812567E+02  0.51100000000E-03 0. -1.
         12    1    3    3    0    0 -0.23961901470E+02 -0.13563101386E+02  0.12263936667E+02  0.30141907435E+02  0.00000000000E+00 0. -1.
</event>
<event>
 7    1  0.1465498E-013  0.7246165E+02  0.7816164E-02  0.1226708E+00
        -11   -1    0    0    0    0  0.00000000000E+00  0.00000000000E+00  0.45593999997E+02  0.45594000000E+02  0.51100000000E-03 0.  1.
         11   -1    0    0    0    0 -0.00000000000E+00 -0.00000000000E+00 -0.45593999997E+02  0.45594000000E+02  0.51100000000E-03 0. -1.
    9900012    2    1    2    0    0  0.98525662719E+01  0.15778798474E+02  0.21523138435E+01  0.72461654966E+02  0.70000110301E+02 0.  0.
         12    1    1    2    0    0 -0.98525662719E+01 -0.15778798474E+02 -0.21523138435E+01  0.18726345034E+02  0.00000000000E+00 0. -1.
         11    1    3    3    0    0  0.70323096448E+01  0.75384548405E+01  0.62182679741E+01  0.12039457512E+02  0.51100000000E-03 0. -1.
        -11    1    3    3    0    0  0.12305632511E+02  0.60285442268E+01  0.25688167447E+02  0.29114496115E+02  0.51100000000E-03 0.  1.
         12    1    3    3    0    0 -0.94853758839E+01  0.22117994071E+01 -0.29754121578E+02  0.31307701339E+02  0.00000000000E+00 0. -1.
</event>
<event>
 7    1  0.1465498E-013  0.7246149E+02  0.7816164E-02  0.1226708E+00
        -11   -1    0    0    0    0  0.00000000000E+00  0.00000000000E+00  0.45593999997E+02  0.45594000000E+02  0.51100000000E-03 0. -1.
         11   -1    0    0    0    0 -0.00000000000E+00 -0.00000000000E+00 -0.45593999997E+02  0.45594000000E+02  0.51100000000E-03 0.  1.
    9900012    2    1    2    0    0 -0.71826410350E+01  0.45235515393E+01 -0.16692196754E+02  0.72461487158E+02  0.69999891699E+02 0.  0.
         12    1    1    2    0    0  0.71826410350E+01 -0.45235515393E+01  0.16692196754E+02  0.18726512842E+02  0.00000000000E+00 0. -1.
         11    1    3    3    0    0 -0.10010958096E+02  0.16745231658E+02  0.78611981745E+01  0.21033794291E+02  0.51100000000E-03 0. -1.
        -11    1    3    3    0    0 -0.11921342164E+02 -0.15255900893E+02  0.34177482107E+01  0.19660669219E+02  0.51100000000E-03 0.  1.
        -12    1    3    3    0    0  0.14749659224E+02  0.30342207743E+01 -0.27971143139E+02  0.31767023648E+02  0.00000000000E+00 0.  1.
</event>
<event>
 7    1  0.1465498E-013  0.7246159E+02  0.7816164E-02  0.1226708E+00
        -11   -1    0    0    0    0  0.00000000000E+00  0.00000000000E+00  0.45593999997E+02  0.45594000000E+02  0.51100000000E-03 0.  1.
         11   -1    0    0    0    0 -0.00000000000E+00 -0.00000000000E+00 -0.45593999997E+02  0.45594000000E+02  0.51100000000E-03 0. -1.
    9900012    2    1    2    0    0 -0.41671581652E+00  0.10797528133E+02  0.15294380259E+02  0.72461592620E+02  0.70000029083E+02 0.  0.
         12    1    1    2    0    0  0.41671581652E+00 -0.10797528133E+02 -0.15294380259E+02  0.18726407380E+02  0.00000000000E+00 0. -1.
         11    1    3    3    0    0 -0.12638338469E+02 -0.20073128396E+02 -0.76847996319E+01  0.24934197972E+02  0.51100000000E-03 0. -1.
        -11    1    3    3    0    0  0.91403952526E+01 -0.55876451626E+00  0.94875274680E+01  0.13186061614E+02  0.51100000000E-03 0.  1.
        -12    1    3    3    0    0  0.30812274000E+01  0.31429421045E+02  0.13491652423E+02  0.34341333035E+02  0.00000000000E+00 0.  1.
</event>
<event>
 7    1  0.1465498E-013  0.7246154E+02  0.7816164E-02  0.1226708E+00
        -11   -1    0    0    0    0  0.00000000000E+00  0.00000000000E+00  0.45593999997E+02  0.45594000000E+02  0.51100000000E-03 0.  1.
         11   -1    0    0    0    0 -0.00000000000E+00 -0.00000000000E+00 -0.45593999997E+02  0.45594000000E+02  0.51100000000E-03 0. -1.
    9900012    2    1    2    0    0  0.15356934162E+02 -0.27393004502E+01  0.10360552075E+02  0.72461541896E+02  0.69999963006E+02 0.  0.
         12    1    1    2    0    0 -0.15356934162E+02  0.27393004502E+01 -0.10360552075E+02  0.18726458104E+02  0.00000000000E+00 0. -1.
         11    1    3    3    0    0 -0.18761528586E+02 -0.36695027554E+01 -0.41513804978E+01  0.19562570528E+02  0.51100000000E-03 0. -1.
        -11    1    3    3    0    0 -0.30147095847E+01 -0.13388377982E+01 -0.85253521371E+01  0.91412575641E+01  0.51100000000E-03 0.  1.
        -12    1    3    3    0    0  0.37133172333E+02  0.22690401034E+01  0.23037284710E+02  0.43757713804E+02  0.00000000000E+00 0.  1.
</event>
<event>
 7    1  0.1465498E-013  0.7246161E+02  0.7816164E-02  0.1226708E+00
        -11   -1    0    0    0    0  0.00000000000E+00  0.00000000000E+00  0.45593999997E+02  0.45594000000E+02  0.51100000000E-03 0.  1.
         11   -1    0    0    0    0 -0.00000000000E+00 -0.00000000000E+00 -0.45593999997E+02  0.45594000000E+02  0.51100000000E-03 0. -1.
    9900012    2    1    2    0    0  0.22916284475E+01 -0.14213642033E+02 -0.11974917545E+02  0.72461606034E+02  0.70000046557E+02 0.  0.
         12    1    1    2    0    0 -0.22916284475E+01  0.14213642033E+02  0.11974917545E+02  0.18726393966E+02  0.00000000000E+00 0. -1.
         11    1    3    3    0    0  0.99859755423E+01  0.63697411351E+01  0.60326469949E+01  0.13292333869E+02  0.51100000000E-03 0. -1.
        -11    1    3    3    0    0 -0.80273446682E+01 -0.83599697275E+01  0.17850819533E+02  0.21283306006E+02  0.51100000000E-03 0.  1.
         12    1    3    3    0    0  0.33299757344E+00 -0.12223413440E+02 -0.35858384073E+02  0.37885966159E+02  0.00000000000E+00 0. -1.
</event>
<event>
 7    1  0.1465498E-013  0.7246158E+02  0.7816164E-02  0.1226708E+00
        -11   -1    0    0    0    0  0.00000000000E+00  0.00000000000E+00  0.45593999997E+02  0.45594000000E+02  0.51100000000E-03 0. -1.
         11   -1    0    0    0    0 -0.00000000000E+00 -0.00000000000E+00 -0.45593999997E+02  0.45594000000E+02  0.51100000000E-03 0.  1.
    9900012    2    1    2    0    0  0.13617704115E+02 -0.12545840289E+02  0.27998166889E+01  0.72461576225E+02  0.70000007725E+02 0.  0.
         12    1    1    2    0    0 -0.13617704115E+02  0.12545840289E+02 -0.27998166889E+01  0.18726423775E+02  0.00000000000E+00 0. -1.
         11    1    3    3    0    0 -0.17164293656E+02  0.57003770529E+01 -0.18038432382E+01  0.18175839071E+02  0.51100000000E-03 0.  1.
        -11    1    3    3    0    0  0.17057221262E+02  0.52020124204E+01 -0.12861335216E+02  0.21986897785E+02  0.51100000000E-03 0. -1.
        -12    1    3    3    0    0  0.13724776509E+02 -0.23448229762E+02  0.17464995143E+02  0.32298839368E+02  0.00000000000E+00 0.  1.
</event>
<event>
 7    1  0.1465498E-013  0.7246156E+02  0.7816164E-02  0.1226708E+00
        -11   -1    0    0    0    0  0.00000000000E+00  0.00000000000E+00  0.45593999997E+02  0.45594000000E+02  0.51100000000E-03 0. -1.
         11   -1    0    0    0    0 -0.00000000000E+00 -0.00000000000E+00 -0.45593999997E+02  0.45594000000E+02  0.51100000000E-03 0.  1.
    9900012    2    1    2    0    0 -0.75755987778E+01 -0.13638370996E+02 -0.10357833647E+02  0.72461559385E+02  0.69999985788E+02 0.  0.
         12    1    1    2    0    0  0.75755987778E+01  0.13638370996E+02  0.10357833647E+02  0.18726440615E+02  0.00000000000E+00 0. -1.
         11    1    3    3    0    0  0.14295033038E+02  0.22833327731E+01 -0.30343127939E+01  0.14790829338E+02  0.51100000000E-03 0. -1.
        -11    1    3    3    0    0 -0.25805683669E+02 -0.38023109351E+01 -0.24833483289E+02  0.36015174171E+02  0.51100000000E-03 0.  1.
         12    1    3    3    0    0  0.39350518533E+01 -0.12119392834E+02  0.17509962436E+02  0.21655555875E+02  0.00000000000E+00 0. -1.
</event>
<event>
 7    1  0.1465498E-013  0.7246163E+02  0.7816164E-02  0.1226708E+00
        -11   -1    0    0    0    0  0.00000000000E+00  0.00000000000E+00  0.45593999997E+02  0.45594000000E+02  0.51100000000E-03 0.  1.
         11   -1    0    0    0    0 -0.00000000000E+00 -0.00000000000E+00 -0.45593999997E+02  0.45594000000E+02  0.51100000000E-03 0. -1.
    9900012    2    1    2    0    0 -0.16179213355E+02  0.93230268084E+01  0.14111099716E+01  0.72461628087E+02  0.70000075286E+02 0.  0.
         12    1    1    2    0    0  0.16179213355E+02 -0.93230268084E+01 -0.14111099716E+01  0.18726371913E+02  0.00000000000E+00 0. -1.
         11    1    3    3    0    0 -0.50460254119E+01 -0.18545230779E+01  0.61106900214E+01  0.81389287442E+01  0.51100000000E-03 0. -1.
        -11    1    3    3    0    0 -0.35437409110E+02 -0.34613580138E+01 -0.27320135965E+00  0.35607100458E+02  0.51100000000E-03 0.  1.
        -12    1    3    3    0    0  0.24304221167E+02  0.14638907900E+02 -0.44263786901E+01  0.28715598886E+02  0.00000000000E+00 0.  1.
</event>
<event>
 7    1  0.1465498E-013  0.7246157E+02  0.7816164E-02  0.1226708E+00
        -11   -1    0    0    0    0  0.00000000000E+00  0.00000000000E+00  0.45593999997E+02  0.45594000000E+02  0.51100000000E-03 0.  1.
         11   -1    0    0    0    0 -0.00000000000E+00 -0.00000000000E+00 -0.45593999997E+02  0.45594000000E+02  0.51100000000E-03 0. -1.
    9900012    2    1    2    0    0 -0.17812438732E+02  0.16830498679E+01  0.55284250607E+01  0.72461571774E+02  0.70000001928E+02 0.  0.
         12    1    1    2    0    0  0.17812438732E+02 -0.16830498679E+01 -0.55284250607E+01  0.18726428226E+02  0.00000000000E+00 0. -1.
         11    1    3    3    0    0  0.97718666113E+01 -0.25409573406E+01 -0.87187191210E+01  0.13340236304E+02  0.51100000000E-03 0. -1.
        -11    1    3    3    0    0 -0.20476348091E+02  0.17330606855E+02  0.28043185233E+02  0.38807872956E+02  0.51100000000E-03 0.  1.
         12    1    3    3    0    0 -0.71079572528E+01 -0.13106599647E+02 -0.13796041051E+02  0.20313462514E+02  0.00000000000E+00 0. -1.
</event>
<event>
 7    1  0.1465498E-013  0.7246162E+02  0.7816164E-02  0.1226708E+00
        -11   -1    0    0    0    0  0.00000000000E+00  0.00000000000E+00  0.45593999997E+02  0.45594000000E+02  0.51100000000E-03 0. -1.
         11   -1    0    0    0    0 -0.00000000000E+00 -0.00000000000E+00 -0.45593999997E+02  0.45594000000E+02  0.51100000000E-03 0.  1.
    9900012    2    1    2    0    0  0.15476654380E+02 -0.71136997500E+01 -0.77811236381E+01  0.72461616473E+02  0.70000060156E+02 0.  0.
         12    1    1    2    0    0 -0.15476654380E+02  0.71136997500E+01  0.77811236381E+01  0.18726383527E+02  0.00000000000E+00 0. -1.
         11    1    3    3    0    0  0.26459156729E+02 -0.27624042327E+02 -0.13739690437E+02  0.40644234313E+02  0.51100000000E-03 0. -1.
        -11    1    3    3    0    0  0.49166694284E+01 -0.44722574979E+00  0.62766637237E+00  0.49767071921E+01  0.51100000000E-03 0.  1.
        -12    1    3    3    0    0 -0.15899171777E+02  0.20957568326E+02  0.53309004269E+01  0.26840674968E+02  0.00000000000E+00 0.  1.
</event>
<event>
 7    1  0.1487226E-013  0.7246181E+02  0.7816164E-02  0.1226707E+00
        -11   -1    0    0    0    0  0.00000000000E+00  0.00000000000E+00  0.45593999997E+02  0.45594000000E+02  0.51100000000E-03 0.  1.
         11   -1    0    0    0    0 -0.00000000000E+00 -0.00000000000E+00 -0.45593999997E+02  0.45594000000E+02  0.51100000000E-03 0. -1.
    9900012    2    1    2    0    0 -0.46574559951E+01 -0.96426485764E+01  0.15362214586E+02  0.72461809653E+02  0.70000311809E+02 0.  0.
         12    1    1    2    0    0  0.46574559951E+01  0.96426485764E+01 -0.15362214586E+02  0.18726190347E+02  0.00000000000E+00 0. -1.
         11    1    3    3    0    0  0.13774426079E+02 -0.14869663801E+02 -0.14586217085E+02  0.24971973179E+02  0.51100000000E-03 0. -1.
        -11    1    3    3    0    0 -0.21820186255E+02 -0.13581444739E+01  0.63637628109E+01  0.22769772989E+02  0.51100000000E-03 0.  1.
        -12    1    3    3    0    0  0.33883041810E+01  0.65851596987E+01  0.23584668860E+02  0.24720063485E+02  0.00000000000E+00 0.  1.
</event>
<event>
 7    1  0.1465498E-013  0.7246157E+02  0.7816164E-02  0.1226708E+00
        -11   -1    0    0    0    0  0.00000000000E+00  0.00000000000E+00  0.45593999997E+02  0.45594000000E+02  0.51100000000E-03 0. -1.
         11   -1    0    0    0    0 -0.00000000000E+00 -0.00000000000E+00 -0.45593999997E+02  0.45594000000E+02  0.51100000000E-03 0.  1.
    9900012    2    1    2    0    0  0.57953984358E+01 -0.76312242147E+01 -0.16089029756E+02  0.72461572029E+02  0.70000002260E+02 0.  0.
         12    1    1    2    0    0 -0.57953984358E+01  0.76312242147E+01  0.16089029756E+02  0.18726427971E+02  0.00000000000E+00 0. -1.
         11    1    3    3    0    0 -0.76227324171E+00  0.12789188509E+02 -0.28085228910E+01  0.13116104769E+02  0.51100000000E-03 0. -1.
        -11    1    3    3    0    0  0.18005748528E+02  0.50103762408E+01  0.11578454346E+02  0.21985710256E+02  0.51100000000E-03 0.  1.
        -12    1    3    3    0    0 -0.11448076851E+02 -0.25430788965E+02 -0.24858961212E+02  0.37359757005E+02  0.00000000000E+00 0.  1.
</event>
<event>
 7    1  0.1465498E-013  0.7246158E+02  0.7816164E-02  0.1226708E+00
        -11   -1    0    0    0    0  0.00000000000E+00  0.00000000000E+00  0.45593999997E+02  0.45594000000E+02  0.51100000000E-03 0. -1.
         11   -1    0    0    0    0 -0.00000000000E+00 -0.00000000000E+00 -0.45593999997E+02  0.45594000000E+02  0.51100000000E-03 0.  1.
    9900012    2    1    2    0    0  0.11214018148E+02  0.58118489195E+01  0.13825589490E+02  0.72461582413E+02  0.70000015787E+02 0.  0.
         12    1    1    2    0    0 -0.11214018148E+02 -0.58118489195E+01 -0.13825589490E+02  0.18726417587E+02  0.00000000000E+00 0. -1.
         11    1    3    3    0    0 -0.19422660641E+01  0.29850019859E+01  0.89132675426E+00  0.36711167189E+01  0.51100000000E-03 0. -1.
        -11    1    3    3    0    0 -0.99260626020E+01  0.53940759530E+01  0.34985860295E+02  0.36764564393E+02  0.51100000000E-03 0.  1.
         12    1    3    3    0    0  0.23082346814E+02 -0.25672290194E+01 -0.22051597559E+02  0.32025901302E+02  0.00000000000E+00 0. -1.
</event>
<event>
 7    1  0.1465498E-013  0.7246158E+02  0.7816164E-02  0.1226708E+00
        -11   -1    0    0    0    0  0.00000000000E+00  0.00000000000E+00  0.45593999997E+02  0.45594000000E+02  0.51100000000E-03 0. -1.
         11   -1    0    0    0    0 -0.00000000000E+00 -0.00000000000E+00 -0.45593999997E+02  0.45594000000E+02  0.51100000000E-03 0.  1.
    9900012    2    1    2    0    0 -0.13735414256E+02 -0.57180175240E+01 -0.11371960967E+02  0.72461579481E+02  0.70000011968E+02 0.  0.
         12    1    1    2    0    0  0.13735414256E+02  0.57180175240E+01  0.11371960967E+02  0.18726420519E+02  0.00000000000E+00 0. -1.
         11    1    3    3    0    0 -0.20853319128E+02 -0.19346120318E+02  0.10330109697E+02  0.30262922143E+02  0.51100000000E-03 0. -1.
        -11    1    3    3    0    0 -0.71193087059E+01 -0.28453819558E+01  0.38903182518E+01  0.85974025895E+01  0.51100000000E-03 0.  1.
        -12    1    3    3    0    0  0.14237213578E+02  0.16473484749E+02 -0.25592388916E+02  0.33601254749E+02  0.00000000000E+00 0.  1.
</event>
<event>
 7    1  0.1465498E-013  0.7246158E+02  0.7816164E-02  0.1226708E+00
        -11   -1    0    0    0    0  0.00000000000E+00  0.00000000000E+00  0.45593999997E+02  0.45594000000E+02  0.51100000000E-03 0. -1.
         11   -1    0    0    0    0 -0.00000000000E+00 -0.00000000000E+00 -0.45593999997E+02  0.45594000000E+02  0.51100000000E-03 0.  1.
    9900012    2    1    2    0    0  0.17434158247E+02 -0.45959922914E+01 -0.50602275352E+01  0.72461576913E+02  0.70000008622E+02 0.  0.
         12    1    1    2    0    0 -0.17434158247E+02  0.45959922914E+01  0.50602275352E+01  0.18726423087E+02  0.00000000000E+00 0. -1.
         11    1    3    3    0    0 -0.60166127421E+01 -0.14369812301E+02 -0.15371749838E+02  0.21885653470E+02  0.51100000000E-03 0. -1.
        -11    1    3    3    0    0  0.17772065022E+02  0.53600480096E+01 -0.15248812183E+02  0.24022961580E+02  0.51100000000E-03 0.  1.
         12    1    3    3    0    0  0.56787059668E+01  0.44137720000E+01  0.25560334485E+02  0.26552961864E+02  0.00000000000E+00 0. -1.
</event>
<event>
 7    1  0.1465498E-013  0.7246154E+02  0.7816164E-02  0.1226708E+00
        -11   -1    0    0    0    0  0.00000000000E+00  0.00000000000E+00  0.45593999997E+02  0.45594000000E+02  0.51100000000E-03 0. -1.
         11   -1    0    0    0    0 -0.00000000000E+00 -0.00000000000E+00 -0.45593999997E+02  0.45594000000E+02  0.51100000000E-03 0.  1.
    9900012    2    1    2    0    0 -0.10483278337E+02 -0.19316973209E+01 -0.15396422776E+02  0.72461537079E+02  0.69999956731E+02 0.  0.
         12    1    1    2    0    0  0.10483278337E+02  0.19316973209E+01  0.15396422776E+02  0.18726462921E+02  0.00000000000E+00 0. -1.
         11    1    3    3    0    0 -0.12309729353E+02  0.15196715501E+02 -0.11849162520E+02  0.22866400054E+02  0.51100000000E-03 0. -1.
        -11    1    3    3    0    0 -0.12118762992E+02 -0.36660728718E+01 -0.20333857482E+02  0.23953502189E+02  0.51100000000E-03 0.  1.
         12    1    3    3    0    0  0.13945214007E+02 -0.13462339950E+02  0.16786597226E+02  0.25641634836E+02  0.00000000000E+00 0. -1.
</event>
<event>
 7    1  0.1465498E-013  0.7246188E+02  0.7816164E-02  0.1226707E+00
        -11   -1    0    0    0    0  0.00000000000E+00  0.00000000000E+00  0.45593999997E+02  0.45594000000E+02  0.51100000000E-03 0.  1.
         11   -1    0    0    0    0 -0.00000000000E+00 -0.00000000000E+00 -0.45593999997E+02  0.45594000000E+02  0.51100000000E-03 0. -1.
    9900012    2    1    2    0    0  0.10961038207E+02 -0.15048416558E+02 -0.20170307047E+01  0.72461878877E+02  0.70000401985E+02 0.  0.
         12    1    1    2    0    0 -0.10961038207E+02  0.15048416558E+02  0.20170307047E+01  0.18726121123E+02  0.00000000000E+00 0. -1.
         11    1    3    3    0    0 -0.92715608437E+00 -0.22221731914E+01  0.27424426358E+01  0.36494744785E+01  0.51100000000E-03 0. -1.
        -11    1    3    3    0    0  0.33116895312E+01 -0.34898489475E+02  0.14846319609E+02  0.38069476767E+02  0.51100000000E-03 0.  1.
         12    1    3    3    0    0  0.85765047597E+01  0.22072246108E+02 -0.19605792949E+02  0.30742927631E+02  0.00000000000E+00 0. -1.
</event>
<event>
 7    1  0.1465498E-013  0.7246155E+02  0.7816164E-02  0.1226708E+00
        -11   -1    0    0    0    0  0.00000000000E+00  0.00000000000E+00  0.45593999997E+02  0.45594000000E+02  0.51100000000E-03 0. -1.
         11   -1    0    0    0    0 -0.00000000000E+00 -0.00000000000E+00 -0.45593999997E+02  0.45594000000E+02  0.51100000000E-03 0.  1.
    9900012    2    1    2    0    0 -0.86801040281E+01 -0.14655150782E+02  0.77821665927E+01  0.72461554335E+02  0.69999979210E+02 0.  0.
         12    1    1    2    0    0  0.86801040281E+01  0.14655150782E+02 -0.77821665927E+01  0.18726445665E+02  0.00000000000E+00 0. -1.
         11    1    3    3    0    0  0.17777071557E+02  0.16501928560E+02 -0.18389899391E+01  0.24325291439E+02  0.51100000000E-03 0. -1.
        -11    1    3    3    0    0  0.12536607244E+01 -0.85560417445E+01 -0.44296403446E+01  0.97159265842E+01  0.51100000000E-03 0.  1.
        -12    1    3    3    0    0 -0.27710836309E+02 -0.22601037597E+02  0.14050796876E+02  0.38420336312E+02  0.00000000000E+00 0.  1.
</event>
<event>
 7    1  0.1465498E-013  0.7246156E+02  0.7816164E-02  0.1226708E+00
        -11   -1    0    0    0    0  0.00000000000E+00  0.00000000000E+00  0.45593999997E+02  0.45594000000E+02  0.51100000000E-03 0. -1.
         11   -1    0    0    0    0 -0.00000000000E+00 -0.00000000000E+00 -0.45593999997E+02  0.45594000000E+02  0.51100000000E-03 0.  1.
    9900012    2    1    2    0    0  0.28051415600E+01  0.39356253137E+01 -0.18092034035E+02  0.72461557163E+02  0.69999982894E+02 0.  0.
         12    1    1    2    0    0 -0.28051415600E+01 -0.39356253137E+01  0.18092034035E+02  0.18726442837E+02  0.00000000000E+00 0. -1.
         11    1    3    3    0    0 -0.14569188479E+01  0.15758815265E+02  0.13589993674E+02  0.20860268440E+02  0.51100000000E-03 0. -1.
        -11    1    3    3    0    0  0.19959708332E+02  0.59295814722E+00 -0.20742748400E+02  0.28792415104E+02  0.51100000000E-03 0.  1.
         12    1    3    3    0    0 -0.15697647924E+02 -0.12416148098E+02 -0.10939279309E+02  0.22808873619E+02  0.00000000000E+00 0. -1.
</event>
<event>
 7    1  0.1465498E-013  0.7246156E+02  0.7816164E-02  0.1226708E+00
        -11   -1    0    0    0    0  0.00000000000E+00  0.00000000000E+00  0.45593999997E+02  0.45594000000E+02  0.51100000000E-03 0.  1.
         11   -1    0    0    0    0 -0.00000000000E+00 -0.00000000000E+00 -0.45593999997E+02  0.45594000000E+02  0.51100000000E-03 0. -1.
    9900012    2    1    2    0    0 -0.17935648229E+02 -0.32465925278E+01 -0.42955274835E+01  0.72461564226E+02  0.69999992095E+02 0.  0.
         12    1    1    2    0    0  0.17935648229E+02  0.32465925278E+01  0.42955274835E+01  0.18726435774E+02  0.00000000000E+00 0. -1.
         11    1    3    3    0    0  0.19986054178E+01 -0.36444770678E+01  0.47561937354E+00  0.41836408502E+01  0.51100000000E-03 0. -1.
        -11    1    3    3    0    0 -0.64267646820E+01  0.16675446233E+02  0.25628123425E+02  0.31243791734E+02  0.51100000000E-03 0.  1.
         12    1    3    3    0    0 -0.13507488965E+02 -0.16277561693E+02 -0.30399270282E+02  0.37034131642E+02  0.00000000000E+00 0. -1.
</event>
<event>
 7    1  0.1465498E-013  0.7246166E+02  0.7816164E-02  0.1226708E+00
        -11   -1    0    0    0    0  0.00000000000E+00  0.00000000000E+00  0.45593999997E+02  0.45594000000E+02  0.51100000000E-03 0.  1.
         11   -1    0    0    0    0 -0.00000000000E+00 -0.00000000000E+00 -0.45593999997E+02  0.45594000000E+02  0.51100000000E-03 0. -1.
    9900012    2    1    2    0    0 -0.15696635486E+02  0.98491121532E+01  0.26993728075E+01  0.72461655206E+02  0.70000110614E+02 0.  0.
         12    1    1    2    0    0  0.15696635486E+02 -0.98491121532E+01 -0.26993728075E+01  0.18726344794E+02  0.00000000000E+00 0. -1.
         11    1    3    3    0    0  0.48406991832E+01  0.16720499110E+01 -0.50113170735E+00  0.51457995236E+01  0.51100000000E-03 0. -1.
        -11    1    3    3    0    0 -0.55781628512E+01  0.29433533155E+02  0.20313946816E+02  0.36195375537E+02  0.51100000000E-03 0.  1.
         12    1    3    3    0    0 -0.14959171818E+02 -0.21256470913E+02 -0.17113442301E+02  0.31120480146E+02  0.00000000000E+00 0. -1.
</event>
<event>
 7    1  0.1465498E-013  0.7246154E+02  0.7816164E-02  0.1226708E+00
        -11   -1    0    0    0    0  0.00000000000E+00  0.00000000000E+00  0.45593999997E+02  0.45594000000E+02  0.51100000000E-03 0.  1.
         11   -1    0    0    0    0 -0.00000000000E+00 -0.00000000000E+00 -0.45593999997E+02  0.45594000000E+02  0.51100000000E-03 0. -1.
    9900012    2    1    2    0    0 -0.86127032404E+01  0.17118472639E+01  0.16539983948E+02  0.72461544191E+02  0.69999965996E+02 0.  0.
         12    1    1    2    0    0  0.86127032404E+01 -0.17118472639E+01 -0.16539983948E+02  0.18726455809E+02  0.00000000000E+00 0. -1.
         11    1    3    3    0    0  0.50542235022E+01  0.16818038198E+02 -0.71761781566E+01  0.18970743719E+02  0.51100000000E-03 0. -1.
        -11    1    3    3    0    0  0.67985500493E+01  0.41230164509E+01 -0.78968782215E+01  0.11206258668E+02  0.51100000000E-03 0.  1.
        -12    1    3    3    0    0 -0.20465476792E+02 -0.19229207385E+02  0.31613040326E+02  0.42284541805E+02  0.00000000000E+00 0.  1.
</event>
<event>
 7    1  0.1465498E-013  0.7246153E+02  0.7816164E-02  0.1226708E+00
        -11   -1    0    0    0    0  0.00000000000E+00  0.00000000000E+00  0.45593999997E+02  0.45594000000E+02  0.51100000000E-03 0. -1.
         11   -1    0    0    0    0 -0.00000000000E+00 -0.00000000000E+00 -0.45593999997E+02  0.45594000000E+02  0.51100000000E-03 0.  1.
    9900012    2    1    2    0    0 -0.18406807838E+02 -0.72529521321E+00 -0.33680947798E+01  0.72461529687E+02  0.69999947101E+02 0.  0.
         12    1    1    2    0    0  0.18406807838E+02  0.72529521321E+00  0.33680947798E+01  0.18726470313E+02  0.00000000000E+00 0. -1.
         11    1    3    3    0    0 -0.72860525427E+01  0.33605297245E+01  0.57172518993E+01  0.98522429541E+01  0.51100000000E-03 0. -1.
        -11    1    3    3    0    0 -0.31809608142E+02  0.13710047234E+02 -0.58436043395E+01  0.35127827676E+02  0.51100000000E-03 0.  1.
         12    1    3    3    0    0  0.20688852847E+02 -0.17795872172E+02 -0.32417423395E+01  0.27481459056E+02  0.00000000000E+00 0. -1.
</event>
<event>
 7    1  0.2688427E-013  0.7246152E+02  0.7816164E-02  0.1226708E+00
        -11   -1    0    0    0    0  0.00000000000E+00  0.00000000000E+00  0.45593999997E+02  0.45594000000E+02  0.51100000000E-03 0. -1.
         11   -1    0    0    0    0 -0.00000000000E+00 -0.00000000000E+00 -0.45593999997E+02  0.45594000000E+02  0.51100000000E-03 0.  1.
    9900012    2    1    2    0    0 -0.45868694201E+01 -0.10058253994E+02 -0.15115330649E+02  0.72461519682E+02  0.69999934068E+02 0.  0.
         12    1    1    2    0    0  0.45868694201E+01  0.10058253994E+02  0.15115330649E+02  0.18726480318E+02  0.00000000000E+00 0. -1.
         11    1    3    3    0    0 -0.17403671394E+02  0.61425675686E+00  0.14248276888E+02  0.22500632967E+02  0.51100000000E-03 0. -1.
        -11    1    3    3    0    0 -0.88686923462E+01  0.75574577706E+01 -0.12034661144E+02  0.16751177302E+02  0.51100000000E-03 0.  1.
        -12    1    3    3    0    0  0.21685494320E+02 -0.18229968522E+02 -0.17328946393E+02  0.33209709413E+02  0.00000000000E+00 0.  1.
</event>
<event>
 7    1  0.1465498E-013  0.7246157E+02  0.7816164E-02  0.1226708E+00
        -11   -1    0    0    0    0  0.00000000000E+00  0.00000000000E+00  0.45593999997E+02  0.45594000000E+02  0.51100000000E-03 0. -1.
         11   -1    0    0    0    0 -0.00000000000E+00 -0.00000000000E+00 -0.45593999997E+02  0.45594000000E+02  0.51100000000E-03 0.  1.
    9900012    2    1    2    0    0  0.84039032145E+01  0.20105669672E+01 -0.16613582631E+02  0.72461572242E+02  0.70000002537E+02 0.  0.
         12    1    1    2    0    0 -0.84039032145E+01 -0.20105669672E+01  0.16613582631E+02  0.18726427758E+02  0.00000000000E+00 0. -1.
         11    1    3    3    0    0 -0.15580661861E+02  0.21794473773E+02 -0.14439927692E+02  0.30434645112E+02  0.51100000000E-03 0. -1.
        -11    1    3    3    0    0 -0.44086264103E+01  0.29140605050E+01 -0.20713646362E+01  0.56761155000E+01  0.51100000000E-03 0.  1.
        -12    1    3    3    0    0  0.28393191486E+02 -0.22697967311E+02 -0.10229030207E+00  0.36350811629E+02  0.00000000000E+00 0.  1.
</event>
<event>
 7    1  0.1465498E-013  0.7246157E+02  0.7816164E-02  0.1226708E+00
        -11   -1    0    0    0    0  0.00000000000E+00  0.00000000000E+00  0.45593999997E+02  0.45594000000E+02  0.51100000000E-03 0. -1.
         11   -1    0    0    0    0 -0.00000000000E+00 -0.00000000000E+00 -0.45593999997E+02  0.45594000000E+02  0.51100000000E-03 0.  1.
    9900012    2    1    2    0    0 -0.13671444489E+02  0.10383088936E+02 -0.74807897579E+01  0.72461570931E+02  0.70000000830E+02 0.  0.
         12    1    1    2    0    0  0.13671444489E+02 -0.10383088936E+02  0.74807897579E+01  0.18726429069E+02  0.00000000000E+00 0. -1.
         11    1    3    3    0    0 -0.20547600128E+02  0.25402084231E+02 -0.13324481129E+02  0.35284721225E+02  0.51100000000E-03 0. -1.
        -11    1    3    3    0    0 -0.27178080333E+01 -0.54600900420E+01 -0.12773414513E+02  0.14154828942E+02  0.51100000000E-03 0.  1.
         12    1    3    3    0    0  0.95939636728E+01 -0.95589052526E+01  0.18617105884E+02  0.23022020765E+02  0.00000000000E+00 0. -1.
</event>
<event>
 7    1  0.1465498E-013  0.7246159E+02  0.7816164E-02  0.1226708E+00
        -11   -1    0    0    0    0  0.00000000000E+00  0.00000000000E+00  0.45593999997E+02  0.45594000000E+02  0.51100000000E-03 0. -1.
         11   -1    0    0    0    0 -0.00000000000E+00 -0.00000000000E+00 -0.45593999997E+02  0.45594000000E+02  0.51100000000E-03 0.  1.
    9900012    2    1    2    0    0 -0.15786603180E+02  0.39542875840E+01  0.92641973905E+01  0.72461585940E+02  0.70000020381E+02 0.  0.
         12    1    1    2    0    0  0.15786603180E+02 -0.39542875840E+01 -0.92641973905E+01  0.18726414060E+02  0.00000000000E+00 0. -1.
         11    1    3    3    0    0 -0.28546373306E+02  0.25110445358E+02  0.21889179761E+00  0.38019439881E+02  0.51100000000E-03 0. -1.
        -11    1    3    3    0    0  0.81734082143E+00  0.10892559190E+01 -0.52527334198E+01  0.54263922744E+01  0.51100000000E-03 0.  1.
        -12    1    3    3    0    0  0.11942429305E+02 -0.22245413692E+02  0.14298039013E+02  0.29015753784E+02  0.00000000000E+00 0.  1.
</event>
<event>
 7    1  0.1465498E-013  0.7246164E+02  0.7816164E-02  0.1226708E+00
        -11   -1    0    0    0    0  0.00000000000E+00  0.00000000000E+00  0.45593999997E+02  0.45594000000E+02  0.51100000000E-03 0. -1.
         11   -1    0    0    0    0 -0.00000000000E+00 -0.00000000000E+00 -0.45593999997E+02  0.45594000000E+02  0.51100000000E-03 0.  1.
    9900012    2    1    2    0    0 -0.16932329953E+01  0.13267912035E+02 -0.13106175861E+02  0.72461644951E+02  0.70000097254E+02 0.  0.
         12    1    1    2    0    0  0.16932329953E+01 -0.13267912035E+02  0.13106175861E+02  0.18726355049E+02  0.00000000000E+00 0. -1.
         11    1    3    3    0    0  0.88137204298E+00  0.10313440941E+02  0.11712434133E+02  0.15630898704E+02  0.51100000000E-03 0. -1.
        -11    1    3    3    0    0  0.15907228724E+02  0.18787969306E+02 -0.42827519885E+01  0.24987390443E+02  0.51100000000E-03 0.  1.
         12    1    3    3    0    0 -0.18481833762E+02 -0.15833498212E+02 -0.20535858005E+02  0.31843355804E+02  0.00000000000E+00 0. -1.
</event>
<event>
 7    1  0.1465498E-013  0.7246160E+02  0.7816164E-02  0.1226708E+00
        -11   -1    0    0    0    0  0.00000000000E+00  0.00000000000E+00  0.45593999997E+02  0.45594000000E+02  0.51100000000E-03 0.  1.
         11   -1    0    0    0    0 -0.00000000000E+00 -0.00000000000E+00 -0.45593999997E+02  0.45594000000E+02  0.51100000000E-03 0. -1.
    9900012    2    1    2    0    0 -0.71086818859E+01  0.16698521373E+02 -0.46156384366E+01  0.72461599055E+02  0.70000037466E+02 0.  0.
         12    1    1    2    0    0  0.71086818859E+01 -0.16698521373E+02  0.46156384366E+01  0.18726400945E+02  0.00000000000E+00 0. -1.
         11    1    3    3    0    0  0.45835092720E+01 -0.15755820979E+02 -0.13153355527E+01  0.16461608665E+02  0.51100000000E-03 0. -1.
        -11    1    3    3    0    0 -0.23305127010E+02  0.36635446696E+02 -0.91843286469E+00  0.43429579997E+02  0.51100000000E-03 0.  1.
         12    1    3    3    0    0  0.11612935852E+02 -0.41811043446E+01 -0.23818700192E+01  0.12570410392E+02  0.00000000000E+00 0. -1.
</event>
<event>
 7    1  0.1465498E-013  0.7246163E+02  0.7816164E-02  0.1226708E+00
        -11   -1    0    0    0    0  0.00000000000E+00  0.00000000000E+00  0.45593999997E+02  0.45594000000E+02  0.51100000000E-03 0.  1.
         11   -1    0    0    0    0 -0.00000000000E+00 -0.00000000000E+00 -0.45593999997E+02  0.45594000000E+02  0.51100000000E-03 0. -1.
    9900012    2    1    2    0    0  0.82466919023E+01  0.10682901552E+02 -0.12982480446E+02  0.72461625246E+02  0.70000071585E+02 0.  0.
         12    1    1    2    0    0 -0.82466919023E+01 -0.10682901552E+02  0.12982480446E+02  0.18726374754E+02  0.00000000000E+00 0. -1.
         11    1    3    3    0    0 -0.59342013479E+01 -0.94398206556E+01  0.66886061746E+00  0.11170153734E+02  0.51100000000E-03 0. -1.
        -11    1    3    3    0    0 -0.30287476362E+01 -0.97176549138E+01  0.13867202880E+02  0.17201902373E+02  0.51100000000E-03 0.  1.
         12    1    3    3    0    0  0.17209640886E+02  0.29840377122E+02 -0.27518543943E+02  0.44089569140E+02  0.00000000000E+00 0. -1.
</event>
<event>
 7    1  0.1465498E-013  0.7246163E+02  0.7816164E-02  0.1226708E+00
        -11   -1    0    0    0    0  0.00000000000E+00  0.00000000000E+00  0.45593999997E+02  0.45594000000E+02  0.51100000000E-03 0.  1.
         11   -1    0    0    0    0 -0.00000000000E+00 -0.00000000000E+00 -0.45593999997E+02  0.45594000000E+02  0.51100000000E-03 0. -1.
    9900012    2    1    2    0    0  0.13632031079E+01 -0.10509108568E+02  0.15439475429E+02  0.72461625895E+02  0.70000072430E+02 0.  0.
         12    1    1    2    0    0 -0.13632031079E+01  0.10509108568E+02 -0.15439475429E+02  0.18726374105E+02  0.00000000000E+00 0. -1.
         11    1    3    3    0    0 -0.18281162212E+02 -0.23752360012E+01  0.14364699439E+02  0.23370648860E+02  0.51100000000E-03 0. -1.
        -11    1    3    3    0    0  0.24816223691E+02 -0.16829299823E+02  0.13654880025E+02  0.32947322191E+02  0.51100000000E-03 0.  1.
         12    1    3    3    0    0 -0.51718583710E+01  0.86954272562E+01 -0.12580104035E+02  0.16143654844E+02  0.00000000000E+00 0. -1.
</event>
<event>
 7    1  0.1465498E-013  0.7246159E+02  0.7816164E-02  0.1226708E+00
        -11   -1    0    0    0    0  0.00000000000E+00  0.00000000000E+00  0.45593999997E+02  0.45594000000E+02  0.51100000000E-03 0.  1.
         11   -1    0    0    0    0 -0.00000000000E+00 -0.00000000000E+00 -0.45593999997E+02  0.45594000000E+02  0.51100000000E-03 0. -1.
    9900012    2    1    2    0    0  0.26561861454E+01 -0.11901382190E+02  0.14211969108E+02  0.72461593810E+02  0.70000030633E+02 0.  0.
         12    1    1    2    0    0 -0.26561861454E+01  0.11901382190E+02 -0.14211969108E+02  0.18726406190E+02  0.00000000000E+00 0. -1.
         11    1    3    3    0    0 -0.98275889080E+01 -0.13058344908E+02 -0.16032916807E+02  0.22894459965E+02  0.51100000000E-03 0. -1.
        -11    1    3    3    0    0  0.10340730447E+02 -0.15854291147E+02  0.59699731833E+01  0.19847665707E+02  0.51100000000E-03 0.  1.
        -12    1    3    3    0    0  0.21430446067E+01  0.17011253865E+02  0.24274912732E+02  0.29719468138E+02  0.00000000000E+00 0.  1.
</event>
<event>
 7    1  0.1465498E-013  0.7246153E+02  0.7816164E-02  0.1226708E+00
        -11   -1    0    0    0    0  0.00000000000E+00  0.00000000000E+00  0.45593999997E+02  0.45594000000E+02  0.51100000000E-03 0.  1.
         11   -1    0    0    0    0 -0.00000000000E+00 -0.00000000000E+00 -0.45593999997E+02  0.45594000000E+02  0.51100000000E-03 0. -1.
    9900012    2    1    2    0    0 -0.17409462734E+02  0.64703551600E+01  0.23928791851E+01  0.72461527845E+02  0.69999944701E+02 0.  0.
         12    1    1    2    0    0  0.17409462734E+02 -0.64703551600E+01 -0.23928791851E+01  0.18726472155E+02  0.00000000000E+00 0. -1.
         11    1    3    3    0    0 -0.20499429594E+02  0.26113536411E+02  0.97466970491E+01  0.34599732675E+02  0.51100000000E-03 0. -1.
        -11    1    3    3    0    0 -0.10008036095E+01  0.75285152417E+01 -0.70792981217E+01  0.10382514713E+02  0.51100000000E-03 0.  1.
        -12    1    3    3    0    0  0.40907704691E+01 -0.27171696493E+02 -0.27451974234E+00  0.27479280457E+02  0.00000000000E+00 0.  1.
</event>
<event>
 7    1  0.1465498E-013  0.7246154E+02  0.7816164E-02  0.1226708E+00
        -11   -1    0    0    0    0  0.00000000000E+00  0.00000000000E+00  0.45593999997E+02  0.45594000000E+02  0.51100000000E-03 0. -1.
         11   -1    0    0    0    0 -0.00000000000E+00 -0.00000000000E+00 -0.45593999997E+02  0.45594000000E+02  0.51100000000E-03 0.  1.
    9900012    2    1    2    0    0 -0.98029165216E+01 -0.69063897415E+01 -0.14383499500E+02  0.72461536120E+02  0.69999955482E+02 0.  0.
         12    1    1    2    0    0  0.98029165216E+01  0.69063897415E+01  0.14383499500E+02  0.18726463880E+02  0.00000000000E+00 0. -1.
         11    1    3    3    0    0 -0.18172070878E+02 -0.19239691411E+02 -0.80628115851E+01  0.27665842053E+02  0.51100000000E-03 0. -1.
        -11    1    3    3    0    0 -0.12703721521E+01 -0.88457847712E+01  0.12152695179E+02  0.15084752368E+02  0.51100000000E-03 0.  1.
        -12    1    3    3    0    0  0.96395265087E+01  0.21179086441E+02 -0.18473383093E+02  0.29710941699E+02  0.00000000000E+00 0.  1.
</event>
<event>
 7    1  0.1465498E-013  0.7246158E+02  0.7816164E-02  0.1226708E+00
        -11   -1    0    0    0    0  0.00000000000E+00  0.00000000000E+00  0.45593999997E+02  0.45594000000E+02  0.51100000000E-03 0.  1.
         11   -1    0    0    0    0 -0.00000000000E+00 -0.00000000000E+00 -0.45593999997E+02  0.45594000000E+02  0.51100000000E-03 0. -1.
    9900012    2    1    2    0    0 -0.18010848960E+02  0.17281895442E+01 -0.48271467096E+01  0.72461583773E+02  0.70000017558E+02 0.  0.
         12    1    1    2    0    0  0.18010848960E+02 -0.17281895442E+01  0.48271467096E+01  0.18726416227E+02  0.00000000000E+00 0. -1.
         11    1    3    3    0    0  0.87299174957E+01 -0.68031473864E+01 -0.90227984863E+01  0.14279536639E+02  0.51100000000E-03 0. -1.
        -11    1    3    3    0    0  0.70536265309E+01  0.13326482693E+02  0.16076124735E+02  0.22040657317E+02  0.51100000000E-03 0.  1.
        -12    1    3    3    0    0 -0.33794392986E+02 -0.47951457625E+01 -0.11880472958E+02  0.36141389817E+02  0.00000000000E+00 0.  1.
</event>
<event>
 7    1  0.1465498E-013  0.7246155E+02  0.7816164E-02  0.1226708E+00
        -11   -1    0    0    0    0  0.00000000000E+00  0.00000000000E+00  0.45593999997E+02  0.45594000000E+02  0.51100000000E-03 0.  1.
         11   -1    0    0    0    0 -0.00000000000E+00 -0.00000000000E+00 -0.45593999997E+02  0.45594000000E+02  0.51100000000E-03 0. -1.
    9900012    2    1    2    0    0  0.22029937043E+01  0.16196051306E+02  0.91386348962E+01  0.72461550605E+02  0.69999974351E+02 0.  0.
         12    1    1    2    0    0 -0.22029937043E+01 -0.16196051306E+02 -0.91386348962E+01  0.18726449395E+02  0.00000000000E+00 0. -1.
         11    1    3    3    0    0  0.95358889701E+01  0.11181246547E+02 -0.81763340838E+01  0.16816833593E+02  0.51100000000E-03 0. -1.
        -11    1    3    3    0    0  0.14371455759E+02 -0.29180080113E+01 -0.11551531398E+02  0.18667924075E+02  0.51100000000E-03 0.  1.
        -12    1    3    3    0    0 -0.21704351024E+02  0.79328127703E+01  0.28866500378E+02  0.36976792937E+02  0.00000000000E+00 0.  1.
</event>
<event>
 7    1  0.1465498E-013  0.7246151E+02  0.7816164E-02  0.1226708E+00
        -11   -1    0    0    0    0  0.00000000000E+00  0.00000000000E+00  0.45593999997E+02  0.45594000000E+02  0.51100000000E-03 0.  1.
         11   -1    0    0    0    0 -0.00000000000E+00 -0.00000000000E+00 -0.45593999997E+02  0.45594000000E+02  0.51100000000E-03 0. -1.
    9900012    2    1    2    0    0  0.15789247362E+02  0.10046553274E+02 -0.66933410399E+00  0.72461506118E+02  0.69999916399E+02 0.  0.
         12    1    1    2    0    0 -0.15789247362E+02 -0.10046553274E+02  0.66933410399E+00  0.18726493882E+02  0.00000000000E+00 0. -1.
         11    1    3    3    0    0 -0.35837813980E+01  0.85722435895E+01 -0.18501288988E+01  0.94736385021E+01  0.51100000000E-03 0. -1.
        -11    1    3    3    0    0  0.17548389582E+02  0.18541395831E+02 -0.22303580356E+02  0.33899543260E+02  0.51100000000E-03 0.  1.
         12    1    3    3    0    0  0.18246391779E+01 -0.17067086146E+02  0.23484375150E+02  0.29088324356E+02  0.00000000000E+00 0. -1.
</event>
<event>
 7    1  0.1465498E-013  0.7246152E+02  0.7816164E-02  0.1226708E+00
        -11   -1    0    0    0    0  0.00000000000E+00  0.00000000000E+00  0.45593999997E+02  0.45594000000E+02  0.51100000000E-03 0.  1.
         11   -1    0    0    0    0 -0.00000000000E+00 -0.00000000000E+00 -0.45593999997E+02  0.45594000000E+02  0.51100000000E-03 0. -1.
    9900012    2    1    2    0    0  0.59658381385E+01  0.17748432495E+02 -0.28782400018E+00  0.72461523466E+02  0.69999938997E+02 0.  0.
         12    1    1    2    0    0 -0.59658381385E+01 -0.17748432495E+02  0.28782400018E+00  0.18726476534E+02  0.00000000000E+00 0. -1.
         11    1    3    3    0    0 -0.13419467972E+01  0.11677748884E+02 -0.16550164759E+02  0.20299719063E+02  0.51100000000E-03 0. -1.
        -11    1    3    3    0    0 -0.40977211182E+01  0.25069970386E+02  0.13241624910E+01  0.25437140958E+02  0.51100000000E-03 0.  1.
         12    1    3    3    0    0  0.11405506054E+02 -0.18999286775E+02  0.14938178268E+02  0.26724663445E+02  0.00000000000E+00 0. -1.
</event>
<event>
 7    1  0.1465498E-013  0.7246157E+02  0.7816164E-02  0.1226708E+00
        -11   -1    0    0    0    0  0.00000000000E+00  0.00000000000E+00  0.45593999997E+02  0.45594000000E+02  0.51100000000E-03 0. -1.
         11   -1    0    0    0    0 -0.00000000000E+00 -0.00000000000E+00 -0.45593999997E+02  0.45594000000E+02  0.51100000000E-03 0.  1.
    9900012    2    1    2    0    0  0.40911603681E+01 -0.22568353138E+01 -0.18134171880E+02  0.72461572456E+02  0.70000002815E+02 0.  0.
         12    1    1    2    0    0 -0.40911603681E+01  0.22568353138E+01  0.18134171880E+02  0.18726427544E+02  0.00000000000E+00 0. -1.
         11    1    3    3    0    0  0.79127061541E+01  0.18736726575E+01  0.76211110116E+01  0.11144635536E+02  0.51100000000E-03 0. -1.
        -11    1    3    3    0    0  0.11741874888E+02  0.21673103939E+02 -0.16978440041E+02  0.29930962008E+02  0.51100000000E-03 0.  1.
         12    1    3    3    0    0 -0.15563420674E+02 -0.25803611911E+02 -0.87768428514E+01  0.31385974912E+02  0.00000000000E+00 0. -1.
</event>
<event>
 7    1  0.1465498E-013  0.7246156E+02  0.7816164E-02  0.1226708E+00
        -11   -1    0    0    0    0  0.00000000000E+00  0.00000000000E+00  0.45593999997E+02  0.45594000000E+02  0.51100000000E-03 0.  1.
         11   -1    0    0    0    0 -0.00000000000E+00 -0.00000000000E+00 -0.45593999997E+02  0.45594000000E+02  0.51100000000E-03 0. -1.
    9900012    2    1    2    0    0 -0.12396595908E+02  0.77850874402E+01  0.11678890075E+02  0.72461557467E+02  0.69999983290E+02 0.  0.
         12    1    1    2    0    0  0.12396595908E+02 -0.77850874402E+01 -0.11678890075E+02  0.18726442533E+02  0.00000000000E+00 0. -1.
         11    1    3    3    0    0  0.16352036624E+01 -0.54815223624E+01 -0.59013261111E+01  0.82186755963E+01  0.51100000000E-03 0. -1.
        -11    1    3    3    0    0 -0.25582313022E+01 -0.76444536321E+01  0.34222343171E+02  0.35158938993E+02  0.51100000000E-03 0.  1.
         12    1    3    3    0    0 -0.11473568268E+02  0.20911063435E+02 -0.16642126985E+02  0.29083942878E+02  0.00000000000E+00 0. -1.
</event>
<event>
 7    1  0.1465498E-013  0.7246150E+02  0.7816164E-02  0.1226708E+00
        -11   -1    0    0    0    0  0.00000000000E+00  0.00000000000E+00  0.45593999997E+02  0.45594000000E+02  0.51100000000E-03 0.  1.
         11   -1    0    0    0    0 -0.00000000000E+00 -0.00000000000E+00 -0.45593999997E+02  0.45594000000E+02  0.51100000000E-03 0. -1.
    9900012    2    1    2    0    0  0.18372218273E+02 -0.36249893208E+01  0.53795117747E-01  0.72461498838E+02  0.69999906915E+02 0.  0.
         12    1    1    2    0    0 -0.18372218273E+02  0.36249893208E+01 -0.53795117747E-01  0.18726501162E+02  0.00000000000E+00 0. -1.
         11    1    3    3    0    0 -0.18689149445E+02  0.15738758885E+00  0.67302261052E+01  0.19864667667E+02  0.51100000000E-03 0. -1.
        -11    1    3    3    0    0  0.24513127627E+02 -0.13653059593E+02  0.97361866646E+01  0.29700047026E+02  0.51100000000E-03 0.  1.
         12    1    3    3    0    0  0.12548240091E+02  0.98706826836E+01 -0.16412617652E+02  0.22896784146E+02  0.00000000000E+00 0. -1.
</event>
<event>
 7    1  0.1465498E-013  0.7246152E+02  0.7816164E-02  0.1226708E+00
        -11   -1    0    0    0    0  0.00000000000E+00  0.00000000000E+00  0.45593999997E+02  0.45594000000E+02  0.51100000000E-03 0.  1.
         11   -1    0    0    0    0 -0.00000000000E+00 -0.00000000000E+00 -0.45593999997E+02  0.45594000000E+02  0.51100000000E-03 0. -1.
    9900012    2    1    2    0    0 -0.99386436632E+01 -0.90616999979E+01  0.13030344660E+02  0.72461523378E+02  0.69999938883E+02 0.  0.
         12    1    1    2    0    0  0.99386436632E+01  0.90616999979E+01 -0.13030344660E+02  0.18726476622E+02  0.00000000000E+00 0. -1.
         11    1    3    3    0    0  0.11207125711E+02 -0.15771077045E+02 -0.14772799354E+02  0.24342599263E+02  0.51100000000E-03 0. -1.
        -11    1    3    3    0    0  0.71365332305E+01  0.76177817916E+01  0.41312756238E+01  0.11226225747E+02  0.51100000000E-03 0.  1.
        -12    1    3    3    0    0 -0.28282302605E+02 -0.90840474452E+00  0.23671868391E+02  0.36892698368E+02  0.00000000000E+00 0.  1.
</event>
<event>
 7    1  0.1465498E-013  0.7246113E+02  0.7816164E-02  0.1226709E+00
        -11   -1    0    0    0    0  0.00000000000E+00  0.00000000000E+00  0.45593999997E+02  0.45594000000E+02  0.51100000000E-03 0.  1.
         11   -1    0    0    0    0 -0.00000000000E+00 -0.00000000000E+00 -0.45593999997E+02  0.45594000000E+02  0.51100000000E-03 0. -1.
    9900012    2    1    2    0    0  0.85763886010E+01  0.16146618320E+02  0.40531354979E+01  0.72461130749E+02  0.69999427408E+02 0.  0.
         12    1    1    2    0    0 -0.85763886010E+01 -0.16146618320E+02 -0.40531354979E+01  0.18726869251E+02  0.00000000000E+00 0. -1.
         11    1    3    3    0    0  0.21362727449E+02  0.20431462772E+01  0.84638138125E+01  0.23068955661E+02  0.51100000000E-03 0. -1.
        -11    1    3    3    0    0 -0.40927212725E+01  0.13951592723E+02  0.19284888962E+02  0.24151692476E+02  0.51100000000E-03 0.  1.
         12    1    3    3    0    0 -0.86936175757E+01  0.15187931954E+00 -0.23695567277E+02  0.25240482611E+02  0.00000000000E+00 0. -1.
</event>
<event>
 7    1  0.1465498E-013  0.7246138E+02  0.7816164E-02  0.1226709E+00
        -11   -1    0    0    0    0  0.00000000000E+00  0.00000000000E+00  0.45593999997E+02  0.45594000000E+02  0.51100000000E-03 0.  1.
         11   -1    0    0    0    0 -0.00000000000E+00 -0.00000000000E+00 -0.45593999997E+02  0.45594000000E+02  0.51100000000E-03 0. -1.
    9900012    2    1    2    0    0 -0.17887509935E+02 -0.54175827217E+01  0.11717955429E+01  0.72461379402E+02  0.69999751327E+02 0.  0.
         12    1    1    2    0    0  0.17887509935E+02  0.54175827217E+01 -0.11717955429E+01  0.18726620598E+02  0.00000000000E+00 0. -1.
         11    1    3    3    0    0  0.22978083337E+01 -0.85173835671E+01 -0.40121518808E+01  0.96913935501E+01  0.51100000000E-03 0.  1.
        -11    1    3    3    0    0 -0.21607167062E+02 -0.48997412007E+01 -0.23889852460E+02  0.32582237233E+02  0.51100000000E-03 0. -1.
        -12    1    3    3    0    0  0.14218487931E+01  0.79995420462E+01  0.29073799884E+02  0.30187748618E+02  0.00000000000E+00 0.  1.
</event>
<event>
 7    1  0.1465498E-013  0.7246162E+02  0.7816164E-02  0.1226708E+00
        -11   -1    0    0    0    0  0.00000000000E+00  0.00000000000E+00  0.45593999997E+02  0.45594000000E+02  0.51100000000E-03 0. -1.
         11   -1    0    0    0    0 -0.00000000000E+00 -0.00000000000E+00 -0.45593999997E+02  0.45594000000E+02  0.51100000000E-03 0.  1.
    9900012    2    1    2    0    0  0.14722244954E+02  0.33493757039E+01 -0.11077659614E+02  0.72461618699E+02  0.70000063057E+02 0.  0.
         12    1    1    2    0    0 -0.14722244954E+02 -0.33493757039E+01  0.11077659614E+02  0.18726381301E+02  0.00000000000E+00 0. -1.
         11    1    3    3    0    0  0.50706068807E+01  0.89328955921E+01  0.15351088146E+02  0.18470614103E+02  0.51100000000E-03 0. -1.
        -11    1    3    3    0    0  0.10480417176E+02  0.15700313676E+02  0.14202199780E+01  0.18930293679E+02  0.51100000000E-03 0.  1.
        -12    1    3    3    0    0 -0.82877910239E+00 -0.21283833565E+02 -0.27848967738E+02  0.35060710918E+02  0.00000000000E+00 0.  1.
</event>
<event>
 7    1  0.1465498E-013  0.7246149E+02  0.7816164E-02  0.1226708E+00
        -11   -1    0    0    0    0  0.00000000000E+00  0.00000000000E+00  0.45593999997E+02  0.45594000000E+02  0.51100000000E-03 0. -1.
         11   -1    0    0    0    0 -0.00000000000E+00 -0.00000000000E+00 -0.45593999997E+02  0.45594000000E+02  0.51100000000E-03 0.  1.
    9900012    2    1    2    0    0  0.57357216264E+01  0.12989123857E+02 -0.12209274086E+02  0.72461488983E+02  0.69999894077E+02 0.  0.
         12    1    1    2    0    0 -0.57357216264E+01 -0.12989123857E+02  0.12209274086E+02  0.18726511017E+02  0.00000000000E+00 0. -1.
         11    1    3    3    0    0 -0.50480906937E+01 -0.76289584201E+01 -0.94339796002E+01  0.13140935948E+02  0.51100000000E-03 0. -1.
        -11    1    3    3    0    0  0.14423318263E+00 -0.14420543108E+02  0.13030860353E+02  0.19436465433E+02  0.51100000000E-03 0.  1.
        -12    1    3    3    0    0  0.10639579137E+02  0.35038625385E+02 -0.15806154839E+02  0.39884087602E+02  0.00000000000E+00 0.  1.
</event>
<event>
 7    1  0.1465498E-013  0.7246157E+02  0.7816164E-02  0.1226708E+00
        -11   -1    0    0    0    0  0.00000000000E+00  0.00000000000E+00  0.45593999997E+02  0.45594000000E+02  0.51100000000E-03 0.  1.
         11   -1    0    0    0    0 -0.00000000000E+00 -0.00000000000E+00 -0.45593999997E+02  0.45594000000E+02  0.51100000000E-03 0. -1.
    9900012    2    1    2    0    0 -0.17074728398E+02  0.68415265143E+01  0.35109066680E+01  0.72461566796E+02  0.69999995443E+02 0.  0.
         12    1    1    2    0    0  0.17074728398E+02 -0.68415265143E+01 -0.35109066680E+01  0.18726433204E+02  0.00000000000E+00 0. -1.
         11    1    3    3    0    0  0.36106951394E+01  0.91464922042E+01  0.82468181849E+01  0.12833762093E+02  0.51100000000E-03 0. -1.
        -11    1    3    3    0    0 -0.12273303648E+02  0.14723915114E+02  0.20485245917E+02  0.28054820606E+02  0.51100000000E-03 0.  1.
        -12    1    3    3    0    0 -0.84121198889E+01 -0.17028880804E+02 -0.25221157434E+02  0.31572984096E+02  0.00000000000E+00 0.  1.
</event>
<event>
 7    1  0.1465498E-013  0.7246161E+02  0.7816164E-02  0.1226708E+00
        -11   -1    0    0    0    0  0.00000000000E+00  0.00000000000E+00  0.45593999997E+02  0.45594000000E+02  0.51100000000E-03 0.  1.
         11   -1    0    0    0    0 -0.00000000000E+00 -0.00000000000E+00 -0.45593999997E+02  0.45594000000E+02  0.51100000000E-03 0. -1.
    9900012    2    1    2    0    0 -0.27607343258E+01 -0.11629246974E+02  0.14415849853E+02  0.72461607764E+02  0.70000048811E+02 0.  0.
         12    1    1    2    0    0  0.27607343258E+01  0.11629246974E+02 -0.14415849853E+02  0.18726392236E+02  0.00000000000E+00 0. -1.
         11    1    3    3    0    0 -0.25182605995E+01 -0.60051689808E+01  0.44886736032E+01  0.79089747700E+01  0.51100000000E-03 0. -1.
        -11    1    3    3    0    0 -0.29444787027E+02 -0.29493983271E+01  0.17349875495E+02  0.34303244942E+02  0.51100000000E-03 0.  1.
         12    1    3    3    0    0  0.29202313301E+02 -0.26746796659E+01 -0.74226992446E+01  0.30249388052E+02  0.00000000000E+00 0. -1.
</event>
<event>
 7    1  0.1465498E-013  0.7246155E+02  0.7816164E-02  0.1226708E+00
        -11   -1    0    0    0    0  0.00000000000E+00  0.00000000000E+00  0.45593999997E+02  0.45594000000E+02  0.51100000000E-03 0.  1.
         11   -1    0    0    0    0 -0.00000000000E+00 -0.00000000000E+00 -0.45593999997E+02  0.45594000000E+02  0.51100000000E-03 0. -1.
    9900012    2    1    2    0    0 -0.10454175531E+01 -0.17941130488E+02 -0.52633459624E+01  0.72461551544E+02  0.69999975574E+02 0.  0.
         12    1    1    2    0    0  0.10454175531E+01  0.17941130488E+02  0.52633459624E+01  0.18726448456E+02  0.00000000000E+00 0. -1.
         11    1    3    3    0    0  0.32759930967E+00 -0.67727872527E+01 -0.80382077152E+01  0.10516213768E+02  0.51100000000E-03 0. -1.
        -11    1    3    3    0    0  0.19734867055E+02 -0.12928046639E+02 -0.19937881373E+02  0.30888808353E+02  0.51100000000E-03 0.  1.
         12    1    3    3    0    0 -0.21107883918E+02  0.17597034034E+01  0.22712743126E+02  0.31056529423E+02  0.00000000000E+00 0. -1.
</event>
<event>
 7    1  0.1465498E-013  0.7246154E+02  0.7816164E-02  0.1226708E+00
        -11   -1    0    0    0    0  0.00000000000E+00  0.00000000000E+00  0.45593999997E+02  0.45594000000E+02  0.51100000000E-03 0.  1.
         11   -1    0    0    0    0 -0.00000000000E+00 -0.00000000000E+00 -0.45593999997E+02  0.45594000000E+02  0.51100000000E-03 0. -1.
    9900012    2    1    2    0    0  0.13902338259E+01 -0.64533415366E+01  0.17524319073E+02  0.72461544754E+02  0.69999966729E+02 0.  0.
         12    1    1    2    0    0 -0.13902338259E+01  0.64533415366E+01 -0.17524319073E+02  0.18726455246E+02  0.00000000000E+00 0. -1.
         11    1    3    3    0    0  0.11492833422E+01  0.17265424312E+01  0.22089495543E+00  0.20858081910E+01  0.51100000000E-03 0. -1.
        -11    1    3    3    0    0  0.28991802563E+02 -0.95079626706E+00 -0.93837567540E+01  0.30487432173E+02  0.51100000000E-03 0.  1.
         12    1    3    3    0    0 -0.28750852079E+02 -0.72290877008E+01  0.26687180872E+02  0.39888304391E+02  0.00000000000E+00 0. -1.
</event>
<event>
 7    1  0.1465498E-013  0.7246162E+02  0.7816164E-02  0.1226708E+00
        -11   -1    0    0    0    0  0.00000000000E+00  0.00000000000E+00  0.45593999997E+02  0.45594000000E+02  0.51100000000E-03 0.  1.
         11   -1    0    0    0    0 -0.00000000000E+00 -0.00000000000E+00 -0.45593999997E+02  0.45594000000E+02  0.51100000000E-03 0. -1.
    9900012    2    1    2    0    0  0.78073804474E+00 -0.10672748962E+02  0.15367505625E+02  0.72461618838E+02  0.70000063237E+02 0.  0.
         12    1    1    2    0    0 -0.78073804474E+00  0.10672748962E+02 -0.15367505625E+02  0.18726381162E+02  0.00000000000E+00 0. -1.
         11    1    3    3    0    0  0.55309339150E+01  0.97705239973E+01 -0.16098138145E+02  0.19626625312E+02  0.51100000000E-03 0. -1.
        -11    1    3    3    0    0 -0.32614812357E+01 -0.59072526571E+01 -0.81672987347E+01  0.10594227800E+02  0.51100000000E-03 0.  1.
        -12    1    3    3    0    0 -0.14887146346E+01 -0.14536020302E+02  0.39632942504E+02  0.42240765725E+02  0.00000000000E+00 0.  1.
</event>
<event>
 7    1  0.1465498E-013  0.7246152E+02  0.7816164E-02  0.1226708E+00
        -11   -1    0    0    0    0  0.00000000000E+00  0.00000000000E+00  0.45593999997E+02  0.45594000000E+02  0.51100000000E-03 0. -1.
         11   -1    0    0    0    0 -0.00000000000E+00 -0.00000000000E+00 -0.45593999997E+02  0.45594000000E+02  0.51100000000E-03 0.  1.
    9900012    2    1    2    0    0  0.12223784412E+02  0.28480198891E+00 -0.14183760997E+02  0.72461518923E+02  0.69999933079E+02 0.  0.
         12    1    1    2    0    0 -0.12223784412E+02 -0.28480198891E+00  0.14183760997E+02  0.18726481077E+02  0.00000000000E+00 0. -1.
         11    1    3    3    0    0 -0.14752953323E+02  0.79638847808E+01 -0.82473495629E+01  0.18684000311E+02  0.51100000000E-03 0. -1.
        -11    1    3    3    0    0  0.26188597326E+02 -0.99612308538E+01 -0.23180713588E+02  0.36365013856E+02  0.51100000000E-03 0.  1.
         12    1    3    3    0    0  0.78814040957E+00  0.22821480619E+01  0.17244302154E+02  0.17412504755E+02  0.00000000000E+00 0. -1.
</event>
<event>
 7    1  0.1465498E-013  0.7246149E+02  0.7816164E-02  0.1226708E+00
        -11   -1    0    0    0    0  0.00000000000E+00  0.00000000000E+00  0.45593999997E+02  0.45594000000E+02  0.51100000000E-03 0.  1.
         11   -1    0    0    0    0 -0.00000000000E+00 -0.00000000000E+00 -0.45593999997E+02  0.45594000000E+02  0.51100000000E-03 0. -1.
    9900012    2    1    2    0    0 -0.13013490033E+02  0.11247137309E+02  0.74049320341E+01  0.72461493681E+02  0.69999900197E+02 0.  0.
         12    1    1    2    0    0  0.13013490033E+02 -0.11247137309E+02 -0.74049320341E+01  0.18726506319E+02  0.00000000000E+00 0. -1.
         11    1    3    3    0    0  0.21193167521E+01 -0.30167606954E+00  0.65179266246E+00  0.22377099640E+01  0.51100000000E-03 0. -1.
        -11    1    3    3    0    0  0.12056260821E+01  0.22226856179E+02 -0.24672668047E+02  0.33229914515E+02  0.51100000000E-03 0.  1.
         12    1    3    3    0    0 -0.16338432867E+02 -0.10678042801E+02  0.31425807419E+02  0.36993869202E+02  0.00000000000E+00 0. -1.
</event>
<event>
 7    1  0.1465498E-013  0.7246157E+02  0.7816164E-02  0.1226708E+00
        -11   -1    0    0    0    0  0.00000000000E+00  0.00000000000E+00  0.45593999997E+02  0.45594000000E+02  0.51100000000E-03 0. -1.
         11   -1    0    0    0    0 -0.00000000000E+00 -0.00000000000E+00 -0.45593999997E+02  0.45594000000E+02  0.51100000000E-03 0.  1.
    9900012    2    1    2    0    0 -0.14546919644E+00  0.18704631352E+02 -0.89142407744E+00  0.72461573961E+02  0.70000004777E+02 0.  0.
         12    1    1    2    0    0  0.14546919644E+00 -0.18704631352E+02  0.89142407744E+00  0.18726426039E+02  0.00000000000E+00 0. -1.
         11    1    3    3    0    0 -0.50102849604E+01 -0.17308200214E+02  0.18858197729E+02  0.26082721711E+02  0.51100000000E-03 0. -1.
        -11    1    3    3    0    0 -0.13468046319E+01  0.38150844577E+01 -0.12028449082E+02  0.12690639846E+02  0.51100000000E-03 0.  1.
        -12    1    3    3    0    0  0.62116203958E+01  0.32197747108E+02 -0.77211727244E+01  0.33688212404E+02  0.00000000000E+00 0.  1.
</event>
<event>
 7    1  0.1465498E-013  0.7246158E+02  0.7816164E-02  0.1226708E+00
        -11   -1    0    0    0    0  0.00000000000E+00  0.00000000000E+00  0.45593999997E+02  0.45594000000E+02  0.51100000000E-03 0.  1.
         11   -1    0    0    0    0 -0.00000000000E+00 -0.00000000000E+00 -0.45593999997E+02  0.45594000000E+02  0.51100000000E-03 0. -1.
    9900012    2    1    2    0    0 -0.17580047236E+02  0.24812842959E+01 -0.59551502693E+01  0.72461584237E+02  0.70000018164E+02 0.  0.
         12    1    1    2    0    0  0.17580047236E+02 -0.24812842959E+01  0.59551502693E+01  0.18726415763E+02  0.00000000000E+00 0. -1.
         11    1    3    3    0    0 -0.19449932234E+02  0.97070474387E+00  0.15790269158E+02  0.25071392700E+02  0.51100000000E-03 0. -1.
        -11    1    3    3    0    0  0.55116380543E-01 -0.65364289519E+01  0.11450375866E+02  0.13184803714E+02  0.51100000000E-03 0.  1.
         12    1    3    3    0    0  0.18147686170E+01  0.80470085039E+01 -0.33195795293E+02  0.34205387823E+02  0.00000000000E+00 0. -1.
</event>
<event>
 7    1  0.1465498E-013  0.7246161E+02  0.7816164E-02  0.1226708E+00
        -11   -1    0    0    0    0  0.00000000000E+00  0.00000000000E+00  0.45593999997E+02  0.45594000000E+02  0.51100000000E-03 0. -1.
         11   -1    0    0    0    0 -0.00000000000E+00 -0.00000000000E+00 -0.45593999997E+02  0.45594000000E+02  0.51100000000E-03 0.  1.
    9900012    2    1    2    0    0  0.10974951297E+02  0.15104893369E+02  0.14388412872E+01  0.72461611563E+02  0.70000053760E+02 0.  0.
         12    1    1    2    0    0 -0.10974951297E+02 -0.15104893369E+02 -0.14388412872E+01  0.18726388437E+02  0.00000000000E+00 0. -1.
         11    1    3    3    0    0 -0.93372068780E+01 -0.12613215701E+01 -0.61576054107E+01  0.11255686076E+02  0.51100000000E-03 0.  1.
        -11    1    3    3    0    0  0.92549370383E+01 -0.58099560825E+01  0.27391136370E+02  0.29490401848E+02  0.51100000000E-03 0. -1.
         12    1    3    3    0    0  0.11057221137E+02  0.22176171021E+02 -0.19794689672E+02  0.31715523638E+02  0.00000000000E+00 0. -1.
</event>
<event>
 7    1  0.1465498E-013  0.7246146E+02  0.7816164E-02  0.1226708E+00
        -11   -1    0    0    0    0  0.00000000000E+00  0.00000000000E+00  0.45593999997E+02  0.45594000000E+02  0.51100000000E-03 0.  1.
         11   -1    0    0    0    0 -0.00000000000E+00 -0.00000000000E+00 -0.45593999997E+02  0.45594000000E+02  0.51100000000E-03 0. -1.
    9900012    2    1    2    0    0 -0.13487586955E+02 -0.12769616824E+02  0.23885815351E+01  0.72461456340E+02  0.69999851553E+02 0.  0.
         12    1    1    2    0    0  0.13487586955E+02  0.12769616824E+02 -0.23885815351E+01  0.18726543660E+02  0.00000000000E+00 0. -1.
         11    1    3    3    0    0 -0.12336147280E+02  0.87631642108E+01 -0.11329081877E+02  0.18902954085E+02  0.51100000000E-03 0. -1.
        -11    1    3    3    0    0 -0.10186118847E+02 -0.18704468207E+02 -0.13177922338E+02  0.25045394497E+02  0.51100000000E-03 0.  1.
        -12    1    3    3    0    0  0.90346791720E+01 -0.28283128273E+01  0.26895585750E+02  0.28513107758E+02  0.00000000000E+00 0.  1.
</event>
<event>
 7    1  0.1584469E-013  0.7246156E+02  0.7816164E-02  0.1226708E+00
        -11   -1    0    0    0    0  0.00000000000E+00  0.00000000000E+00  0.45593999997E+02  0.45594000000E+02  0.51100000000E-03 0.  1.
         11   -1    0    0    0    0 -0.00000000000E+00 -0.00000000000E+00 -0.45593999997E+02  0.45594000000E+02  0.51100000000E-03 0. -1.
    9900012    2    1    2    0    0  0.16466267119E+02  0.28133629229E+00 -0.89141658959E+01  0.72461562631E+02  0.69999990017E+02 0.  0.
         12    1    1    2    0    0 -0.16466267119E+02 -0.28133629229E+00  0.89141658959E+01  0.18726437369E+02  0.00000000000E+00 0. -1.
         11    1    3    3    0    0 -0.16754048453E+02 -0.65665153040E+01  0.11406313125E+02  0.21305427528E+02  0.51100000000E-03 0. -1.
        -11    1    3    3    0    0 -0.65187573629E+01  0.89507805609E+00 -0.13336749330E+01  0.67137211270E+01  0.51100000000E-03 0.  1.
        -12    1    3    3    0    0  0.39739072934E+02  0.59527735402E+01 -0.18986804088E+02  0.44442413975E+02  0.00000000000E+00 0.  1.
</event>
<event>
 7    1  0.1465498E-013  0.7246158E+02  0.7816164E-02  0.1226708E+00
        -11   -1    0    0    0    0  0.00000000000E+00  0.00000000000E+00  0.45593999997E+02  0.45594000000E+02  0.51100000000E-03 0.  1.
         11   -1    0    0    0    0 -0.00000000000E+00 -0.00000000000E+00 -0.45593999997E+02  0.45594000000E+02  0.51100000000E-03 0. -1.
    9900012    2    1    2    0    0  0.44114670109E+01  0.23966293132E+00  0.18197809021E+02  0.72461581959E+02  0.70000015195E+02 0.  0.
         12    1    1    2    0    0 -0.44114670109E+01 -0.23966293132E+00 -0.18197809021E+02  0.18726418041E+02  0.00000000000E+00 0. -1.
         11    1    3    3    0    0  0.20694679548E+02  0.16263085342E+02  0.91434556489E+01  0.27863246184E+02  0.51100000000E-03 0. -1.
        -11    1    3    3    0    0 -0.18675406861E+01  0.35318620559E+01  0.18204591131E+02  0.18637835076E+02  0.51100000000E-03 0.  1.
        -12    1    3    3    0    0 -0.14415671851E+02 -0.19555284467E+02 -0.91502377596E+01  0.25960500699E+02  0.00000000000E+00 0.  1.
</event>
<event>
 7    1  0.1465498E-013  0.7246159E+02  0.7816164E-02  0.1226708E+00
        -11   -1    0    0    0    0  0.00000000000E+00  0.00000000000E+00  0.45593999997E+02  0.45594000000E+02  0.51100000000E-03 0. -1.
         11   -1    0    0    0    0 -0.00000000000E+00 -0.00000000000E+00 -0.45593999997E+02  0.45594000000E+02  0.51100000000E-03 0.  1.
    9900012    2    1    2    0    0 -0.17162337036E+02 -0.26975010205E+00 -0.74873202888E+01  0.72461587029E+02  0.70000021800E+02 0.  0.
         12    1    1    2    0    0  0.17162337036E+02  0.26975010205E+00  0.74873202888E+01  0.18726412971E+02  0.00000000000E+00 0. -1.
         11    1    3    3    0    0  0.79533242526E+01 -0.59286323770E+01  0.81214201630E+01  0.12820355465E+02  0.51100000000E-03 0. -1.
        -11    1    3    3    0    0 -0.36386777646E+02  0.17753940447E+02 -0.73063501448E+01  0.41141010459E+02  0.51100000000E-03 0.  1.
         12    1    3    3    0    0  0.11271116357E+02 -0.12095058172E+02 -0.83023903070E+01  0.18500221105E+02  0.00000000000E+00 0. -1.
</event>
<event>
 7    1  0.1465498E-013  0.7246159E+02  0.7816164E-02  0.1226708E+00
        -11   -1    0    0    0    0  0.00000000000E+00  0.00000000000E+00  0.45593999997E+02  0.45594000000E+02  0.51100000000E-03 0. -1.
         11   -1    0    0    0    0 -0.00000000000E+00 -0.00000000000E+00 -0.45593999997E+02  0.45594000000E+02  0.51100000000E-03 0.  1.
    9900012    2    1    2    0    0 -0.18716702310E+02 -0.14924963099E-01  0.60264444567E+00  0.72461592217E+02  0.70000028559E+02 0.  0.
         12    1    1    2    0    0  0.18716702310E+02  0.14924963099E-01 -0.60264444567E+00  0.18726407783E+02  0.00000000000E+00 0. -1.
         11    1    3    3    0    0 -0.13449578058E+02 -0.97003936944E+01  0.16266516821E+02  0.23229041253E+02  0.51100000000E-03 0. -1.
        -11    1    3    3    0    0 -0.20268784832E+02 -0.51416018189E+01 -0.18538348582E+02  0.27945126162E+02  0.51100000000E-03 0.  1.
         12    1    3    3    0    0  0.15001660580E+02  0.14827070550E+02  0.28744762058E+01  0.21287424802E+02  0.00000000000E+00 0. -1.
</event>
<event>
 7    1  0.1465498E-013  0.7246161E+02  0.7816164E-02  0.1226708E+00
        -11   -1    0    0    0    0  0.00000000000E+00  0.00000000000E+00  0.45593999997E+02  0.45594000000E+02  0.51100000000E-03 0.  1.
         11   -1    0    0    0    0 -0.00000000000E+00 -0.00000000000E+00 -0.45593999997E+02  0.45594000000E+02  0.51100000000E-03 0. -1.
    9900012    2    1    2    0    0  0.93113808670E+00  0.11398377076E+02  0.14828608134E+02  0.72461611205E+02  0.70000053294E+02 0.  0.
         12    1    1    2    0    0 -0.93113808670E+00 -0.11398377076E+02 -0.14828608134E+02  0.18726388795E+02  0.00000000000E+00 0. -1.
         11    1    3    3    0    0 -0.18108902984E+02  0.36243345461E+01  0.17207569473E+01  0.18548023423E+02  0.51100000000E-03 0. -1.
        -11    1    3    3    0    0  0.44424471149E+01 -0.11397467633E+02  0.24405970175E+02  0.27299981414E+02  0.51100000000E-03 0.  1.
         12    1    3    3    0    0  0.14597593956E+02  0.19171510163E+02 -0.11298118988E+02  0.26613606367E+02  0.00000000000E+00 0. -1.
</event>
<event>
 7    1  0.1465498E-013  0.7246159E+02  0.7816164E-02  0.1226708E+00
        -11   -1    0    0    0    0  0.00000000000E+00  0.00000000000E+00  0.45593999997E+02  0.45594000000E+02  0.51100000000E-03 0.  1.
         11   -1    0    0    0    0 -0.00000000000E+00 -0.00000000000E+00 -0.45593999997E+02  0.45594000000E+02  0.51100000000E-03 0. -1.
    9900012    2    1    2    0    0  0.81744866548E+00 -0.13949470560E+02 -0.12466856773E+02  0.72461588998E+02  0.70000024365E+02 0.  0.
         12    1    1    2    0    0 -0.81744866548E+00  0.13949470560E+02  0.12466856773E+02  0.18726411002E+02  0.00000000000E+00 0. -1.
         11    1    3    3    0    0  0.17892004010E+01 -0.33968994303E+01  0.66354877978E+00  0.38962111158E+01  0.51100000000E-03 0. -1.
        -11    1    3    3    0    0  0.12674556667E+02 -0.35979776507E+02 -0.43090038558E+01  0.38389532671E+02  0.51100000000E-03 0.  1.
         12    1    3    3    0    0 -0.13646308403E+02  0.25427205377E+02 -0.88214016972E+01  0.30175845211E+02  0.00000000000E+00 0. -1.
</event>
<event>
 7    1  0.1465498E-013  0.7246153E+02  0.7816164E-02  0.1226708E+00
        -11   -1    0    0    0    0  0.00000000000E+00  0.00000000000E+00  0.45593999997E+02  0.45594000000E+02  0.51100000000E-03 0.  1.
         11   -1    0    0    0    0 -0.00000000000E+00 -0.00000000000E+00 -0.45593999997E+02  0.45594000000E+02  0.51100000000E-03 0. -1.
    9900012    2    1    2    0    0 -0.32740899410E+01 -0.18382138002E+02 -0.14345884437E+01  0.72461529258E+02  0.69999946542E+02 0.  0.
         12    1    1    2    0    0  0.32740899410E+01  0.18382138002E+02  0.14345884437E+01  0.18726470742E+02  0.00000000000E+00 0. -1.
         11    1    3    3    0    0  0.99017160048E+01  0.23982531046E+00 -0.21594475514E+02  0.23757585505E+02  0.51100000000E-03 0. -1.
        -11    1    3    3    0    0 -0.20756047797E+02  0.30872549877E+01  0.65468314231E+01  0.21981939529E+02  0.51100000000E-03 0.  1.
        -12    1    3    3    0    0  0.75802418509E+01 -0.21709218300E+02  0.13613055647E+02  0.26722004224E+02  0.00000000000E+00 0.  1.
</event>
<event>
 7    1  0.1465498E-013  0.7246157E+02  0.7816164E-02  0.1226708E+00
        -11   -1    0    0    0    0  0.00000000000E+00  0.00000000000E+00  0.45593999997E+02  0.45594000000E+02  0.51100000000E-03 0.  1.
         11   -1    0    0    0    0 -0.00000000000E+00 -0.00000000000E+00 -0.45593999997E+02  0.45594000000E+02  0.51100000000E-03 0. -1.
    9900012    2    1    2    0    0  0.70996240102E+01 -0.75790593658E+01  0.15583075185E+02  0.72461573908E+02  0.70000004707E+02 0.  0.
         12    1    1    2    0    0 -0.70996240102E+01  0.75790593658E+01 -0.15583075185E+02  0.18726426092E+02  0.00000000000E+00 0. -1.
         11    1    3    3    0    0  0.20422889654E+02 -0.26222799998E+02 -0.84893213663E+01  0.34304492987E+02  0.51100000000E-03 0. -1.
        -11    1    3    3    0    0  0.40058694634E+01  0.42254399523E+01  0.10142721793E+01  0.59101676171E+01  0.51100000000E-03 0.  1.
        -12    1    3    3    0    0 -0.17329135107E+02  0.14418300680E+02  0.23058124372E+02  0.32246913304E+02  0.00000000000E+00 0.  1.
</event>
<event>
 7    1  0.1465498E-013  0.7246156E+02  0.7816164E-02  0.1226708E+00
        -11   -1    0    0    0    0  0.00000000000E+00  0.00000000000E+00  0.45593999997E+02  0.45594000000E+02  0.51100000000E-03 0.  1.
         11   -1    0    0    0    0 -0.00000000000E+00 -0.00000000000E+00 -0.45593999997E+02  0.45594000000E+02  0.51100000000E-03 0. -1.
    9900012    2    1    2    0    0  0.17928619852E+02  0.20982167194E+01  0.49841523111E+01  0.72461556199E+02  0.69999981638E+02 0.  0.
         12    1    1    2    0    0 -0.17928619852E+02 -0.20982167194E+01 -0.49841523111E+01  0.18726443801E+02  0.00000000000E+00 0. -1.
         11    1    3    3    0    0  0.70070308704E+01  0.12763236042E+02  0.68762284885E+01  0.16102210853E+02  0.51100000000E-03 0. -1.
        -11    1    3    3    0    0  0.17626924057E+02  0.61991551560E+01 -0.22270754609E+02  0.29071024878E+02  0.51100000000E-03 0.  1.
        -12    1    3    3    0    0 -0.67053350755E+01 -0.16864174478E+02  0.20378678431E+02  0.27288320467E+02  0.00000000000E+00 0.  1.
</event>
<event>
 7    1  0.1465498E-013  0.7246158E+02  0.7816164E-02  0.1226708E+00
        -11   -1    0    0    0    0  0.00000000000E+00  0.00000000000E+00  0.45593999997E+02  0.45594000000E+02  0.51100000000E-03 0. -1.
         11   -1    0    0    0    0 -0.00000000000E+00 -0.00000000000E+00 -0.45593999997E+02  0.45594000000E+02  0.51100000000E-03 0.  1.
    9900012    2    1    2    0    0 -0.35191410439E+01  0.17559933509E+02  0.54720539192E+01  0.72461575018E+02  0.70000006153E+02 0.  0.
         12    1    1    2    0    0  0.35191410439E+01 -0.17559933509E+02 -0.54720539192E+01  0.18726424982E+02  0.00000000000E+00 0. -1.
         11    1    3    3    0    0 -0.68388854413E+01  0.25964742673E+02  0.21243549887E+02  0.34237795317E+02  0.51100000000E-03 0. -1.
        -11    1    3    3    0    0  0.41769726273E+00  0.13102988498E+02 -0.55960679621E+01  0.14254078556E+02  0.51100000000E-03 0.  1.
         12    1    3    3    0    0  0.29020471347E+01 -0.21507797662E+02 -0.10175428006E+02  0.23969701144E+02  0.00000000000E+00 0. -1.
</event>
<event>
 7    1  0.1465498E-013  0.7246163E+02  0.7816164E-02  0.1226708E+00
        -11   -1    0    0    0    0  0.00000000000E+00  0.00000000000E+00  0.45593999997E+02  0.45594000000E+02  0.51100000000E-03 0.  1.
         11   -1    0    0    0    0 -0.00000000000E+00 -0.00000000000E+00 -0.45593999997E+02  0.45594000000E+02  0.51100000000E-03 0. -1.
    9900012    2    1    2    0    0 -0.53447280912E+01 -0.72259493051E+01  0.16428529615E+02  0.72461626965E+02  0.70000073825E+02 0.  0.
         12    1    1    2    0    0  0.53447280912E+01  0.72259493051E+01 -0.16428529615E+02  0.18726373035E+02  0.00000000000E+00 0. -1.
         11    1    3    3    0    0  0.13590373511E+02  0.61060249105E+01 -0.56591859889E+01  0.15937634037E+02  0.51100000000E-03 0. -1.
        -11    1    3    3    0    0  0.85782607367E+01 -0.17496060294E+02 -0.21727068599E+01  0.19606614660E+02  0.51100000000E-03 0.  1.
        -12    1    3    3    0    0 -0.27513362339E+02  0.41640860782E+01  0.24260422463E+02  0.36917378268E+02  0.00000000000E+00 0.  1.
</event>
<event>
 7    1  0.1465498E-013  0.7246153E+02  0.7816164E-02  0.1226708E+00
        -11   -1    0    0    0    0  0.00000000000E+00  0.00000000000E+00  0.45593999997E+02  0.45594000000E+02  0.51100000000E-03 0.  1.
         11   -1    0    0    0    0 -0.00000000000E+00 -0.00000000000E+00 -0.45593999997E+02  0.45594000000E+02  0.51100000000E-03 0. -1.
    9900012    2    1    2    0    0 -0.11795938664E+02 -0.28226531971E+01  0.14267770810E+02  0.72461526122E+02  0.69999942457E+02 0.  0.
         12    1    1    2    0    0  0.11795938664E+02  0.28226531971E+01 -0.14267770810E+02  0.18726473878E+02  0.00000000000E+00 0. -1.
         11    1    3    3    0    0 -0.37098383275E+01  0.28980184957E+02  0.15914815560E+01  0.29259986916E+02  0.51100000000E-03 0. -1.
        -11    1    3    3    0    0 -0.98509380657E+01 -0.14430604725E+02  0.17861456442E+02  0.24986295443E+02  0.51100000000E-03 0.  1.
        -12    1    3    3    0    0  0.17648377295E+01 -0.17372233429E+02 -0.51851671880E+01  0.18215243762E+02  0.00000000000E+00 0.  1.
</event>
<event>
 7    1  0.1465498E-013  0.7246156E+02  0.7816164E-02  0.1226708E+00
        -11   -1    0    0    0    0  0.00000000000E+00  0.00000000000E+00  0.45593999997E+02  0.45594000000E+02  0.51100000000E-03 0.  1.
         11   -1    0    0    0    0 -0.00000000000E+00 -0.00000000000E+00 -0.45593999997E+02  0.45594000000E+02  0.51100000000E-03 0. -1.
    9900012    2    1    2    0    0  0.16069885347E+01  0.18607233541E+02  0.13667016127E+01  0.72461563459E+02  0.69999991096E+02 0.  0.
         12    1    1    2    0    0 -0.16069885347E+01 -0.18607233541E+02 -0.13667016127E+01  0.18726436541E+02  0.00000000000E+00 0. -1.
         11    1    3    3    0    0  0.10415778911E+02 -0.19009102611E+02  0.53314901972E+01  0.22321720820E+02  0.51100000000E-03 0. -1.
        -11    1    3    3    0    0 -0.55202086246E+01 -0.39558479593E+01  0.37082836706E+01  0.77377518944E+01  0.51100000000E-03 0.  1.
        -12    1    3    3    0    0 -0.32885817517E+01  0.41572184111E+02 -0.76730722551E+01  0.42402090745E+02  0.00000000000E+00 0.  1.
</event>
<event>
 7    1  0.1465498E-013  0.7246164E+02  0.7816164E-02  0.1226708E+00
        -11   -1    0    0    0    0  0.00000000000E+00  0.00000000000E+00  0.45593999997E+02  0.45594000000E+02  0.51100000000E-03 0.  1.
         11   -1    0    0    0    0 -0.00000000000E+00 -0.00000000000E+00 -0.45593999997E+02  0.45594000000E+02  0.51100000000E-03 0. -1.
    9900012    2    1    2    0    0 -0.13327840581E+02  0.24453120435E+01  0.12925386215E+02  0.72461641723E+02  0.70000093049E+02 0.  0.
         12    1    1    2    0    0  0.13327840581E+02 -0.24453120435E+01 -0.12925386215E+02  0.18726358277E+02  0.00000000000E+00 0. -1.
         11    1    3    3    0    0  0.67203516851E+01  0.11568544611E+02  0.12966728022E+02  0.18631435453E+02  0.51100000000E-03 0.  1.
        -11    1    3    3    0    0 -0.29976144169E+02 -0.29404583954E+01 -0.15951886011E+02  0.34083400393E+02  0.51100000000E-03 0. -1.
         12    1    3    3    0    0  0.99279519030E+01 -0.61827741722E+01  0.15910544203E+02  0.19746805876E+02  0.00000000000E+00 0. -1.
</event>
<event>
 7    1  0.1465498E-013  0.7246155E+02  0.7816164E-02  0.1226708E+00
        -11   -1    0    0    0    0  0.00000000000E+00  0.00000000000E+00  0.45593999997E+02  0.45594000000E+02  0.51100000000E-03 0. -1.
         11   -1    0    0    0    0 -0.00000000000E+00 -0.00000000000E+00 -0.45593999997E+02  0.45594000000E+02  0.51100000000E-03 0.  1.
    9900012    2    1    2    0    0 -0.14154915084E+01  0.93796662141E+01 -0.16146155438E+02  0.72461545719E+02  0.69999967986E+02 0.  0.
         12    1    1    2    0    0  0.14154915084E+01 -0.93796662141E+01  0.16146155438E+02  0.18726454281E+02  0.00000000000E+00 0. -1.
         11    1    3    3    0    0 -0.94127216423E+01 -0.16016646284E+02 -0.76278370059E+01  0.20082733493E+02  0.51100000000E-03 0. -1.
        -11    1    3    3    0    0 -0.10019510269E+02  0.30508232031E+02 -0.98922076003E+01  0.33600574090E+02  0.51100000000E-03 0.  1.
         12    1    3    3    0    0  0.18016740403E+02 -0.51119195331E+01  0.13738891679E+01  0.18778238137E+02  0.00000000000E+00 0. -1.
</event>
<event>
 7    1  0.1465498E-013  0.7246157E+02  0.7816164E-02  0.1226708E+00
        -11   -1    0    0    0    0  0.00000000000E+00  0.00000000000E+00  0.45593999997E+02  0.45594000000E+02  0.51100000000E-03 0. -1.
         11   -1    0    0    0    0 -0.00000000000E+00 -0.00000000000E+00 -0.45593999997E+02  0.45594000000E+02  0.51100000000E-03 0.  1.
    9900012    2    1    2    0    0 -0.66494735697E+00 -0.17017053296E+02 -0.77882502511E+01  0.72461572155E+02  0.70000002424E+02 0.  0.
         12    1    1    2    0    0  0.66494735697E+00  0.17017053296E+02  0.77882502511E+01  0.18726427845E+02  0.00000000000E+00 0. -1.
         11    1    3    3    0    0  0.61696700878E+01 -0.45054440330E+01  0.43615457049E+01  0.87969844904E+01  0.51100000000E-03 0. -1.
        -11    1    3    3    0    0  0.21272551732E+02  0.12553031867E+02 -0.68609049387E+01  0.25635367816E+02  0.51100000000E-03 0.  1.
        -12    1    3    3    0    0 -0.28107169176E+02 -0.25064641130E+02 -0.52888910173E+01  0.38029219848E+02  0.00000000000E+00 0.  1.
</event>
<event>
 7    1  0.1465498E-013  0.7246138E+02  0.7816164E-02  0.1226709E+00
        -11   -1    0    0    0    0  0.00000000000E+00  0.00000000000E+00  0.45593999997E+02  0.45594000000E+02  0.51100000000E-03 0. -1.
         11   -1    0    0    0    0 -0.00000000000E+00 -0.00000000000E+00 -0.45593999997E+02  0.45594000000E+02  0.51100000000E-03 0.  1.
    9900012    2    1    2    0    0 -0.17523732822E+02  0.52258528181E+01  0.40367578808E+01  0.72461383544E+02  0.69999756723E+02 0.  0.
         12    1    1    2    0    0  0.17523732822E+02 -0.52258528181E+01 -0.40367578808E+01  0.18726616456E+02  0.00000000000E+00 0. -1.
         11    1    3    3    0    0 -0.11409334274E+02 -0.15266653954E+02  0.10139290793E+02  0.21588164572E+02  0.51100000000E-03 0. -1.
        -11    1    3    3    0    0 -0.23689299955E+02  0.39566912498E+01 -0.10725102932E+02  0.26303349049E+02  0.51100000000E-03 0.  1.
        -12    1    3    3    0    0  0.17574901408E+02  0.16535815522E+02  0.46225700193E+01  0.24569869924E+02  0.00000000000E+00 0.  1.
</event>
<event>
 7    1  0.1465498E-013  0.7246156E+02  0.7816164E-02  0.1226708E+00
        -11   -1    0    0    0    0  0.00000000000E+00  0.00000000000E+00  0.45593999997E+02  0.45594000000E+02  0.51100000000E-03 0.  1.
         11   -1    0    0    0    0 -0.00000000000E+00 -0.00000000000E+00 -0.45593999997E+02  0.45594000000E+02  0.51100000000E-03 0. -1.
    9900012    2    1    2    0    0 -0.52027314047E+01 -0.92453040531E+01  0.15431641762E+02  0.72461558037E+02  0.69999984033E+02 0.  0.
         12    1    1    2    0    0  0.52027314047E+01  0.92453040531E+01 -0.15431641762E+02  0.18726441963E+02  0.00000000000E+00 0. -1.
         11    1    3    3    0    0 -0.86563376683E+01 -0.12684195129E+02 -0.13152512521E+02  0.20219039883E+02  0.51100000000E-03 0.  1.
        -11    1    3    3    0    0  0.13124834939E+02  0.65936211470E+01 -0.62432741162E+01  0.15959812153E+02  0.51100000000E-03 0. -1.
         12    1    3    3    0    0 -0.96712286751E+01 -0.31547300711E+01  0.34827428399E+02  0.36282706002E+02  0.00000000000E+00 0. -1.
</event>
<event>
 7    1  0.1465498E-013  0.7246152E+02  0.7816164E-02  0.1226708E+00
        -11   -1    0    0    0    0  0.00000000000E+00  0.00000000000E+00  0.45593999997E+02  0.45594000000E+02  0.51100000000E-03 0.  1.
         11   -1    0    0    0    0 -0.00000000000E+00 -0.00000000000E+00 -0.45593999997E+02  0.45594000000E+02  0.51100000000E-03 0. -1.
    9900012    2    1    2    0    0 -0.91462664771E+01  0.14810118425E+02 -0.69055886180E+01  0.72461522691E+02  0.69999937988E+02 0.  0.
         12    1    1    2    0    0  0.91462664771E+01 -0.14810118425E+02  0.69055886180E+01  0.18726477309E+02  0.00000000000E+00 0. -1.
         11    1    3    3    0    0 -0.28987541138E+01  0.33563802710E+02 -0.87639867621E+01  0.34810042976E+02  0.51100000000E-03 0. -1.
        -11    1    3    3    0    0  0.89899453027E+01  0.42983429903E+01  0.14937933075E+00  0.99658006930E+01  0.51100000000E-03 0.  1.
         12    1    3    3    0    0 -0.15237457666E+02 -0.23052027275E+02  0.17090188134E+01  0.27685679022E+02  0.00000000000E+00 0. -1.
</event>
<event>
 7    1  0.1465498E-013  0.7246165E+02  0.7816164E-02  0.1226708E+00
        -11   -1    0    0    0    0  0.00000000000E+00  0.00000000000E+00  0.45593999997E+02  0.45594000000E+02  0.51100000000E-03 0. -1.
         11   -1    0    0    0    0 -0.00000000000E+00 -0.00000000000E+00 -0.45593999997E+02  0.45594000000E+02  0.51100000000E-03 0.  1.
    9900012    2    1    2    0    0  0.78944956116E+01  0.59304599294E+01 -0.15911718836E+02  0.72461649254E+02  0.70000102860E+02 0.  0.
         12    1    1    2    0    0 -0.78944956116E+01 -0.59304599294E+01  0.15911718836E+02  0.18726350746E+02  0.00000000000E+00 0. -1.
         11    1    3    3    0    0  0.17761729629E+02  0.12421866106E+02  0.14113323407E+01  0.21720351199E+02  0.51100000000E-03 0. -1.
        -11    1    3    3    0    0  0.56841133322E+01  0.14024596780E+02  0.57329204752E+01  0.16182238308E+02  0.51100000000E-03 0.  1.
        -12    1    3    3    0    0 -0.15551347350E+02 -0.20516002957E+02 -0.23055971652E+02  0.34559059747E+02  0.00000000000E+00 0.  1.
</event>
<event>
 7    1  0.1465498E-013  0.7246160E+02  0.7816164E-02  0.1226708E+00
        -11   -1    0    0    0    0  0.00000000000E+00  0.00000000000E+00  0.45593999997E+02  0.45594000000E+02  0.51100000000E-03 0.  1.
         11   -1    0    0    0    0 -0.00000000000E+00 -0.00000000000E+00 -0.45593999997E+02  0.45594000000E+02  0.51100000000E-03 0. -1.
    9900012    2    1    2    0    0 -0.16234083140E+02 -0.90841834205E+01 -0.21471594228E+01  0.72461597853E+02  0.70000035900E+02 0.  0.
         12    1    1    2    0    0  0.16234083140E+02  0.90841834205E+01  0.21471594228E+01  0.18726402147E+02  0.00000000000E+00 0. -1.
         11    1    3    3    0    0 -0.34107290599E+02  0.48381877452E+01  0.14267892312E+02  0.37286567071E+02  0.51100000000E-03 0. -1.
        -11    1    3    3    0    0 -0.96162941851E+00 -0.93126457625E+00  0.41809630543E+01  0.43900384021E+01  0.51100000000E-03 0.  1.
        -12    1    3    3    0    0  0.18834836877E+02 -0.12991106590E+02 -0.20596014789E+02  0.30784992380E+02  0.00000000000E+00 0.  1.
</event>
<event>
 7    1  0.1465498E-013  0.7246154E+02  0.7816164E-02  0.1226708E+00
        -11   -1    0    0    0    0  0.00000000000E+00  0.00000000000E+00  0.45593999997E+02  0.45594000000E+02  0.51100000000E-03 0. -1.
         11   -1    0    0    0    0 -0.00000000000E+00 -0.00000000000E+00 -0.45593999997E+02  0.45594000000E+02  0.51100000000E-03 0.  1.
    9900012    2    1    2    0    0  0.32970711557E+01  0.14039528665E+02 -0.11945766383E+02  0.72461538033E+02  0.69999957973E+02 0.  0.
         12    1    1    2    0    0 -0.32970711557E+01 -0.14039528665E+02  0.11945766383E+02  0.18726461967E+02  0.00000000000E+00 0. -1.
         11    1    3    3    0    0  0.35278081110E+01 -0.21589414729E+02 -0.15809356860E+01  0.21932797731E+02  0.51100000000E-03 0. -1.
        -11    1    3    3    0    0  0.39691871433E+01  0.23607633785E+02 -0.22562132449E+02  0.32895662942E+02  0.51100000000E-03 0.  1.
         12    1    3    3    0    0 -0.41999240986E+01  0.12021309609E+02  0.12197301752E+02  0.17633077360E+02  0.00000000000E+00 0. -1.
</event>
<event>
 7    1  0.1465498E-013  0.7246157E+02  0.7816164E-02  0.1226708E+00
        -11   -1    0    0    0    0  0.00000000000E+00  0.00000000000E+00  0.45593999997E+02  0.45594000000E+02  0.51100000000E-03 0. -1.
         11   -1    0    0    0    0 -0.00000000000E+00 -0.00000000000E+00 -0.45593999997E+02  0.45594000000E+02  0.51100000000E-03 0.  1.
    9900012    2    1    2    0    0  0.16755526867E+02  0.22888900352E+01 -0.80431667207E+01  0.72461568704E+02  0.69999997929E+02 0.  0.
         12    1    1    2    0    0 -0.16755526867E+02 -0.22888900352E+01  0.80431667207E+01  0.18726431296E+02  0.00000000000E+00 0. -1.
         11    1    3    3    0    0 -0.10348110086E+02  0.93204485081E+01  0.84685673805E+01  0.16299410311E+02  0.51100000000E-03 0. -1.
        -11    1    3    3    0    0  0.20733746304E+01 -0.14600676364E+00  0.15108326701E+02  0.15250630685E+02  0.51100000000E-03 0.  1.
        -12    1    3    3    0    0  0.25030262323E+02 -0.68855517092E+01 -0.31620060802E+02  0.40911527708E+02  0.00000000000E+00 0.  1.
</event>
<event>
 7    1  0.1465498E-013  0.7246157E+02  0.7816164E-02  0.1226708E+00
        -11   -1    0    0    0    0  0.00000000000E+00  0.00000000000E+00  0.45593999997E+02  0.45594000000E+02  0.51100000000E-03 0.  1.
         11   -1    0    0    0    0 -0.00000000000E+00 -0.00000000000E+00 -0.45593999997E+02  0.45594000000E+02  0.51100000000E-03 0. -1.
    9900012    2    1    2    0    0  0.42723677424E+01  0.12674289544E+02  0.13106813650E+02  0.72461566660E+02  0.69999995266E+02 0.  0.
         12    1    1    2    0    0 -0.42723677424E+01 -0.12674289544E+02 -0.13106813650E+02  0.18726433340E+02  0.00000000000E+00 0. -1.
         11    1    3    3    0    0  0.14991456734E+01 -0.25425602782E+01 -0.13166985450E+02  0.13493759915E+02  0.51100000000E-03 0. -1.
        -11    1    3    3    0    0  0.77317113672E+00 -0.80065688594E+01  0.33588038615E+02  0.34537794903E+02  0.51100000000E-03 0.  1.
         12    1    3    3    0    0  0.20000509323E+01  0.23223418681E+02 -0.73142395140E+01  0.24430011843E+02  0.00000000000E+00 0. -1.
</event>
<event>
 7    1  0.1465498E-013  0.7246158E+02  0.7816164E-02  0.1226708E+00
        -11   -1    0    0    0    0  0.00000000000E+00  0.00000000000E+00  0.45593999997E+02  0.45594000000E+02  0.51100000000E-03 0. -1.
         11   -1    0    0    0    0 -0.00000000000E+00 -0.00000000000E+00 -0.45593999997E+02  0.45594000000E+02  0.51100000000E-03 0.  1.
    9900012    2    1    2    0    0 -0.62141669837E+01  0.17664086549E+02  0.20721268786E+00  0.72461581175E+02  0.70000014174E+02 0.  0.
         12    1    1    2    0    0  0.62141669837E+01 -0.17664086549E+02 -0.20721268786E+00  0.18726418825E+02  0.00000000000E+00 0. -1.
         11    1    3    3    0    0  0.19136259535E+02 -0.19028502385E+01  0.20701489702E+02  0.28255423270E+02  0.51100000000E-03 0. -1.
        -11    1    3    3    0    0  0.33003166098E+01  0.44238371158E+01  0.58040694606E+00  0.55497114372E+01  0.51100000000E-03 0.  1.
        -12    1    3    3    0    0 -0.28650743128E+02  0.15143099671E+02 -0.21074683961E+02  0.38656446468E+02  0.00000000000E+00 0.  1.
</event>
<event>
 7    1  0.1465498E-013  0.7246129E+02  0.7816164E-02  0.1226709E+00
        -11   -1    0    0    0    0  0.00000000000E+00  0.00000000000E+00  0.45593999997E+02  0.45594000000E+02  0.51100000000E-03 0.  1.
         11   -1    0    0    0    0 -0.00000000000E+00 -0.00000000000E+00 -0.45593999997E+02  0.45594000000E+02  0.51100000000E-03 0. -1.
    9900012    2    1    2    0    0  0.13597898211E+02 -0.12708998966E+02 -0.20659898115E+01  0.72461286343E+02  0.69999630100E+02 0.  0.
         12    1    1    2    0    0 -0.13597898211E+02  0.12708998966E+02  0.20659898115E+01  0.18726713657E+02  0.00000000000E+00 0. -1.
         11    1    3    3    0    0 -0.18699197393E+00 -0.11119706996E+02 -0.59732467560E+01  0.12623887149E+02  0.51100000000E-03 0. -1.
        -11    1    3    3    0    0 -0.19625111830E+02  0.57198114209E+01  0.13279429121E+02  0.24376310120E+02  0.51100000000E-03 0.  1.
         12    1    3    3    0    0  0.33410002015E+02 -0.73091033907E+01 -0.93721721765E+01  0.35461089074E+02  0.00000000000E+00 0. -1.
</event>
<event>
 7    1  0.1465498E-013  0.7246148E+02  0.7816164E-02  0.1226708E+00
        -11   -1    0    0    0    0  0.00000000000E+00  0.00000000000E+00  0.45593999997E+02  0.45594000000E+02  0.51100000000E-03 0. -1.
         11   -1    0    0    0    0 -0.00000000000E+00 -0.00000000000E+00 -0.45593999997E+02  0.45594000000E+02  0.51100000000E-03 0.  1.
    9900012    2    1    2    0    0 -0.94019362816E+01  0.12700660852E+02 -0.10048841935E+02  0.72461483608E+02  0.69999887075E+02 0.  0.
         12    1    1    2    0    0  0.94019362816E+01 -0.12700660852E+02  0.10048841935E+02  0.18726516392E+02  0.00000000000E+00 0. -1.
         11    1    3    3    0    0  0.36982644632E+01 -0.16053653861E+02  0.55994607213E+01  0.17399739164E+02  0.51100000000E-03 0. -1.
        -11    1    3    3    0    0  0.50675827025E+01 -0.89409622240E+01 -0.67070827342E+01  0.12272170102E+02  0.51100000000E-03 0.  1.
         12    1    3    3    0    0 -0.18167783447E+02  0.37695276937E+02 -0.89412199222E+01  0.42789574343E+02  0.00000000000E+00 0. -1.
</event>
<event>
 7    1  0.1465498E-013  0.7246158E+02  0.7816164E-02  0.1226708E+00
        -11   -1    0    0    0    0  0.00000000000E+00  0.00000000000E+00  0.45593999997E+02  0.45594000000E+02  0.51100000000E-03 0.  1.
         11   -1    0    0    0    0 -0.00000000000E+00 -0.00000000000E+00 -0.45593999997E+02  0.45594000000E+02  0.51100000000E-03 0. -1.
    9900012    2    1    2    0    0  0.13735223699E+02  0.10648604647E+02  0.69735032293E+01  0.72461577536E+02  0.70000009434E+02 0.  0.
         12    1    1    2    0    0 -0.13735223699E+02 -0.10648604647E+02 -0.69735032293E+01  0.18726422464E+02  0.00000000000E+00 0. -1.
         11    1    3    3    0    0 -0.18955201127E+01 -0.14757234658E+02 -0.34767742040E+01  0.15279297444E+02  0.51100000000E-03 0. -1.
        -11    1    3    3    0    0  0.23506750186E+02  0.38045939527E+01  0.21125300464E+02  0.31832696389E+02  0.51100000000E-03 0.  1.
         12    1    3    3    0    0 -0.78760063748E+01  0.21601245353E+02 -0.10675023030E+02  0.25349583703E+02  0.00000000000E+00 0. -1.
</event>
<event>
 7    1  0.1465498E-013  0.7246157E+02  0.7816164E-02  0.1226708E+00
        -11   -1    0    0    0    0  0.00000000000E+00  0.00000000000E+00  0.45593999997E+02  0.45594000000E+02  0.51100000000E-03 0. -1.
         11   -1    0    0    0    0 -0.00000000000E+00 -0.00000000000E+00 -0.45593999997E+02  0.45594000000E+02  0.51100000000E-03 0.  1.
    9900012    2    1    2    0    0 -0.13077650094E+01 -0.18533786764E+02  0.23383437803E+01  0.72461565402E+02  0.69999993627E+02 0.  0.
         12    1    1    2    0    0  0.13077650094E+01  0.18533786764E+02 -0.23383437803E+01  0.18726434598E+02  0.00000000000E+00 0. -1.
         11    1    3    3    0    0  0.24272801231E+02 -0.38452150415E+01  0.77770285748E+01  0.25776670306E+02  0.51100000000E-03 0. -1.
        -11    1    3    3    0    0 -0.18178989175E+02 -0.82162247838E+00  0.13068092925E+02  0.22403699781E+02  0.51100000000E-03 0.  1.
        -12    1    3    3    0    0 -0.74015770653E+01 -0.13866949244E+02 -0.18506777719E+02  0.24281195315E+02  0.00000000000E+00 0.  1.
</event>
<event>
 7    1  0.1465498E-013  0.7246157E+02  0.7816164E-02  0.1226708E+00
        -11   -1    0    0    0    0  0.00000000000E+00  0.00000000000E+00  0.45593999997E+02  0.45594000000E+02  0.51100000000E-03 0. -1.
         11   -1    0    0    0    0 -0.00000000000E+00 -0.00000000000E+00 -0.45593999997E+02  0.45594000000E+02  0.51100000000E-03 0.  1.
    9900012    2    1    2    0    0 -0.12136374660E+01  0.18234379916E+02 -0.40882258795E+01  0.72461571679E+02  0.70000001804E+02 0.  0.
         12    1    1    2    0    0  0.12136374660E+01 -0.18234379916E+02  0.40882258795E+01  0.18726428321E+02  0.00000000000E+00 0. -1.
         11    1    3    3    0    0 -0.28500856573E+02  0.16640851208E+02 -0.42330811001E+01  0.33273649187E+02  0.51100000000E-03 0. -1.
        -11    1    3    3    0    0  0.13779516361E+02  0.78145943047E+01  0.12239898917E+02  0.20018943055E+02  0.51100000000E-03 0.  1.
        -12    1    3    3    0    0  0.13507702746E+02 -0.62210655971E+01 -0.12095043696E+02  0.19168979437E+02  0.00000000000E+00 0.  1.
</event>
<event>
 7    1  0.1465498E-013  0.7246149E+02  0.7816164E-02  0.1226708E+00
        -11   -1    0    0    0    0  0.00000000000E+00  0.00000000000E+00  0.45593999997E+02  0.45594000000E+02  0.51100000000E-03 0.  1.
         11   -1    0    0    0    0 -0.00000000000E+00 -0.00000000000E+00 -0.45593999997E+02  0.45594000000E+02  0.51100000000E-03 0. -1.
    9900012    2    1    2    0    0 -0.53312464987E+01  0.42408815860E+01  0.17443478815E+02  0.72461488872E+02  0.69999893932E+02 0.  0.
         12    1    1    2    0    0  0.53312464987E+01 -0.42408815860E+01 -0.17443478815E+02  0.18726511128E+02  0.00000000000E+00 0. -1.
         11    1    3    3    0    0  0.16052850822E+01 -0.24155042112E+02  0.11274807805E+02  0.26705136040E+02  0.51100000000E-03 0. -1.
        -11    1    3    3    0    0  0.42635187982E+01  0.68264669434E+01  0.17257633431E+02  0.19042167822E+02  0.51100000000E-03 0.  1.
         12    1    3    3    0    0 -0.11200050379E+02  0.21569456755E+02 -0.11088962421E+02  0.26714185010E+02  0.00000000000E+00 0. -1.
</event>
<event>
 7    1  0.1465498E-013  0.7246158E+02  0.7816164E-02  0.1226708E+00
        -11   -1    0    0    0    0  0.00000000000E+00  0.00000000000E+00  0.45593999997E+02  0.45594000000E+02  0.51100000000E-03 0.  1.
         11   -1    0    0    0    0 -0.00000000000E+00 -0.00000000000E+00 -0.45593999997E+02  0.45594000000E+02  0.51100000000E-03 0. -1.
    9900012    2    1    2    0    0  0.36035232919E+01  0.15457723313E+02  0.99374134699E+01  0.72461580785E+02  0.70000013666E+02 0.  0.
         12    1    1    2    0    0 -0.36035232919E+01 -0.15457723313E+02 -0.99374134699E+01  0.18726419215E+02  0.00000000000E+00 0. -1.
         11    1    3    3    0    0  0.33229271862E+01 -0.13898123823E+02  0.91038955503E+01  0.16943453170E+02  0.51100000000E-03 0. -1.
        -11    1    3    3    0    0  0.15768922656E+02 -0.51810491854E+00 -0.11665301280E+02  0.19621585273E+02  0.51100000000E-03 0.  1.
        -12    1    3    3    0    0 -0.15488326550E+02  0.29873952055E+02  0.12498819199E+02  0.35896542341E+02  0.00000000000E+00 0.  1.
</event>
<event>
 7    1  0.1465498E-013  0.7246160E+02  0.7816164E-02  0.1226708E+00
        -11   -1    0    0    0    0  0.00000000000E+00  0.00000000000E+00  0.45593999997E+02  0.45594000000E+02  0.51100000000E-03 0. -1.
         11   -1    0    0    0    0 -0.00000000000E+00 -0.00000000000E+00 -0.45593999997E+02  0.45594000000E+02  0.51100000000E-03 0.  1.
    9900012    2    1    2    0    0  0.65610869409E+01  0.16574756373E+02 -0.57365254011E+01  0.72461597934E+02  0.70000036005E+02 0.  0.
         12    1    1    2    0    0 -0.65610869409E+01 -0.16574756373E+02  0.57365254011E+01  0.18726402066E+02  0.00000000000E+00 0. -1.
         11    1    3    3    0    0 -0.54371054987E+01  0.24031631726E+02  0.34644675034E-01  0.24639047062E+02  0.51100000000E-03 0. -1.
        -11    1    3    3    0    0  0.17361771988E+02 -0.11497537909E+02 -0.21979953904E+02  0.30277762111E+02  0.51100000000E-03 0.  1.
         12    1    3    3    0    0 -0.53635795484E+01  0.40406625566E+01  0.16208783828E+02  0.17544788761E+02  0.00000000000E+00 0. -1.
</event>
<event>
 7    1  0.1465498E-013  0.7246156E+02  0.7816164E-02  0.1226708E+00
        -11   -1    0    0    0    0  0.00000000000E+00  0.00000000000E+00  0.45593999997E+02  0.45594000000E+02  0.51100000000E-03 0.  1.
         11   -1    0    0    0    0 -0.00000000000E+00 -0.00000000000E+00 -0.45593999997E+02  0.45594000000E+02  0.51100000000E-03 0. -1.
    9900012    2    1    2    0    0 -0.93921490720E+01 -0.95628343222E+01  0.13077440420E+02  0.72461555800E+02  0.69999981118E+02 0.  0.
         12    1    1    2    0    0  0.93921490720E+01  0.95628343222E+01 -0.13077440420E+02  0.18726444200E+02  0.00000000000E+00 0. -1.
         11    1    3    3    0    0  0.19724917046E+02 -0.18474478456E+02 -0.81670000930E+01  0.28232580426E+02  0.51100000000E-03 0. -1.
        -11    1    3    3    0    0 -0.63659237459E+01  0.10006762840E+02 -0.16022575470E+01  0.11967769933E+02  0.51100000000E-03 0.  1.
        -12    1    3    3    0    0 -0.22751142373E+02 -0.10951187059E+01  0.22846698060E+02  0.32261205440E+02  0.00000000000E+00 0.  1.
</event>
<event>
 7    1  0.1465498E-013  0.7246162E+02  0.7816164E-02  0.1226708E+00
        -11   -1    0    0    0    0  0.00000000000E+00  0.00000000000E+00  0.45593999997E+02  0.45594000000E+02  0.51100000000E-03 0. -1.
         11   -1    0    0    0    0 -0.00000000000E+00 -0.00000000000E+00 -0.45593999997E+02  0.45594000000E+02  0.51100000000E-03 0.  1.
    9900012    2    1    2    0    0 -0.23591955477E+00  0.13086876553E+02 -0.13392364339E+02  0.72461617046E+02  0.70000060903E+02 0.  0.
         12    1    1    2    0    0  0.23591955477E+00 -0.13086876553E+02  0.13392364339E+02  0.18726382954E+02  0.00000000000E+00 0. -1.
         11    1    3    3    0    0 -0.11456623676E+02  0.43160021256E+01  0.18314182432E+02  0.22029329968E+02  0.51100000000E-03 0. -1.
        -11    1    3    3    0    0 -0.75722613439E+01  0.13350184626E+02 -0.26125631337E+02  0.30300415582E+02  0.51100000000E-03 0.  1.
         12    1    3    3    0    0  0.18792965465E+02 -0.45793101981E+01 -0.55809154341E+01  0.20131871496E+02  0.00000000000E+00 0. -1.
</event>
<event>
 7    1  0.1465498E-013  0.7246095E+02  0.7816164E-02  0.1226710E+00
        -11   -1    0    0    0    0  0.00000000000E+00  0.00000000000E+00  0.45593999997E+02  0.45594000000E+02  0.51100000000E-03 0.  1.
         11   -1    0    0    0    0 -0.00000000000E+00 -0.00000000000E+00 -0.45593999997E+02  0.45594000000E+02  0.51100000000E-03 0. -1.
    9900012    2    1    2    0    0 -0.70531054272E+01  0.13855217459E+02  0.10439773787E+02  0.72460954752E+02  0.69999198137E+02 0.  0.
         12    1    1    2    0    0  0.70531054272E+01 -0.13855217459E+02 -0.10439773787E+02  0.18727045248E+02  0.00000000000E+00 0. -1.
         11    1    3    3    0    0  0.13912423408E+02  0.24495278203E+02  0.31168252404E+01  0.28342349570E+02  0.51100000000E-03 0. -1.
        -11    1    3    3    0    0  0.88655537293E+00  0.67455622182E+01  0.13859472318E+02  0.15439351129E+02  0.51100000000E-03 0.  1.
        -12    1    3    3    0    0 -0.21852084209E+02 -0.17385622961E+02 -0.65365237717E+01  0.28679254053E+02  0.00000000000E+00 0.  1.
</event>
<event>
 7    1  0.1465498E-013  0.7246224E+02  0.7816164E-02  0.1226706E+00
        -11   -1    0    0    0    0  0.00000000000E+00  0.00000000000E+00  0.45593999997E+02  0.45594000000E+02  0.51100000000E-03 0.  1.
         11   -1    0    0    0    0 -0.00000000000E+00 -0.00000000000E+00 -0.45593999997E+02  0.45594000000E+02  0.51100000000E-03 0. -1.
    9900012    2    1    2    0    0 -0.76785698236E+01  0.13120301576E+02  0.10933949087E+02  0.72462242589E+02  0.70000875783E+02 0.  0.
         12    1    1    2    0    0  0.76785698236E+01 -0.13120301576E+02 -0.10933949087E+02  0.18725757411E+02  0.00000000000E+00 0. -1.
         11    1    3    3    0    0 -0.24933019826E+01 -0.11111653373E+01  0.95340525895E+01  0.99171267121E+01  0.51100000000E-03 0. -1.
        -11    1    3    3    0    0  0.11745928793E+02 -0.65154613629E+01  0.24000760086E+02  0.27503719111E+02  0.51100000000E-03 0.  1.
         12    1    3    3    0    0 -0.16931196634E+02  0.20746928276E+02 -0.22600863588E+02  0.35041396766E+02  0.00000000000E+00 0. -1.
</event>
<event>
 7    1  0.2198616E-013  0.7246158E+02  0.7816164E-02  0.1226708E+00
        -11   -1    0    0    0    0  0.00000000000E+00  0.00000000000E+00  0.45593999997E+02  0.45594000000E+02  0.51100000000E-03 0. -1.
         11   -1    0    0    0    0 -0.00000000000E+00 -0.00000000000E+00 -0.45593999997E+02  0.45594000000E+02  0.51100000000E-03 0.  1.
    9900012    2    1    2    0    0  0.86461109587E+01 -0.12093165322E+02 -0.11387667283E+02  0.72461578869E+02  0.70000011170E+02 0.  0.
         12    1    1    2    0    0 -0.86461109587E+01  0.12093165322E+02  0.11387667283E+02  0.18726421131E+02  0.00000000000E+00 0. -1.
         11    1    3    3    0    0  0.19267064424E+01  0.18438861512E+02  0.42559880168E+01  0.19021494311E+02  0.51100000000E-03 0. -1.
        -11    1    3    3    0    0  0.20635117793E+02 -0.42842259747E+01 -0.94302870098E+01  0.23088806636E+02  0.51100000000E-03 0.  1.
        -12    1    3    3    0    0 -0.13915713277E+02 -0.26247800860E+02 -0.62133682903E+01  0.30351277922E+02  0.00000000000E+00 0.  1.
</event>
<event>
 7    1  0.1465498E-013  0.7246155E+02  0.7816164E-02  0.1226708E+00
        -11   -1    0    0    0    0  0.00000000000E+00  0.00000000000E+00  0.45593999997E+02  0.45594000000E+02  0.51100000000E-03 0.  1.
         11   -1    0    0    0    0 -0.00000000000E+00 -0.00000000000E+00 -0.45593999997E+02  0.45594000000E+02  0.51100000000E-03 0. -1.
    9900012    2    1    2    0    0 -0.13115725633E+02  0.13125542034E+02 -0.25254364726E+01  0.72461549671E+02  0.69999973134E+02 0.  0.
         12    1    1    2    0    0  0.13115725633E+02 -0.13125542034E+02  0.25254364726E+01  0.18726450329E+02  0.00000000000E+00 0. -1.
         11    1    3    3    0    0  0.18393264123E+01  0.48619494732E+01 -0.19795097838E+01  0.55623856012E+01  0.51100000000E-03 0. -1.
        -11    1    3    3    0    0 -0.32703326223E+02 -0.12532793322E+01 -0.20444220559E+02  0.38588138199E+02  0.51100000000E-03 0.  1.
         12    1    3    3    0    0  0.17748274177E+02  0.95168718928E+01  0.19898293871E+02  0.28311025871E+02  0.00000000000E+00 0. -1.
</event>
<event>
 7    1  0.1465498E-013  0.7246154E+02  0.7816164E-02  0.1226708E+00
        -11   -1    0    0    0    0  0.00000000000E+00  0.00000000000E+00  0.45593999997E+02  0.45594000000E+02  0.51100000000E-03 0. -1.
         11   -1    0    0    0    0 -0.00000000000E+00 -0.00000000000E+00 -0.45593999997E+02  0.45594000000E+02  0.51100000000E-03 0.  1.
    9900012    2    1    2    0    0  0.16729245171E+02 -0.82879290639E+01 -0.14570751164E+01  0.72461535303E+02  0.69999954417E+02 0.  0.
         12    1    1    2    0    0 -0.16729245171E+02  0.82879290639E+01  0.14570751164E+01  0.18726464697E+02  0.00000000000E+00 0. -1.
         11    1    3    3    0    0 -0.14212257392E+02 -0.75468556278E+01  0.13404992970E+02  0.20943665554E+02  0.51100000000E-03 0. -1.
        -11    1    3    3    0    0  0.19025946350E+01  0.15766946317E+02 -0.37877693255E+01  0.16326777368E+02  0.51100000000E-03 0.  1.
        -12    1    3    3    0    0  0.29038907928E+02 -0.16508019753E+02 -0.11074298761E+02  0.35191092380E+02  0.00000000000E+00 0.  1.
</event>
<event>
 7    1  0.1465498E-013  0.7246147E+02  0.7816164E-02  0.1226708E+00
        -11   -1    0    0    0    0  0.00000000000E+00  0.00000000000E+00  0.45593999997E+02  0.45594000000E+02  0.51100000000E-03 0.  1.
         11   -1    0    0    0    0 -0.00000000000E+00 -0.00000000000E+00 -0.45593999997E+02  0.45594000000E+02  0.51100000000E-03 0. -1.
    9900012    2    1    2    0    0  0.17793001727E+02  0.51544499817E+01 -0.27429231065E+01  0.72461470897E+02  0.69999870516E+02 0.  0.
         12    1    1    2    0    0 -0.17793001727E+02 -0.51544499817E+01  0.27429231065E+01  0.18726529103E+02  0.00000000000E+00 0. -1.
         11    1    3    3    0    0  0.14781251236E+00 -0.13250660688E+02  0.41129367975E+01  0.13875089426E+02  0.51100000000E-03 0. -1.
        -11    1    3    3    0    0 -0.16186299409E+02  0.95745840594E+01  0.82020183394E+01  0.20516872412E+02  0.51100000000E-03 0.  1.
         12    1    3    3    0    0  0.33831488625E+02  0.88305266106E+01 -0.15057878243E+02  0.38069509059E+02  0.00000000000E+00 0. -1.
</event>
<event>
 7    1  0.1465498E-013  0.7246154E+02  0.7816164E-02  0.1226708E+00
        -11   -1    0    0    0    0  0.00000000000E+00  0.00000000000E+00  0.45593999997E+02  0.45594000000E+02  0.51100000000E-03 0.  1.
         11   -1    0    0    0    0 -0.00000000000E+00 -0.00000000000E+00 -0.45593999997E+02  0.45594000000E+02  0.51100000000E-03 0. -1.
    9900012    2    1    2    0    0 -0.37581673225E+01 -0.16785016251E+02  0.74040325415E+01  0.72461540376E+02  0.69999961026E+02 0.  0.
         12    1    1    2    0    0  0.37581673225E+01  0.16785016251E+02 -0.74040325415E+01  0.18726459624E+02  0.00000000000E+00 0. -1.
         11    1    3    3    0    0 -0.58534751250E+01 -0.31469889060E+02  0.13628571969E+02  0.34790157554E+02  0.51100000000E-03 0. -1.
        -11    1    3    3    0    0  0.40650558274E+01 -0.10819940789E+02 -0.24245002302E+01  0.11809911057E+02  0.51100000000E-03 0.  1.
        -12    1    3    3    0    0 -0.19697480248E+01  0.25504813598E+02 -0.38000391976E+01  0.25861471765E+02  0.00000000000E+00 0.  1.
</event>
<event>
 7    1  0.1465498E-013  0.7246168E+02  0.7816164E-02  0.1226708E+00
        -11   -1    0    0    0    0  0.00000000000E+00  0.00000000000E+00  0.45593999997E+02  0.45594000000E+02  0.51100000000E-03 0.  1.
         11   -1    0    0    0    0 -0.00000000000E+00 -0.00000000000E+00 -0.45593999997E+02  0.45594000000E+02  0.51100000000E-03 0. -1.
    9900012    2    1    2    0    0 -0.15750011106E+01 -0.18132791772E+02  0.44041035625E+01  0.72461684449E+02  0.70000148707E+02 0.  0.
         12    1    1    2    0    0  0.15750011106E+01  0.18132791772E+02 -0.44041035625E+01  0.18726315551E+02  0.00000000000E+00 0. -1.
         11    1    3    3    0    0  0.10239910150E+02 -0.49278370783E+01 -0.12219142141E+02  0.16686724456E+02  0.51100000000E-03 0. -1.
        -11    1    3    3    0    0  0.10791444236E+02 -0.25281084366E+02  0.10490675801E+02  0.29421807804E+02  0.51100000000E-03 0.  1.
         12    1    3    3    0    0 -0.22606355496E+02  0.12076129673E+02  0.61325699016E+01  0.26353152189E+02  0.00000000000E+00 0. -1.
</event>
<event>
 7    1  0.1465498E-013  0.7246172E+02  0.7816164E-02  0.1226708E+00
        -11   -1    0    0    0    0  0.00000000000E+00  0.00000000000E+00  0.45593999997E+02  0.45594000000E+02  0.51100000000E-03 0. -1.
         11   -1    0    0    0    0 -0.00000000000E+00 -0.00000000000E+00 -0.45593999997E+02  0.45594000000E+02  0.51100000000E-03 0.  1.
    9900012    2    1    2    0    0  0.14900825269E+02  0.11227976523E+02 -0.16036493242E+01  0.72461715221E+02  0.70000188793E+02 0.  0.
         12    1    1    2    0    0 -0.14900825269E+02 -0.11227976523E+02  0.16036493242E+01  0.18726284779E+02  0.00000000000E+00 0. -1.
         11    1    3    3    0    0  0.19606100129E+02  0.11983838218E+02 -0.42461454738E+01  0.23367526449E+02  0.51100000000E-03 0. -1.
        -11    1    3    3    0    0  0.57686839430E+01  0.22588465937E+02  0.29976599451E+01  0.23505371157E+02  0.51100000000E-03 0.  1.
         12    1    3    3    0    0 -0.10473958804E+02 -0.23344327631E+02 -0.35516379553E+00  0.25588817615E+02  0.00000000000E+00 0. -1.
</event>
<event>
 7    1  0.1465498E-013  0.7246138E+02  0.7816164E-02  0.1226709E+00
        -11   -1    0    0    0    0  0.00000000000E+00  0.00000000000E+00  0.45593999997E+02  0.45594000000E+02  0.51100000000E-03 0.  1.
         11   -1    0    0    0    0 -0.00000000000E+00 -0.00000000000E+00 -0.45593999997E+02  0.45594000000E+02  0.51100000000E-03 0. -1.
    9900012    2    1    2    0    0 -0.14435377925E+02 -0.91134423423E+01  0.76974834015E+01  0.72461382102E+02  0.69999754844E+02 0.  0.
         12    1    1    2    0    0  0.14435377925E+02  0.91134423423E+01 -0.76974834015E+01  0.18726617898E+02  0.00000000000E+00 0. -1.
         11    1    3    3    0    0  0.27052761880E+01 -0.12440433348E+02 -0.13592709974E+02  0.18623766156E+02  0.51100000000E-03 0.  1.
        -11    1    3    3    0    0 -0.19034303410E+01  0.21772687767E+02  0.67148211012E-01  0.21855834205E+02  0.51100000000E-03 0. -1.
         12    1    3    3    0    0 -0.15237223772E+02 -0.18445696761E+02  0.21223045164E+02  0.31981781741E+02  0.00000000000E+00 0. -1.
</event>
<event>
 7    1  0.1465498E-013  0.7246155E+02  0.7816164E-02  0.1226708E+00
        -11   -1    0    0    0    0  0.00000000000E+00  0.00000000000E+00  0.45593999997E+02  0.45594000000E+02  0.51100000000E-03 0. -1.
         11   -1    0    0    0    0 -0.00000000000E+00 -0.00000000000E+00 -0.45593999997E+02  0.45594000000E+02  0.51100000000E-03 0.  1.
    9900012    2    1    2    0    0 -0.87369609297E+01  0.50859153909E-01 -0.16563299371E+02  0.72461549215E+02  0.69999972541E+02 0.  0.
         12    1    1    2    0    0  0.87369609297E+01 -0.50859153909E-01  0.16563299371E+02  0.18726450785E+02  0.00000000000E+00 0. -1.
         11    1    3    3    0    0  0.75409902547E+01 -0.99279911198E+01 -0.27062854768E+02  0.29796470431E+02  0.51100000000E-03 0. -1.
        -11    1    3    3    0    0 -0.18730447543E+02 -0.71466219065E+01 -0.35738112282E+01  0.20363594889E+02  0.51100000000E-03 0.  1.
        -12    1    3    3    0    0  0.24524963589E+01  0.17125472180E+02  0.14073366625E+02  0.22301483895E+02  0.00000000000E+00 0.  1.
</event>
<event>
 7    1  0.1465498E-013  0.7246156E+02  0.7816164E-02  0.1226708E+00
        -11   -1    0    0    0    0  0.00000000000E+00  0.00000000000E+00  0.45593999997E+02  0.45594000000E+02  0.51100000000E-03 0. -1.
         11   -1    0    0    0    0 -0.00000000000E+00 -0.00000000000E+00 -0.45593999997E+02  0.45594000000E+02  0.51100000000E-03 0.  1.
    9900012    2    1    2    0    0  0.36210188222E+01  0.11969825219E+02 -0.13938832958E+02  0.72461559940E+02  0.69999986512E+02 0.  0.
         12    1    1    2    0    0 -0.36210188222E+01 -0.11969825219E+02  0.13938832958E+02  0.18726440060E+02  0.00000000000E+00 0. -1.
         11    1    3    3    0    0  0.34299803304E+01 -0.10107284906E+02 -0.14867968051E+02  0.18302416437E+02  0.51100000000E-03 0. -1.
        -11    1    3    3    0    0  0.86387899828E+01  0.10414168128E+02 -0.22735402390E+02  0.26457175062E+02  0.51100000000E-03 0.  1.
         12    1    3    3    0    0 -0.84477514910E+01  0.11662941997E+02  0.23664537482E+02  0.27701968441E+02  0.00000000000E+00 0. -1.
</event>
<event>
 7    1  0.1465498E-013  0.7246159E+02  0.7816164E-02  0.1226708E+00
        -11   -1    0    0    0    0  0.00000000000E+00  0.00000000000E+00  0.45593999997E+02  0.45594000000E+02  0.51100000000E-03 0.  1.
         11   -1    0    0    0    0 -0.00000000000E+00 -0.00000000000E+00 -0.45593999997E+02  0.45594000000E+02  0.51100000000E-03 0. -1.
    9900012    2    1    2    0    0 -0.20219065643E+01 -0.22371094415E+01  0.18482034321E+02  0.72461591977E+02  0.70000028246E+02 0.  0.
         12    1    1    2    0    0  0.20219065643E+01  0.22371094415E+01 -0.18482034321E+02  0.18726408023E+02  0.00000000000E+00 0. -1.
         11    1    3    3    0    0 -0.23223975437E+02  0.11734630267E+02 -0.68545721972E+01  0.26907986600E+02  0.51100000000E-03 0. -1.
        -11    1    3    3    0    0  0.11079324185E+02  0.76053939753E+01  0.54072024872E+01  0.14485554215E+02  0.51100000000E-03 0.  1.
        -12    1    3    3    0    0  0.10122744688E+02 -0.21577133684E+02  0.19929404031E+02  0.31068051162E+02  0.00000000000E+00 0.  1.
</event>
<event>
 7    1  0.1465498E-013  0.7246168E+02  0.7816164E-02  0.1226708E+00
        -11   -1    0    0    0    0  0.00000000000E+00  0.00000000000E+00  0.45593999997E+02  0.45594000000E+02  0.51100000000E-03 0.  1.
         11   -1    0    0    0    0 -0.00000000000E+00 -0.00000000000E+00 -0.45593999997E+02  0.45594000000E+02  0.51100000000E-03 0. -1.
    9900012    2    1    2    0    0 -0.14704775924E+02 -0.94180634826E+01  0.67634877747E+01  0.72461678375E+02  0.70000140795E+02 0.  0.
         12    1    1    2    0    0  0.14704775924E+02  0.94180634826E+01 -0.67634877747E+01  0.18726321625E+02  0.00000000000E+00 0. -1.
         11    1    3    3    0    0  0.77962606554E+01 -0.62575267772E+01 -0.25099206868E+02  0.27016818969E+02  0.51100000000E-03 0. -1.
        -11    1    3    3    0    0 -0.42859740813E+01 -0.41084119321E+01 -0.25778763839E+01  0.64725628109E+01  0.51100000000E-03 0.  1.
        -12    1    3    3    0    0 -0.18215062498E+02  0.94787522668E+00  0.34440571026E+02  0.38972296595E+02  0.00000000000E+00 0.  1.
</event>
<event>
 7    1  0.1465498E-013  0.7246159E+02  0.7816164E-02  0.1226708E+00
        -11   -1    0    0    0    0  0.00000000000E+00  0.00000000000E+00  0.45593999997E+02  0.45594000000E+02  0.51100000000E-03 0. -1.
         11   -1    0    0    0    0 -0.00000000000E+00 -0.00000000000E+00 -0.45593999997E+02  0.45594000000E+02  0.51100000000E-03 0.  1.
    9900012    2    1    2    0    0 -0.68042383209E+00 -0.75593785784E+01  0.17119325366E+02  0.72461588650E+02  0.70000023911E+02 0.  0.
         12    1    1    2    0    0  0.68042383209E+00  0.75593785784E+01 -0.17119325366E+02  0.18726411350E+02  0.00000000000E+00 0. -1.
         11    1    3    3    0    0 -0.29888270284E+02  0.25653809067E+01  0.19168004218E+02  0.35599189116E+02  0.51100000000E-03 0. -1.
        -11    1    3    3    0    0  0.23643260607E+01  0.49096836086E+01  0.20529369442E+01  0.58231933865E+01  0.51100000000E-03 0.  1.
        -12    1    3    3    0    0  0.26843520391E+02 -0.15034443094E+02 -0.41016157961E+01  0.31039206147E+02  0.00000000000E+00 0.  1.
</event>
<event>
 7    1  0.1465498E-013  0.7246157E+02  0.7816164E-02  0.1226708E+00
        -11   -1    0    0    0    0  0.00000000000E+00  0.00000000000E+00  0.45593999997E+02  0.45594000000E+02  0.51100000000E-03 0.  1.
         11   -1    0    0    0    0 -0.00000000000E+00 -0.00000000000E+00 -0.45593999997E+02  0.45594000000E+02  0.51100000000E-03 0. -1.
    9900012    2    1    2    0    0  0.18182729058E+02  0.39622910841E+01  0.20899526031E+01  0.72461567117E+02  0.69999995861E+02 0.  0.
         12    1    1    2    0    0 -0.18182729058E+02 -0.39622910841E+01 -0.20899526031E+01  0.18726432883E+02  0.00000000000E+00 0. -1.
         11    1    3    3    0    0  0.86392914643E+01 -0.14736774263E+02 -0.14813656748E+00  0.17083085710E+02  0.51100000000E-03 0. -1.
        -11    1    3    3    0    0  0.27346609396E+02  0.22876346697E+00  0.91020841216E+01  0.28822514009E+02  0.51100000000E-03 0.  1.
         12    1    3    3    0    0 -0.17803171802E+02  0.18470301880E+02 -0.68639949510E+01  0.26555967398E+02  0.00000000000E+00 0. -1.
</event>
<event>
 7    1  0.1465498E-013  0.7246155E+02  0.7816164E-02  0.1226708E+00
        -11   -1    0    0    0    0  0.00000000000E+00  0.00000000000E+00  0.45593999997E+02  0.45594000000E+02  0.51100000000E-03 0.  1.
         11   -1    0    0    0    0 -0.00000000000E+00 -0.00000000000E+00 -0.45593999997E+02  0.45594000000E+02  0.51100000000E-03 0. -1.
    9900012    2    1    2    0    0  0.78213105687E+01 -0.14180611743E+02  0.94030405484E+01  0.72461552927E+02  0.69999977376E+02 0.  0.
         12    1    1    2    0    0 -0.78213105687E+01  0.14180611743E+02 -0.94030405484E+01  0.18726447073E+02  0.00000000000E+00 0. -1.
         11    1    3    3    0    0  0.19389080209E+02 -0.21256917341E+02  0.26695160275E+01  0.28894969844E+02  0.51100000000E-03 0. -1.
        -11    1    3    3    0    0  0.12940350325E+02 -0.59931647529E+01  0.67821310191E+01  0.15791389797E+02  0.51100000000E-03 0.  1.
        -12    1    3    3    0    0 -0.24508119966E+02  0.13069470351E+02 -0.48606498204E-01  0.27775193287E+02  0.00000000000E+00 0.  1.
</event>
<event>
 7    1  0.1465498E-013  0.7246162E+02  0.7816164E-02  0.1226708E+00
        -11   -1    0    0    0    0  0.00000000000E+00  0.00000000000E+00  0.45593999997E+02  0.45594000000E+02  0.51100000000E-03 0. -1.
         11   -1    0    0    0    0 -0.00000000000E+00 -0.00000000000E+00 -0.45593999997E+02  0.45594000000E+02  0.51100000000E-03 0.  1.
    9900012    2    1    2    0    0  0.94985267152E+01 -0.15859209820E+02 -0.29900852480E+01  0.72461624065E+02  0.70000070046E+02 0.  0.
         12    1    1    2    0    0 -0.94985267152E+01  0.15859209820E+02  0.29900852480E+01  0.18726375935E+02  0.00000000000E+00 0. -1.
         11    1    3    3    0    0  0.17239941921E+02  0.66186781872E+01 -0.14535158365E+02  0.23500921840E+02  0.51100000000E-03 0. -1.
        -11    1    3    3    0    0 -0.17014838256E+02 -0.20928716786E+01 -0.82920662548E+01  0.19043192899E+02  0.51100000000E-03 0.  1.
        -12    1    3    3    0    0  0.92734230499E+01 -0.20385016329E+02  0.19837139372E+02  0.29917509325E+02  0.00000000000E+00 0.  1.
</event>
<event>
 7    1  0.1465498E-013  0.7246155E+02  0.7816164E-02  0.1226708E+00
        -11   -1    0    0    0    0  0.00000000000E+00  0.00000000000E+00  0.45593999997E+02  0.45594000000E+02  0.51100000000E-03 0. -1.
         11   -1    0    0    0    0 -0.00000000000E+00 -0.00000000000E+00 -0.45593999997E+02  0.45594000000E+02  0.51100000000E-03 0.  1.
    9900012    2    1    2    0    0 -0.43471157166E+01  0.89139871143E+01 -0.15884692376E+02  0.72461547234E+02  0.69999969959E+02 0.  0.
         12    1    1    2    0    0  0.43471157166E+01 -0.89139871143E+01  0.15884692376E+02  0.18726452766E+02  0.00000000000E+00 0. -1.
         11    1    3    3    0    0  0.14881302355E+02  0.13703953972E+02 -0.14008809735E+02  0.24606874338E+02  0.51100000000E-03 0. -1.
        -11    1    3    3    0    0  0.70680701785E+01  0.11369892364E+02 -0.90592168254E+01  0.16164822244E+02  0.51100000000E-03 0.  1.
         12    1    3    3    0    0 -0.26296488250E+02 -0.16159859222E+02  0.71833341842E+01  0.31689850652E+02  0.00000000000E+00 0. -1.
</event>
<event>
 7    1  0.1465498E-013  0.7246154E+02  0.7816164E-02  0.1226708E+00
        -11   -1    0    0    0    0  0.00000000000E+00  0.00000000000E+00  0.45593999997E+02  0.45594000000E+02  0.51100000000E-03 0. -1.
         11   -1    0    0    0    0 -0.00000000000E+00 -0.00000000000E+00 -0.45593999997E+02  0.45594000000E+02  0.51100000000E-03 0.  1.
    9900012    2    1    2    0    0 -0.16655668758E+02 -0.82288132297E+01 -0.23570314396E+01  0.72461541014E+02  0.69999961857E+02 0.  0.
         12    1    1    2    0    0  0.16655668758E+02  0.82288132297E+01  0.23570314396E+01  0.18726458986E+02  0.00000000000E+00 0. -1.
         11    1    3    3    0    0 -0.29679721487E+02  0.62284170962E+01  0.47409987002E+01  0.30694561668E+02  0.51100000000E-03 0. -1.
        -11    1    3    3    0    0 -0.66482626983E+01 -0.19339128571E+02 -0.51754189529E+00  0.20456518293E+02  0.51100000000E-03 0.  1.
         12    1    3    3    0    0  0.19672315428E+02  0.48818982452E+01 -0.65804882445E+01  0.21310461053E+02  0.00000000000E+00 0. -1.
</event>
<event>
 7    1  0.1465498E-013  0.7246154E+02  0.7816164E-02  0.1226708E+00
        -11   -1    0    0    0    0  0.00000000000E+00  0.00000000000E+00  0.45593999997E+02  0.45594000000E+02  0.51100000000E-03 0. -1.
         11   -1    0    0    0    0 -0.00000000000E+00 -0.00000000000E+00 -0.45593999997E+02  0.45594000000E+02  0.51100000000E-03 0.  1.
    9900012    2    1    2    0    0  0.16176513427E+02 -0.82126463414E+01  0.46425557062E+01  0.72461535570E+02  0.69999954765E+02 0.  0.
         12    1    1    2    0    0 -0.16176513427E+02  0.82126463414E+01 -0.46425557062E+01  0.18726464430E+02  0.00000000000E+00 0. -1.
         11    1    3    3    0    0 -0.77645006593E+00  0.37096100901E+01 -0.53183733023E+00  0.38271311622E+01  0.51100000000E-03 0. -1.
        -11    1    3    3    0    0  0.10579741457E+02  0.30026792461E+01 -0.28884170742E+02  0.30906994866E+02  0.51100000000E-03 0.  1.
         12    1    3    3    0    0  0.63732220359E+01 -0.14924935678E+02  0.34058563778E+02  0.37727409542E+02  0.00000000000E+00 0. -1.
</event>
<event>
 7    1  0.1465498E-013  0.7246172E+02  0.7816164E-02  0.1226708E+00
        -11   -1    0    0    0    0  0.00000000000E+00  0.00000000000E+00  0.45593999997E+02  0.45594000000E+02  0.51100000000E-03 0.  1.
         11   -1    0    0    0    0 -0.00000000000E+00 -0.00000000000E+00 -0.45593999997E+02  0.45594000000E+02  0.51100000000E-03 0. -1.
    9900012    2    1    2    0    0  0.10398245828E+01 -0.11457320688E+02  0.14775733613E+02  0.72461715363E+02  0.70000188978E+02 0.  0.
         12    1    1    2    0    0 -0.10398245828E+01  0.11457320688E+02 -0.14775733613E+02  0.18726284637E+02  0.00000000000E+00 0. -1.
         11    1    3    3    0    0  0.27985104164E+01  0.18634591960E+02  0.13756557586E+02  0.23330721270E+02  0.51100000000E-03 0. -1.
        -11    1    3    3    0    0 -0.16668938315E+02 -0.14188408523E+02  0.11738019699E+02  0.24838388589E+02  0.51100000000E-03 0.  1.
         12    1    3    3    0    0  0.14910252482E+02 -0.15903504125E+02 -0.10718843672E+02  0.24292605504E+02  0.00000000000E+00 0. -1.
</event>
<event>
 7    1  0.1465498E-013  0.7246155E+02  0.7816164E-02  0.1226708E+00
        -11   -1    0    0    0    0  0.00000000000E+00  0.00000000000E+00  0.45593999997E+02  0.45594000000E+02  0.51100000000E-03 0. -1.
         11   -1    0    0    0    0 -0.00000000000E+00 -0.00000000000E+00 -0.45593999997E+02  0.45594000000E+02  0.51100000000E-03 0.  1.
    9900012    2    1    2    0    0 -0.19159972390E+01  0.10046347237E+02 -0.15686935126E+02  0.72461546201E+02  0.69999968614E+02 0.  0.
         12    1    1    2    0    0  0.19159972390E+01 -0.10046347237E+02  0.15686935126E+02  0.18726453799E+02  0.00000000000E+00 0. -1.
         11    1    3    3    0    0  0.22403916678E+02  0.79785499567E+01 -0.10457339265E+02  0.25979774570E+02  0.51100000000E-03 0. -1.
        -11    1    3    3    0    0  0.79871428197E+01 -0.31049054742E+01 -0.10271762939E+02  0.13376995274E+02  0.51100000000E-03 0.  1.
        -12    1    3    3    0    0 -0.32307056737E+02  0.51727027547E+01  0.50421670775E+01  0.33104776357E+02  0.00000000000E+00 0.  1.
</event>
<event>
 7    1  0.1465498E-013  0.7246161E+02  0.7816164E-02  0.1226708E+00
        -11   -1    0    0    0    0  0.00000000000E+00  0.00000000000E+00  0.45593999997E+02  0.45594000000E+02  0.51100000000E-03 0. -1.
         11   -1    0    0    0    0 -0.00000000000E+00 -0.00000000000E+00 -0.45593999997E+02  0.45594000000E+02  0.51100000000E-03 0.  1.
    9900012    2    1    2    0    0 -0.13779095420E+02 -0.11151971960E+02 -0.60372001523E+01  0.72461608600E+02  0.70000049900E+02 0.  0.
         12    1    1    2    0    0  0.13779095420E+02  0.11151971960E+02  0.60372001523E+01  0.18726391400E+02  0.00000000000E+00 0. -1.
         11    1    3    3    0    0 -0.10631253622E+02  0.13043652487E+02  0.67036676464E+01  0.18113519369E+02  0.51100000000E-03 0. -1.
        -11    1    3    3    0    0 -0.18090535784E+01  0.69613817591E+01  0.12370112152E+02  0.14309199340E+02  0.51100000000E-03 0.  1.
        -12    1    3    3    0    0 -0.13387882197E+01 -0.31157006206E+02 -0.25110979950E+02  0.40038889891E+02  0.00000000000E+00 0.  1.
</event>
<event>
 7    1  0.1477997E-013  0.7246155E+02  0.7816164E-02  0.1226708E+00
        -11   -1    0    0    0    0  0.00000000000E+00  0.00000000000E+00  0.45593999997E+02  0.45594000000E+02  0.51100000000E-03 0. -1.
         11   -1    0    0    0    0 -0.00000000000E+00 -0.00000000000E+00 -0.45593999997E+02  0.45594000000E+02  0.51100000000E-03 0.  1.
    9900012    2    1    2    0    0 -0.25098500894E+01 -0.81884933745E+01 -0.16653204036E+02  0.72461548764E+02  0.69999971953E+02 0.  0.
         12    1    1    2    0    0  0.25098500894E+01  0.81884933745E+01  0.16653204036E+02  0.18726451236E+02  0.00000000000E+00 0. -1.
         11    1    3    3    0    0  0.43459335887E+01  0.18267022663E+02  0.49604772941E+01  0.19421060501E+02  0.51100000000E-03 0. -1.
        -11    1    3    3    0    0 -0.10496307990E+02  0.80293959057E+01 -0.96295020132E+01  0.16351482786E+02  0.51100000000E-03 0.  1.
        -12    1    3    3    0    0  0.36405243119E+01 -0.34484911943E+02 -0.11984179317E+02  0.36689005477E+02  0.00000000000E+00 0.  1.
</event>
<event>
 7    1  0.1465498E-013  0.7246164E+02  0.7816164E-02  0.1226708E+00
        -11   -1    0    0    0    0  0.00000000000E+00  0.00000000000E+00  0.45593999997E+02  0.45594000000E+02  0.51100000000E-03 0. -1.
         11   -1    0    0    0    0 -0.00000000000E+00 -0.00000000000E+00 -0.45593999997E+02  0.45594000000E+02  0.51100000000E-03 0.  1.
    9900012    2    1    2    0    0  0.23667422496E+01  0.17742216241E+02 -0.55035291185E+01  0.72461640536E+02  0.70000091503E+02 0.  0.
         12    1    1    2    0    0 -0.23667422496E+01 -0.17742216241E+02  0.55035291185E+01  0.18726359464E+02  0.00000000000E+00 0. -1.
         11    1    3    3    0    0  0.14577173633E+02  0.16215505812E+02 -0.68872278432E+01  0.22866362358E+02  0.51100000000E-03 0. -1.
        -11    1    3    3    0    0  0.80885256208E+01  0.12361638655E+02 -0.15227747034E+02  0.21215999551E+02  0.51100000000E-03 0.  1.
         12    1    3    3    0    0 -0.20298957005E+02 -0.10834928227E+02  0.16611445759E+02  0.28379278626E+02  0.00000000000E+00 0. -1.
</event>
<event>
 7    1  0.1465498E-013  0.7246165E+02  0.7816164E-02  0.1226708E+00
        -11   -1    0    0    0    0  0.00000000000E+00  0.00000000000E+00  0.45593999997E+02  0.45594000000E+02  0.51100000000E-03 0. -1.
         11   -1    0    0    0    0 -0.00000000000E+00 -0.00000000000E+00 -0.45593999997E+02  0.45594000000E+02  0.51100000000E-03 0.  1.
    9900012    2    1    2    0    0  0.50557066102E+01 -0.14111942290E+02  0.11223594014E+02  0.72461650993E+02  0.70000105125E+02 0.  0.
         12    1    1    2    0    0 -0.50557066102E+01  0.14111942290E+02 -0.11223594014E+02  0.18726349007E+02  0.00000000000E+00 0. -1.
         11    1    3    3    0    0  0.30389588865E+02 -0.12560030073E+02  0.34848102681E+01  0.33066983075E+02  0.51100000000E-03 0. -1.
        -11    1    3    3    0    0  0.48225900990E+01 -0.20293340896E+00 -0.47079559526E+01  0.67426557634E+01  0.51100000000E-03 0.  1.
         12    1    3    3    0    0 -0.30156472354E+02 -0.13489788081E+01  0.12446739699E+02  0.32652012155E+02  0.00000000000E+00 0. -1.
</event>
<event>
 7    1  0.1481135E-013  0.7246156E+02  0.7816164E-02  0.1226708E+00
        -11   -1    0    0    0    0  0.00000000000E+00  0.00000000000E+00  0.45593999997E+02  0.45594000000E+02  0.51100000000E-03 0. -1.
         11   -1    0    0    0    0 -0.00000000000E+00 -0.00000000000E+00 -0.45593999997E+02  0.45594000000E+02  0.51100000000E-03 0.  1.
    9900012    2    1    2    0    0  0.10812967930E+02  0.87167532096E+01 -0.12560954716E+02  0.72461557590E+02  0.69999983450E+02 0.  0.
         12    1    1    2    0    0 -0.10812967930E+02 -0.87167532096E+01  0.12560954716E+02  0.18726442410E+02  0.00000000000E+00 0. -1.
         11    1    3    3    0    0  0.17892124291E+02 -0.14464215111E+02 -0.35279065337E+01  0.23276334660E+02  0.51100000000E-03 0. -1.
        -11    1    3    3    0    0  0.59385935942E+01  0.18280785513E+01 -0.20683339617E+02  0.21596511363E+02  0.51100000000E-03 0.  1.
        -12    1    3    3    0    0 -0.13017749956E+02  0.21352889769E+02  0.11650291435E+02  0.27588711567E+02  0.00000000000E+00 0.  1.
</event>
<event>
 7    1  0.1465498E-013  0.7246170E+02  0.7816164E-02  0.1226708E+00
        -11   -1    0    0    0    0  0.00000000000E+00  0.00000000000E+00  0.45593999997E+02  0.45594000000E+02  0.51100000000E-03 0.  1.
         11   -1    0    0    0    0 -0.00000000000E+00 -0.00000000000E+00 -0.45593999997E+02  0.45594000000E+02  0.51100000000E-03 0. -1.
    9900012    2    1    2    0    0  0.31168460827E+01  0.16566143267E+02  0.81561234769E+01  0.72461703452E+02  0.70000173462E+02 0.  0.
         12    1    1    2    0    0 -0.31168460827E+01 -0.16566143267E+02 -0.81561234769E+01  0.18726296548E+02  0.00000000000E+00 0. -1.
         11    1    3    3    0    0  0.88351343239E+01  0.80350448591E+01  0.48755502875E+01  0.12899323055E+02  0.51100000000E-03 0. -1.
        -11    1    3    3    0    0 -0.17132483213E+02  0.25691189936E+02  0.16565176831E+02  0.35042321628E+02  0.51100000000E-03 0.  1.
         12    1    3    3    0    0  0.11414194971E+02 -0.17160091528E+02 -0.13284603641E+02  0.24520058769E+02  0.00000000000E+00 0. -1.
</event>
<event>
 7    1  0.1465498E-013  0.7246161E+02  0.7816164E-02  0.1226708E+00
        -11   -1    0    0    0    0  0.00000000000E+00  0.00000000000E+00  0.45593999997E+02  0.45594000000E+02  0.51100000000E-03 0. -1.
         11   -1    0    0    0    0 -0.00000000000E+00 -0.00000000000E+00 -0.45593999997E+02  0.45594000000E+02  0.51100000000E-03 0.  1.
    9900012    2    1    2    0    0 -0.65463991930E+01  0.75282992519E+01 -0.15847617670E+02  0.72461611725E+02  0.70000053971E+02 0.  0.
         12    1    1    2    0    0  0.65463991930E+01 -0.75282992519E+01  0.15847617670E+02  0.18726388275E+02  0.00000000000E+00 0. -1.
         11    1    3    3    0    0 -0.11811396844E+02  0.55088900755E+01 -0.96744124414E+01  0.16231180537E+02  0.51100000000E-03 0. -1.
        -11    1    3    3    0    0 -0.18054514279E+02 -0.50711574741E+01 -0.20639705163E+02  0.27886906488E+02  0.51100000000E-03 0.  1.
        -12    1    3    3    0    0  0.23319511930E+02  0.70905666505E+01  0.14466499935E+02  0.28343524701E+02  0.00000000000E+00 0.  1.
</event>
<event>
 7    1  0.1465498E-013  0.7246152E+02  0.7816164E-02  0.1226708E+00
        -11   -1    0    0    0    0  0.00000000000E+00  0.00000000000E+00  0.45593999997E+02  0.45594000000E+02  0.51100000000E-03 0.  1.
         11   -1    0    0    0    0 -0.00000000000E+00 -0.00000000000E+00 -0.45593999997E+02  0.45594000000E+02  0.51100000000E-03 0. -1.
    9900012    2    1    2    0    0 -0.97296203174E+01 -0.15787119051E+02  0.26042926227E+01  0.72461521968E+02  0.69999937045E+02 0.  0.
         12    1    1    2    0    0  0.97296203174E+01  0.15787119051E+02 -0.26042926227E+01  0.18726478032E+02  0.00000000000E+00 0. -1.
         11    1    3    3    0    0 -0.22696291832E+02 -0.17148303645E+02 -0.34645942148E+01  0.28656402324E+02  0.51100000000E-03 0. -1.
        -11    1    3    3    0    0 -0.35022701798E+01 -0.17304673550E+02  0.67535693102E+01  0.18903129946E+02  0.51100000000E-03 0.  1.
         12    1    3    3    0    0  0.16468941694E+02  0.18665858144E+02 -0.68468247275E+00  0.24901989697E+02  0.00000000000E+00 0. -1.
</event>
<event>
 7    1  0.1465498E-013  0.7246144E+02  0.7816164E-02  0.1226708E+00
        -11   -1    0    0    0    0  0.00000000000E+00  0.00000000000E+00  0.45593999997E+02  0.45594000000E+02  0.51100000000E-03 0. -1.
         11   -1    0    0    0    0 -0.00000000000E+00 -0.00000000000E+00 -0.45593999997E+02  0.45594000000E+02  0.51100000000E-03 0.  1.
    9900012    2    1    2    0    0  0.46373319509E+01  0.10498024994E+02 -0.14797657048E+02  0.72461440505E+02  0.69999830925E+02 0.  0.
         12    1    1    2    0    0 -0.46373319509E+01 -0.10498024994E+02  0.14797657048E+02  0.18726559495E+02  0.00000000000E+00 0. -1.
         11    1    3    3    0    0 -0.61732645709E+00 -0.47264364801E+01 -0.31474025079E+01  0.57119555813E+01  0.51100000000E-03 0. -1.
        -11    1    3    3    0    0 -0.10150693842E+02  0.54612943796E+01 -0.35156221536E+02  0.36997597688E+02  0.51100000000E-03 0.  1.
         12    1    3    3    0    0  0.15405352250E+02  0.97631670949E+01  0.23505966996E+02  0.29751887235E+02  0.00000000000E+00 0. -1.
</event>
<event>
 7    1  0.1465498E-013  0.7246158E+02  0.7816164E-02  0.1226708E+00
        -11   -1    0    0    0    0  0.00000000000E+00  0.00000000000E+00  0.45593999997E+02  0.45594000000E+02  0.51100000000E-03 0.  1.
         11   -1    0    0    0    0 -0.00000000000E+00 -0.00000000000E+00 -0.45593999997E+02  0.45594000000E+02  0.51100000000E-03 0. -1.
    9900012    2    1    2    0    0 -0.76285523818E+01  0.14650357504E+02  0.88233162527E+01  0.72461582934E+02  0.70000016465E+02 0.  0.
         12    1    1    2    0    0  0.76285523818E+01 -0.14650357504E+02 -0.88233162527E+01  0.18726417066E+02  0.00000000000E+00 0. -1.
         11    1    3    3    0    0 -0.28021366342E+02  0.28657458650E+01 -0.55424987392E+01  0.28707642947E+02  0.51100000000E-03 0. -1.
        -11    1    3    3    0    0 -0.71321253782E+01 -0.62793840576E+00  0.11336460216E+02  0.13408088960E+02  0.51100000000E-03 0.  1.
         12    1    3    3    0    0  0.27524939339E+02  0.12412550045E+02  0.30293547754E+01  0.30345851027E+02  0.00000000000E+00 0. -1.
</event>
<event>
 7    1  0.1465498E-013  0.7246159E+02  0.7816164E-02  0.1226708E+00
        -11   -1    0    0    0    0  0.00000000000E+00  0.00000000000E+00  0.45593999997E+02  0.45594000000E+02  0.51100000000E-03 0. -1.
         11   -1    0    0    0    0 -0.00000000000E+00 -0.00000000000E+00 -0.45593999997E+02  0.45594000000E+02  0.51100000000E-03 0.  1.
    9900012    2    1    2    0    0 -0.15052085074E+02 -0.72645842410E+01 -0.84462481899E+01  0.72461586628E+02  0.70000021278E+02 0.  0.
         12    1    1    2    0    0  0.15052085074E+02  0.72645842410E+01  0.84462481899E+01  0.18726413372E+02  0.00000000000E+00 0. -1.
         11    1    3    3    0    0 -0.23848364112E+02 -0.71920158401E+01  0.21917276478E+02  0.33178857291E+02  0.51100000000E-03 0. -1.
        -11    1    3    3    0    0  0.35894022102E+01 -0.10098231095E+02 -0.56630850022E+01  0.12121411283E+02  0.51100000000E-03 0.  1.
        -12    1    3    3    0    0  0.52068768277E+01  0.10025662695E+02 -0.24700439666E+02  0.27161318054E+02  0.00000000000E+00 0.  1.
</event>
<event>
 7    1  0.1465498E-013  0.7246154E+02  0.7816164E-02  0.1226708E+00
        -11   -1    0    0    0    0  0.00000000000E+00  0.00000000000E+00  0.45593999997E+02  0.45594000000E+02  0.51100000000E-03 0. -1.
         11   -1    0    0    0    0 -0.00000000000E+00 -0.00000000000E+00 -0.45593999997E+02  0.45594000000E+02  0.51100000000E-03 0.  1.
    9900012    2    1    2    0    0 -0.15339853548E+02  0.33066904550E+01 -0.10219339813E+02  0.72461542384E+02  0.69999963641E+02 0.  0.
         12    1    1    2    0    0  0.15339853548E+02 -0.33066904550E+01  0.10219339813E+02  0.18726457616E+02  0.00000000000E+00 0. -1.
         11    1    3    3    0    0  0.36179796344E+00 -0.27448343373E+01  0.16254489277E+02  0.16488584997E+02  0.51100000000E-03 0. -1.
        -11    1    3    3    0    0 -0.17625548956E+01 -0.19074973873E+02 -0.41858413953E+01  0.19608225225E+02  0.51100000000E-03 0.  1.
         12    1    3    3    0    0 -0.13939096616E+02  0.25126498666E+02 -0.22287987695E+02  0.36364732161E+02  0.00000000000E+00 0. -1.
</event>
<event>
 7    1  0.1465498E-013  0.7246154E+02  0.7816164E-02  0.1226708E+00
        -11   -1    0    0    0    0  0.00000000000E+00  0.00000000000E+00  0.45593999997E+02  0.45594000000E+02  0.51100000000E-03 0.  1.
         11   -1    0    0    0    0 -0.00000000000E+00 -0.00000000000E+00 -0.45593999997E+02  0.45594000000E+02  0.51100000000E-03 0. -1.
    9900012    2    1    2    0    0 -0.67953451947E+00  0.16456759643E+02  0.89103010084E+01  0.72461543603E+02  0.69999965230E+02 0.  0.
         12    1    1    2    0    0  0.67953451947E+00 -0.16456759643E+02 -0.89103010084E+01  0.18726456397E+02  0.00000000000E+00 0. -1.
         11    1    3    3    0    0  0.74626037702E+01  0.13815517051E+02 -0.21004805850E+02  0.26225194669E+02  0.51100000000E-03 0. -1.
        -11    1    3    3    0    0  0.11017235926E+02 -0.66723887745E+01  0.60008145342E+01  0.14209505085E+02  0.51100000000E-03 0.  1.
         12    1    3    3    0    0 -0.19159374216E+02  0.93136313672E+01  0.23914292324E+02  0.32026843849E+02  0.00000000000E+00 0. -1.
</event>
<event>
 7    1  0.1465498E-013  0.7246157E+02  0.7816164E-02  0.1226708E+00
        -11   -1    0    0    0    0  0.00000000000E+00  0.00000000000E+00  0.45593999997E+02  0.45594000000E+02  0.51100000000E-03 0.  1.
         11   -1    0    0    0    0 -0.00000000000E+00 -0.00000000000E+00 -0.45593999997E+02  0.45594000000E+02  0.51100000000E-03 0. -1.
    9900012    2    1    2    0    0  0.53695827550E+01 -0.13987714387E+02  0.11233455320E+02  0.72461572387E+02  0.70000002725E+02 0.  0.
         12    1    1    2    0    0 -0.53695827550E+01  0.13987714387E+02 -0.11233455320E+02  0.18726427613E+02  0.00000000000E+00 0. -1.
         11    1    3    3    0    0 -0.22479716566E+02  0.10439594954E+02 -0.24914844526E+01  0.24910445495E+02  0.51100000000E-03 0. -1.
        -11    1    3    3    0    0  0.11137465216E+02  0.17021161356E+01  0.12038964761E+02  0.16488693204E+02  0.51100000000E-03 0.  1.
         12    1    3    3    0    0  0.16711834105E+02 -0.26129425477E+02  0.16859750113E+01  0.31062433688E+02  0.00000000000E+00 0. -1.
</event>
<event>
 7    1  0.1465498E-013  0.7246154E+02  0.7816164E-02  0.1226708E+00
        -11   -1    0    0    0    0  0.00000000000E+00  0.00000000000E+00  0.45593999997E+02  0.45594000000E+02  0.51100000000E-03 0.  1.
         11   -1    0    0    0    0 -0.00000000000E+00 -0.00000000000E+00 -0.45593999997E+02  0.45594000000E+02  0.51100000000E-03 0. -1.
    9900012    2    1    2    0    0  0.12299439533E+02 -0.94911437163E+01  0.10455729424E+02  0.72461540120E+02  0.69999960692E+02 0.  0.
         12    1    1    2    0    0 -0.12299439533E+02  0.94911437163E+01 -0.10455729424E+02  0.18726459880E+02  0.00000000000E+00 0. -1.
         11    1    3    3    0    0  0.12885030047E+02 -0.46990029640E+01 -0.23038471100E+01  0.13907276510E+02  0.51100000000E-03 0. -1.
        -11    1    3    3    0    0  0.19593799069E+01  0.23942886908E+02  0.16954514330E+02  0.29403342660E+02  0.51100000000E-03 0.  1.
         12    1    3    3    0    0 -0.25449704210E+01 -0.28735027660E+02 -0.41949377966E+01  0.29150920950E+02  0.00000000000E+00 0. -1.
</event>
<event>
 7    1  0.1465498E-013  0.7246157E+02  0.7816164E-02  0.1226708E+00
        -11   -1    0    0    0    0  0.00000000000E+00  0.00000000000E+00  0.45593999997E+02  0.45594000000E+02  0.51100000000E-03 0. -1.
         11   -1    0    0    0    0 -0.00000000000E+00 -0.00000000000E+00 -0.45593999997E+02  0.45594000000E+02  0.51100000000E-03 0.  1.
    9900012    2    1    2    0    0 -0.13500002147E+02  0.49567457275E+01  0.11994158063E+02  0.72461569111E+02  0.69999998459E+02 0.  0.
         12    1    1    2    0    0  0.13500002147E+02 -0.49567457275E+01 -0.11994158063E+02  0.18726430889E+02  0.00000000000E+00 0. -1.
         11    1    3    3    0    0 -0.13468333333E+01 -0.14169793129E+01  0.21648180387E+02  0.21736271638E+02  0.51100000000E-03 0. -1.
        -11    1    3    3    0    0 -0.15143972653E+02  0.17086874573E+02  0.12431537078E+02  0.25997005688E+02  0.51100000000E-03 0.  1.
         12    1    3    3    0    0  0.29908038390E+01 -0.10713149533E+02 -0.22085559401E+02  0.24728291785E+02  0.00000000000E+00 0. -1.
</event>
<event>
 7    1  0.1465498E-013  0.7246156E+02  0.7816164E-02  0.1226708E+00
        -11   -1    0    0    0    0  0.00000000000E+00  0.00000000000E+00  0.45593999997E+02  0.45594000000E+02  0.51100000000E-03 0. -1.
         11   -1    0    0    0    0 -0.00000000000E+00 -0.00000000000E+00 -0.45593999997E+02  0.45594000000E+02  0.51100000000E-03 0.  1.
    9900012    2    1    2    0    0  0.17326430277E+02  0.61667547880E+01 -0.35278243841E+01  0.72461558917E+02  0.69999985178E+02 0.  0.
         12    1    1    2    0    0 -0.17326430277E+02 -0.61667547880E+01  0.35278243841E+01  0.18726441083E+02  0.00000000000E+00 0. -1.
         11    1    3    3    0    0 -0.17018535766E+01 -0.35740092533E+01 -0.27695137828E+01  0.48311545818E+01  0.51100000000E-03 0. -1.
        -11    1    3    3    0    0 -0.19517078737E+01 -0.18007657679E+00 -0.30131714661E+02  0.30195394017E+02  0.51100000000E-03 0.  1.
         12    1    3    3    0    0  0.20979991728E+02  0.99208406181E+01  0.29373404059E+02  0.37435010318E+02  0.00000000000E+00 0. -1.
</event>
<event>
 7    1  0.1992072E-013  0.7246157E+02  0.7816164E-02  0.1226708E+00
        -11   -1    0    0    0    0  0.00000000000E+00  0.00000000000E+00  0.45593999997E+02  0.45594000000E+02  0.51100000000E-03 0.  1.
         11   -1    0    0    0    0 -0.00000000000E+00 -0.00000000000E+00 -0.45593999997E+02  0.45594000000E+02  0.51100000000E-03 0. -1.
    9900012    2    1    2    0    0 -0.17065261588E+02 -0.39868046582E+01  0.66001159263E+01  0.72461566952E+02  0.69999995646E+02 0.  0.
         12    1    1    2    0    0  0.17065261588E+02  0.39868046582E+01 -0.66001159263E+01  0.18726433048E+02  0.00000000000E+00 0. -1.
         11    1    3    3    0    0  0.52840716125E+01 -0.83823304038E+01 -0.25847481002E+02  0.27681711476E+02  0.51100000000E-03 0. -1.
        -11    1    3    3    0    0 -0.69699619096E+01 -0.83314350209E+01  0.10414426030E+02  0.15048370288E+02  0.51100000000E-03 0.  1.
        -12    1    3    3    0    0 -0.15379371291E+02  0.12726960767E+02  0.22033170899E+02  0.29731485188E+02  0.00000000000E+00 0.  1.
</event>
<event>
 7    1  0.1465498E-013  0.7246159E+02  0.7816164E-02  0.1226708E+00
        -11   -1    0    0    0    0  0.00000000000E+00  0.00000000000E+00  0.45593999997E+02  0.45594000000E+02  0.51100000000E-03 0. -1.
         11   -1    0    0    0    0 -0.00000000000E+00 -0.00000000000E+00 -0.45593999997E+02  0.45594000000E+02  0.51100000000E-03 0.  1.
    9900012    2    1    2    0    0  0.78100947283E+01  0.16859608126E+02 -0.23311908036E+01  0.72461590403E+02  0.70000026195E+02 0.  0.
         12    1    1    2    0    0 -0.78100947283E+01 -0.16859608126E+02  0.23311908036E+01  0.18726409597E+02  0.00000000000E+00 0. -1.
         11    1    3    3    0    0 -0.66368591601E+01  0.17865711061E+01 -0.22527021395E+02  0.23552206457E+02  0.51100000000E-03 0. -1.
        -11    1    3    3    0    0  0.27517044916E+00  0.12842959332E+02 -0.94683335591E+01  0.15958278849E+02  0.51100000000E-03 0.  1.
         12    1    3    3    0    0  0.14171783439E+02  0.22300776878E+01  0.29664164150E+02  0.32951105096E+02  0.00000000000E+00 0. -1.
</event>
<event>
 7    1  0.1465498E-013  0.7246167E+02  0.7816164E-02  0.1226708E+00
        -11   -1    0    0    0    0  0.00000000000E+00  0.00000000000E+00  0.45593999997E+02  0.45594000000E+02  0.51100000000E-03 0.  1.
         11   -1    0    0    0    0 -0.00000000000E+00 -0.00000000000E+00 -0.45593999997E+02  0.45594000000E+02  0.51100000000E-03 0. -1.
    9900012    2    1    2    0    0 -0.15119088490E+02  0.45898786957E+01  0.10050952523E+02  0.72461669077E+02  0.70000128683E+02 0.  0.
         12    1    1    2    0    0  0.15119088490E+02 -0.45898786957E+01 -0.10050952523E+02  0.18726330923E+02  0.00000000000E+00 0. -1.
         11    1    3    3    0    0 -0.17372011339E+01 -0.79844014631E+01  0.65679152504E+01  0.10483608420E+02  0.51100000000E-03 0. -1.
        -11    1    3    3    0    0 -0.21411439928E+02  0.24295556067E+02  0.21620720580E+02  0.38938147915E+02  0.51100000000E-03 0.  1.
         12    1    3    3    0    0  0.80295525723E+01 -0.11721275908E+02 -0.18137683307E+02  0.23039912742E+02  0.00000000000E+00 0. -1.
</event>
<event>
 7    1  0.1465498E-013  0.7246158E+02  0.7816164E-02  0.1226708E+00
        -11   -1    0    0    0    0  0.00000000000E+00  0.00000000000E+00  0.45593999997E+02  0.45594000000E+02  0.51100000000E-03 0. -1.
         11   -1    0    0    0    0 -0.00000000000E+00 -0.00000000000E+00 -0.45593999997E+02  0.45594000000E+02  0.51100000000E-03 0.  1.
    9900012    2    1    2    0    0 -0.14733809093E+02 -0.76246374258E+01 -0.86866849794E+01  0.72461582238E+02  0.70000015559E+02 0.  0.
         12    1    1    2    0    0  0.14733809093E+02  0.76246374258E+01  0.86866849794E+01  0.18726417762E+02  0.00000000000E+00 0. -1.
         11    1    3    3    0    0  0.96694835022E+01  0.10438138078E+02 -0.10749513874E+02  0.17832713941E+02  0.51100000000E-03 0.  1.
        -11    1    3    3    0    0 -0.33294648829E+02 -0.25584799634E+02  0.58213407986E+01  0.42391079508E+02  0.51100000000E-03 0. -1.
         12    1    3    3    0    0  0.88913562337E+01  0.75220241303E+01 -0.37585119040E+01  0.12237788788E+02  0.00000000000E+00 0. -1.
</event>
<event>
 7    1  0.1465498E-013  0.7246155E+02  0.7816164E-02  0.1226708E+00
        -11   -1    0    0    0    0  0.00000000000E+00  0.00000000000E+00  0.45593999997E+02  0.45594000000E+02  0.51100000000E-03 0.  1.
         11   -1    0    0    0    0 -0.00000000000E+00 -0.00000000000E+00 -0.45593999997E+02  0.45594000000E+02  0.51100000000E-03 0. -1.
    9900012    2    1    2    0    0 -0.39638886053E+00  0.18529891387E+02 -0.26768993986E+01  0.72461553745E+02  0.69999978441E+02 0.  0.
         12    1    1    2    0    0  0.39638886053E+00 -0.18529891387E+02  0.26768993986E+01  0.18726446255E+02  0.00000000000E+00 0. -1.
         11    1    3    3    0    0  0.60041505680E+01  0.17273116174E+02 -0.18425148769E+02  0.25959516056E+02  0.51100000000E-03 0.  1.
        -11    1    3    3    0    0  0.43111697945E+01  0.72326061284E+00 -0.14112307197E+02  0.14773845322E+02  0.51100000000E-03 0. -1.
        -12    1    3    3    0    0 -0.10711709223E+02  0.53351460000E+00  0.29860556568E+02  0.31728192367E+02  0.00000000000E+00 0.  1.
</event>
<event>
 7    1  0.1774963E-013  0.7246156E+02  0.7816164E-02  0.1226708E+00
        -11   -1    0    0    0    0  0.00000000000E+00  0.00000000000E+00  0.45593999997E+02  0.45594000000E+02  0.51100000000E-03 0.  1.
         11   -1    0    0    0    0 -0.00000000000E+00 -0.00000000000E+00 -0.45593999997E+02  0.45594000000E+02  0.51100000000E-03 0. -1.
    9900012    2    1    2    0    0  0.16701289796E+02  0.28241030187E+01  0.79856709354E+01  0.72461559362E+02  0.69999985758E+02 0.  0.
         12    1    1    2    0    0 -0.16701289796E+02 -0.28241030187E+01 -0.79856709354E+01  0.18726440638E+02  0.00000000000E+00 0. -1.
         11    1    3    3    0    0  0.25558282662E+02  0.86473539889E+01 -0.10811725139E+02  0.29067093841E+02  0.51100000000E-03 0. -1.
        -11    1    3    3    0    0 -0.52587071141E+01  0.11544471660E+02 -0.50673839485E+01  0.13660424839E+02  0.51100000000E-03 0.  1.
        -12    1    3    3    0    0 -0.35982857517E+01 -0.17367722631E+02  0.23864780023E+02  0.29734040682E+02  0.00000000000E+00 0.  1.
</event>
<event>
 7    1  0.1465498E-013  0.7246209E+02  0.7816164E-02  0.1226707E+00
        -11   -1    0    0    0    0  0.00000000000E+00  0.00000000000E+00  0.45593999997E+02  0.45594000000E+02  0.51100000000E-03 0.  1.
         11   -1    0    0    0    0 -0.00000000000E+00 -0.00000000000E+00 -0.45593999997E+02  0.45594000000E+02  0.51100000000E-03 0. -1.
    9900012    2    1    2    0    0  0.70844945569E+01 -0.71909537201E+01  0.15772120972E+02  0.72462090717E+02  0.70000677944E+02 0.  0.
         12    1    1    2    0    0 -0.70844945569E+01  0.71909537201E+01 -0.15772120972E+02  0.18725909283E+02  0.00000000000E+00 0. -1.
         11    1    3    3    0    0 -0.93635186516E+01  0.16454132907E+02 -0.18244632384E+02  0.26292215243E+02  0.51100000000E-03 0.  1.
        -11    1    3    3    0    0  0.45789088480E+01 -0.15832061206E+02  0.14014056383E+02  0.21633639195E+02  0.51100000000E-03 0. -1.
        -12    1    3    3    0    0  0.11869104361E+02 -0.78130254209E+01  0.20002696973E+02  0.24536236279E+02  0.00000000000E+00 0.  1.
</event>
<event>
 7    1  0.1465498E-013  0.7246148E+02  0.7816164E-02  0.1226708E+00
        -11   -1    0    0    0    0  0.00000000000E+00  0.00000000000E+00  0.45593999997E+02  0.45594000000E+02  0.51100000000E-03 0.  1.
         11   -1    0    0    0    0 -0.00000000000E+00 -0.00000000000E+00 -0.45593999997E+02  0.45594000000E+02  0.51100000000E-03 0. -1.
    9900012    2    1    2    0    0 -0.15152325859E+02  0.58781627698E+01 -0.93025111917E+01  0.72461481611E+02  0.69999884473E+02 0.  0.
         12    1    1    2    0    0  0.15152325859E+02 -0.58781627698E+01  0.93025111917E+01  0.18726518389E+02  0.00000000000E+00 0. -1.
         11    1    3    3    0    0  0.74561747358E+01 -0.12231572269E+02 -0.33881075928E+01  0.14720230134E+02  0.51100000000E-03 0. -1.
        -11    1    3    3    0    0 -0.94752863536E+01  0.33143977990E+02 -0.12579392080E+02  0.36695305338E+02  0.51100000000E-03 0.  1.
         12    1    3    3    0    0 -0.13133214242E+02 -0.15034242951E+02  0.66649884809E+01  0.21045946139E+02  0.00000000000E+00 0. -1.
</event>
<event>
 7    1  0.1465498E-013  0.7246156E+02  0.7816164E-02  0.1226708E+00
        -11   -1    0    0    0    0  0.00000000000E+00  0.00000000000E+00  0.45593999997E+02  0.45594000000E+02  0.51100000000E-03 0.  1.
         11   -1    0    0    0    0 -0.00000000000E+00 -0.00000000000E+00 -0.45593999997E+02  0.45594000000E+02  0.51100000000E-03 0. -1.
    9900012    2    1    2    0    0 -0.15869249860E+02 -0.16641867365E+01  0.98018925068E+01  0.72461555988E+02  0.69999981363E+02 0.  0.
         12    1    1    2    0    0  0.15869249860E+02  0.16641867365E+01 -0.98018925068E+01  0.18726444012E+02  0.00000000000E+00 0. -1.
         11    1    3    3    0    0 -0.18048372246E+02 -0.11775885552E+02 -0.10396443747E+02  0.23926998644E+02  0.51100000000E-03 0. -1.
        -11    1    3    3    0    0 -0.17444473380E+01 -0.16062565588E+02  0.13936515756E+02  0.21337187759E+02  0.51100000000E-03 0.  1.
         12    1    3    3    0    0  0.39235697234E+01  0.26174264403E+02  0.62618204978E+01  0.27197369585E+02  0.00000000000E+00 0. -1.
</event>
<event>
 7    1  0.1465498E-013  0.7246162E+02  0.7816164E-02  0.1226708E+00
        -11   -1    0    0    0    0  0.00000000000E+00  0.00000000000E+00  0.45593999997E+02  0.45594000000E+02  0.51100000000E-03 0. -1.
         11   -1    0    0    0    0 -0.00000000000E+00 -0.00000000000E+00 -0.45593999997E+02  0.45594000000E+02  0.51100000000E-03 0.  1.
    9900012    2    1    2    0    0 -0.14375173448E+02 -0.54270542691E+01 -0.10704152962E+02  0.72461616998E+02  0.70000060841E+02 0.  0.
         12    1    1    2    0    0  0.14375173448E+02  0.54270542691E+01  0.10704152962E+02  0.18726383002E+02  0.00000000000E+00 0. -1.
         11    1    3    3    0    0  0.21006942759E+01  0.14390673439E+02 -0.95456893703E+01  0.17396108308E+02  0.51100000000E-03 0. -1.
        -11    1    3    3    0    0  0.98353869563E+01 -0.37630997719E+01 -0.17314442683E+02  0.20265381372E+02  0.51100000000E-03 0.  1.
        -12    1    3    3    0    0 -0.26311254680E+02 -0.16054627936E+02  0.16155979091E+02  0.34800127318E+02  0.00000000000E+00 0.  1.
</event>
<event>
 7    1  0.1465498E-013  0.7246189E+02  0.7816164E-02  0.1226707E+00
        -11   -1    0    0    0    0  0.00000000000E+00  0.00000000000E+00  0.45593999997E+02  0.45594000000E+02  0.51100000000E-03 0.  1.
         11   -1    0    0    0    0 -0.00000000000E+00 -0.00000000000E+00 -0.45593999997E+02  0.45594000000E+02  0.51100000000E-03 0. -1.
    9900012    2    1    2    0    0  0.67112649879E+01 -0.43976353839E+01  0.16920019290E+02  0.72461886483E+02  0.70000411893E+02 0.  0.
         12    1    1    2    0    0 -0.67112649879E+01  0.43976353839E+01 -0.16920019290E+02  0.18726113517E+02  0.00000000000E+00 0. -1.
         11    1    3    3    0    0  0.39254603877E+01  0.59397205364E+01 -0.33211135965E+01  0.78561641459E+01  0.51100000000E-03 0. -1.
        -11    1    3    3    0    0 -0.20394859666E+02  0.11599052240E+02  0.22635329704E+02  0.32601326120E+02  0.51100000000E-03 0.  1.
        -12    1    3    3    0    0  0.23180664267E+02 -0.21936408160E+02 -0.23941968183E+01  0.32004396217E+02  0.00000000000E+00 0.  1.
</event>
<event>
 7    1  0.1465498E-013  0.7246154E+02  0.7816164E-02  0.1226708E+00
        -11   -1    0    0    0    0  0.00000000000E+00  0.00000000000E+00  0.45593999997E+02  0.45594000000E+02  0.51100000000E-03 0.  1.
         11   -1    0    0    0    0 -0.00000000000E+00 -0.00000000000E+00 -0.45593999997E+02  0.45594000000E+02  0.51100000000E-03 0. -1.
    9900012    2    1    2    0    0  0.74613902059E+01  0.32136475182E+01  0.16872477770E+02  0.72461537967E+02  0.69999957888E+02 0.  0.
         12    1    1    2    0    0 -0.74613902059E+01 -0.32136475182E+01 -0.16872477770E+02  0.18726462033E+02  0.00000000000E+00 0. -1.
         11    1    3    3    0    0 -0.11873768906E+02  0.15366478014E+02  0.12845230669E+02  0.23283362854E+02  0.51100000000E-03 0. -1.
        -11    1    3    3    0    0 -0.28232949423E+01  0.13519649605E+02 -0.38997569579E+01  0.14351307410E+02  0.51100000000E-03 0.  1.
         12    1    3    3    0    0  0.22158454054E+02 -0.25672480102E+02  0.79270040585E+01  0.34826867703E+02  0.00000000000E+00 0. -1.
</event>
<event>
 7    1  0.1465498E-013  0.7246206E+02  0.7816164E-02  0.1226707E+00
        -11   -1    0    0    0    0  0.00000000000E+00  0.00000000000E+00  0.45593999997E+02  0.45594000000E+02  0.51100000000E-03 0.  1.
         11   -1    0    0    0    0 -0.00000000000E+00 -0.00000000000E+00 -0.45593999997E+02  0.45594000000E+02  0.51100000000E-03 0. -1.
    9900012    2    1    2    0    0 -0.35420339568E+01  0.14726078820E+02 -0.11011701748E+02  0.72462056036E+02  0.70000632765E+02 0.  0.
         12    1    1    2    0    0  0.35420339568E+01 -0.14726078820E+02  0.11011701748E+02  0.18725943964E+02  0.00000000000E+00 0. -1.
         11    1    3    3    0    0  0.19854407901E+02  0.69764191721E+01 -0.20387888060E+02  0.29300749434E+02  0.51100000000E-03 0. -1.
        -11    1    3    3    0    0 -0.87868324672E+01 -0.57719556399E+01 -0.10621525281E+02  0.14944587524E+02  0.51100000000E-03 0.  1.
        -12    1    3    3    0    0 -0.14609609391E+02  0.13521615288E+02  0.19997711593E+02  0.28216719077E+02  0.00000000000E+00 0.  1.
</event>
<event>
 7    1  0.1465498E-013  0.7246162E+02  0.7816164E-02  0.1226708E+00
        -11   -1    0    0    0    0  0.00000000000E+00  0.00000000000E+00  0.45593999997E+02  0.45594000000E+02  0.51100000000E-03 0. -1.
         11   -1    0    0    0    0 -0.00000000000E+00 -0.00000000000E+00 -0.45593999997E+02  0.45594000000E+02  0.51100000000E-03 0.  1.
    9900012    2    1    2    0    0  0.56790325812E+01 -0.15437204707E+02 -0.89509059290E+01  0.72461617083E+02  0.70000060951E+02 0.  0.
         12    1    1    2    0    0 -0.56790325812E+01  0.15437204707E+02  0.89509059290E+01  0.18726382917E+02  0.00000000000E+00 0. -1.
         11    1    3    3    0    0  0.55549883494E+01  0.85299991471E+01 -0.37997257566E+01  0.10865389873E+02  0.51100000000E-03 0. -1.
        -11    1    3    3    0    0  0.17991388572E+02 -0.32057128318E+02 -0.14933987805E+02  0.39678376111E+02  0.51100000000E-03 0.  1.
         12    1    3    3    0    0 -0.17867344340E+02  0.80899244642E+01  0.97828076329E+01  0.21917851099E+02  0.00000000000E+00 0. -1.
</event>
<event>
 7    1  0.1465498E-013  0.7246195E+02  0.7816164E-02  0.1226707E+00
        -11   -1    0    0    0    0  0.00000000000E+00  0.00000000000E+00  0.45593999997E+02  0.45594000000E+02  0.51100000000E-03 0.  1.
         11   -1    0    0    0    0 -0.00000000000E+00 -0.00000000000E+00 -0.45593999997E+02  0.45594000000E+02  0.51100000000E-03 0. -1.
    9900012    2    1    2    0    0  0.94744685165E+01  0.14747244420E+02 -0.65892415380E+01  0.72461951946E+02  0.70000497171E+02 0.  0.
         12    1    1    2    0    0 -0.94744685165E+01 -0.14747244420E+02  0.65892415380E+01  0.18726048054E+02  0.00000000000E+00 0. -1.
         11    1    3    3    0    0 -0.48361859598E+01 -0.13691503315E+02 -0.16392553895E+02  0.21898899085E+02  0.51100000000E-03 0.  1.
        -11    1    3    3    0    0 -0.11639588247E+02  0.76935980888E+01 -0.41084918351E+01  0.14544798779E+02  0.51100000000E-03 0. -1.
        -12    1    3    3    0    0  0.25950242723E+02  0.20745149646E+02  0.13911804192E+02  0.36018254082E+02  0.00000000000E+00 0.  1.
</event>
<event>
 7    1  0.1465498E-013  0.7246162E+02  0.7816164E-02  0.1226708E+00
        -11   -1    0    0    0    0  0.00000000000E+00  0.00000000000E+00  0.45593999997E+02  0.45594000000E+02  0.51100000000E-03 0.  1.
         11   -1    0    0    0    0 -0.00000000000E+00 -0.00000000000E+00 -0.45593999997E+02  0.45594000000E+02  0.51100000000E-03 0. -1.
    9900012    2    1    2    0    0  0.96422618219E+01 -0.92819170128E+01  0.13097709338E+02  0.72461623245E+02  0.70000068978E+02 0.  0.
         12    1    1    2    0    0 -0.96422618219E+01  0.92819170128E+01 -0.13097709338E+02  0.18726376755E+02  0.00000000000E+00 0. -1.
         11    1    3    3    0    0  0.28491642998E+02 -0.31865658202E+01  0.45569580136E+01  0.29029188570E+02  0.51100000000E-03 0. -1.
        -11    1    3    3    0    0 -0.37838681599E+00 -0.19298461305E+02  0.38054971869E+00  0.19305921467E+02  0.51100000000E-03 0.  1.
         12    1    3    3    0    0 -0.18470994360E+02  0.13203110113E+02  0.81602016055E+01  0.24126513207E+02  0.00000000000E+00 0. -1.
</event>
<event>
 7    1  0.1465498E-013  0.7246157E+02  0.7816164E-02  0.1226708E+00
        -11   -1    0    0    0    0  0.00000000000E+00  0.00000000000E+00  0.45593999997E+02  0.45594000000E+02  0.51100000000E-03 0. -1.
         11   -1    0    0    0    0 -0.00000000000E+00 -0.00000000000E+00 -0.45593999997E+02  0.45594000000E+02  0.51100000000E-03 0.  1.
    9900012    2    1    2    0    0 -0.56794388139E+01 -0.16812141978E+02 -0.59812133861E+01  0.72461573307E+02  0.70000003925E+02 0.  0.
         12    1    1    2    0    0  0.56794388139E+01  0.16812141978E+02  0.59812133861E+01  0.18726426693E+02  0.00000000000E+00 0. -1.
         11    1    3    3    0    0 -0.34487988680E+01  0.34497563895E+01 -0.10174386998E+02  0.11283314399E+02  0.51100000000E-03 0. -1.
        -11    1    3    3    0    0 -0.53034497175E+01 -0.37521292350E+02 -0.93438297523E+01  0.39029234085E+02  0.51100000000E-03 0.  1.
         12    1    3    3    0    0  0.30728097717E+01  0.17259393983E+02  0.13537003364E+02  0.22149024824E+02  0.00000000000E+00 0. -1.
</event>
<event>
 7    1  0.1465498E-013  0.7246161E+02  0.7816164E-02  0.1226708E+00
        -11   -1    0    0    0    0  0.00000000000E+00  0.00000000000E+00  0.45593999997E+02  0.45594000000E+02  0.51100000000E-03 0.  1.
         11   -1    0    0    0    0 -0.00000000000E+00 -0.00000000000E+00 -0.45593999997E+02  0.45594000000E+02  0.51100000000E-03 0. -1.
    9900012    2    1    2    0    0  0.34738417596E+01  0.24263026370E+01  0.18240702940E+02  0.72461607801E+02  0.70000048859E+02 0.  0.
         12    1    1    2    0    0 -0.34738417596E+01 -0.24263026370E+01 -0.18240702940E+02  0.18726392199E+02  0.00000000000E+00 0. -1.
         11    1    3    3    0    0 -0.40153003061E+01  0.59544248566E+01  0.12891081893E+02  0.14756619008E+02  0.51100000000E-03 0. -1.
        -11    1    3    3    0    0  0.79973402836E+01  0.10946805640E+02  0.27833627756E+02  0.30959664721E+02  0.51100000000E-03 0.  1.
         12    1    3    3    0    0 -0.50819821790E+00 -0.14474927860E+02 -0.22484006709E+02  0.26745324071E+02  0.00000000000E+00 0. -1.
</event>
<event>
 7    1  0.1465498E-013  0.7246115E+02  0.7816164E-02  0.1226709E+00
        -11   -1    0    0    0    0  0.00000000000E+00  0.00000000000E+00  0.45593999997E+02  0.45594000000E+02  0.51100000000E-03 0. -1.
         11   -1    0    0    0    0 -0.00000000000E+00 -0.00000000000E+00 -0.45593999997E+02  0.45594000000E+02  0.51100000000E-03 0.  1.
    9900012    2    1    2    0    0 -0.17303855102E+02 -0.71245217618E+01  0.71615269695E+00  0.72461145314E+02  0.69999446382E+02 0.  0.
         12    1    1    2    0    0  0.17303855102E+02  0.71245217618E+01 -0.71615269695E+00  0.18726854686E+02  0.00000000000E+00 0. -1.
         11    1    3    3    0    0  0.64089890454E+01  0.10423038715E+02  0.17164446958E+01  0.12355608415E+02  0.51100000000E-03 0. -1.
        -11    1    3    3    0    0  0.85633810818E+01 -0.25200517484E+02 -0.34780017951E+01  0.26842020672E+02  0.51100000000E-03 0.  1.
         12    1    3    3    0    0 -0.32276225229E+02  0.76529570072E+01  0.24777097962E+01  0.33263516228E+02  0.00000000000E+00 0. -1.
</event>
<event>
 7    1  0.1465498E-013  0.7246155E+02  0.7816164E-02  0.1226708E+00
        -11   -1    0    0    0    0  0.00000000000E+00  0.00000000000E+00  0.45593999997E+02  0.45594000000E+02  0.51100000000E-03 0. -1.
         11   -1    0    0    0    0 -0.00000000000E+00 -0.00000000000E+00 -0.45593999997E+02  0.45594000000E+02  0.51100000000E-03 0.  1.
    9900012    2    1    2    0    0  0.94527138960E+01  0.14675696760E+02  0.67786459634E+01  0.72461550350E+02  0.69999974019E+02 0.  0.
         12    1    1    2    0    0 -0.94527138960E+01 -0.14675696760E+02 -0.67786459634E+01  0.18726449650E+02  0.00000000000E+00 0. -1.
         11    1    3    3    0    0  0.21468679864E+01  0.33412643112E+00  0.34239988279E+02  0.34308854254E+02  0.51100000000E-03 0. -1.
        -11    1    3    3    0    0  0.95397863299E+01  0.48903330397E+01 -0.20041310665E+01  0.10905935176E+02  0.51100000000E-03 0.  1.
        -12    1    3    3    0    0 -0.22339404204E+01  0.94512372894E+01 -0.25457211249E+02  0.27246760921E+02  0.00000000000E+00 0.  1.
</event>
<event>
 7    1  0.1465498E-013  0.7246152E+02  0.7816164E-02  0.1226708E+00
        -11   -1    0    0    0    0  0.00000000000E+00  0.00000000000E+00  0.45593999997E+02  0.45594000000E+02  0.51100000000E-03 0. -1.
         11   -1    0    0    0    0 -0.00000000000E+00 -0.00000000000E+00 -0.45593999997E+02  0.45594000000E+02  0.51100000000E-03 0.  1.
    9900012    2    1    2    0    0  0.16356850395E+01  0.18640006695E+02  0.74542888441E+00  0.72461521972E+02  0.69999937051E+02 0.  0.
         12    1    1    2    0    0 -0.16356850395E+01 -0.18640006695E+02 -0.74542888441E+00  0.18726478028E+02  0.00000000000E+00 0. -1.
         11    1    3    3    0    0 -0.61767340912E+01  0.20518820943E+02  0.52298730286E+01  0.22057325973E+02  0.51100000000E-03 0. -1.
        -11    1    3    3    0    0 -0.10683591013E+02  0.14853572115E+02 -0.14681510617E+02  0.23458782487E+02  0.51100000000E-03 0.  1.
        -12    1    3    3    0    0  0.18496010144E+02 -0.16732386364E+02  0.10197066473E+02  0.26945413512E+02  0.00000000000E+00 0.  1.
</event>
<event>
 7    1  0.1465498E-013  0.7246167E+02  0.7816164E-02  0.1226708E+00
        -11   -1    0    0    0    0  0.00000000000E+00  0.00000000000E+00  0.45593999997E+02  0.45594000000E+02  0.51100000000E-03 0. -1.
         11   -1    0    0    0    0 -0.00000000000E+00 -0.00000000000E+00 -0.45593999997E+02  0.45594000000E+02  0.51100000000E-03 0.  1.
    9900012    2    1    2    0    0  0.88165846496E+01  0.14676766686E+02  0.75852304104E+01  0.72461671859E+02  0.70000132307E+02 0.  0.
         12    1    1    2    0    0 -0.88165846496E+01 -0.14676766686E+02 -0.75852304104E+01  0.18726328141E+02  0.00000000000E+00 0. -1.
         11    1    3    3    0    0  0.33787899292E+01 -0.62259745430E+01  0.17170948353E+02  0.18574726055E+02  0.51100000000E-03 0. -1.
        -11    1    3    3    0    0  0.22734638861E+02  0.69037458234E+00  0.53668866132E+01  0.23369721722E+02  0.51100000000E-03 0.  1.
         12    1    3    3    0    0 -0.17296844140E+02  0.20212366647E+02 -0.14952604556E+02  0.30517224082E+02  0.00000000000E+00 0. -1.
</event>
<event>
 7    1  0.1465498E-013  0.7246150E+02  0.7816164E-02  0.1226708E+00
        -11   -1    0    0    0    0  0.00000000000E+00  0.00000000000E+00  0.45593999997E+02  0.45594000000E+02  0.51100000000E-03 0. -1.
         11   -1    0    0    0    0 -0.00000000000E+00 -0.00000000000E+00 -0.45593999997E+02  0.45594000000E+02  0.51100000000E-03 0.  1.
    9900012    2    1    2    0    0  0.15248727218E+02 -0.10765884880E+02 -0.15012416295E+01  0.72461503118E+02  0.69999912490E+02 0.  0.
         12    1    1    2    0    0 -0.15248727218E+02  0.10765884880E+02  0.15012416295E+01  0.18726496882E+02  0.00000000000E+00 0. -1.
         11    1    3    3    0    0 -0.98415662795E+01 -0.73575223086E+01  0.25059450175E+02  0.27909955297E+02  0.51100000000E-03 0. -1.
        -11    1    3    3    0    0  0.25760911194E+02 -0.33282527462E+01 -0.97767743217E+01  0.27754047062E+02  0.51100000000E-03 0.  1.
        -12    1    3    3    0    0 -0.67061769648E+00 -0.80109825324E-01 -0.16783917483E+02  0.16797500759E+02  0.00000000000E+00 0.  1.
</event>
<event>
 7    1  0.1465498E-013  0.7246155E+02  0.7816164E-02  0.1226708E+00
        -11   -1    0    0    0    0  0.00000000000E+00  0.00000000000E+00  0.45593999997E+02  0.45594000000E+02  0.51100000000E-03 0. -1.
         11   -1    0    0    0    0 -0.00000000000E+00 -0.00000000000E+00 -0.45593999997E+02  0.45594000000E+02  0.51100000000E-03 0.  1.
    9900012    2    1    2    0    0  0.96869103696E+01  0.68587232534E+01 -0.14484533578E+02  0.72461547316E+02  0.69999970066E+02 0.  0.
         12    1    1    2    0    0 -0.96869103696E+01 -0.68587232534E+01  0.14484533578E+02  0.18726452684E+02  0.00000000000E+00 0. -1.
         11    1    3    3    0    0  0.79863501234E+01  0.25466848230E+02  0.24256602952E+01  0.26799738342E+02  0.51100000000E-03 0. -1.
        -11    1    3    3    0    0 -0.11845158866E+02  0.79919313632E+00 -0.18455549047E+02  0.21944333872E+02  0.51100000000E-03 0.  1.
         12    1    3    3    0    0  0.13545719112E+02 -0.19407318113E+02  0.15453551738E+01  0.23717475102E+02  0.00000000000E+00 0. -1.
</event>
<event>
 7    1  0.1465498E-013  0.7246155E+02  0.7816164E-02  0.1226708E+00
        -11   -1    0    0    0    0  0.00000000000E+00  0.00000000000E+00  0.45593999997E+02  0.45594000000E+02  0.51100000000E-03 0.  1.
         11   -1    0    0    0    0 -0.00000000000E+00 -0.00000000000E+00 -0.45593999997E+02  0.45594000000E+02  0.51100000000E-03 0. -1.
    9900012    2    1    2    0    0 -0.75259676944E+00  0.19055717136E+01  0.18614037853E+02  0.72461547837E+02  0.69999970745E+02 0.  0.
         12    1    1    2    0    0  0.75259676944E+00 -0.19055717136E+01 -0.18614037853E+02  0.18726452163E+02  0.00000000000E+00 0. -1.
         11    1    3    3    0    0 -0.21076157122E+02  0.12018042578E+02  0.46007560314E+01  0.24694224077E+02  0.51100000000E-03 0. -1.
        -11    1    3    3    0    0  0.27751140744E+01  0.10786495856E+02 -0.71482893565E+01  0.13234341388E+02  0.51100000000E-03 0.  1.
         12    1    3    3    0    0  0.17548446278E+02 -0.20898966721E+02  0.21161571178E+02  0.34532982372E+02  0.00000000000E+00 0. -1.
</event>
<event>
 7    1  0.1465498E-013  0.7246156E+02  0.7816164E-02  0.1226708E+00
        -11   -1    0    0    0    0  0.00000000000E+00  0.00000000000E+00  0.45593999997E+02  0.45594000000E+02  0.51100000000E-03 0.  1.
         11   -1    0    0    0    0 -0.00000000000E+00 -0.00000000000E+00 -0.45593999997E+02  0.45594000000E+02  0.51100000000E-03 0. -1.
    9900012    2    1    2    0    0  0.54103498518E+01 -0.16018021933E+02  0.80517461351E+01  0.72461560723E+02  0.69999987532E+02 0.  0.
         12    1    1    2    0    0 -0.54103498518E+01  0.16018021933E+02 -0.80517461351E+01  0.18726439277E+02  0.00000000000E+00 0. -1.
         11    1    3    3    0    0  0.16022885776E+02 -0.61357354515E+01 -0.24048720511E+02  0.29541852965E+02  0.51100000000E-03 0. -1.
        -11    1    3    3    0    0  0.65293911656E+01  0.22632698905E+00  0.19945572719E+01  0.68309905484E+01  0.51100000000E-03 0.  1.
        -12    1    3    3    0    0 -0.17141927090E+02 -0.10108613470E+02  0.30105909374E+02  0.36088717210E+02  0.00000000000E+00 0.  1.
</event>
<event>
 7    1  0.1465498E-013  0.7246156E+02  0.7816164E-02  0.1226708E+00
        -11   -1    0    0    0    0  0.00000000000E+00  0.00000000000E+00  0.45593999997E+02  0.45594000000E+02  0.51100000000E-03 0.  1.
         11   -1    0    0    0    0 -0.00000000000E+00 -0.00000000000E+00 -0.45593999997E+02  0.45594000000E+02  0.51100000000E-03 0. -1.
    9900012    2    1    2    0    0 -0.15706557285E+01 -0.15218561270E+02 -0.10798517840E+02  0.72461560027E+02  0.69999986624E+02 0.  0.
         12    1    1    2    0    0  0.15706557285E+01  0.15218561270E+02  0.10798517840E+02  0.18726439973E+02  0.00000000000E+00 0. -1.
         11    1    3    3    0    0 -0.90251842312E+01 -0.29281838734E+01  0.14485771757E+02  0.17316633473E+02  0.51100000000E-03 0.  1.
        -11    1    3    3    0    0 -0.20273616417E+01  0.11447556256E+02  0.73024176335E+01  0.13728876248E+02  0.51100000000E-03 0. -1.
         12    1    3    3    0    0  0.94818901444E+01 -0.23737933653E+02 -0.32586707230E+02  0.41416050306E+02  0.00000000000E+00 0. -1.
</event>
<event>
 7    1  0.1465498E-013  0.7246156E+02  0.7816164E-02  0.1226708E+00
        -11   -1    0    0    0    0  0.00000000000E+00  0.00000000000E+00  0.45593999997E+02  0.45594000000E+02  0.51100000000E-03 0.  1.
         11   -1    0    0    0    0 -0.00000000000E+00 -0.00000000000E+00 -0.45593999997E+02  0.45594000000E+02  0.51100000000E-03 0. -1.
    9900012    2    1    2    0    0  0.18182093746E+02  0.44811748582E+01 -0.10013980276E+00  0.72461561762E+02  0.69999988885E+02 0.  0.
         12    1    1    2    0    0 -0.18182093746E+02 -0.44811748582E+01  0.10013980276E+00  0.18726438238E+02  0.00000000000E+00 0. -1.
         11    1    3    3    0    0 -0.71577188792E+01  0.27103738297E+01 -0.15969001333E+02  0.17708418046E+02  0.51100000000E-03 0. -1.
        -11    1    3    3    0    0  0.15731418506E+02 -0.80364443897E+00 -0.15346121644E+02  0.21991517054E+02  0.51100000000E-03 0.  1.
         12    1    3    3    0    0  0.96083941195E+01  0.25744454675E+01  0.31214983174E+02  0.32761626662E+02  0.00000000000E+00 0. -1.
</event>
<event>
 7    1  0.1465498E-013  0.7246158E+02  0.7816164E-02  0.1226708E+00
        -11   -1    0    0    0    0  0.00000000000E+00  0.00000000000E+00  0.45593999997E+02  0.45594000000E+02  0.51100000000E-03 0.  1.
         11   -1    0    0    0    0 -0.00000000000E+00 -0.00000000000E+00 -0.45593999997E+02  0.45594000000E+02  0.51100000000E-03 0. -1.
    9900012    2    1    2    0    0 -0.47628241627E+01 -0.61762840702E+01  0.17024918775E+02  0.72461579141E+02  0.70000011524E+02 0.  0.
         12    1    1    2    0    0  0.47628241627E+01  0.61762840702E+01 -0.17024918775E+02  0.18726420859E+02  0.00000000000E+00 0. -1.
         11    1    3    3    0    0 -0.93841606908E+01  0.23174871968E+02  0.21282347964E+02  0.32834060025E+02  0.51100000000E-03 0. -1.
        -11    1    3    3    0    0 -0.85006737974E+01 -0.22510263797E+01  0.16406708074E+01  0.89454108755E+01  0.51100000000E-03 0.  1.
         12    1    3    3    0    0  0.13122010325E+02 -0.27100129658E+02 -0.58980999968E+01  0.30682108240E+02  0.00000000000E+00 0. -1.
</event>
<event>
 7    1  0.1465498E-013  0.7246158E+02  0.7816164E-02  0.1226708E+00
        -11   -1    0    0    0    0  0.00000000000E+00  0.00000000000E+00  0.45593999997E+02  0.45594000000E+02  0.51100000000E-03 0.  1.
         11   -1    0    0    0    0 -0.00000000000E+00 -0.00000000000E+00 -0.45593999997E+02  0.45594000000E+02  0.51100000000E-03 0. -1.
    9900012    2    1    2    0    0  0.17801680261E+02  0.51441769168E+01  0.27048643796E+01  0.72461583696E+02  0.70000017458E+02 0.  0.
         12    1    1    2    0    0 -0.17801680261E+02 -0.51441769168E+01 -0.27048643796E+01  0.18726416304E+02  0.00000000000E+00 0. -1.
         11    1    3    3    0    0  0.19833369038E+02  0.26165757859E+01  0.65053195677E+01  0.21036353752E+02  0.51100000000E-03 0. -1.
        -11    1    3    3    0    0  0.16450708721E+02  0.19880511799E+02 -0.98952065779E-01  0.25804463927E+02  0.51100000000E-03 0.  1.
         12    1    3    3    0    0 -0.18482397498E+02 -0.17352910668E+02 -0.37015031223E+01  0.25620766016E+02  0.00000000000E+00 0. -1.
</event>
<event>
 7    1  0.1465498E-013  0.7246166E+02  0.7816164E-02  0.1226708E+00
        -11   -1    0    0    0    0  0.00000000000E+00  0.00000000000E+00  0.45593999997E+02  0.45594000000E+02  0.51100000000E-03 0. -1.
         11   -1    0    0    0    0 -0.00000000000E+00 -0.00000000000E+00 -0.45593999997E+02  0.45594000000E+02  0.51100000000E-03 0.  1.
    9900012    2    1    2    0    0 -0.50550789330E+00  0.20994761566E+01 -0.18601409592E+02  0.72461660871E+02  0.70000117993E+02 0.  0.
         12    1    1    2    0    0  0.50550789330E+00 -0.20994761566E+01  0.18601409592E+02  0.18726339129E+02  0.00000000000E+00 0. -1.
         11    1    3    3    0    0  0.15478929507E+02 -0.89769652430E+01 -0.19682707191E+02  0.26600603870E+02  0.51100000000E-03 0. -1.
        -11    1    3    3    0    0  0.53903631698E+01 -0.79964473237E+01  0.11831037626E+02  0.15263441174E+02  0.51100000000E-03 0.  1.
        -12    1    3    3    0    0 -0.21374800570E+02  0.19072888723E+02 -0.10749740027E+02  0.30597615827E+02  0.00000000000E+00 0.  1.
</event>
<event>
 7    1  0.1465498E-013  0.7246219E+02  0.7816164E-02  0.1226706E+00
        -11   -1    0    0    0    0  0.00000000000E+00  0.00000000000E+00  0.45593999997E+02  0.45594000000E+02  0.51100000000E-03 0. -1.
         11   -1    0    0    0    0 -0.00000000000E+00 -0.00000000000E+00 -0.45593999997E+02  0.45594000000E+02  0.51100000000E-03 0.  1.
    9900012    2    1    2    0    0 -0.40353282874E+01  0.18043026504E+02 -0.29700458554E+01  0.72462192883E+02  0.70000811032E+02 0.  0.
         12    1    1    2    0    0  0.40353282874E+01 -0.18043026504E+02  0.29700458554E+01  0.18725807117E+02  0.00000000000E+00 0. -1.
         11    1    3    3    0    0 -0.22700267832E+02  0.10603619001E+01 -0.19820315836E+02  0.30154128194E+02  0.51100000000E-03 0. -1.
        -11    1    3    3    0    0 -0.29953205583E+01 -0.59126481036E+01  0.60988902876E+01  0.90070980813E+01  0.51100000000E-03 0.  1.
        -12    1    3    3    0    0  0.21660260103E+02  0.22895312708E+02  0.10751379693E+02  0.33300966608E+02  0.00000000000E+00 0.  1.
</event>
<event>
 7    1  0.1465498E-013  0.7246151E+02  0.7816164E-02  0.1226708E+00
        -11   -1    0    0    0    0  0.00000000000E+00  0.00000000000E+00  0.45593999997E+02  0.45594000000E+02  0.51100000000E-03 0.  1.
         11   -1    0    0    0    0 -0.00000000000E+00 -0.00000000000E+00 -0.45593999997E+02  0.45594000000E+02  0.51100000000E-03 0. -1.
    9900012    2    1    2    0    0  0.99230777484E+01  0.39158673265E+01  0.15390901505E+02  0.72461512394E+02  0.69999924574E+02 0.  0.
         12    1    1    2    0    0 -0.99230777484E+01 -0.39158673265E+01 -0.15390901505E+02  0.18726487606E+02  0.00000000000E+00 0. -1.
         11    1    3    3    0    0  0.30667547120E+01  0.33720958647E+02  0.11390477674E+02  0.35724655610E+02  0.51100000000E-03 0. -1.
        -11    1    3    3    0    0  0.97987653263E+01 -0.63164941967E+01 -0.30248081054E+01  0.12044225388E+02  0.51100000000E-03 0.  1.
        -12    1    3    3    0    0 -0.29424422899E+01 -0.23488597124E+02  0.70252319366E+01  0.24692631396E+02  0.00000000000E+00 0.  1.
</event>
<event>
 7    1  0.2830850E-013  0.7246158E+02  0.7816164E-02  0.1226708E+00
        -11   -1    0    0    0    0  0.00000000000E+00  0.00000000000E+00  0.45593999997E+02  0.45594000000E+02  0.51100000000E-03 0. -1.
         11   -1    0    0    0    0 -0.00000000000E+00 -0.00000000000E+00 -0.45593999997E+02  0.45594000000E+02  0.51100000000E-03 0.  1.
    9900012    2    1    2    0    0 -0.12634783086E+02 -0.20149193997E+01 -0.13674107696E+02  0.72461578422E+02  0.70000010588E+02 0.  0.
         12    1    1    2    0    0  0.12634783086E+02  0.20149193997E+01  0.13674107696E+02  0.18726421578E+02  0.00000000000E+00 0. -1.
         11    1    3    3    0    0  0.12100672772E+02 -0.14099286248E+01  0.12724203561E+02  0.17615888760E+02  0.51100000000E-03 0. -1.
        -11    1    3    3    0    0 -0.15485233694E+02  0.98099318679E+01  0.62360640901E+01  0.19362740545E+02  0.51100000000E-03 0.  1.
        -12    1    3    3    0    0 -0.92502221647E+01 -0.10414922643E+02 -0.32634375348E+02  0.35482949118E+02  0.00000000000E+00 0.  1.
</event>
<event>
 7    1  0.1465498E-013  0.7246154E+02  0.7816164E-02  0.1226708E+00
        -11   -1    0    0    0    0  0.00000000000E+00  0.00000000000E+00  0.45593999997E+02  0.45594000000E+02  0.51100000000E-03 0.  1.
         11   -1    0    0    0    0 -0.00000000000E+00 -0.00000000000E+00 -0.45593999997E+02  0.45594000000E+02  0.51100000000E-03 0. -1.
    9900012    2    1    2    0    0 -0.73897453367E+01 -0.10212511434E+02  0.13848348654E+02  0.72461535134E+02  0.69999954197E+02 0.  0.
         12    1    1    2    0    0  0.73897453367E+01  0.10212511434E+02 -0.13848348654E+02  0.18726464866E+02  0.00000000000E+00 0. -1.
         11    1    3    3    0    0 -0.59512703450E+01  0.12699581232E+02 -0.16119979277E+02  0.21367047394E+02  0.51100000000E-03 0. -1.
        -11    1    3    3    0    0  0.10148611725E+01  0.90042307146E+01  0.93393185550E+01  0.13012647129E+02  0.51100000000E-03 0.  1.
         12    1    3    3    0    0 -0.24533361642E+01 -0.31916323381E+02  0.20629009376E+02  0.38081840611E+02  0.00000000000E+00 0. -1.
</event>
<event>
 7    1  0.1465498E-013  0.7246163E+02  0.7816164E-02  0.1226708E+00
        -11   -1    0    0    0    0  0.00000000000E+00  0.00000000000E+00  0.45593999997E+02  0.45594000000E+02  0.51100000000E-03 0. -1.
         11   -1    0    0    0    0 -0.00000000000E+00 -0.00000000000E+00 -0.45593999997E+02  0.45594000000E+02  0.51100000000E-03 0.  1.
    9900012    2    1    2    0    0 -0.65003841914E+01  0.11568709896E+02  0.13213126967E+02  0.72461634428E+02  0.70000083545E+02 0.  0.
         12    1    1    2    0    0  0.65003841914E+01 -0.11568709896E+02 -0.13213126967E+02  0.18726365572E+02  0.00000000000E+00 0. -1.
         11    1    3    3    0    0 -0.24064493490E+02  0.12913124429E+02  0.14048283800E+02  0.30711608676E+02  0.51100000000E-03 0. -1.
        -11    1    3    3    0    0 -0.75011952663E+01 -0.13542839896E+01  0.11513418308E+02  0.13807998296E+02  0.51100000000E-03 0.  1.
        -12    1    3    3    0    0  0.25065304565E+02  0.98694565477E-02 -0.12348575140E+02  0.27942027456E+02  0.00000000000E+00 0.  1.
</event>
<event>
 7    1  0.1465498E-013  0.7246157E+02  0.7816164E-02  0.1226708E+00
        -11   -1    0    0    0    0  0.00000000000E+00  0.00000000000E+00  0.45593999997E+02  0.45594000000E+02  0.51100000000E-03 0.  1.
         11   -1    0    0    0    0 -0.00000000000E+00 -0.00000000000E+00 -0.45593999997E+02  0.45594000000E+02  0.51100000000E-03 0. -1.
    9900012    2    1    2    0    0  0.15886717135E+02 -0.50962505826E+01  0.85040916536E+01  0.72461571451E+02  0.70000001507E+02 0.  0.
         12    1    1    2    0    0 -0.15886717135E+02  0.50962505826E+01 -0.85040916536E+01  0.18726428549E+02  0.00000000000E+00 0. -1.
         11    1    3    3    0    0  0.14139390514E+01  0.10443299658E+02 -0.25113756975E+02  0.27235317532E+02  0.51100000000E-03 0. -1.
        -11    1    3    3    0    0  0.39203222274E+01 -0.76183573859E+01 -0.56372609894E+00  0.85863894043E+01  0.51100000000E-03 0.  1.
        -12    1    3    3    0    0  0.10552455856E+02 -0.79211928548E+01  0.34181574728E+02  0.36639864515E+02  0.00000000000E+00 0.  1.
</event>
<event>
 7    1  0.1465498E-013  0.7246157E+02  0.7816164E-02  0.1226708E+00
        -11   -1    0    0    0    0  0.00000000000E+00  0.00000000000E+00  0.45593999997E+02  0.45594000000E+02  0.51100000000E-03 0.  1.
         11   -1    0    0    0    0 -0.00000000000E+00 -0.00000000000E+00 -0.45593999997E+02  0.45594000000E+02  0.51100000000E-03 0. -1.
    9900012    2    1    2    0    0  0.96025310313E+01 -0.16055282407E+02  0.83585714323E+00  0.72461565407E+02  0.69999993634E+02 0.  0.
         12    1    1    2    0    0 -0.96025310313E+01  0.16055282407E+02 -0.83585714323E+00  0.18726434593E+02  0.00000000000E+00 0. -1.
         11    1    3    3    0    0  0.17835133205E+02 -0.17463631124E+02  0.23490624896E+01  0.25071666943E+02  0.51100000000E-03 0. -1.
        -11    1    3    3    0    0 -0.17836076182E+02 -0.18015714298E+02 -0.36648867586E+01  0.25614897432E+02  0.51100000000E-03 0.  1.
         12    1    3    3    0    0  0.96034740081E+01  0.19424063015E+02  0.21516814123E+01  0.21775001032E+02  0.00000000000E+00 0. -1.
</event>
<event>
 7    1  0.1465498E-013  0.7246188E+02  0.7816164E-02  0.1226707E+00
        -11   -1    0    0    0    0  0.00000000000E+00  0.00000000000E+00  0.45593999997E+02  0.45594000000E+02  0.51100000000E-03 0. -1.
         11   -1    0    0    0    0 -0.00000000000E+00 -0.00000000000E+00 -0.45593999997E+02  0.45594000000E+02  0.51100000000E-03 0.  1.
    9900012    2    1    2    0    0  0.21477705941E+01 -0.17635615123E+02 -0.59194481230E+01  0.72461876393E+02  0.70000398749E+02 0.  0.
         12    1    1    2    0    0 -0.21477705941E+01  0.17635615123E+02  0.59194481230E+01  0.18726123607E+02  0.00000000000E+00 0. -1.
         11    1    3    3    0    0  0.60209766883E+01  0.82927636310E+01 -0.95755220486E+01  0.14025430891E+02  0.51100000000E-03 0. -1.
        -11    1    3    3    0    0  0.10684185022E+01 -0.39312607966E+02 -0.78556538119E+01  0.40104039201E+02  0.51100000000E-03 0.  1.
        -12    1    3    3    0    0 -0.49416245963E+01  0.13384229212E+02  0.11511727737E+02  0.18332406300E+02  0.00000000000E+00 0.  1.
</event>
<event>
 7    1  0.1465498E-013  0.7246154E+02  0.7816164E-02  0.1226708E+00
        -11   -1    0    0    0    0  0.00000000000E+00  0.00000000000E+00  0.45593999997E+02  0.45594000000E+02  0.51100000000E-03 0.  1.
         11   -1    0    0    0    0 -0.00000000000E+00 -0.00000000000E+00 -0.45593999997E+02  0.45594000000E+02  0.51100000000E-03 0. -1.
    9900012    2    1    2    0    0  0.17893021619E+01 -0.14061340287E+02  0.12237547190E+02  0.72461535995E+02  0.69999955319E+02 0.  0.
         12    1    1    2    0    0 -0.17893021619E+01  0.14061340287E+02 -0.12237547190E+02  0.18726464005E+02  0.00000000000E+00 0. -1.
         11    1    3    3    0    0  0.55597742075E+01  0.82866363044E+01 -0.10657009131E+00  0.99795184215E+01  0.51100000000E-03 0. -1.
        -11    1    3    3    0    0  0.15730454860E+02 -0.10626087085E+02  0.28735597739E+02  0.34439737435E+02  0.51100000000E-03 0.  1.
        -12    1    3    3    0    0 -0.19500926906E+02 -0.11721889506E+02 -0.16391480458E+02  0.28042280139E+02  0.00000000000E+00 0.  1.
</event>
<event>
 7    1  0.1465498E-013  0.7246157E+02  0.7816164E-02  0.1226708E+00
        -11   -1    0    0    0    0  0.00000000000E+00  0.00000000000E+00  0.45593999997E+02  0.45594000000E+02  0.51100000000E-03 0. -1.
         11   -1    0    0    0    0 -0.00000000000E+00 -0.00000000000E+00 -0.45593999997E+02  0.45594000000E+02  0.51100000000E-03 0.  1.
    9900012    2    1    2    0    0 -0.15362530364E+02 -0.60044029717E+01 -0.88667407920E+01  0.72461567171E+02  0.69999995931E+02 0.  0.
         12    1    1    2    0    0  0.15362530364E+02  0.60044029717E+01  0.88667407920E+01  0.18726432829E+02  0.00000000000E+00 0. -1.
         11    1    3    3    0    0 -0.15201596316E+02  0.13036655614E+02 -0.26875435261E+00  0.20027859330E+02  0.51100000000E-03 0. -1.
        -11    1    3    3    0    0 -0.10329492382E+02 -0.26357028532E+02  0.99889390854E+01  0.30019498167E+02  0.51100000000E-03 0.  1.
         12    1    3    3    0    0  0.10168558334E+02  0.73159699462E+01 -0.18586925525E+02  0.22414209674E+02  0.00000000000E+00 0. -1.
</event>
<event>
 7    1  0.1465498E-013  0.7246155E+02  0.7816164E-02  0.1226708E+00
        -11   -1    0    0    0    0  0.00000000000E+00  0.00000000000E+00  0.45593999997E+02  0.45594000000E+02  0.51100000000E-03 0.  1.
         11   -1    0    0    0    0 -0.00000000000E+00 -0.00000000000E+00 -0.45593999997E+02  0.45594000000E+02  0.51100000000E-03 0. -1.
    9900012    2    1    2    0    0 -0.97781419365E+01 -0.15942962012E+02  0.94326002316E+00  0.72461552475E+02  0.69999976787E+02 0.  0.
         12    1    1    2    0    0  0.97781419365E+01  0.15942962012E+02 -0.94326002316E+00  0.18726447525E+02  0.00000000000E+00 0. -1.
         11    1    3    3    0    0 -0.44852936909E+01 -0.18846712618E+02 -0.10418944877E+02  0.21997064546E+02  0.51100000000E-03 0.  1.
        -11    1    3    3    0    0 -0.17227804107E+02  0.65573881941E+01 -0.13362832593E+02  0.22767561781E+02  0.51100000000E-03 0. -1.
        -12    1    3    3    0    0  0.11934955862E+02 -0.36536375876E+01  0.24725037493E+02  0.27696926148E+02  0.00000000000E+00 0.  1.
</event>
<event>
 7    1  0.1465498E-013  0.7246197E+02  0.7816164E-02  0.1226707E+00
        -11   -1    0    0    0    0  0.00000000000E+00  0.00000000000E+00  0.45593999997E+02  0.45594000000E+02  0.51100000000E-03 0.  1.
         11   -1    0    0    0    0 -0.00000000000E+00 -0.00000000000E+00 -0.45593999997E+02  0.45594000000E+02  0.51100000000E-03 0. -1.
    9900012    2    1    2    0    0 -0.12821562852E+02 -0.43563625622E+01  0.12934218327E+02  0.72461965383E+02  0.70000514675E+02 0.  0.
         12    1    1    2    0    0  0.12821562852E+02  0.43563625622E+01 -0.12934218327E+02  0.18726034617E+02  0.00000000000E+00 0. -1.
         11    1    3    3    0    0 -0.36487841434E+02  0.11918029625E+02 -0.24409493234E+01  0.38462452294E+02  0.51100000000E-03 0. -1.
        -11    1    3    3    0    0  0.76038225447E+01 -0.34814150305E+01  0.26873764439E-01  0.83629594263E+01  0.51100000000E-03 0.  1.
        -12    1    3    3    0    0  0.16062456037E+02 -0.12792977157E+02  0.15348293886E+02  0.25636553663E+02  0.00000000000E+00 0.  1.
</event>
<event>
 7    1  0.1465498E-013  0.7246199E+02  0.7816164E-02  0.1226707E+00
        -11   -1    0    0    0    0  0.00000000000E+00  0.00000000000E+00  0.45593999997E+02  0.45594000000E+02  0.51100000000E-03 0.  1.
         11   -1    0    0    0    0 -0.00000000000E+00 -0.00000000000E+00 -0.45593999997E+02  0.45594000000E+02  0.51100000000E-03 0. -1.
    9900012    2    1    2    0    0  0.36683645241E+01  0.13276145147E+02  0.12686622745E+02  0.72461993354E+02  0.70000551112E+02 0.  0.
         12    1    1    2    0    0 -0.36683645241E+01 -0.13276145147E+02 -0.12686622745E+02  0.18726006646E+02  0.00000000000E+00 0. -1.
         11    1    3    3    0    0 -0.12328137761E+02  0.10067258312E+02 -0.35059745223E+01  0.16297991538E+02  0.51100000000E-03 0. -1.
        -11    1    3    3    0    0  0.26266543585E+01 -0.21825072026E+02 -0.25847551191E+01  0.22134001928E+02  0.51100000000E-03 0.  1.
        -12    1    3    3    0    0  0.13369847926E+02  0.25033958861E+02  0.18777352386E+02  0.34029999889E+02  0.00000000000E+00 0.  1.
</event>
<event>
 7    1  0.1465498E-013  0.7246167E+02  0.7816164E-02  0.1226708E+00
        -11   -1    0    0    0    0  0.00000000000E+00  0.00000000000E+00  0.45593999997E+02  0.45594000000E+02  0.51100000000E-03 0. -1.
         11   -1    0    0    0    0 -0.00000000000E+00 -0.00000000000E+00 -0.45593999997E+02  0.45594000000E+02  0.51100000000E-03 0.  1.
    9900012    2    1    2    0    0  0.14814006577E+02  0.11000984045E+00 -0.11454632625E+02  0.72461668228E+02  0.70000127577E+02 0.  0.
         12    1    1    2    0    0 -0.14814006577E+02 -0.11000984045E+00  0.11454632625E+02  0.18726331772E+02  0.00000000000E+00 0. -1.
         11    1    3    3    0    0  0.37523547112E+01 -0.76538943834E+01  0.93579108291E+01  0.12658307962E+02  0.51100000000E-03 0. -1.
        -11    1    3    3    0    0  0.20277479876E+02 -0.14654178516E+02 -0.24813667006E+02  0.35236901235E+02  0.51100000000E-03 0.  1.
         12    1    3    3    0    0 -0.92158280097E+01  0.22418082740E+02  0.40011235521E+01  0.24566459031E+02  0.00000000000E+00 0. -1.
</event>
<event>
 7    1  0.1465498E-013  0.7246156E+02  0.7816164E-02  0.1226708E+00
        -11   -1    0    0    0    0  0.00000000000E+00  0.00000000000E+00  0.45593999997E+02  0.45594000000E+02  0.51100000000E-03 0. -1.
         11   -1    0    0    0    0 -0.00000000000E+00 -0.00000000000E+00 -0.45593999997E+02  0.45594000000E+02  0.51100000000E-03 0.  1.
    9900012    2    1    2    0    0 -0.79023321678E+01  0.81553436736E+01 -0.14890371719E+02  0.72461557357E+02  0.69999983147E+02 0.  0.
         12    1    1    2    0    0  0.79023321678E+01 -0.81553436736E+01  0.14890371719E+02  0.18726442643E+02  0.00000000000E+00 0. -1.
         11    1    3    3    0    0  0.81613703679E+01  0.34382836092E+02 -0.38320710042E+01  0.35545353458E+02  0.51100000000E-03 0.  1.
        -11    1    3    3    0    0 -0.19409493025E+01 -0.73524673556E+01  0.43432284016E+01  0.87572651907E+01  0.51100000000E-03 0. -1.
        -12    1    3    3    0    0 -0.14122753233E+02 -0.18875025063E+02 -0.15401529117E+02  0.28158938708E+02  0.00000000000E+00 0.  1.
</event>
<event>
 7    1  0.1465498E-013  0.7246207E+02  0.7816164E-02  0.1226707E+00
        -11   -1    0    0    0    0  0.00000000000E+00  0.00000000000E+00  0.45593999997E+02  0.45594000000E+02  0.51100000000E-03 0. -1.
         11   -1    0    0    0    0 -0.00000000000E+00 -0.00000000000E+00 -0.45593999997E+02  0.45594000000E+02  0.51100000000E-03 0.  1.
    9900012    2    1    2    0    0  0.37092758670E+01 -0.17904068133E+02  0.40430185757E+01  0.72462071922E+02  0.70000653461E+02 0.  0.
         12    1    1    2    0    0 -0.37092758670E+01  0.17904068133E+02 -0.40430185757E+01  0.18725928078E+02  0.00000000000E+00 0. -1.
         11    1    3    3    0    0  0.95443880773E+01 -0.38531175410E+01 -0.18365490456E+02  0.21053101874E+02  0.51100000000E-03 0. -1.
        -11    1    3    3    0    0  0.17567910382E+02 -0.19640808831E+01  0.14289765929E+01  0.17735023633E+02  0.51100000000E-03 0.  1.
         12    1    3    3    0    0 -0.23403022592E+02 -0.12086869709E+02  0.20979532439E+02  0.33673946415E+02  0.00000000000E+00 0. -1.
</event>
<event>
 7    1  0.1465498E-013  0.7246164E+02  0.7816164E-02  0.1226708E+00
        -11   -1    0    0    0    0  0.00000000000E+00  0.00000000000E+00  0.45593999997E+02  0.45594000000E+02  0.51100000000E-03 0.  1.
         11   -1    0    0    0    0 -0.00000000000E+00 -0.00000000000E+00 -0.45593999997E+02  0.45594000000E+02  0.51100000000E-03 0. -1.
    9900012    2    1    2    0    0 -0.22898427064E+01 -0.13896588477E+02  0.12341720855E+02  0.72461638245E+02  0.70000088518E+02 0.  0.
         12    1    1    2    0    0  0.22898427064E+01  0.13896588477E+02 -0.12341720855E+02  0.18726361755E+02  0.00000000000E+00 0. -1.
         11    1    3    3    0    0  0.10292339305E+02  0.98083796802E+00  0.78486103427E+01  0.12980561470E+02  0.51100000000E-03 0. -1.
        -11    1    3    3    0    0  0.19272877682E+02 -0.39367826436E+01  0.14393719222E+02  0.24374602049E+02  0.51100000000E-03 0.  1.
         12    1    3    3    0    0 -0.31855059694E+02 -0.10940643801E+02 -0.99006087097E+01  0.35106474726E+02  0.00000000000E+00 0. -1.
</event>
<event>
 7    1  0.1465498E-013  0.7246163E+02  0.7816164E-02  0.1226708E+00
        -11   -1    0    0    0    0  0.00000000000E+00  0.00000000000E+00  0.45593999997E+02  0.45594000000E+02  0.51100000000E-03 0.  1.
         11   -1    0    0    0    0 -0.00000000000E+00 -0.00000000000E+00 -0.45593999997E+02  0.45594000000E+02  0.51100000000E-03 0. -1.
    9900012    2    1    2    0    0  0.16921423726E+02  0.79622740262E+01 -0.97187292742E+00  0.72461630209E+02  0.70000078049E+02 0.  0.
         12    1    1    2    0    0 -0.16921423726E+02 -0.79622740262E+01  0.97187292742E+00  0.18726369791E+02  0.00000000000E+00 0. -1.
         11    1    3    3    0    0 -0.75864774400E+01  0.94236776697E+01 -0.10335706184E+01  0.12142018335E+02  0.51100000000E-03 0. -1.
        -11    1    3    3    0    0  0.10265105275E+02  0.53111741389E+01  0.26850977518E+02  0.29232788970E+02  0.51100000000E-03 0.  1.
         12    1    3    3    0    0  0.14242795891E+02 -0.67725777824E+01 -0.26789279827E+02  0.31086822903E+02  0.00000000000E+00 0. -1.
</event>
<event>
 7    1  0.1915138E-013  0.7246158E+02  0.7816164E-02  0.1226708E+00
        -11   -1    0    0    0    0  0.00000000000E+00  0.00000000000E+00  0.45593999997E+02  0.45594000000E+02  0.51100000000E-03 0. -1.
         11   -1    0    0    0    0 -0.00000000000E+00 -0.00000000000E+00 -0.45593999997E+02  0.45594000000E+02  0.51100000000E-03 0.  1.
    9900012    2    1    2    0    0 -0.16701301669E+01 -0.13915328921E+02 -0.12419867779E+02  0.72461579376E+02  0.70000011830E+02 0.  0.
         12    1    1    2    0    0  0.16701301669E+01  0.13915328921E+02  0.12419867779E+02  0.18726420624E+02  0.00000000000E+00 0. -1.
         11    1    3    3    0    0 -0.27162860145E+02 -0.65431139784E+01 -0.23416439438E+01  0.28037771102E+02  0.51100000000E-03 0. -1.
        -11    1    3    3    0    0  0.14406234055E+02 -0.30546896864E+01  0.12229029050E+02  0.19142096554E+02  0.51100000000E-03 0.  1.
        -12    1    3    3    0    0  0.11086495923E+02 -0.43175252558E+01 -0.22307252885E+02  0.25281711719E+02  0.00000000000E+00 0.  1.
</event>
<event>
 7    1  0.1465498E-013  0.7246157E+02  0.7816164E-02  0.1226708E+00
        -11   -1    0    0    0    0  0.00000000000E+00  0.00000000000E+00  0.45593999997E+02  0.45594000000E+02  0.51100000000E-03 0.  1.
         11   -1    0    0    0    0 -0.00000000000E+00 -0.00000000000E+00 -0.45593999997E+02  0.45594000000E+02  0.51100000000E-03 0. -1.
    9900012    2    1    2    0    0 -0.99206676462E+01 -0.47080460447E+01  0.15168846401E+02  0.72461568273E+02  0.69999997367E+02 0.  0.
         12    1    1    2    0    0  0.99206676462E+01  0.47080460447E+01 -0.15168846401E+02  0.18726431727E+02  0.00000000000E+00 0. -1.
         11    1    3    3    0    0 -0.13210704525E+02 -0.69077317902E+01  0.52521430961E+01  0.15805836893E+02  0.51100000000E-03 0. -1.
        -11    1    3    3    0    0  0.39720863680E+01 -0.13784035071E+02  0.28638023448E+02  0.32029884175E+02  0.51100000000E-03 0.  1.
         12    1    3    3    0    0 -0.68204948937E+00  0.15983720817E+02 -0.18721320144E+02  0.24625847205E+02  0.00000000000E+00 0. -1.
</event>
<event>
 7    1  0.1465498E-013  0.7246159E+02  0.7816164E-02  0.1226708E+00
        -11   -1    0    0    0    0  0.00000000000E+00  0.00000000000E+00  0.45593999997E+02  0.45594000000E+02  0.51100000000E-03 0.  1.
         11   -1    0    0    0    0 -0.00000000000E+00 -0.00000000000E+00 -0.45593999997E+02  0.45594000000E+02  0.51100000000E-03 0. -1.
    9900012    2    1    2    0    0  0.48208798180E+01 -0.18056528373E+02  0.11828787418E+01  0.72461593478E+02  0.70000030201E+02 0.  0.
         12    1    1    2    0    0 -0.48208798180E+01  0.18056528373E+02 -0.11828787418E+01  0.18726406522E+02  0.00000000000E+00 0. -1.
         11    1    3    3    0    0 -0.34804192540E+00 -0.18210084894E+01 -0.32567367819E+02  0.32620095831E+02  0.51100000000E-03 0. -1.
        -11    1    3    3    0    0 -0.25867881959E+01 -0.67788955268E+01  0.56532038732E+01  0.91980221802E+01  0.51100000000E-03 0.  1.
        -12    1    3    3    0    0  0.77557099393E+01 -0.94566243572E+01  0.28097042688E+02  0.30643475467E+02  0.00000000000E+00 0.  1.
</event>
<event>
 7    1  0.1465498E-013  0.7246155E+02  0.7816164E-02  0.1226708E+00
        -11   -1    0    0    0    0  0.00000000000E+00  0.00000000000E+00  0.45593999997E+02  0.45594000000E+02  0.51100000000E-03 0.  1.
         11   -1    0    0    0    0 -0.00000000000E+00 -0.00000000000E+00 -0.45593999997E+02  0.45594000000E+02  0.51100000000E-03 0. -1.
    9900012    2    1    2    0    0 -0.88422352544E+01 -0.14863036688E+02  0.71822623720E+01  0.72461551414E+02  0.69999975405E+02 0.  0.
         12    1    1    2    0    0  0.88422352544E+01  0.14863036688E+02 -0.71822623720E+01  0.18726448586E+02  0.00000000000E+00 0. -1.
         11    1    3    3    0    0 -0.14268219309E+02 -0.20301387978E+02  0.10804028482E+02  0.27063914495E+02  0.51100000000E-03 0. -1.
        -11    1    3    3    0    0 -0.57275168551E+01 -0.16452820946E+02  0.68113093507E+01  0.18705445777E+02  0.51100000000E-03 0.  1.
         12    1    3    3    0    0  0.11153500909E+02  0.21891172236E+02 -0.10433075461E+02  0.26692191142E+02  0.00000000000E+00 0. -1.
</event>
<event>
 7    1  0.1465498E-013  0.7246159E+02  0.7816164E-02  0.1226708E+00
        -11   -1    0    0    0    0  0.00000000000E+00  0.00000000000E+00  0.45593999997E+02  0.45594000000E+02  0.51100000000E-03 0.  1.
         11   -1    0    0    0    0 -0.00000000000E+00 -0.00000000000E+00 -0.45593999997E+02  0.45594000000E+02  0.51100000000E-03 0. -1.
    9900012    2    1    2    0    0 -0.69140464228E+01 -0.37525867634E+01  0.16993896622E+02  0.72461589031E+02  0.70000024408E+02 0.  0.
         12    1    1    2    0    0  0.69140464228E+01  0.37525867634E+01 -0.16993896622E+02  0.18726410969E+02  0.00000000000E+00 0. -1.
         11    1    3    3    0    0 -0.17266329861E+01  0.26715741774E+01 -0.43066014270E+01  0.53540065528E+01  0.51100000000E-03 0. -1.
        -11    1    3    3    0    0  0.28095122604E+02  0.47347102569E+01  0.10766881276E+02  0.30457825399E+02  0.51100000000E-03 0.  1.
         12    1    3    3    0    0 -0.33282536040E+02 -0.11158871198E+02  0.10533616773E+02  0.36649757080E+02  0.00000000000E+00 0. -1.
</event>
<event>
 7    1  0.1465498E-013  0.7246153E+02  0.7816164E-02  0.1226708E+00
        -11   -1    0    0    0    0  0.00000000000E+00  0.00000000000E+00  0.45593999997E+02  0.45594000000E+02  0.51100000000E-03 0. -1.
         11   -1    0    0    0    0 -0.00000000000E+00 -0.00000000000E+00 -0.45593999997E+02  0.45594000000E+02  0.51100000000E-03 0.  1.
    9900012    2    1    2    0    0  0.15631579330E+02 -0.64980978079E+01 -0.80068143599E+01  0.72461531469E+02  0.69999949422E+02 0.  0.
         12    1    1    2    0    0 -0.15631579330E+02  0.64980978079E+01  0.80068143599E+01  0.18726468531E+02  0.00000000000E+00 0. -1.
         11    1    3    3    0    0  0.50249162583E+01 -0.16265144792E+02 -0.11493187285E+02  0.20540157563E+02  0.51100000000E-03 0.  1.
        -11    1    3    3    0    0  0.24715488348E+02 -0.54907756889E+01 -0.99187955756E+01  0.27191662102E+02  0.51100000000E-03 0. -1.
         12    1    3    3    0    0 -0.14108825276E+02  0.15257822673E+02  0.13405168500E+02  0.24729711804E+02  0.00000000000E+00 0. -1.
</event>
<event>
 7    1  0.1465498E-013  0.7246170E+02  0.7816164E-02  0.1226708E+00
        -11   -1    0    0    0    0  0.00000000000E+00  0.00000000000E+00  0.45593999997E+02  0.45594000000E+02  0.51100000000E-03 0.  1.
         11   -1    0    0    0    0 -0.00000000000E+00 -0.00000000000E+00 -0.45593999997E+02  0.45594000000E+02  0.51100000000E-03 0. -1.
    9900012    2    1    2    0    0  0.16457209837E+02  0.73262801902E+01  0.51146915270E+01  0.72461702810E+02  0.70000172626E+02 0.  0.
         12    1    1    2    0    0 -0.16457209837E+02 -0.73262801902E+01 -0.51146915270E+01  0.18726297190E+02  0.00000000000E+00 0. -1.
         11    1    3    3    0    0  0.82033222547E+01 -0.11541813956E+02 -0.35931958018E+01  0.14608867915E+02  0.51100000000E-03 0. -1.
        -11    1    3    3    0    0  0.17005060855E+02  0.24629341513E+02  0.24651563785E+02  0.38774684465E+02  0.51100000000E-03 0.  1.
         12    1    3    3    0    0 -0.87511732732E+01 -0.57612473665E+01 -0.15943676457E+02  0.19078150430E+02  0.00000000000E+00 0. -1.
</event>
<event>
 7    1  0.1465498E-013  0.7246155E+02  0.7816164E-02  0.1226708E+00
        -11   -1    0    0    0    0  0.00000000000E+00  0.00000000000E+00  0.45593999997E+02  0.45594000000E+02  0.51100000000E-03 0. -1.
         11   -1    0    0    0    0 -0.00000000000E+00 -0.00000000000E+00 -0.45593999997E+02  0.45594000000E+02  0.51100000000E-03 0.  1.
    9900012    2    1    2    0    0 -0.56088137619E+00  0.47541308576E+01  0.18104243446E+02  0.72461548684E+02  0.69999971849E+02 0.  0.
         12    1    1    2    0    0  0.56088137619E+00 -0.47541308576E+01 -0.18104243446E+02  0.18726451316E+02  0.00000000000E+00 0. -1.
         11    1    3    3    0    0  0.92877854796E+01  0.93656829652E+01  0.32989093838E+02  0.35528288575E+02  0.51100000000E-03 0. -1.
        -11    1    3    3    0    0 -0.12237983671E+02 -0.35054279019E+01  0.72449545461E+01  0.14647376411E+02  0.51100000000E-03 0.  1.
        -12    1    3    3    0    0  0.23893168148E+01 -0.11061242057E+01 -0.22129804938E+02  0.22285883698E+02  0.00000000000E+00 0.  1.
</event>
<event>
 7    1  0.1465498E-013  0.7246161E+02  0.7816164E-02  0.1226708E+00
        -11   -1    0    0    0    0  0.00000000000E+00  0.00000000000E+00  0.45593999997E+02  0.45594000000E+02  0.51100000000E-03 0.  1.
         11   -1    0    0    0    0 -0.00000000000E+00 -0.00000000000E+00 -0.45593999997E+02  0.45594000000E+02  0.51100000000E-03 0. -1.
    9900012    2    1    2    0    0  0.13232220824E+02  0.89460405939E+01  0.97751939786E+01  0.72461608795E+02  0.70000050154E+02 0.  0.
         12    1    1    2    0    0 -0.13232220824E+02 -0.89460405939E+01 -0.97751939786E+01  0.18726391205E+02  0.00000000000E+00 0. -1.
         11    1    3    3    0    0  0.10193535768E+02 -0.11483755838E+02  0.45135309018E+01  0.16004898658E+02  0.51100000000E-03 0. -1.
        -11    1    3    3    0    0  0.19544764629E+02  0.27479700765E+02  0.13977950330E+02  0.36503628234E+02  0.51100000000E-03 0.  1.
         12    1    3    3    0    0 -0.16506079572E+02 -0.70499043335E+01 -0.87162872528E+01  0.19953081903E+02  0.00000000000E+00 0. -1.
</event>
<event>
 7    1  0.1465498E-013  0.7246160E+02  0.7816164E-02  0.1226708E+00
        -11   -1    0    0    0    0  0.00000000000E+00  0.00000000000E+00  0.45593999997E+02  0.45594000000E+02  0.51100000000E-03 0.  1.
         11   -1    0    0    0    0 -0.00000000000E+00 -0.00000000000E+00 -0.45593999997E+02  0.45594000000E+02  0.51100000000E-03 0. -1.
    9900012    2    1    2    0    0 -0.15846350093E+02  0.17063678997E+01  0.98315667098E+01  0.72461596003E+02  0.70000033490E+02 0.  0.
         12    1    1    2    0    0  0.15846350093E+02 -0.17063678997E+01 -0.98315667098E+01  0.18726403997E+02  0.00000000000E+00 0. -1.
         11    1    3    3    0    0  0.91123171038E+01  0.10953373940E+02 -0.17483842393E+02  0.22554278281E+02  0.51100000000E-03 0. -1.
        -11    1    3    3    0    0 -0.59700742452E+01  0.97106423956E+01 -0.30022221985E+00  0.11403003809E+02  0.51100000000E-03 0.  1.
        -12    1    3    3    0    0 -0.18988592952E+02 -0.18957648436E+02  0.27615631323E+02  0.38504313913E+02  0.00000000000E+00 0.  1.
</event>
<event>
 7    1  0.1465498E-013  0.7246146E+02  0.7816164E-02  0.1226708E+00
        -11   -1    0    0    0    0  0.00000000000E+00  0.00000000000E+00  0.45593999997E+02  0.45594000000E+02  0.51100000000E-03 0. -1.
         11   -1    0    0    0    0 -0.00000000000E+00 -0.00000000000E+00 -0.45593999997E+02  0.45594000000E+02  0.51100000000E-03 0.  1.
    9900012    2    1    2    0    0  0.18558298645E+02  0.25041947595E+01  0.41567355894E-01  0.72461463539E+02  0.69999860931E+02 0.  0.
         12    1    1    2    0    0 -0.18558298645E+02 -0.25041947595E+01 -0.41567355894E-01  0.18726536461E+02  0.00000000000E+00 0. -1.
         11    1    3    3    0    0  0.30412903205E+02  0.33653766010E+01  0.24445543561E+02  0.39164461458E+02  0.51100000000E-03 0. -1.
        -11    1    3    3    0    0 -0.14992106551E+01 -0.89275977392E+01 -0.67223410854E+01  0.11275615456E+02  0.51100000000E-03 0.  1.
        -12    1    3    3    0    0 -0.10355393905E+02  0.80664158977E+01 -0.17681635120E+02  0.22021386625E+02  0.00000000000E+00 0.  1.
</event>
<event>
 7    1  0.1465498E-013  0.7246151E+02  0.7816164E-02  0.1226708E+00
        -11   -1    0    0    0    0  0.00000000000E+00  0.00000000000E+00  0.45593999997E+02  0.45594000000E+02  0.51100000000E-03 0.  1.
         11   -1    0    0    0    0 -0.00000000000E+00 -0.00000000000E+00 -0.45593999997E+02  0.45594000000E+02  0.51100000000E-03 0. -1.
    9900012    2    1    2    0    0  0.11405414594E+02  0.72895702654E+01  0.12940637032E+02  0.72461510646E+02  0.69999922297E+02 0.  0.
         12    1    1    2    0    0 -0.11405414594E+02 -0.72895702654E+01 -0.12940637032E+02  0.18726489354E+02  0.00000000000E+00 0. -1.
         11    1    3    3    0    0  0.38064267704E+01 -0.21772943293E+01  0.18139737795E+02  0.18662250210E+02  0.51100000000E-03 0. -1.
        -11    1    3    3    0    0  0.19353233040E+02  0.12824884110E+02  0.16782270808E+02  0.28647336618E+02  0.51100000000E-03 0.  1.
         12    1    3    3    0    0 -0.11754245216E+02 -0.33580195157E+01 -0.21981371571E+02  0.25151923819E+02  0.00000000000E+00 0. -1.
</event>
<event>
 7    1  0.1465498E-013  0.7246155E+02  0.7816164E-02  0.1226708E+00
        -11   -1    0    0    0    0  0.00000000000E+00  0.00000000000E+00  0.45593999997E+02  0.45594000000E+02  0.51100000000E-03 0. -1.
         11   -1    0    0    0    0 -0.00000000000E+00 -0.00000000000E+00 -0.45593999997E+02  0.45594000000E+02  0.51100000000E-03 0.  1.
    9900012    2    1    2    0    0  0.17755918234E+02  0.49399634891E+01  0.33172309680E+01  0.72461550980E+02  0.69999974840E+02 0.  0.
         12    1    1    2    0    0 -0.17755918234E+02 -0.49399634891E+01 -0.33172309680E+01  0.18726449020E+02  0.00000000000E+00 0. -1.
         11    1    3    3    0    0 -0.63470124490E+01  0.22495709094E+02 -0.19962388116E+02  0.30738224318E+02  0.51100000000E-03 0.  1.
        -11    1    3    3    0    0  0.11615027377E+02 -0.17242443210E+02  0.19908291260E+02  0.28784557839E+02  0.51100000000E-03 0. -1.
        -12    1    3    3    0    0  0.12487903306E+02 -0.31330239516E+00  0.33713278235E+01  0.12938768823E+02  0.00000000000E+00 0.  1.
</event>
<event>
 7    1  0.1465498E-013  0.7246151E+02  0.7816164E-02  0.1226708E+00
        -11   -1    0    0    0    0  0.00000000000E+00  0.00000000000E+00  0.45593999997E+02  0.45594000000E+02  0.51100000000E-03 0.  1.
         11   -1    0    0    0    0 -0.00000000000E+00 -0.00000000000E+00 -0.45593999997E+02  0.45594000000E+02  0.51100000000E-03 0. -1.
    9900012    2    1    2    0    0  0.11716499271E+02 -0.88429468457E+01  0.11627870674E+02  0.72461509659E+02  0.69999921011E+02 0.  0.
         12    1    1    2    0    0 -0.11716499271E+02  0.88429468457E+01 -0.11627870674E+02  0.18726490341E+02  0.00000000000E+00 0. -1.
         11    1    3    3    0    0 -0.13402836568E+02 -0.82171207413E+01  0.77535824517E+01  0.17529265314E+02  0.51100000000E-03 0.  1.
        -11    1    3    3    0    0  0.21570282119E+02  0.18755865442E+02  0.15024323385E+02  0.32292256852E+02  0.51100000000E-03 0. -1.
         12    1    3    3    0    0  0.35490537208E+01 -0.19381691546E+02 -0.11150035163E+02  0.22639987492E+02  0.00000000000E+00 0. -1.
</event>
<event>
 7    1  0.1465498E-013  0.7246157E+02  0.7816164E-02  0.1226708E+00
        -11   -1    0    0    0    0  0.00000000000E+00  0.00000000000E+00  0.45593999997E+02  0.45594000000E+02  0.51100000000E-03 0.  1.
         11   -1    0    0    0    0 -0.00000000000E+00 -0.00000000000E+00 -0.45593999997E+02  0.45594000000E+02  0.51100000000E-03 0. -1.
    9900012    2    1    2    0    0 -0.56275758631E+01  0.69324267451E+01  0.16460589476E+02  0.72461570640E+02  0.70000000450E+02 0.  0.
         12    1    1    2    0    0  0.56275758631E+01 -0.69324267451E+01 -0.16460589476E+02  0.18726429360E+02  0.00000000000E+00 0. -1.
         11    1    3    3    0    0 -0.23451710475E+02  0.19985397413E+02  0.72287025763E+01  0.31648901642E+02  0.51100000000E-03 0. -1.
        -11    1    3    3    0    0 -0.95521808104E+01 -0.47600543100E+00  0.12440509778E+01  0.96446048391E+01  0.51100000000E-03 0.  1.
         12    1    3    3    0    0  0.27376315423E+02 -0.12576965237E+02  0.79878359220E+01  0.31168064159E+02  0.00000000000E+00 0. -1.
</event>
<event>
 7    1  0.1465498E-013  0.7246156E+02  0.7816164E-02  0.1226708E+00
        -11   -1    0    0    0    0  0.00000000000E+00  0.00000000000E+00  0.45593999997E+02  0.45594000000E+02  0.51100000000E-03 0. -1.
         11   -1    0    0    0    0 -0.00000000000E+00 -0.00000000000E+00 -0.45593999997E+02  0.45594000000E+02  0.51100000000E-03 0.  1.
    9900012    2    1    2    0    0  0.18012003752E+02 -0.48812397932E+01  0.15558567357E+01  0.72461562238E+02  0.69999989505E+02 0.  0.
         12    1    1    2    0    0 -0.18012003752E+02  0.48812397932E+01 -0.15558567357E+01  0.18726437762E+02  0.00000000000E+00 0. -1.
         11    1    3    3    0    0 -0.18702991348E+02  0.18607294804E+01 -0.19361515688E+01  0.18894784538E+02  0.51100000000E-03 0. -1.
        -11    1    3    3    0    0 -0.20898840237E+01 -0.46778482600E+01 -0.10966592429E+02  0.12104380585E+02  0.51100000000E-03 0.  1.
        -12    1    3    3    0    0  0.38804879124E+02 -0.20641210137E+01  0.14458600734E+02  0.41462397115E+02  0.00000000000E+00 0.  1.
</event>
<event>
 7    1  0.1465498E-013  0.7246157E+02  0.7816164E-02  0.1226708E+00
        -11   -1    0    0    0    0  0.00000000000E+00  0.00000000000E+00  0.45593999997E+02  0.45594000000E+02  0.51100000000E-03 0. -1.
         11   -1    0    0    0    0 -0.00000000000E+00 -0.00000000000E+00 -0.45593999997E+02  0.45594000000E+02  0.51100000000E-03 0.  1.
    9900012    2    1    2    0    0 -0.34682362988E+01  0.16649082638E+02 -0.78395536856E+01  0.72461569008E+02  0.69999998325E+02 0.  0.
         12    1    1    2    0    0  0.34682362988E+01 -0.16649082638E+02  0.78395536856E+01  0.18726430992E+02  0.00000000000E+00 0. -1.
         11    1    3    3    0    0  0.48167233357E+01 -0.19534604844E+02  0.32358664494E+01  0.20378234517E+02  0.51100000000E-03 0. -1.
        -11    1    3    3    0    0  0.92664880135E+00 -0.67272069444E+01  0.11114308440E+00  0.67916378231E+01  0.51100000000E-03 0.  1.
        -12    1    3    3    0    0 -0.92116084358E+01  0.42910894426E+02 -0.11186563219E+02  0.45291696668E+02  0.00000000000E+00 0.  1.
</event>
<event>
 7    1  0.1465498E-013  0.7246156E+02  0.7816164E-02  0.1226708E+00
        -11   -1    0    0    0    0  0.00000000000E+00  0.00000000000E+00  0.45593999997E+02  0.45594000000E+02  0.51100000000E-03 0. -1.
         11   -1    0    0    0    0 -0.00000000000E+00 -0.00000000000E+00 -0.45593999997E+02  0.45594000000E+02  0.51100000000E-03 0.  1.
    9900012    2    1    2    0    0  0.16015901267E+02  0.63664520158E+01 -0.73238603209E+01  0.72461555205E+02  0.69999980343E+02 0.  0.
         12    1    1    2    0    0 -0.16015901267E+02 -0.63664520158E+01  0.73238603209E+01  0.18726444795E+02  0.00000000000E+00 0. -1.
         11    1    3    3    0    0  0.73351893932E+01 -0.37965687500E+01 -0.55977489086E+00  0.82784229113E+01  0.51100000000E-03 0. -1.
        -11    1    3    3    0    0  0.22769433674E+02  0.21900986381E+02 -0.23485826436E+02  0.39366030508E+02  0.51100000000E-03 0.  1.
         12    1    3    3    0    0 -0.14088721800E+02 -0.11737965615E+02  0.16721741006E+02  0.24817101785E+02  0.00000000000E+00 0. -1.
</event>
<event>
 7    1  0.1465498E-013  0.7246143E+02  0.7816164E-02  0.1226708E+00
        -11   -1    0    0    0    0  0.00000000000E+00  0.00000000000E+00  0.45593999997E+02  0.45594000000E+02  0.51100000000E-03 0. -1.
         11   -1    0    0    0    0 -0.00000000000E+00 -0.00000000000E+00 -0.45593999997E+02  0.45594000000E+02  0.51100000000E-03 0.  1.
    9900012    2    1    2    0    0 -0.14635284466E+02 -0.42535258689E+01  0.10881193418E+02  0.72461430535E+02  0.69999817937E+02 0.  0.
         12    1    1    2    0    0  0.14635284466E+02  0.42535258689E+01 -0.10881193418E+02  0.18726569465E+02  0.00000000000E+00 0. -1.
         11    1    3    3    0    0 -0.21318312170E+02 -0.15616751807E+02  0.19714500948E+02  0.32969909292E+02  0.51100000000E-03 0. -1.
        -11    1    3    3    0    0  0.83994930608E+01 -0.98824894514E+01  0.51982068536E+01  0.13972703253E+02  0.51100000000E-03 0.  1.
        -12    1    3    3    0    0 -0.17164653570E+01  0.21245715390E+02 -0.14031514384E+02  0.25518817991E+02  0.00000000000E+00 0.  1.
</event>
<event>
 7    1  0.1465498E-013  0.7246157E+02  0.7816164E-02  0.1226708E+00
        -11   -1    0    0    0    0  0.00000000000E+00  0.00000000000E+00  0.45593999997E+02  0.45594000000E+02  0.51100000000E-03 0.  1.
         11   -1    0    0    0    0 -0.00000000000E+00 -0.00000000000E+00 -0.45593999997E+02  0.45594000000E+02  0.51100000000E-03 0. -1.
    9900012    2    1    2    0    0 -0.25356620020E+00 -0.16710051632E+02  0.84491962907E+01  0.72461573771E+02  0.70000004529E+02 0.  0.
         12    1    1    2    0    0  0.25356620020E+00  0.16710051632E+02 -0.84491962907E+01  0.18726426229E+02  0.00000000000E+00 0. -1.
         11    1    3    3    0    0  0.80716325799E+01  0.15562465214E+02 -0.76055469458E+00  0.17547649978E+02  0.51100000000E-03 0. -1.
        -11    1    3    3    0    0 -0.12512667334E+02  0.12215128035E+01  0.16136320146E+02  0.20455800289E+02  0.51100000000E-03 0.  1.
        -12    1    3    3    0    0  0.41874685539E+01 -0.33494029650E+02 -0.69265691607E+01  0.34458123504E+02  0.00000000000E+00 0.  1.
</event>
<event>
 7    1  0.1465498E-013  0.7246234E+02  0.7816164E-02  0.1226706E+00
        -11   -1    0    0    0    0  0.00000000000E+00  0.00000000000E+00  0.45593999997E+02  0.45594000000E+02  0.51100000000E-03 0. -1.
         11   -1    0    0    0    0 -0.00000000000E+00 -0.00000000000E+00 -0.45593999997E+02  0.45594000000E+02  0.51100000000E-03 0.  1.
    9900012    2    1    2    0    0 -0.90555988217E+01 -0.11614167377E+02 -0.11565358853E+02  0.72462341687E+02  0.70001004875E+02 0.  0.
         12    1    1    2    0    0  0.90555988217E+01  0.11614167377E+02  0.11565358853E+02  0.18725658313E+02  0.00000000000E+00 0. -1.
         11    1    3    3    0    0  0.26654453169E+01 -0.29823136083E+01 -0.26464131377E+01  0.47960708869E+01  0.51100000000E-03 0. -1.
        -11    1    3    3    0    0 -0.17530564774E+02 -0.29738787079E+02 -0.23141428480E+02  0.41560099502E+02  0.51100000000E-03 0.  1.
         12    1    3    3    0    0  0.58095206354E+01  0.21106933311E+02  0.14222482765E+02  0.26106171298E+02  0.00000000000E+00 0. -1.
</event>
<event>
 7    1  0.1465498E-013  0.7246159E+02  0.7816164E-02  0.1226708E+00
        -11   -1    0    0    0    0  0.00000000000E+00  0.00000000000E+00  0.45593999997E+02  0.45594000000E+02  0.51100000000E-03 0. -1.
         11   -1    0    0    0    0 -0.00000000000E+00 -0.00000000000E+00 -0.45593999997E+02  0.45594000000E+02  0.51100000000E-03 0.  1.
    9900012    2    1    2    0    0 -0.23025251568E+01  0.79781017931E+01 -0.16784720926E+02  0.72461585851E+02  0.70000020266E+02 0.  0.
         12    1    1    2    0    0  0.23025251568E+01 -0.79781017931E+01  0.16784720926E+02  0.18726414149E+02  0.00000000000E+00 0. -1.
         11    1    3    3    0    0  0.10538108390E+01  0.53148510600E+01  0.52665318225E+01  0.75560913688E+01  0.51100000000E-03 0. -1.
        -11    1    3    3    0    0  0.20464319934E+02  0.13596821030E+01 -0.32843816121E+02  0.38721484778E+02  0.51100000000E-03 0.  1.
         12    1    3    3    0    0 -0.23820655929E+02  0.13035686301E+01  0.10792563372E+02  0.26184009705E+02  0.00000000000E+00 0. -1.
</event>
<event>
 7    1  0.1465498E-013  0.7246157E+02  0.7816164E-02  0.1226708E+00
        -11   -1    0    0    0    0  0.00000000000E+00  0.00000000000E+00  0.45593999997E+02  0.45594000000E+02  0.51100000000E-03 0.  1.
         11   -1    0    0    0    0 -0.00000000000E+00 -0.00000000000E+00 -0.45593999997E+02  0.45594000000E+02  0.51100000000E-03 0. -1.
    9900012    2    1    2    0    0  0.11766663431E+02 -0.12878682048E+02  0.68091431020E+01  0.72461568162E+02  0.69999997223E+02 0.  0.
         12    1    1    2    0    0 -0.11766663431E+02  0.12878682048E+02 -0.68091431020E+01  0.18726431838E+02  0.00000000000E+00 0. -1.
         11    1    3    3    0    0 -0.50641465659E+01 -0.29857445427E+02 -0.11444595852E+02  0.32374239796E+02  0.51100000000E-03 0. -1.
        -11    1    3    3    0    0 -0.50244176152E+01 -0.13191201060E+01  0.84986336459E+01  0.99605032170E+01  0.51100000000E-03 0.  1.
        -12    1    3    3    0    0  0.21855227612E+02  0.18297883485E+02  0.97551053085E+01  0.30126825150E+02  0.00000000000E+00 0.  1.
</event>
<event>
 7    1  0.1465498E-013  0.7246148E+02  0.7816164E-02  0.1226708E+00
        -11   -1    0    0    0    0  0.00000000000E+00  0.00000000000E+00  0.45593999997E+02  0.45594000000E+02  0.51100000000E-03 0.  1.
         11   -1    0    0    0    0 -0.00000000000E+00 -0.00000000000E+00 -0.45593999997E+02  0.45594000000E+02  0.51100000000E-03 0. -1.
    9900012    2    1    2    0    0  0.97025543539E+01 -0.99709165837E+01  0.12534898599E+02  0.72461483469E+02  0.69999886894E+02 0.  0.
         12    1    1    2    0    0 -0.97025543539E+01  0.99709165837E+01 -0.12534898599E+02  0.18726516531E+02  0.00000000000E+00 0. -1.
         11    1    3    3    0    0 -0.20541167317E+01 -0.66018609163E+01 -0.22298303061E+02  0.23345626631E+02  0.51100000000E-03 0. -1.
        -11    1    3    3    0    0  0.14332533235E+02 -0.14044847008E+02  0.11023240736E+02  0.22895219436E+02  0.51100000000E-03 0.  1.
        -12    1    3    3    0    0 -0.25758621496E+01  0.10675791341E+02  0.23809960924E+02  0.26220637403E+02  0.00000000000E+00 0.  1.
</event>
<event>
 7    1  0.1465498E-013  0.7246183E+02  0.7816164E-02  0.1226707E+00
        -11   -1    0    0    0    0  0.00000000000E+00  0.00000000000E+00  0.45593999997E+02  0.45594000000E+02  0.51100000000E-03 0.  1.
         11   -1    0    0    0    0 -0.00000000000E+00 -0.00000000000E+00 -0.45593999997E+02  0.45594000000E+02  0.51100000000E-03 0. -1.
    9900012    2    1    2    0    0  0.17827629535E+02  0.91091495614E+00 -0.56582108151E+01  0.72461828728E+02  0.70000336657E+02 0.  0.
         12    1    1    2    0    0 -0.17827629535E+02 -0.91091495614E+00  0.56582108151E+01  0.18726171272E+02  0.00000000000E+00 0. -1.
         11    1    3    3    0    0  0.95566690645E+00  0.27171033714E+02 -0.20146524743E+02  0.33838747492E+02  0.51100000000E-03 0. -1.
        -11    1    3    3    0    0  0.40819520362E+01 -0.15920624601E+02 -0.39732328927E+00  0.16440391911E+02  0.51100000000E-03 0.  1.
        -12    1    3    3    0    0  0.12790010592E+02 -0.10339494157E+02  0.14885637217E+02  0.22182689326E+02  0.00000000000E+00 0.  1.
</event>
<event>
 7    1  0.1465498E-013  0.7246160E+02  0.7816164E-02  0.1226708E+00
        -11   -1    0    0    0    0  0.00000000000E+00  0.00000000000E+00  0.45593999997E+02  0.45594000000E+02  0.51100000000E-03 0.  1.
         11   -1    0    0    0    0 -0.00000000000E+00 -0.00000000000E+00 -0.45593999997E+02  0.45594000000E+02  0.51100000000E-03 0. -1.
    9900012    2    1    2    0    0 -0.12072700544E+02 -0.10602050198E+02  0.96189645323E+01  0.72461600306E+02  0.70000039096E+02 0.  0.
         12    1    1    2    0    0  0.12072700544E+02  0.10602050198E+02 -0.96189645323E+01  0.18726399694E+02  0.00000000000E+00 0. -1.
         11    1    3    3    0    0  0.20168120632E+02  0.62903690163E+01  0.19389070478E+02  0.28675039432E+02  0.51100000000E-03 0. -1.
        -11    1    3    3    0    0 -0.11025771253E+02 -0.12036188857E+02  0.54725834694E+01  0.17215883481E+02  0.51100000000E-03 0.  1.
        -12    1    3    3    0    0 -0.21215049923E+02 -0.48562303573E+01 -0.15242689415E+02  0.26570677393E+02  0.00000000000E+00 0.  1.
</event>
<event>
 7    1  0.1465498E-013  0.7246156E+02  0.7816164E-02  0.1226708E+00
        -11   -1    0    0    0    0  0.00000000000E+00  0.00000000000E+00  0.45593999997E+02  0.45594000000E+02  0.51100000000E-03 0. -1.
         11   -1    0    0    0    0 -0.00000000000E+00 -0.00000000000E+00 -0.45593999997E+02  0.45594000000E+02  0.51100000000E-03 0.  1.
    9900012    2    1    2    0    0 -0.46794832113E+01  0.18092286653E+02  0.12046156843E+01  0.72461561513E+02  0.69999988561E+02 0.  0.
         12    1    1    2    0    0  0.46794832113E+01 -0.18092286653E+02 -0.12046156843E+01  0.18726438487E+02  0.00000000000E+00 0. -1.
         11    1    3    3    0    0  0.14122065085E+02  0.17462369405E+01  0.14152862324E+02  0.20069518628E+02  0.51100000000E-03 0. -1.
        -11    1    3    3    0    0  0.80041975736E+01  0.57690447855E+01 -0.20370780973E+02  0.22634437794E+02  0.51100000000E-03 0.  1.
         12    1    3    3    0    0 -0.26805745870E+02  0.10577004927E+02  0.74225343327E+01  0.29757605092E+02  0.00000000000E+00 0. -1.
</event>
<event>
 7    1  0.1465498E-013  0.7246159E+02  0.7816164E-02  0.1226708E+00
        -11   -1    0    0    0    0  0.00000000000E+00  0.00000000000E+00  0.45593999997E+02  0.45594000000E+02  0.51100000000E-03 0.  1.
         11   -1    0    0    0    0 -0.00000000000E+00 -0.00000000000E+00 -0.45593999997E+02  0.45594000000E+02  0.51100000000E-03 0. -1.
    9900012    2    1    2    0    0  0.95585818222E+01 -0.13378433996E+02  0.89626733205E+01  0.72461588286E+02  0.70000023438E+02 0.  0.
         12    1    1    2    0    0 -0.95585818222E+01  0.13378433996E+02 -0.89626733205E+01  0.18726411714E+02  0.00000000000E+00 0. -1.
         11    1    3    3    0    0 -0.12104102729E+02  0.15830875679E+02 -0.11927900034E+02  0.23225002199E+02  0.51100000000E-03 0. -1.
        -11    1    3    3    0    0 -0.52598677739E+01 -0.59031628091E+00  0.24973543910E+01  0.58524748206E+01  0.51100000000E-03 0.  1.
        -12    1    3    3    0    0  0.26922552325E+02 -0.28618993394E+02  0.18393218964E+02  0.43384111267E+02  0.00000000000E+00 0.  1.
</event>
<event>
 7    1  0.1465498E-013  0.7246157E+02  0.7816164E-02  0.1226708E+00
        -11   -1    0    0    0    0  0.00000000000E+00  0.00000000000E+00  0.45593999997E+02  0.45594000000E+02  0.51100000000E-03 0.  1.
         11   -1    0    0    0    0 -0.00000000000E+00 -0.00000000000E+00 -0.45593999997E+02  0.45594000000E+02  0.51100000000E-03 0. -1.
    9900012    2    1    2    0    0 -0.14933098143E+02 -0.10088002043E+02  0.50905792869E+01  0.72461569405E+02  0.69999998841E+02 0.  0.
         12    1    1    2    0    0  0.14933098143E+02  0.10088002043E+02 -0.50905792869E+01  0.18726430595E+02  0.00000000000E+00 0. -1.
         11    1    3    3    0    0 -0.15915116691E+02  0.62551727050E+01 -0.22212913589E+00  0.17101680223E+02  0.51100000000E-03 0. -1.
        -11    1    3    3    0    0 -0.21311440039E+02  0.54326135488E+01 -0.49623673391E+01  0.22545861181E+02  0.51100000000E-03 0.  1.
         12    1    3    3    0    0  0.22293458587E+02 -0.21775788297E+02  0.10275075762E+02  0.32814028001E+02  0.00000000000E+00 0. -1.
</event>
<event>
 7    1  0.1465498E-013  0.7246159E+02  0.7816164E-02  0.1226708E+00
        -11   -1    0    0    0    0  0.00000000000E+00  0.00000000000E+00  0.45593999997E+02  0.45594000000E+02  0.51100000000E-03 0.  1.
         11   -1    0    0    0    0 -0.00000000000E+00 -0.00000000000E+00 -0.45593999997E+02  0.45594000000E+02  0.51100000000E-03 0. -1.
    9900012    2    1    2    0    0 -0.82839914058E+01 -0.53371513789E+01  0.15923845116E+02  0.72461587056E+02  0.70000021835E+02 0.  0.
         12    1    1    2    0    0  0.82839914058E+01  0.53371513789E+01 -0.15923845116E+02  0.18726412944E+02  0.00000000000E+00 0. -1.
         11    1    3    3    0    0  0.97221288416E+01  0.20232375874E+02 -0.81344692496E+01  0.23875477230E+02  0.51100000000E-03 0. -1.
        -11    1    3    3    0    0  0.16369199666E+01 -0.16020034903E+02  0.14998107756E-01  0.16103454613E+02  0.51100000000E-03 0.  1.
        -12    1    3    3    0    0 -0.19643040214E+02 -0.95494923503E+01  0.24043316258E+02  0.32482655213E+02  0.00000000000E+00 0.  1.
</event>
<event>
 7    1  0.1465498E-013  0.7246160E+02  0.7816164E-02  0.1226708E+00
        -11   -1    0    0    0    0  0.00000000000E+00  0.00000000000E+00  0.45593999997E+02  0.45594000000E+02  0.51100000000E-03 0. -1.
         11   -1    0    0    0    0 -0.00000000000E+00 -0.00000000000E+00 -0.45593999997E+02  0.45594000000E+02  0.51100000000E-03 0.  1.
    9900012    2    1    2    0    0 -0.13543552210E+02 -0.77802052293E+01 -0.10330467108E+02  0.72461602842E+02  0.70000042399E+02 0.  0.
         12    1    1    2    0    0  0.13543552210E+02  0.77802052293E+01  0.10330467108E+02  0.18726397158E+02  0.00000000000E+00 0. -1.
         11    1    3    3    0    0  0.11633008847E+02  0.19993834568E+01 -0.25049630334E+01  0.12066452217E+02  0.51100000000E-03 0. -1.
        -11    1    3    3    0    0  0.45550886928E+01  0.18261994974E+02 -0.21190563016E+00  0.18822704314E+02  0.51100000000E-03 0.  1.
        -12    1    3    3    0    0 -0.29731649749E+02 -0.28041583660E+02 -0.76135984445E+01  0.41572446311E+02  0.00000000000E+00 0.  1.
</event>
<event>
 7    1  0.1465498E-013  0.7246158E+02  0.7816164E-02  0.1226708E+00
        -11   -1    0    0    0    0  0.00000000000E+00  0.00000000000E+00  0.45593999997E+02  0.45594000000E+02  0.51100000000E-03 0.  1.
         11   -1    0    0    0    0 -0.00000000000E+00 -0.00000000000E+00 -0.45593999997E+02  0.45594000000E+02  0.51100000000E-03 0. -1.
    9900012    2    1    2    0    0  0.17786518457E+01 -0.15889869114E+02  0.97481839905E+01  0.72461584594E+02  0.70000018628E+02 0.  0.
         12    1    1    2    0    0 -0.17786518457E+01  0.15889869114E+02 -0.97481839905E+01  0.18726415406E+02  0.00000000000E+00 0. -1.
         11    1    3    3    0    0  0.81958887881E+01 -0.97283495076E+01 -0.10112259129E+01  0.12760719230E+02  0.51100000000E-03 0. -1.
        -11    1    3    3    0    0 -0.21331442168E+02 -0.55752453382E+01  0.28810081205E+02  0.36278568947E+02  0.51100000000E-03 0.  1.
         12    1    3    3    0    0  0.14914205226E+02 -0.58627426787E+00 -0.18050671301E+02  0.23422296417E+02  0.00000000000E+00 0. -1.
</event>
<event>
 7    1  0.1465498E-013  0.7246160E+02  0.7816164E-02  0.1226708E+00
        -11   -1    0    0    0    0  0.00000000000E+00  0.00000000000E+00  0.45593999997E+02  0.45594000000E+02  0.51100000000E-03 0. -1.
         11   -1    0    0    0    0 -0.00000000000E+00 -0.00000000000E+00 -0.45593999997E+02  0.45594000000E+02  0.51100000000E-03 0.  1.
    9900012    2    1    2    0    0  0.49501269316E+01  0.16935517818E+02 -0.62739648024E+01  0.72461597389E+02  0.70000035296E+02 0.  0.
         12    1    1    2    0    0 -0.49501269316E+01 -0.16935517818E+02  0.62739648024E+01  0.18726402611E+02  0.00000000000E+00 0. -1.
         11    1    3    3    0    0  0.48229362629E+00  0.53320824986E+01 -0.77754248856E+01  0.94403889394E+01  0.51100000000E-03 0. -1.
        -11    1    3    3    0    0 -0.19730651315E+02  0.17956542874E+02 -0.17237762400E+02  0.31762816092E+02  0.51100000000E-03 0.  1.
         12    1    3    3    0    0  0.24198484621E+02 -0.63531075545E+01  0.18739222483E+02  0.31258392358E+02  0.00000000000E+00 0. -1.
</event>
<event>
 7    1  0.1465498E-013  0.7246157E+02  0.7816164E-02  0.1226708E+00
        -11   -1    0    0    0    0  0.00000000000E+00  0.00000000000E+00  0.45593999997E+02  0.45594000000E+02  0.51100000000E-03 0.  1.
         11   -1    0    0    0    0 -0.00000000000E+00 -0.00000000000E+00 -0.45593999997E+02  0.45594000000E+02  0.51100000000E-03 0. -1.
    9900012    2    1    2    0    0 -0.24644742757E+00  0.12262562377E+02 -0.14150904453E+02  0.72461567632E+02  0.69999996532E+02 0.  0.
         12    1    1    2    0    0  0.24644742757E+00 -0.12262562377E+02  0.14150904453E+02  0.18726432368E+02  0.00000000000E+00 0. -1.
         11    1    3    3    0    0  0.24938741232E+01  0.11790996925E+02  0.39526511357E+01  0.12683472233E+02  0.51100000000E-03 0. -1.
        -11    1    3    3    0    0  0.21574772710E+02  0.15603621815E+02 -0.14870216868E+01  0.26667490790E+02  0.51100000000E-03 0.  1.
         12    1    3    3    0    0 -0.24315094261E+02 -0.15132056363E+02 -0.16616533902E+02  0.33110604610E+02  0.00000000000E+00 0. -1.
</event>
<event>
 7    1  0.1465498E-013  0.7246149E+02  0.7816164E-02  0.1226708E+00
        -11   -1    0    0    0    0  0.00000000000E+00  0.00000000000E+00  0.45593999997E+02  0.45594000000E+02  0.51100000000E-03 0. -1.
         11   -1    0    0    0    0 -0.00000000000E+00 -0.00000000000E+00 -0.45593999997E+02  0.45594000000E+02  0.51100000000E-03 0.  1.
    9900012    2    1    2    0    0 -0.10200575989E+02 -0.14803937118E+02 -0.52415410805E+01  0.72461493182E+02  0.69999899547E+02 0.  0.
         12    1    1    2    0    0  0.10200575989E+02  0.14803937118E+02  0.52415410805E+01  0.18726506818E+02  0.00000000000E+00 0. -1.
         11    1    3    3    0    0 -0.79046302789E+01  0.74310384161E+01  0.10992203621E+02  0.15444482915E+02  0.51100000000E-03 0. -1.
        -11    1    3    3    0    0 -0.14507620078E+02  0.10224426061E+02  0.19556014175E+01  0.17855931949E+02  0.51100000000E-03 0.  1.
        -12    1    3    3    0    0  0.12211674367E+02 -0.32459401595E+02 -0.18189346119E+02  0.39161078318E+02  0.00000000000E+00 0.  1.
</event>
<event>
 7    1  0.1465498E-013  0.7246159E+02  0.7816164E-02  0.1226708E+00
        -11   -1    0    0    0    0  0.00000000000E+00  0.00000000000E+00  0.45593999997E+02  0.45594000000E+02  0.51100000000E-03 0. -1.
         11   -1    0    0    0    0 -0.00000000000E+00 -0.00000000000E+00 -0.45593999997E+02  0.45594000000E+02  0.51100000000E-03 0.  1.
    9900012    2    1    2    0    0 -0.72441157052E+01 -0.12486562140E+02 -0.11928412598E+02  0.72461588877E+02  0.70000024208E+02 0.  0.
         12    1    1    2    0    0  0.72441157052E+01  0.12486562140E+02  0.11928412598E+02  0.18726411123E+02  0.00000000000E+00 0. -1.
         11    1    3    3    0    0 -0.34666786652E+01 -0.26124503828E+01 -0.19977278379E+01  0.47784594532E+01  0.51100000000E-03 0. -1.
        -11    1    3    3    0    0  0.67802594019E+01  0.12743849345E+02 -0.31528198215E+02  0.34675710470E+02  0.51100000000E-03 0.  1.
         12    1    3    3    0    0 -0.10557696442E+02 -0.22617961102E+02  0.21597513455E+02  0.33007418954E+02  0.00000000000E+00 0. -1.
</event>
<event>
 7    1  0.1465498E-013  0.7246158E+02  0.7816164E-02  0.1226708E+00
        -11   -1    0    0    0    0  0.00000000000E+00  0.00000000000E+00  0.45593999997E+02  0.45594000000E+02  0.51100000000E-03 0. -1.
         11   -1    0    0    0    0 -0.00000000000E+00 -0.00000000000E+00 -0.45593999997E+02  0.45594000000E+02  0.51100000000E-03 0.  1.
    9900012    2    1    2    0    0 -0.14025357778E+02 -0.40553267851E+01 -0.11726991267E+02  0.72461583891E+02  0.70000017712E+02 0.  0.
         12    1    1    2    0    0  0.14025357778E+02  0.40553267851E+01  0.11726991267E+02  0.18726416109E+02  0.00000000000E+00 0. -1.
         11    1    3    3    0    0 -0.92460276053E+01  0.20742690647E+01 -0.14841546742E+02  0.17608609502E+02  0.51100000000E-03 0. -1.
        -11    1    3    3    0    0  0.52428278870E+01  0.87645238143E+01 -0.21841185668E+02  0.24111024731E+02  0.51100000000E-03 0.  1.
         12    1    3    3    0    0 -0.10022158059E+02 -0.14894119664E+02  0.24955741143E+02  0.30741949658E+02  0.00000000000E+00 0. -1.
</event>
<event>
 7    1  0.1465498E-013  0.7246149E+02  0.7816164E-02  0.1226708E+00
        -11   -1    0    0    0    0  0.00000000000E+00  0.00000000000E+00  0.45593999997E+02  0.45594000000E+02  0.51100000000E-03 0.  1.
         11   -1    0    0    0    0 -0.00000000000E+00 -0.00000000000E+00 -0.45593999997E+02  0.45594000000E+02  0.51100000000E-03 0. -1.
    9900012    2    1    2    0    0 -0.11484655286E+02 -0.14237465958E+02  0.40098968564E+01  0.72461494273E+02  0.69999900968E+02 0.  0.
         12    1    1    2    0    0  0.11484655286E+02  0.14237465958E+02 -0.40098968564E+01  0.18726505727E+02  0.00000000000E+00 0. -1.
         11    1    3    3    0    0  0.55387682466E+01 -0.10824766630E+02  0.11189058675E+02  0.16524181087E+02  0.51100000000E-03 0. -1.
        -11    1    3    3    0    0  0.38699168866E+01  0.68141193044E+01  0.19217291306E+02  0.20753620504E+02  0.51100000000E-03 0.  1.
         12    1    3    3    0    0 -0.20893340419E+02 -0.10226818632E+02 -0.26396453125E+02  0.35183692683E+02  0.00000000000E+00 0. -1.
</event>
<event>
 7    1  0.1465498E-013  0.7246157E+02  0.7816164E-02  0.1226708E+00
        -11   -1    0    0    0    0  0.00000000000E+00  0.00000000000E+00  0.45593999997E+02  0.45594000000E+02  0.51100000000E-03 0. -1.
         11   -1    0    0    0    0 -0.00000000000E+00 -0.00000000000E+00 -0.45593999997E+02  0.45594000000E+02  0.51100000000E-03 0.  1.
    9900012    2    1    2    0    0  0.18437640285E+02 -0.24614903055E+01  0.21618847739E+01  0.72461567890E+02  0.69999996868E+02 0.  0.
         12    1    1    2    0    0 -0.18437640285E+02  0.24614903055E+01 -0.21618847739E+01  0.18726432110E+02  0.00000000000E+00 0. -1.
         11    1    3    3    0    0  0.55116688556E+01 -0.14764012263E+02 -0.19209839028E+02  0.24846981052E+02  0.51100000000E-03 0. -1.
        -11    1    3    3    0    0 -0.10262866913E+01 -0.99381470932E+00 -0.10376405189E+02  0.10474288375E+02  0.51100000000E-03 0.  1.
         12    1    3    3    0    0  0.13952258121E+02  0.13296336667E+02  0.31748128991E+02  0.37140298462E+02  0.00000000000E+00 0. -1.
</event>
<event>
 7    1  0.1465498E-013  0.7246156E+02  0.7816164E-02  0.1226708E+00
        -11   -1    0    0    0    0  0.00000000000E+00  0.00000000000E+00  0.45593999997E+02  0.45594000000E+02  0.51100000000E-03 0. -1.
         11   -1    0    0    0    0 -0.00000000000E+00 -0.00000000000E+00 -0.45593999997E+02  0.45594000000E+02  0.51100000000E-03 0.  1.
    9900012    2    1    2    0    0  0.15317672274E+02 -0.91871715789E+00 -0.10733332051E+02  0.72461560348E+02  0.69999987043E+02 0.  0.
         12    1    1    2    0    0 -0.15317672274E+02  0.91871715789E+00  0.10733332051E+02  0.18726439652E+02  0.00000000000E+00 0. -1.
         11    1    3    3    0    0  0.26452086791E+02 -0.90591559369E+01  0.69615932139E+01  0.28813971997E+02  0.51100000000E-03 0. -1.
        -11    1    3    3    0    0  0.40106260126E+01 -0.93753330435E+01 -0.17774712902E+02  0.20492008435E+02  0.51100000000E-03 0.  1.
         12    1    3    3    0    0 -0.15145040530E+02  0.17515771823E+02  0.79787636248E-01  0.23155579916E+02  0.00000000000E+00 0. -1.
</event>
<event>
 7    1  0.1465498E-013  0.7246159E+02  0.7816164E-02  0.1226708E+00
        -11   -1    0    0    0    0  0.00000000000E+00  0.00000000000E+00  0.45593999997E+02  0.45594000000E+02  0.51100000000E-03 0.  1.
         11   -1    0    0    0    0 -0.00000000000E+00 -0.00000000000E+00 -0.45593999997E+02  0.45594000000E+02  0.51100000000E-03 0. -1.
    9900012    2    1    2    0    0 -0.66807684927E+01  0.14146504524E+02 -0.10291858116E+02  0.72461585464E+02  0.70000019761E+02 0.  0.
         12    1    1    2    0    0  0.66807684927E+01 -0.14146504524E+02  0.10291858116E+02  0.18726414536E+02  0.00000000000E+00 0. -1.
         11    1    3    3    0    0 -0.20477700505E+02  0.60116657008E+01  0.10915531122E+02  0.23971340439E+02  0.51100000000E-03 0. -1.
        -11    1    3    3    0    0 -0.48317555473E+01  0.19590955537E+02 -0.37862431049E+01  0.20530149479E+02  0.51100000000E-03 0.  1.
         12    1    3    3    0    0  0.18628687560E+02 -0.11456116713E+02 -0.17421146133E+02  0.27960095546E+02  0.00000000000E+00 0. -1.
</event>
<event>
 7    1  0.1465498E-013  0.7246150E+02  0.7816164E-02  0.1226708E+00
        -11   -1    0    0    0    0  0.00000000000E+00  0.00000000000E+00  0.45593999997E+02  0.45594000000E+02  0.51100000000E-03 0. -1.
         11   -1    0    0    0    0 -0.00000000000E+00 -0.00000000000E+00 -0.45593999997E+02  0.45594000000E+02  0.51100000000E-03 0.  1.
    9900012    2    1    2    0    0 -0.10014283037E+02  0.14493085141E+02  0.63518890592E+01  0.72461498023E+02  0.69999905853E+02 0.  0.
         12    1    1    2    0    0  0.10014283037E+02 -0.14493085141E+02 -0.63518890592E+01  0.18726501977E+02  0.00000000000E+00 0. -1.
         11    1    3    3    0    0  0.13242093927E+02 -0.25709387167E+01 -0.51054101993E+01  0.14423175483E+02  0.51100000000E-03 0. -1.
        -11    1    3    3    0    0 -0.22765256723E+02 -0.13199296516E+02  0.22961498140E+01  0.26414970120E+02  0.51100000000E-03 0.  1.
         12    1    3    3    0    0 -0.49112024047E+00  0.30263320374E+02  0.91611494445E+01  0.31623352421E+02  0.00000000000E+00 0. -1.
</event>
<event>
 7    1  0.1465498E-013  0.7246150E+02  0.7816164E-02  0.1226708E+00
        -11   -1    0    0    0    0  0.00000000000E+00  0.00000000000E+00  0.45593999997E+02  0.45594000000E+02  0.51100000000E-03 0.  1.
         11   -1    0    0    0    0 -0.00000000000E+00 -0.00000000000E+00 -0.45593999997E+02  0.45594000000E+02  0.51100000000E-03 0. -1.
    9900012    2    1    2    0    0 -0.41004514427E+01  0.14791652800E+01  0.18212085192E+02  0.72461503291E+02  0.69999912716E+02 0.  0.
         12    1    1    2    0    0  0.41004514427E+01 -0.14791652800E+01 -0.18212085192E+02  0.18726496709E+02  0.00000000000E+00 0. -1.
         11    1    3    3    0    0  0.46904451952E+01  0.18711396684E+02 -0.19196956953E+02  0.27214698207E+02  0.51100000000E-03 0. -1.
        -11    1    3    3    0    0  0.37612277775E+01  0.30096112244E+00  0.41462055704E+01  0.56061067493E+01  0.51100000000E-03 0.  1.
        -12    1    3    3    0    0 -0.12552124415E+02 -0.17533192526E+02  0.33262836574E+02  0.39640698335E+02  0.00000000000E+00 0.  1.
</event>
<event>
 7    1  0.1465498E-013  0.7246159E+02  0.7816164E-02  0.1226708E+00
        -11   -1    0    0    0    0  0.00000000000E+00  0.00000000000E+00  0.45593999997E+02  0.45594000000E+02  0.51100000000E-03 0.  1.
         11   -1    0    0    0    0 -0.00000000000E+00 -0.00000000000E+00 -0.45593999997E+02  0.45594000000E+02  0.51100000000E-03 0. -1.
    9900012    2    1    2    0    0 -0.15075017860E+02 -0.45309704884E+01  0.10143602069E+02  0.72461587637E+02  0.70000022592E+02 0.  0.
         12    1    1    2    0    0  0.15075017860E+02  0.45309704884E+01 -0.10143602069E+02  0.18726412363E+02  0.00000000000E+00 0. -1.
         11    1    3    3    0    0  0.57685452803E+01  0.40249101120E+01 -0.15799992196E+02  0.17294963709E+02  0.51100000000E-03 0. -1.
        -11    1    3    3    0    0 -0.73769358789E+01  0.15002814659E+02  0.22173619222E+02  0.27770002166E+02  0.51100000000E-03 0.  1.
         12    1    3    3    0    0 -0.13466627261E+02 -0.23558695259E+02  0.37699750429E+01  0.27396621761E+02  0.00000000000E+00 0. -1.
</event>
<event>
 7    1  0.1465498E-013  0.7246114E+02  0.7816164E-02  0.1226709E+00
        -11   -1    0    0    0    0  0.00000000000E+00  0.00000000000E+00  0.45593999997E+02  0.45594000000E+02  0.51100000000E-03 0. -1.
         11   -1    0    0    0    0 -0.00000000000E+00 -0.00000000000E+00 -0.45593999997E+02  0.45594000000E+02  0.51100000000E-03 0.  1.
    9900012    2    1    2    0    0  0.79988488148E+01 -0.13785062156E+02 -0.98328938863E+01  0.72461138993E+02  0.69999438147E+02 0.  0.
         12    1    1    2    0    0 -0.79988488148E+01  0.13785062156E+02  0.98328938863E+01  0.18726861007E+02  0.00000000000E+00 0. -1.
         11    1    3    3    0    0 -0.47184278416E+01  0.43004137636E+01  0.69891723971E+01  0.94660261405E+01  0.51100000000E-03 0. -1.
        -11    1    3    3    0    0 -0.19517520304E+02  0.54923048887E+01 -0.95051310512E+01  0.22393001772E+02  0.51100000000E-03 0.  1.
        -12    1    3    3    0    0  0.32234796961E+02 -0.23577780808E+02 -0.73169352323E+01  0.40602111080E+02  0.00000000000E+00 0.  1.
</event>
<event>
 7    1  0.1465498E-013  0.7246161E+02  0.7816164E-02  0.1226708E+00
        -11   -1    0    0    0    0  0.00000000000E+00  0.00000000000E+00  0.45593999997E+02  0.45594000000E+02  0.51100000000E-03 0. -1.
         11   -1    0    0    0    0 -0.00000000000E+00 -0.00000000000E+00 -0.45593999997E+02  0.45594000000E+02  0.51100000000E-03 0.  1.
    9900012    2    1    2    0    0  0.66192149845E+01  0.15544105736E+02 -0.80774125348E+01  0.72461606236E+02  0.70000046821E+02 0.  0.
         12    1    1    2    0    0 -0.66192149845E+01 -0.15544105736E+02  0.80774125348E+01  0.18726393764E+02  0.00000000000E+00 0. -1.
         11    1    3    3    0    0  0.13366803329E+02 -0.38070813394E+00  0.24675927752E+02  0.28066310420E+02  0.51100000000E-03 0. -1.
        -11    1    3    3    0    0  0.70602714633E+01 -0.16067484644E+01 -0.50806012869E+01  0.88454272628E+01  0.51100000000E-03 0.  1.
        -12    1    3    3    0    0 -0.13807859807E+02  0.17531562335E+02 -0.27672739000E+02  0.35549868553E+02  0.00000000000E+00 0.  1.
</event>
<event>
 7    1  0.1465498E-013  0.7246158E+02  0.7816164E-02  0.1226708E+00
        -11   -1    0    0    0    0  0.00000000000E+00  0.00000000000E+00  0.45593999997E+02  0.45594000000E+02  0.51100000000E-03 0. -1.
         11   -1    0    0    0    0 -0.00000000000E+00 -0.00000000000E+00 -0.45593999997E+02  0.45594000000E+02  0.51100000000E-03 0.  1.
    9900012    2    1    2    0    0 -0.16640897620E+02 -0.69461587266E+01 -0.50507564848E+01  0.72461581877E+02  0.70000015088E+02 0.  0.
         12    1    1    2    0    0  0.16640897620E+02  0.69461587266E+01  0.50507564848E+01  0.18726418123E+02  0.00000000000E+00 0. -1.
         11    1    3    3    0    0 -0.13724146491E+02  0.72337846744E+01 -0.15084405239E+02  0.21638371457E+02  0.51100000000E-03 0. -1.
        -11    1    3    3    0    0 -0.10944241590E+02 -0.25651651424E+02 -0.70194220072E+01  0.28758580116E+02  0.51100000000E-03 0.  1.
         12    1    3    3    0    0  0.80274904611E+01  0.11471708023E+02  0.17053070761E+02  0.22064630304E+02  0.00000000000E+00 0. -1.
</event>
<event>
 7    1  0.1465498E-013  0.7246159E+02  0.7816164E-02  0.1226708E+00
        -11   -1    0    0    0    0  0.00000000000E+00  0.00000000000E+00  0.45593999997E+02  0.45594000000E+02  0.51100000000E-03 0. -1.
         11   -1    0    0    0    0 -0.00000000000E+00 -0.00000000000E+00 -0.45593999997E+02  0.45594000000E+02  0.51100000000E-03 0.  1.
    9900012    2    1    2    0    0 -0.17779541093E+02  0.57078657735E+01 -0.14095342114E+01  0.72461585505E+02  0.70000019814E+02 0.  0.
         12    1    1    2    0    0  0.17779541093E+02 -0.57078657735E+01  0.14095342114E+01  0.18726414495E+02  0.00000000000E+00 0. -1.
         11    1    3    3    0    0  0.14452398937E+02 -0.31937544167E+01 -0.22069055161E+02  0.26572826313E+02  0.51100000000E-03 0. -1.
        -11    1    3    3    0    0 -0.22125855518E+02  0.18755936878E+01  0.43045937808E+00  0.22209381568E+02  0.51100000000E-03 0.  1.
        -12    1    3    3    0    0 -0.10106084512E+02  0.70260265024E+01  0.20229061571E+02  0.23679377623E+02  0.00000000000E+00 0.  1.
</event>
<event>
 7    1  0.1465498E-013  0.7246160E+02  0.7816164E-02  0.1226708E+00
        -11   -1    0    0    0    0  0.00000000000E+00  0.00000000000E+00  0.45593999997E+02  0.45594000000E+02  0.51100000000E-03 0.  1.
         11   -1    0    0    0    0 -0.00000000000E+00 -0.00000000000E+00 -0.45593999997E+02  0.45594000000E+02  0.51100000000E-03 0. -1.
    9900012    2    1    2    0    0 -0.12938890365E+02  0.10041086601E+02  0.90796419288E+01  0.72461596139E+02  0.70000033668E+02 0.  0.
         12    1    1    2    0    0  0.12938890365E+02 -0.10041086601E+02 -0.90796419288E+01  0.18726403861E+02  0.00000000000E+00 0. -1.
         11    1    3    3    0    0  0.15653534696E+02 -0.14494912175E+01 -0.74390318791E+01  0.17391761522E+02  0.51100000000E-03 0. -1.
        -11    1    3    3    0    0  0.13350618400E+00 -0.90096661394E+01 -0.80389558439E+01  0.12075459377E+02  0.51100000000E-03 0.  1.
        -12    1    3    3    0    0 -0.28725931245E+02  0.20500243958E+02  0.24557629652E+02  0.42994375241E+02  0.00000000000E+00 0.  1.
</event>
<event>
 7    1  0.1465498E-013  0.7246151E+02  0.7816164E-02  0.1226708E+00
        -11   -1    0    0    0    0  0.00000000000E+00  0.00000000000E+00  0.45593999997E+02  0.45594000000E+02  0.51100000000E-03 0. -1.
         11   -1    0    0    0    0 -0.00000000000E+00 -0.00000000000E+00 -0.45593999997E+02  0.45594000000E+02  0.51100000000E-03 0.  1.
    9900012    2    1    2    0    0 -0.14069838897E+02  0.81858620046E+01 -0.92581157974E+01  0.72461510434E+02  0.69999922021E+02 0.  0.
         12    1    1    2    0    0  0.14069838897E+02 -0.81858620046E+01  0.92581157974E+01  0.18726489566E+02  0.00000000000E+00 0. -1.
         11    1    3    3    0    0 -0.94355394157E+01  0.88700100822E+01  0.35117757644E+01  0.13417863176E+02  0.51100000000E-03 0. -1.
        -11    1    3    3    0    0 -0.43100775345E+01 -0.75898926202E+01  0.21960700599E+02  0.23631665396E+02  0.51100000000E-03 0.  1.
        -12    1    3    3    0    0 -0.32422194711E+00  0.69057445426E+01 -0.34730592161E+02  0.35411981862E+02  0.00000000000E+00 0.  1.
</event>
<event>
 7    1  0.1465498E-013  0.7246160E+02  0.7816164E-02  0.1226708E+00
        -11   -1    0    0    0    0  0.00000000000E+00  0.00000000000E+00  0.45593999997E+02  0.45594000000E+02  0.51100000000E-03 0.  1.
         11   -1    0    0    0    0 -0.00000000000E+00 -0.00000000000E+00 -0.45593999997E+02  0.45594000000E+02  0.51100000000E-03 0. -1.
    9900012    2    1    2    0    0  0.71171031117E+01 -0.14010087941E+02  0.10185399524E+02  0.72461599271E+02  0.70000037747E+02 0.  0.
         12    1    1    2    0    0 -0.71171031117E+01  0.14010087941E+02 -0.10185399524E+02  0.18726400729E+02  0.00000000000E+00 0. -1.
         11    1    3    3    0    0 -0.22137746320E+02 -0.25832986402E+01 -0.10327903050E+02  0.24564584786E+02  0.51100000000E-03 0. -1.
        -11    1    3    3    0    0  0.63091903631E+01 -0.72567045749E+01 -0.69521700883E+01  0.11865846515E+02  0.51100000000E-03 0.  1.
        -12    1    3    3    0    0  0.22945659069E+02 -0.41700847255E+01  0.27465472662E+02  0.36031167970E+02  0.00000000000E+00 0.  1.
</event>
<event>
 7    1  0.1465498E-013  0.7246153E+02  0.7816164E-02  0.1226708E+00
        -11   -1    0    0    0    0  0.00000000000E+00  0.00000000000E+00  0.45593999997E+02  0.45594000000E+02  0.51100000000E-03 0. -1.
         11   -1    0    0    0    0 -0.00000000000E+00 -0.00000000000E+00 -0.45593999997E+02  0.45594000000E+02  0.51100000000E-03 0.  1.
    9900012    2    1    2    0    0 -0.16802698758E+02  0.24003812667E+01 -0.79112763511E+01  0.72461526512E+02  0.69999942965E+02 0.  0.
         12    1    1    2    0    0  0.16802698758E+02 -0.24003812667E+01  0.79112763511E+01  0.18726473488E+02  0.00000000000E+00 0. -1.
         11    1    3    3    0    0 -0.22285775726E+02 -0.78292943028E+01  0.79959049285E+01  0.24937685235E+02  0.51100000000E-03 0. -1.
        -11    1    3    3    0    0 -0.86576535378E+01  0.20110229589E+02 -0.20153730740E+02  0.29758178068E+02  0.51100000000E-03 0.  1.
         12    1    3    3    0    0  0.14140730505E+02 -0.98805540199E+01  0.42465494606E+01  0.17765663210E+02  0.00000000000E+00 0. -1.
</event>
<event>
 7    1  0.1465498E-013  0.7246158E+02  0.7816164E-02  0.1226708E+00
        -11   -1    0    0    0    0  0.00000000000E+00  0.00000000000E+00  0.45593999997E+02  0.45594000000E+02  0.51100000000E-03 0. -1.
         11   -1    0    0    0    0 -0.00000000000E+00 -0.00000000000E+00 -0.45593999997E+02  0.45594000000E+02  0.51100000000E-03 0.  1.
    9900012    2    1    2    0    0  0.77661496222E+00 -0.18696403848E+02  0.72116552698E+00  0.72461582100E+02  0.70000015379E+02 0.  0.
         12    1    1    2    0    0 -0.77661496222E+00  0.18696403848E+02 -0.72116552698E+00  0.18726417900E+02  0.00000000000E+00 0. -1.
         11    1    3    3    0    0  0.17994675982E+02 -0.22413556400E+01  0.12170142721E+02  0.21839057052E+02  0.51100000000E-03 0. -1.
        -11    1    3    3    0    0  0.12593143119E+02 -0.75675314502E+01 -0.12799475310E+02  0.19485413887E+02  0.51100000000E-03 0.  1.
        -12    1    3    3    0    0 -0.29811204139E+02 -0.88875167579E+01  0.13504981164E+01  0.31137111161E+02  0.00000000000E+00 0.  1.
</event>
<event>
 7    1  0.1465498E-013  0.7246170E+02  0.7816164E-02  0.1226708E+00
        -11   -1    0    0    0    0  0.00000000000E+00  0.00000000000E+00  0.45593999997E+02  0.45594000000E+02  0.51100000000E-03 0.  1.
         11   -1    0    0    0    0 -0.00000000000E+00 -0.00000000000E+00 -0.45593999997E+02  0.45594000000E+02  0.51100000000E-03 0. -1.
    9900012    2    1    2    0    0  0.94842926313E+01  0.14226475471E+02  0.76374095441E+01  0.72461696692E+02  0.70000164656E+02 0.  0.
         12    1    1    2    0    0 -0.94842926313E+01 -0.14226475471E+02 -0.76374095441E+01  0.18726303308E+02  0.00000000000E+00 0. -1.
         11    1    3    3    0    0  0.82598643184E+01  0.92612868917E+01  0.35572539614E+01  0.12909331875E+02  0.51100000000E-03 0. -1.
        -11    1    3    3    0    0  0.19967018744E+02 -0.41413944101E+01 -0.19409220902E+02  0.28152279507E+02  0.51100000000E-03 0.  1.
         12    1    3    3    0    0 -0.18742590431E+02  0.91065829894E+01  0.23489376485E+02  0.31400085310E+02  0.00000000000E+00 0. -1.
</event>
<event>
 7    1  0.1465498E-013  0.7246162E+02  0.7816164E-02  0.1226708E+00
        -11   -1    0    0    0    0  0.00000000000E+00  0.00000000000E+00  0.45593999997E+02  0.45594000000E+02  0.51100000000E-03 0.  1.
         11   -1    0    0    0    0 -0.00000000000E+00 -0.00000000000E+00 -0.45593999997E+02  0.45594000000E+02  0.51100000000E-03 0. -1.
    9900012    2    1    2    0    0  0.58664519718E-01  0.14490854693E+02  0.11861240038E+02  0.72461619503E+02  0.70000064104E+02 0.  0.
         12    1    1    2    0    0 -0.58664519718E-01 -0.14490854693E+02 -0.11861240038E+02  0.18726380497E+02  0.00000000000E+00 0. -1.
         11    1    3    3    0    0 -0.37498419237E+01  0.34030754900E+02  0.13309346506E+02  0.36732714278E+02  0.51100000000E-03 0. -1.
        -11    1    3    3    0    0 -0.12730510933E+02 -0.84410584960E+01 -0.36055055192E+01  0.15694490990E+02  0.51100000000E-03 0.  1.
        -12    1    3    3    0    0  0.16539017376E+02 -0.11098841711E+02  0.21573990512E+01  0.20034414235E+02  0.00000000000E+00 0.  1.
</event>
<event>
 7    1  0.1465498E-013  0.7246158E+02  0.7816164E-02  0.1226708E+00
        -11   -1    0    0    0    0  0.00000000000E+00  0.00000000000E+00  0.45593999997E+02  0.45594000000E+02  0.51100000000E-03 0. -1.
         11   -1    0    0    0    0 -0.00000000000E+00 -0.00000000000E+00 -0.45593999997E+02  0.45594000000E+02  0.51100000000E-03 0.  1.
    9900012    2    1    2    0    0 -0.14401028528E+02  0.32978572440E+00 -0.11965805385E+02  0.72461578030E+02  0.70000010078E+02 0.  0.
         12    1    1    2    0    0  0.14401028528E+02 -0.32978572440E+00  0.11965805385E+02  0.18726421970E+02  0.00000000000E+00 0. -1.
         11    1    3    3    0    0 -0.27828640019E+02  0.53842696325E+01 -0.30794496426E+01  0.28511516535E+02  0.51100000000E-03 0. -1.
        -11    1    3    3    0    0  0.11037118052E+02  0.51358485162E+01  0.14138810377E+02  0.18657461618E+02  0.51100000000E-03 0.  1.
        -12    1    3    3    0    0  0.23904934384E+01 -0.10190332424E+02 -0.23025166119E+02  0.25292599878E+02  0.00000000000E+00 0.  1.
</event>
<event>
 7    1  0.1465498E-013  0.7246158E+02  0.7816164E-02  0.1226708E+00
        -11   -1    0    0    0    0  0.00000000000E+00  0.00000000000E+00  0.45593999997E+02  0.45594000000E+02  0.51100000000E-03 0. -1.
         11   -1    0    0    0    0 -0.00000000000E+00 -0.00000000000E+00 -0.45593999997E+02  0.45594000000E+02  0.51100000000E-03 0.  1.
    9900012    2    1    2    0    0  0.13579211860E+02  0.87001084586E+01 -0.95179777097E+01  0.72461580651E+02  0.70000013492E+02 0.  0.
         12    1    1    2    0    0 -0.13579211860E+02 -0.87001084586E+01  0.95179777097E+01  0.18726419349E+02  0.00000000000E+00 0. -1.
         11    1    3    3    0    0  0.36415527836E+01  0.69362085795E+01  0.91941800265E+01  0.12079107697E+02  0.51100000000E-03 0. -1.
        -11    1    3    3    0    0  0.10378038057E+02  0.28671576979E+02 -0.10397073242E+02  0.32215867715E+02  0.51100000000E-03 0.  1.
        -12    1    3    3    0    0 -0.44037898057E+00 -0.26907677100E+02 -0.83150844938E+01  0.28166605239E+02  0.00000000000E+00 0.  1.
</event>
<event>
 7    1  0.1465498E-013  0.7246148E+02  0.7816164E-02  0.1226708E+00
        -11   -1    0    0    0    0  0.00000000000E+00  0.00000000000E+00  0.45593999997E+02  0.45594000000E+02  0.51100000000E-03 0.  1.
         11   -1    0    0    0    0 -0.00000000000E+00 -0.00000000000E+00 -0.45593999997E+02  0.45594000000E+02  0.51100000000E-03 0. -1.
    9900012    2    1    2    0    0  0.72775442111E+01  0.15950533039E+02  0.65803042433E+01  0.72461479824E+02  0.69999882145E+02 0.  0.
         12    1    1    2    0    0 -0.72775442111E+01 -0.15950533039E+02 -0.65803042433E+01  0.18726520176E+02  0.00000000000E+00 0. -1.
         11    1    3    3    0    0  0.16481746266E+02  0.26938958605E+02  0.35891192097E+01  0.31784229228E+02  0.51100000000E-03 0. -1.
        -11    1    3    3    0    0 -0.10977941118E+01  0.13554288648E+02 -0.34713458405E+01  0.14034747410E+02  0.51100000000E-03 0.  1.
        -12    1    3    3    0    0 -0.81064079429E+01 -0.24542714213E+02  0.64625308741E+01  0.26642503186E+02  0.00000000000E+00 0.  1.
</event>
<event>
 7    1  0.1679745E-013  0.7246154E+02  0.7816164E-02  0.1226708E+00
        -11   -1    0    0    0    0  0.00000000000E+00  0.00000000000E+00  0.45593999997E+02  0.45594000000E+02  0.51100000000E-03 0. -1.
         11   -1    0    0    0    0 -0.00000000000E+00 -0.00000000000E+00 -0.45593999997E+02  0.45594000000E+02  0.51100000000E-03 0.  1.
    9900012    2    1    2    0    0 -0.17145141127E+02  0.27349664215E+01 -0.70174427164E+01  0.72461537230E+02  0.69999956928E+02 0.  0.
         12    1    1    2    0    0  0.17145141127E+02 -0.27349664215E+01  0.70174427164E+01  0.18726462770E+02  0.00000000000E+00 0. -1.
         11    1    3    3    0    0  0.88506334739E+01  0.12709090228E+02  0.18326270798E+02  0.23993892743E+02  0.51100000000E-03 0. -1.
        -11    1    3    3    0    0 -0.13339737212E+02  0.18337998662E+01  0.43046220614E+01  0.14136519451E+02  0.51100000000E-03 0.  1.
        -12    1    3    3    0    0 -0.12656037389E+02 -0.11807923673E+02 -0.29648335576E+02  0.34331125037E+02  0.00000000000E+00 0.  1.
</event>
<event>
 7    1  0.1465498E-013  0.7246162E+02  0.7816164E-02  0.1226708E+00
        -11   -1    0    0    0    0  0.00000000000E+00  0.00000000000E+00  0.45593999997E+02  0.45594000000E+02  0.51100000000E-03 0.  1.
         11   -1    0    0    0    0 -0.00000000000E+00 -0.00000000000E+00 -0.45593999997E+02  0.45594000000E+02  0.51100000000E-03 0. -1.
    9900012    2    1    2    0    0 -0.17315922681E+02  0.71287103753E+01 -0.13260368189E+00  0.72461620915E+02  0.70000065942E+02 0.  0.
         12    1    1    2    0    0  0.17315922681E+02 -0.71287103753E+01  0.13260368189E+00  0.18726379085E+02  0.00000000000E+00 0. -1.
         11    1    3    3    0    0 -0.32657171643E+02  0.96839245536E+01 -0.71253272786E+01  0.34799993442E+02  0.51100000000E-03 0. -1.
        -11    1    3    3    0    0 -0.78908059267E+01 -0.28326554890E+01 -0.66655610753E+01  0.10710670381E+02  0.51100000000E-03 0.  1.
        -12    1    3    3    0    0  0.23232054888E+02  0.27744131066E+00  0.13658284672E+02  0.26950957092E+02  0.00000000000E+00 0.  1.
</event>
<event>
 7    1  0.1465498E-013  0.7246203E+02  0.7816164E-02  0.1226707E+00
        -11   -1    0    0    0    0  0.00000000000E+00  0.00000000000E+00  0.45593999997E+02  0.45594000000E+02  0.51100000000E-03 0. -1.
         11   -1    0    0    0    0 -0.00000000000E+00 -0.00000000000E+00 -0.45593999997E+02  0.45594000000E+02  0.51100000000E-03 0.  1.
    9900012    2    1    2    0    0  0.77378793479E+01 -0.94953670922E+01 -0.14164221987E+02  0.72462029865E+02  0.70000598673E+02 0.  0.
         12    1    1    2    0    0 -0.77378793479E+01  0.94953670922E+01  0.14164221987E+02  0.18725970135E+02  0.00000000000E+00 0. -1.
         11    1    3    3    0    0  0.11302506649E+02  0.50912155927E+01  0.16375966040E+01  0.12503953601E+02  0.51100000000E-03 0. -1.
        -11    1    3    3    0    0  0.26028072348E+02 -0.51360266917E+01 -0.10022199877E+02  0.28359897937E+02  0.51100000000E-03 0.  1.
         12    1    3    3    0    0 -0.29592699649E+02 -0.94505559932E+01 -0.57796187136E+01  0.31598178327E+02  0.00000000000E+00 0. -1.
</event>
<event>
 7    1  0.1465498E-013  0.7246159E+02  0.7816164E-02  0.1226708E+00
        -11   -1    0    0    0    0  0.00000000000E+00  0.00000000000E+00  0.45593999997E+02  0.45594000000E+02  0.51100000000E-03 0. -1.
         11   -1    0    0    0    0 -0.00000000000E+00 -0.00000000000E+00 -0.45593999997E+02  0.45594000000E+02  0.51100000000E-03 0.  1.
    9900012    2    1    2    0    0 -0.96465119764E+01 -0.12079977700E+02 -0.10568696243E+02  0.72461590979E+02  0.70000026945E+02 0.  0.
         12    1    1    2    0    0  0.96465119764E+01  0.12079977700E+02  0.10568696243E+02  0.18726409021E+02  0.00000000000E+00 0. -1.
         11    1    3    3    0    0  0.14407060767E+02  0.20459814233E+02  0.73618825778E+00  0.25034164093E+02  0.51100000000E-03 0. -1.
        -11    1    3    3    0    0 -0.33327808916E+00  0.24636766952E+01 -0.37119470563E+01  0.44675864125E+01  0.51100000000E-03 0.  1.
        -12    1    3    3    0    0 -0.23720294654E+02 -0.35003468629E+02 -0.75929374449E+01  0.42959840474E+02  0.00000000000E+00 0.  1.
</event>
<event>
 7    1  0.2179641E-013  0.7246163E+02  0.7816164E-02  0.1226708E+00
        -11   -1    0    0    0    0  0.00000000000E+00  0.00000000000E+00  0.45593999997E+02  0.45594000000E+02  0.51100000000E-03 0. -1.
         11   -1    0    0    0    0 -0.00000000000E+00 -0.00000000000E+00 -0.45593999997E+02  0.45594000000E+02  0.51100000000E-03 0.  1.
    9900012    2    1    2    0    0 -0.22494930933E+01 -0.12824368510E+02 -0.13459276557E+02  0.72461634302E+02  0.70000083381E+02 0.  0.
         12    1    1    2    0    0  0.22494930933E+01  0.12824368510E+02  0.13459276557E+02  0.18726365698E+02  0.00000000000E+00 0. -1.
         11    1    3    3    0    0 -0.14285752254E+01  0.12687879854E+02  0.14045409337E+02  0.18981481662E+02  0.51100000000E-03 0. -1.
        -11    1    3    3    0    0 -0.37803164954E+01  0.28568319895E+01 -0.24322974655E+02  0.24780221512E+02  0.51100000000E-03 0.  1.
        -12    1    3    3    0    0  0.29593986275E+01 -0.28369080353E+02 -0.31817112385E+01  0.28699931128E+02  0.00000000000E+00 0.  1.
</event>
<event>
 7    1  0.1465498E-013  0.7246154E+02  0.7816164E-02  0.1226708E+00
        -11   -1    0    0    0    0  0.00000000000E+00  0.00000000000E+00  0.45593999997E+02  0.45594000000E+02  0.51100000000E-03 0. -1.
         11   -1    0    0    0    0 -0.00000000000E+00 -0.00000000000E+00 -0.45593999997E+02  0.45594000000E+02  0.51100000000E-03 0.  1.
    9900012    2    1    2    0    0 -0.28938369992E+01 -0.18069028607E+02 -0.39769494134E+01  0.72461542407E+02  0.69999963671E+02 0.  0.
         12    1    1    2    0    0  0.28938369992E+01  0.18069028607E+02  0.39769494134E+01  0.18726457593E+02  0.00000000000E+00 0. -1.
         11    1    3    3    0    0 -0.53532431563E+01 -0.94701721331E+00  0.30626310181E+02  0.31105062762E+02  0.51100000000E-03 0. -1.
        -11    1    3    3    0    0  0.82266257134E+01 -0.89194892738E+01 -0.14626488258E+02  0.19004442075E+02  0.51100000000E-03 0.  1.
        -12    1    3    3    0    0 -0.57672195563E+01 -0.82025221194E+01 -0.19976771336E+02  0.22352037570E+02  0.00000000000E+00 0.  1.
</event>
<event>
 7    1  0.1465498E-013  0.7246167E+02  0.7816164E-02  0.1226708E+00
        -11   -1    0    0    0    0  0.00000000000E+00  0.00000000000E+00  0.45593999997E+02  0.45594000000E+02  0.51100000000E-03 0.  1.
         11   -1    0    0    0    0 -0.00000000000E+00 -0.00000000000E+00 -0.45593999997E+02  0.45594000000E+02  0.51100000000E-03 0. -1.
    9900012    2    1    2    0    0 -0.73970936468E+01 -0.16619471891E+02  0.44442781927E+01  0.72461669633E+02  0.70000129407E+02 0.  0.
         12    1    1    2    0    0  0.73970936468E+01  0.16619471891E+02 -0.44442781927E+01  0.18726330367E+02  0.00000000000E+00 0. -1.
         11    1    3    3    0    0 -0.16933883882E+02  0.48058386965E+01  0.37149569380E+01  0.17990370041E+02  0.51100000000E-03 0. -1.
        -11    1    3    3    0    0 -0.16711484976E+01 -0.21911175509E+02  0.21576862002E+02  0.30796969390E+02  0.51100000000E-03 0.  1.
        -12    1    3    3    0    0  0.11207938732E+02  0.48586492198E+00 -0.20847540747E+02  0.23674330203E+02  0.00000000000E+00 0.  1.
</event>
<event>
 7    1  0.1465498E-013  0.7246163E+02  0.7816164E-02  0.1226708E+00
        -11   -1    0    0    0    0  0.00000000000E+00  0.00000000000E+00  0.45593999997E+02  0.45594000000E+02  0.51100000000E-03 0.  1.
         11   -1    0    0    0    0 -0.00000000000E+00 -0.00000000000E+00 -0.45593999997E+02  0.45594000000E+02  0.51100000000E-03 0. -1.
    9900012    2    1    2    0    0  0.86358088095E+01 -0.91764936285E+01  0.13852503344E+02  0.72461626138E+02  0.70000072747E+02 0.  0.
         12    1    1    2    0    0 -0.86358088095E+01  0.91764936285E+01 -0.13852503344E+02  0.18726373862E+02  0.00000000000E+00 0. -1.
         11    1    3    3    0    0 -0.37773473856E+01 -0.27455094772E+02 -0.31827959452E+01  0.27895891678E+02  0.51100000000E-03 0. -1.
        -11    1    3    3    0    0 -0.30948370492E+01 -0.82326012214E+01  0.94895710703E+01  0.12938535411E+02  0.51100000000E-03 0.  1.
        -12    1    3    3    0    0  0.15507993244E+02  0.26511202365E+02  0.75457282189E+01  0.31627199049E+02  0.00000000000E+00 0.  1.
</event>
<event>
 7    1  0.1465498E-013  0.7246157E+02  0.7816164E-02  0.1226708E+00
        -11   -1    0    0    0    0  0.00000000000E+00  0.00000000000E+00  0.45593999997E+02  0.45594000000E+02  0.51100000000E-03 0. -1.
         11   -1    0    0    0    0 -0.00000000000E+00 -0.00000000000E+00 -0.45593999997E+02  0.45594000000E+02  0.51100000000E-03 0.  1.
    9900012    2    1    2    0    0  0.47804615063E-01  0.18700771486E+02 -0.97884250061E+00  0.72461567556E+02  0.69999996433E+02 0.  0.
         12    1    1    2    0    0 -0.47804615063E-01 -0.18700771486E+02  0.97884250061E+00  0.18726432444E+02  0.00000000000E+00 0. -1.
         11    1    3    3    0    0 -0.57453945822E+00  0.37178772742E+02  0.14667725233E+02  0.39971657483E+02  0.51100000000E-03 0. -1.
        -11    1    3    3    0    0 -0.76851900096E+01 -0.18907162444E+01  0.45220995772E+00  0.79272597729E+01  0.51100000000E-03 0.  1.
        -12    1    3    3    0    0  0.83075340828E+01 -0.16587285012E+02 -0.16098777692E+02  0.24562650300E+02  0.00000000000E+00 0.  1.
</event>
<event>
 7    1  0.1465498E-013  0.7246158E+02  0.7816164E-02  0.1226708E+00
        -11   -1    0    0    0    0  0.00000000000E+00  0.00000000000E+00  0.45593999997E+02  0.45594000000E+02  0.51100000000E-03 0.  1.
         11   -1    0    0    0    0 -0.00000000000E+00 -0.00000000000E+00 -0.45593999997E+02  0.45594000000E+02  0.51100000000E-03 0. -1.
    9900012    2    1    2    0    0  0.14386654971E+02  0.31125782824E+01  0.11576475132E+02  0.72461581193E+02  0.70000014198E+02 0.  0.
         12    1    1    2    0    0 -0.14386654971E+02 -0.31125782824E+01 -0.11576475132E+02  0.18726418807E+02  0.00000000000E+00 0. -1.
         11    1    3    3    0    0  0.14857619530E+02 -0.10652456743E+01 -0.42280418531E+01  0.15484183692E+02  0.51100000000E-03 0. -1.
        -11    1    3    3    0    0  0.16304355816E+02  0.30282695942E+01  0.30453955702E+02  0.34676301035E+02  0.51100000000E-03 0.  1.
         12    1    3    3    0    0 -0.16775320374E+02  0.11495543625E+01 -0.14649438717E+02  0.22301096466E+02  0.00000000000E+00 0. -1.
</event>
<event>
 7    1  0.1465498E-013  0.7246156E+02  0.7816164E-02  0.1226708E+00
        -11   -1    0    0    0    0  0.00000000000E+00  0.00000000000E+00  0.45593999997E+02  0.45594000000E+02  0.51100000000E-03 0.  1.
         11   -1    0    0    0    0 -0.00000000000E+00 -0.00000000000E+00 -0.45593999997E+02  0.45594000000E+02  0.51100000000E-03 0. -1.
    9900012    2    1    2    0    0 -0.17255744976E+01  0.41387458432E+01  0.18181664026E+02  0.72461555296E+02  0.69999980462E+02 0.  0.
         12    1    1    2    0    0  0.17255744976E+01 -0.41387458432E+01 -0.18181664026E+02  0.18726444704E+02  0.00000000000E+00 0. -1.
         11    1    3    3    0    0  0.71183964252E+01  0.56707352130E+01 -0.18773502331E+02  0.20863201949E+02  0.51100000000E-03 0. -1.
        -11    1    3    3    0    0 -0.12047594244E+02 -0.11729789409E+02  0.44684255844E+01  0.17398256066E+02  0.51100000000E-03 0.  1.
        -12    1    3    3    0    0  0.32036233215E+01  0.10197800040E+02  0.32486740773E+02  0.34200097281E+02  0.00000000000E+00 0.  1.
</event>
<event>
 7    1  0.1465498E-013  0.7246158E+02  0.7816164E-02  0.1226708E+00
        -11   -1    0    0    0    0  0.00000000000E+00  0.00000000000E+00  0.45593999997E+02  0.45594000000E+02  0.51100000000E-03 0.  1.
         11   -1    0    0    0    0 -0.00000000000E+00 -0.00000000000E+00 -0.45593999997E+02  0.45594000000E+02  0.51100000000E-03 0. -1.
    9900012    2    1    2    0    0 -0.73696854054E+01  0.39187563639E+01  0.16763351828E+02  0.72461578054E+02  0.70000010108E+02 0.  0.
         12    1    1    2    0    0  0.73696854054E+01 -0.39187563639E+01 -0.16763351828E+02  0.18726421946E+02  0.00000000000E+00 0. -1.
         11    1    3    3    0    0 -0.22504617676E+02  0.13433184648E+01 -0.15598039603E+02  0.27414615827E+02  0.51100000000E-03 0. -1.
        -11    1    3    3    0    0 -0.18495680126E+01 -0.91410834808E+01  0.16755626440E+02  0.19176322032E+02  0.51100000000E-03 0.  1.
        -12    1    3    3    0    0  0.16984500283E+02  0.11716521380E+02  0.15605764991E+02  0.25870640194E+02  0.00000000000E+00 0.  1.
</event>
<event>
 7    1  0.1465498E-013  0.7246153E+02  0.7816164E-02  0.1226708E+00
        -11   -1    0    0    0    0  0.00000000000E+00  0.00000000000E+00  0.45593999997E+02  0.45594000000E+02  0.51100000000E-03 0.  1.
         11   -1    0    0    0    0 -0.00000000000E+00 -0.00000000000E+00 -0.45593999997E+02  0.45594000000E+02  0.51100000000E-03 0. -1.
    9900012    2    1    2    0    0  0.10384293010E+02  0.10598639173E+02 -0.11424353738E+02  0.72461533383E+02  0.69999951916E+02 0.  0.
         12    1    1    2    0    0 -0.10384293010E+02 -0.10598639173E+02  0.11424353738E+02  0.18726466617E+02  0.00000000000E+00 0. -1.
         11    1    3    3    0    0 -0.58196324584E+01  0.26898581247E+02  0.25374170555E+01  0.27637660549E+02  0.51100000000E-03 0. -1.
        -11    1    3    3    0    0  0.54854667870E+01  0.54230120938E+01  0.87178665873E+01  0.11640472677E+02  0.51100000000E-03 0.  1.
         12    1    3    3    0    0  0.10718458681E+02 -0.21722954168E+02 -0.22679637381E+02  0.33183400157E+02  0.00000000000E+00 0. -1.
</event>
<event>
 7    1  0.1465498E-013  0.7246156E+02  0.7816164E-02  0.1226708E+00
        -11   -1    0    0    0    0  0.00000000000E+00  0.00000000000E+00  0.45593999997E+02  0.45594000000E+02  0.51100000000E-03 0.  1.
         11   -1    0    0    0    0 -0.00000000000E+00 -0.00000000000E+00 -0.45593999997E+02  0.45594000000E+02  0.51100000000E-03 0. -1.
    9900012    2    1    2    0    0 -0.14899972168E+02  0.15640371626E+01  0.11234957305E+02  0.72461557506E+02  0.69999983341E+02 0.  0.
         12    1    1    2    0    0  0.14899972168E+02 -0.15640371626E+01 -0.11234957305E+02  0.18726442494E+02  0.00000000000E+00 0. -1.
         11    1    3    3    0    0 -0.48815393558E+01  0.71440798772E+01  0.85963851150E+01  0.12196931626E+02  0.51100000000E-03 0. -1.
        -11    1    3    3    0    0 -0.10953232335E+01  0.26699144138E+01  0.30098108538E+02  0.30236142508E+02  0.51100000000E-03 0.  1.
         12    1    3    3    0    0 -0.89231095786E+01 -0.82499571285E+01 -0.27459536348E+02  0.30028483372E+02  0.00000000000E+00 0. -1.
</event>
<event>
 7    1  0.1465498E-013  0.7246157E+02  0.7816164E-02  0.1226708E+00
        -11   -1    0    0    0    0  0.00000000000E+00  0.00000000000E+00  0.45593999997E+02  0.45594000000E+02  0.51100000000E-03 0.  1.
         11   -1    0    0    0    0 -0.00000000000E+00 -0.00000000000E+00 -0.45593999997E+02  0.45594000000E+02  0.51100000000E-03 0. -1.
    9900012    2    1    2    0    0 -0.77796040302E+01  0.11416097845E+02  0.12642376969E+02  0.72461568832E+02  0.69999998094E+02 0.  0.
         12    1    1    2    0    0  0.77796040302E+01 -0.11416097845E+02 -0.12642376969E+02  0.18726431168E+02  0.00000000000E+00 0. -1.
         11    1    3    3    0    0 -0.96939791972E+01  0.32880204104E+02  0.17099359689E+02  0.38307560045E+02  0.51100000000E-03 0. -1.
        -11    1    3    3    0    0 -0.10704560251E+02 -0.59102167038E+01  0.33162766074E+01  0.12669489431E+02  0.51100000000E-03 0.  1.
        -12    1    3    3    0    0  0.12618935418E+02 -0.15553889555E+02 -0.77732593268E+01  0.21484519355E+02  0.00000000000E+00 0.  1.
</event>
<event>
 7    1  0.1465498E-013  0.7246154E+02  0.7816164E-02  0.1226708E+00
        -11   -1    0    0    0    0  0.00000000000E+00  0.00000000000E+00  0.45593999997E+02  0.45594000000E+02  0.51100000000E-03 0.  1.
         11   -1    0    0    0    0 -0.00000000000E+00 -0.00000000000E+00 -0.45593999997E+02  0.45594000000E+02  0.51100000000E-03 0. -1.
    9900012    2    1    2    0    0  0.13353088515E+02 -0.90927679901E+01  0.94708432513E+01  0.72461540791E+02  0.69999961567E+02 0.  0.
         12    1    1    2    0    0 -0.13353088515E+02  0.90927679901E+01 -0.94708432513E+01  0.18726459209E+02  0.00000000000E+00 0. -1.
         11    1    3    3    0    0 -0.15951772242E+01  0.46146417301E+01 -0.56552469955E+01  0.74713671784E+01  0.51100000000E-03 0. -1.
        -11    1    3    3    0    0  0.10988546169E+02  0.17845268987E+02  0.24110158163E+02  0.31945289153E+02  0.51100000000E-03 0.  1.
         12    1    3    3    0    0  0.39597195697E+01 -0.31552678707E+02 -0.89840679161E+01  0.33044884460E+02  0.00000000000E+00 0. -1.
</event>
<event>
 7    1  0.1465498E-013  0.7246158E+02  0.7816164E-02  0.1226708E+00
        -11   -1    0    0    0    0  0.00000000000E+00  0.00000000000E+00  0.45593999997E+02  0.45594000000E+02  0.51100000000E-03 0.  1.
         11   -1    0    0    0    0 -0.00000000000E+00 -0.00000000000E+00 -0.45593999997E+02  0.45594000000E+02  0.51100000000E-03 0. -1.
    9900012    2    1    2    0    0 -0.91386666104E+01 -0.72258708424E+01  0.14661191849E+02  0.72461575267E+02  0.70000006478E+02 0.  0.
         12    1    1    2    0    0  0.91386666104E+01  0.72258708424E+01 -0.14661191849E+02  0.18726424733E+02  0.00000000000E+00 0. -1.
         11    1    3    3    0    0  0.10997705457E+02 -0.35099190801E+01 -0.79894186694E+00  0.11571835016E+02  0.51100000000E-03 0.  1.
        -11    1    3    3    0    0  0.31332878062E+01 -0.39661095311E+01 -0.18803347244E+02  0.19470834218E+02  0.51100000000E-03 0. -1.
        -12    1    3    3    0    0 -0.23269659873E+02  0.25015776880E+00  0.34263480960E+02  0.41418906034E+02  0.00000000000E+00 0.  1.
</event>
<event>
 7    1  0.1465498E-013  0.7246159E+02  0.7816164E-02  0.1226708E+00
        -11   -1    0    0    0    0  0.00000000000E+00  0.00000000000E+00  0.45593999997E+02  0.45594000000E+02  0.51100000000E-03 0.  1.
         11   -1    0    0    0    0 -0.00000000000E+00 -0.00000000000E+00 -0.45593999997E+02  0.45594000000E+02  0.51100000000E-03 0. -1.
    9900012    2    1    2    0    0 -0.15677818348E-01  0.18725822771E+02  0.14796330546E+00  0.72461586104E+02  0.70000020595E+02 0.  0.
         12    1    1    2    0    0  0.15677818348E-01 -0.18725822771E+02 -0.14796330546E+00  0.18726413896E+02  0.00000000000E+00 0. -1.
         11    1    3    3    0    0 -0.96804339275E+01  0.55959154594E+01  0.12418863030E+02  0.16710871613E+02  0.51100000000E-03 0. -1.
        -11    1    3    3    0    0  0.17036692940E+02  0.92530647870E+01  0.16711162146E+02  0.25595528024E+02  0.51100000000E-03 0.  1.
         12    1    3    3    0    0 -0.73719368309E+01  0.38768425248E+01 -0.28982061871E+02  0.30155186467E+02  0.00000000000E+00 0. -1.
</event>
<event>
 7    1  0.1465498E-013  0.7246155E+02  0.7816164E-02  0.1226708E+00
        -11   -1    0    0    0    0  0.00000000000E+00  0.00000000000E+00  0.45593999997E+02  0.45594000000E+02  0.51100000000E-03 0. -1.
         11   -1    0    0    0    0 -0.00000000000E+00 -0.00000000000E+00 -0.45593999997E+02  0.45594000000E+02  0.51100000000E-03 0.  1.
    9900012    2    1    2    0    0  0.88139179096E+00 -0.17458171565E+02  0.67168014486E+01  0.72461547384E+02  0.69999970155E+02 0.  0.
         12    1    1    2    0    0 -0.88139179096E+00  0.17458171565E+02 -0.67168014486E+01  0.18726452616E+02  0.00000000000E+00 0. -1.
         11    1    3    3    0    0  0.16065374660E+01  0.18644929831E+01  0.18576851978E+02  0.18739176247E+02  0.51100000000E-03 0. -1.
        -11    1    3    3    0    0 -0.17188650661E+01  0.30696115938E+01  0.16898407781E+02  0.17260741532E+02  0.51100000000E-03 0.  1.
        -12    1    3    3    0    0  0.99371939112E+00 -0.22392276142E+02 -0.28758458311E+02  0.36461629605E+02  0.00000000000E+00 0.  1.
</event>
<event>
 7    1  0.1465498E-013  0.7246160E+02  0.7816164E-02  0.1226708E+00
        -11   -1    0    0    0    0  0.00000000000E+00  0.00000000000E+00  0.45593999997E+02  0.45594000000E+02  0.51100000000E-03 0.  1.
         11   -1    0    0    0    0 -0.00000000000E+00 -0.00000000000E+00 -0.45593999997E+02  0.45594000000E+02  0.51100000000E-03 0. -1.
    9900012    2    1    2    0    0  0.12032603503E+02  0.13193868966E+02  0.56406122806E+01  0.72461595320E+02  0.70000032600E+02 0.  0.
         12    1    1    2    0    0 -0.12032603503E+02 -0.13193868966E+02 -0.56406122806E+01  0.18726404680E+02  0.00000000000E+00 0. -1.
         11    1    3    3    0    0 -0.84052022120E+01  0.85879099663E+00 -0.41724447783E+01  0.94230696639E+01  0.51100000000E-03 0. -1.
        -11    1    3    3    0    0 -0.14870509291E+02 -0.28552133122E+01  0.18221900088E+02  0.23692233595E+02  0.51100000000E-03 0.  1.
         12    1    3    3    0    0  0.35308315006E+02  0.15190291282E+02 -0.84088430295E+01  0.39346292060E+02  0.00000000000E+00 0. -1.
</event>
<event>
 7    1  0.1465498E-013  0.7246155E+02  0.7816164E-02  0.1226708E+00
        -11   -1    0    0    0    0  0.00000000000E+00  0.00000000000E+00  0.45593999997E+02  0.45594000000E+02  0.51100000000E-03 0.  1.
         11   -1    0    0    0    0 -0.00000000000E+00 -0.00000000000E+00 -0.45593999997E+02  0.45594000000E+02  0.51100000000E-03 0. -1.
    9900012    2    1    2    0    0 -0.15178654810E+02 -0.33940678767E+01  0.10429222320E+02  0.72461549808E+02  0.69999973313E+02 0.  0.
         12    1    1    2    0    0  0.15178654810E+02  0.33940678767E+01 -0.10429222320E+02  0.18726450192E+02  0.00000000000E+00 0. -1.
         11    1    3    3    0    0 -0.64580293393E+01  0.84843736797E+00  0.12453471344E+02  0.14054000772E+02  0.51100000000E-03 0. -1.
        -11    1    3    3    0    0  0.59461004495E+01 -0.11544102406E+02  0.24212859760E+02  0.27475170408E+02  0.51100000000E-03 0.  1.
         12    1    3    3    0    0 -0.14666725920E+02  0.73015971612E+01 -0.26237108784E+02  0.30932378629E+02  0.00000000000E+00 0. -1.
</event>
<event>
 7    1  0.1465498E-013  0.7246158E+02  0.7816164E-02  0.1226708E+00
        -11   -1    0    0    0    0  0.00000000000E+00  0.00000000000E+00  0.45593999997E+02  0.45594000000E+02  0.51100000000E-03 0.  1.
         11   -1    0    0    0    0 -0.00000000000E+00 -0.00000000000E+00 -0.45593999997E+02  0.45594000000E+02  0.51100000000E-03 0. -1.
    9900012    2    1    2    0    0  0.15540433565E+02 -0.31221611187E+01  0.99712527721E+01  0.72461578898E+02  0.70000011208E+02 0.  0.
         12    1    1    2    0    0 -0.15540433565E+02  0.31221611187E+01 -0.99712527721E+01  0.18726421102E+02  0.00000000000E+00 0. -1.
         11    1    3    3    0    0 -0.69869288330E+01  0.79187405316E+01 -0.73614632779E+01  0.12873024818E+02  0.51100000000E-03 0. -1.
        -11    1    3    3    0    0 -0.74325713805E+00 -0.23168380643E+02  0.23095606850E+02  0.32722062111E+02  0.51100000000E-03 0.  1.
        -12    1    3    3    0    0  0.23270619536E+02  0.12127478993E+02 -0.57628907996E+01  0.26866491968E+02  0.00000000000E+00 0.  1.
</event>
<event>
 7    1  0.1465498E-013  0.7246155E+02  0.7816164E-02  0.1226708E+00
        -11   -1    0    0    0    0  0.00000000000E+00  0.00000000000E+00  0.45593999997E+02  0.45594000000E+02  0.51100000000E-03 0.  1.
         11   -1    0    0    0    0 -0.00000000000E+00 -0.00000000000E+00 -0.45593999997E+02  0.45594000000E+02  0.51100000000E-03 0. -1.
    9900012    2    1    2    0    0  0.19658672546E+01  0.17621028795E+02  0.60261486548E+01  0.72461554596E+02  0.69999979550E+02 0.  0.
         12    1    1    2    0    0 -0.19658672546E+01 -0.17621028795E+02 -0.60261486548E+01  0.18726445404E+02  0.00000000000E+00 0. -1.
         11    1    3    3    0    0 -0.27330882759E+01  0.24755170058E+02 -0.16305308975E+02  0.29768293823E+02  0.51100000000E-03 0. -1.
        -11    1    3    3    0    0 -0.43679795519E+01 -0.10302551596E+02 -0.60568006627E+01  0.12724254371E+02  0.51100000000E-03 0.  1.
        -12    1    3    3    0    0  0.90669350824E+01  0.31684103339E+01  0.28388258293E+02  0.29969006402E+02  0.00000000000E+00 0.  1.
</event>
<event>
 7    1  0.1465498E-013  0.7246108E+02  0.7816164E-02  0.1226709E+00
        -11   -1    0    0    0    0  0.00000000000E+00  0.00000000000E+00  0.45593999997E+02  0.45594000000E+02  0.51100000000E-03 0.  1.
         11   -1    0    0    0    0 -0.00000000000E+00 -0.00000000000E+00 -0.45593999997E+02  0.45594000000E+02  0.51100000000E-03 0. -1.
    9900012    2    1    2    0    0  0.85158818035E+01  0.60953156669E+01  0.15524960306E+02  0.72461080647E+02  0.69999362140E+02 0.  0.
         12    1    1    2    0    0 -0.85158818035E+01 -0.60953156669E+01 -0.15524960306E+02  0.18726919353E+02  0.00000000000E+00 0. -1.
         11    1    3    3    0    0  0.20130667290E+02 -0.12481964850E+02 -0.45924076643E+01  0.24127441233E+02  0.51100000000E-03 0. -1.
        -11    1    3    3    0    0 -0.37339075554E+00 -0.57062317841E+01  0.20793858862E+02  0.21565831040E+02  0.51100000000E-03 0.  1.
         12    1    3    3    0    0 -0.11241394731E+02  0.24283512301E+02 -0.67649089190E+00  0.26767808373E+02  0.00000000000E+00 0. -1.
</event>
<event>
 7    1  0.1465498E-013  0.7246159E+02  0.7816164E-02  0.1226708E+00
        -11   -1    0    0    0    0  0.00000000000E+00  0.00000000000E+00  0.45593999997E+02  0.45594000000E+02  0.51100000000E-03 0.  1.
         11   -1    0    0    0    0 -0.00000000000E+00 -0.00000000000E+00 -0.45593999997E+02  0.45594000000E+02  0.51100000000E-03 0. -1.
    9900012    2    1    2    0    0 -0.50652842916E+01  0.14163807170E+02  0.11153824790E+02  0.72461592284E+02  0.70000028645E+02 0.  0.
         12    1    1    2    0    0  0.50652842916E+01 -0.14163807170E+02 -0.11153824790E+02  0.18726407716E+02  0.00000000000E+00 0. -1.
         11    1    3    3    0    0 -0.42683696537E+01 -0.20854421518E+01 -0.38329125652E+00  0.47660214978E+01  0.51100000000E-03 0. -1.
        -11    1    3    3    0    0 -0.31481032914E+02  0.14755764187E+02 -0.31241221532E+00  0.34769032367E+02  0.51100000000E-03 0.  1.
         12    1    3    3    0    0  0.30684118276E+02  0.14934851347E+01  0.11849528262E+02  0.32926538419E+02  0.00000000000E+00 0. -1.
</event>
<event>
 7    1  0.1465498E-013  0.7246159E+02  0.7816164E-02  0.1226708E+00
        -11   -1    0    0    0    0  0.00000000000E+00  0.00000000000E+00  0.45593999997E+02  0.45594000000E+02  0.51100000000E-03 0.  1.
         11   -1    0    0    0    0 -0.00000000000E+00 -0.00000000000E+00 -0.45593999997E+02  0.45594000000E+02  0.51100000000E-03 0. -1.
    9900012    2    1    2    0    0 -0.15198440458E+02 -0.84574326309E+01  0.69395741422E+01  0.72461589550E+02  0.70000025084E+02 0.  0.
         12    1    1    2    0    0  0.15198440458E+02  0.84574326309E+01 -0.69395741422E+01  0.18726410450E+02  0.00000000000E+00 0. -1.
         11    1    3    3    0    0  0.57075797284E+01 -0.97390324708E+01  0.26015734818E+02  0.28359190365E+02  0.51100000000E-03 0. -1.
        -11    1    3    3    0    0 -0.11655163600E+02 -0.32678322737E+01  0.84147632824E+01  0.14742110014E+02  0.51100000000E-03 0.  1.
         12    1    3    3    0    0 -0.92508565863E+01  0.45494321137E+01 -0.27490923958E+02  0.29360289171E+02  0.00000000000E+00 0. -1.
</event>
<event>
 7    1  0.1465498E-013  0.7246155E+02  0.7816164E-02  0.1226708E+00
        -11   -1    0    0    0    0  0.00000000000E+00  0.00000000000E+00  0.45593999997E+02  0.45594000000E+02  0.51100000000E-03 0.  1.
         11   -1    0    0    0    0 -0.00000000000E+00 -0.00000000000E+00 -0.45593999997E+02  0.45594000000E+02  0.51100000000E-03 0. -1.
    9900012    2    1    2    0    0  0.79613130045E+01 -0.60589021076E+01  0.15829941847E+02  0.72461551902E+02  0.69999976040E+02 0.  0.
         12    1    1    2    0    0 -0.79613130045E+01  0.60589021076E+01 -0.15829941847E+02  0.18726448098E+02  0.00000000000E+00 0. -1.
         11    1    3    3    0    0  0.16828802199E+01 -0.18596209504E+00  0.38807343138E+01  0.42340012767E+01  0.51100000000E-03 0. -1.
        -11    1    3    3    0    0  0.36385412887E+02 -0.32796184338E-01  0.85080217170E+01  0.37366907556E+02  0.51100000000E-03 0.  1.
         12    1    3    3    0    0 -0.30106980102E+02 -0.58401438282E+01  0.34411858162E+01  0.30860643069E+02  0.00000000000E+00 0. -1.
</event>
<event>
 7    1  0.1465498E-013  0.7246158E+02  0.7816164E-02  0.1226708E+00
        -11   -1    0    0    0    0  0.00000000000E+00  0.00000000000E+00  0.45593999997E+02  0.45594000000E+02  0.51100000000E-03 0.  1.
         11   -1    0    0    0    0 -0.00000000000E+00 -0.00000000000E+00 -0.45593999997E+02  0.45594000000E+02  0.51100000000E-03 0. -1.
    9900012    2    1    2    0    0  0.85387610810E+01 -0.16565397820E+02  0.18319562951E+01  0.72461577234E+02  0.70000009041E+02 0.  0.
         12    1    1    2    0    0 -0.85387610810E+01  0.16565397820E+02 -0.18319562951E+01  0.18726422766E+02  0.00000000000E+00 0. -1.
         11    1    3    3    0    0  0.20321168230E+02 -0.69460981619E+01 -0.20537354180E+02  0.29714997474E+02  0.51100000000E-03 0. -1.
        -11    1    3    3    0    0 -0.79720231960E+01 -0.27336269235E+01 -0.78512543256E+01  0.11518162386E+02  0.51100000000E-03 0.  1.
        -12    1    3    3    0    0 -0.38103839530E+01 -0.68856727344E+01  0.30220564801E+02  0.31228417375E+02  0.00000000000E+00 0.  1.
</event>
<event>
 7    1  0.1465498E-013  0.7246151E+02  0.7816164E-02  0.1226708E+00
        -11   -1    0    0    0    0  0.00000000000E+00  0.00000000000E+00  0.45593999997E+02  0.45594000000E+02  0.51100000000E-03 0. -1.
         11   -1    0    0    0    0 -0.00000000000E+00 -0.00000000000E+00 -0.45593999997E+02  0.45594000000E+02  0.51100000000E-03 0.  1.
    9900012    2    1    2    0    0  0.78284878236E+01 -0.12527094669E+02 -0.11509478647E+02  0.72461510175E+02  0.69999921683E+02 0.  0.
         12    1    1    2    0    0 -0.78284878236E+01  0.12527094669E+02  0.11509478647E+02  0.18726489825E+02  0.00000000000E+00 0. -1.
         11    1    3    3    0    0  0.29106985441E+02  0.85390509437E+01  0.63194675912E+01  0.30984958664E+02  0.51100000000E-03 0. -1.
        -11    1    3    3    0    0  0.47849064030E+01 -0.32707957557E+01 -0.38629381881E+01  0.69653230986E+01  0.51100000000E-03 0.  1.
        -12    1    3    3    0    0 -0.26063404021E+02 -0.17795349857E+02 -0.13966008050E+02  0.34511228412E+02  0.00000000000E+00 0.  1.
</event>
<event>
 7    1  0.1465498E-013  0.7246128E+02  0.7816164E-02  0.1226709E+00
        -11   -1    0    0    0    0  0.00000000000E+00  0.00000000000E+00  0.45593999997E+02  0.45594000000E+02  0.51100000000E-03 0.  1.
         11   -1    0    0    0    0 -0.00000000000E+00 -0.00000000000E+00 -0.45593999997E+02  0.45594000000E+02  0.51100000000E-03 0. -1.
    9900012    2    1    2    0    0  0.18375680634E+02 -0.32071172363E+01  0.16549400994E+01  0.72461279346E+02  0.69999620984E+02 0.  0.
         12    1    1    2    0    0 -0.18375680634E+02  0.32071172363E+01 -0.16549400994E+01  0.18726720654E+02  0.00000000000E+00 0. -1.
         11    1    3    3    0    0  0.29149479913E+01  0.17751055374E+02 -0.24237562212E+02  0.30183709363E+02  0.51100000000E-03 0. -1.
        -11    1    3    3    0    0  0.13687632972E+02 -0.15424043631E+01  0.12712496156E+02  0.18744008813E+02  0.51100000000E-03 0.  1.
        -12    1    3    3    0    0  0.17730996713E+01 -0.19415768247E+02  0.13180006155E+02  0.23533561170E+02  0.00000000000E+00 0.  1.
</event>
<event>
 7    1  0.1465498E-013  0.7246160E+02  0.7816164E-02  0.1226708E+00
        -11   -1    0    0    0    0  0.00000000000E+00  0.00000000000E+00  0.45593999997E+02  0.45594000000E+02  0.51100000000E-03 0. -1.
         11   -1    0    0    0    0 -0.00000000000E+00 -0.00000000000E+00 -0.45593999997E+02  0.45594000000E+02  0.51100000000E-03 0.  1.
    9900012    2    1    2    0    0  0.15599158072E+02 -0.84844364284E+01 -0.59463100950E+01  0.72461601579E+02  0.70000040754E+02 0.  0.
         12    1    1    2    0    0 -0.15599158072E+02  0.84844364284E+01  0.59463100950E+01  0.18726398421E+02  0.00000000000E+00 0. -1.
         11    1    3    3    0    0 -0.24044740193E+01  0.49657970925E+00  0.10436405861E+02  0.10721317749E+02  0.51100000000E-03 0. -1.
        -11    1    3    3    0    0  0.11900996729E+02 -0.82312579348E+01  0.20086773012E+02  0.24756126123E+02  0.51100000000E-03 0.  1.
        -12    1    3    3    0    0  0.61026353625E+01 -0.74975820287E+00 -0.36469488968E+02  0.36984157707E+02  0.00000000000E+00 0.  1.
</event>
<event>
 7    1  0.1617757E-013  0.7246161E+02  0.7816164E-02  0.1226708E+00
        -11   -1    0    0    0    0  0.00000000000E+00  0.00000000000E+00  0.45593999997E+02  0.45594000000E+02  0.51100000000E-03 0. -1.
         11   -1    0    0    0    0 -0.00000000000E+00 -0.00000000000E+00 -0.45593999997E+02  0.45594000000E+02  0.51100000000E-03 0.  1.
    9900012    2    1    2    0    0  0.18409634050E+02  0.91937317774E+00 -0.33041889644E+01  0.72461613867E+02  0.70000056762E+02 0.  0.
         12    1    1    2    0    0 -0.18409634050E+02 -0.91937317774E+00  0.33041889644E+01  0.18726386133E+02  0.00000000000E+00 0. -1.
         11    1    3    3    0    0 -0.38773067024E+01 -0.11396820101E+02  0.14623808291E+02  0.18941403984E+02  0.51100000000E-03 0. -1.
        -11    1    3    3    0    0  0.19576070480E+02 -0.11555557679E+02  0.12687305011E+01  0.22767589377E+02  0.51100000000E-03 0.  1.
        -12    1    3    3    0    0  0.27108702722E+01  0.23871750958E+02 -0.19196727757E+02  0.30752620506E+02  0.00000000000E+00 0.  1.
</event>
<event>
 7    1  0.1465498E-013  0.7246135E+02  0.7816164E-02  0.1226709E+00
        -11   -1    0    0    0    0  0.00000000000E+00  0.00000000000E+00  0.45593999997E+02  0.45594000000E+02  0.51100000000E-03 0.  1.
         11   -1    0    0    0    0 -0.00000000000E+00 -0.00000000000E+00 -0.45593999997E+02  0.45594000000E+02  0.51100000000E-03 0. -1.
    9900012    2    1    2    0    0 -0.16182405711E+02  0.16591319884E+01  0.92770916632E+01  0.72461350453E+02  0.69999713615E+02 0.  0.
         12    1    1    2    0    0  0.16182405711E+02 -0.16591319884E+01 -0.92770916632E+01  0.18726649547E+02  0.00000000000E+00 0. -1.
         11    1    3    3    0    0 -0.18720444293E+01  0.30113825277E+02  0.53677183862E+01  0.30645708086E+02  0.51100000000E-03 0. -1.
        -11    1    3    3    0    0  0.33425041218E+01 -0.30276963421E+01  0.93557875687E+01  0.10386050271E+02  0.51100000000E-03 0.  1.
        -12    1    3    3    0    0 -0.17652865403E+02 -0.25426996946E+02 -0.54464142917E+01  0.31429592096E+02  0.00000000000E+00 0.  1.
</event>
<event>
 7    1  0.1465498E-013  0.7246161E+02  0.7816164E-02  0.1226708E+00
        -11   -1    0    0    0    0  0.00000000000E+00  0.00000000000E+00  0.45593999997E+02  0.45594000000E+02  0.51100000000E-03 0. -1.
         11   -1    0    0    0    0 -0.00000000000E+00 -0.00000000000E+00 -0.45593999997E+02  0.45594000000E+02  0.51100000000E-03 0.  1.
    9900012    2    1    2    0    0 -0.49059909044E+01 -0.48518434943E+01 -0.17408868027E+02  0.72461606379E+02  0.70000047007E+02 0.  0.
         12    1    1    2    0    0  0.49059909044E+01  0.48518434943E+01  0.17408868027E+02  0.18726393621E+02  0.00000000000E+00 0. -1.
         11    1    3    3    0    0 -0.25020183558E+02 -0.11627833242E+02 -0.56398360826E+00  0.27595908554E+02  0.51100000000E-03 0. -1.
        -11    1    3    3    0    0  0.16161687025E+02 -0.12902971742E+02 -0.13004712712E+02  0.24429681952E+02  0.51100000000E-03 0.  1.
        -12    1    3    3    0    0  0.39525056281E+01  0.19678961489E+02 -0.38401717071E+01  0.20436015874E+02  0.00000000000E+00 0.  1.
</event>
<event>
 7    1  0.1813006E-013  0.7246155E+02  0.7816164E-02  0.1226708E+00
        -11   -1    0    0    0    0  0.00000000000E+00  0.00000000000E+00  0.45593999997E+02  0.45594000000E+02  0.51100000000E-03 0. -1.
         11   -1    0    0    0    0 -0.00000000000E+00 -0.00000000000E+00 -0.45593999997E+02  0.45594000000E+02  0.51100000000E-03 0.  1.
    9900012    2    1    2    0    0  0.10371415170E+02 -0.13109485942E+02 -0.84412648498E+01  0.72461552751E+02  0.69999977147E+02 0.  0.
         12    1    1    2    0    0 -0.10371415170E+02  0.13109485942E+02  0.84412648498E+01  0.18726447249E+02  0.00000000000E+00 0. -1.
         11    1    3    3    0    0 -0.73067037475E+01  0.18172078341E+02 -0.21292126518E+01  0.19701418671E+02  0.51100000000E-03 0. -1.
        -11    1    3    3    0    0  0.19953979206E+02 -0.25447976732E+01  0.66042133711E+01  0.21171984221E+02  0.51100000000E-03 0.  1.
        -12    1    3    3    0    0 -0.22758602879E+01 -0.28736766610E+02 -0.12916265569E+02  0.31588149859E+02  0.00000000000E+00 0.  1.
</event>
<event>
 7    1  0.1465498E-013  0.7246155E+02  0.7816164E-02  0.1226708E+00
        -11   -1    0    0    0    0  0.00000000000E+00  0.00000000000E+00  0.45593999997E+02  0.45594000000E+02  0.51100000000E-03 0. -1.
         11   -1    0    0    0    0 -0.00000000000E+00 -0.00000000000E+00 -0.45593999997E+02  0.45594000000E+02  0.51100000000E-03 0.  1.
    9900012    2    1    2    0    0  0.11134459095E+02  0.82785709399E+01  0.12576533112E+02  0.72461545417E+02  0.69999967592E+02 0.  0.
         12    1    1    2    0    0 -0.11134459095E+02 -0.82785709399E+01 -0.12576533112E+02  0.18726454583E+02  0.00000000000E+00 0. -1.
         11    1    3    3    0    0  0.16505235356E+02  0.56957780958E+01  0.38149381560E+02  0.41955214169E+02  0.51100000000E-03 0. -1.
        -11    1    3    3    0    0  0.23501463201E+01  0.68046895617E+01 -0.74499742480E+01  0.10359976077E+02  0.51100000000E-03 0.  1.
        -12    1    3    3    0    0 -0.77209225808E+01 -0.42218967176E+01 -0.18122874200E+02  0.20146355171E+02  0.00000000000E+00 0.  1.
</event>
<event>
 7    1  0.1465498E-013  0.7246154E+02  0.7816164E-02  0.1226708E+00
        -11   -1    0    0    0    0  0.00000000000E+00  0.00000000000E+00  0.45593999997E+02  0.45594000000E+02  0.51100000000E-03 0. -1.
         11   -1    0    0    0    0 -0.00000000000E+00 -0.00000000000E+00 -0.45593999997E+02  0.45594000000E+02  0.51100000000E-03 0.  1.
    9900012    2    1    2    0    0 -0.14970872171E+02  0.91877496950E+01 -0.64914099352E+01  0.72461543822E+02  0.69999965515E+02 0.  0.
         12    1    1    2    0    0  0.14970872171E+02 -0.91877496950E+01  0.64914099352E+01  0.18726456178E+02  0.00000000000E+00 0. -1.
         11    1    3    3    0    0  0.87837454973E+01  0.32812422191E+01  0.97021340399E+01  0.13492669886E+02  0.51100000000E-03 0. -1.
        -11    1    3    3    0    0  0.13373171574E+02  0.94426416168E+01 -0.14114157137E+02  0.21615148174E+02  0.51100000000E-03 0.  1.
        -12    1    3    3    0    0 -0.37127789242E+02 -0.35361341409E+01 -0.20793868380E+01  0.37353725762E+02  0.00000000000E+00 0.  1.
</event>
<event>
 7    1  0.1465498E-013  0.7246150E+02  0.7816164E-02  0.1226708E+00
        -11   -1    0    0    0    0  0.00000000000E+00  0.00000000000E+00  0.45593999997E+02  0.45594000000E+02  0.51100000000E-03 0. -1.
         11   -1    0    0    0    0 -0.00000000000E+00 -0.00000000000E+00 -0.45593999997E+02  0.45594000000E+02  0.51100000000E-03 0.  1.
    9900012    2    1    2    0    0 -0.15578566602E+02  0.15420893543E+01 -0.10276763940E+02  0.72461503958E+02  0.69999913584E+02 0.  0.
         12    1    1    2    0    0  0.15578566602E+02 -0.15420893543E+01  0.10276763940E+02  0.18726496042E+02  0.00000000000E+00 0. -1.
         11    1    3    3    0    0  0.32734826869E+01  0.17314166135E+01 -0.61114117730E+01  0.71458272097E+01  0.51100000000E-03 0. -1.
        -11    1    3    3    0    0 -0.31822588224E+02  0.68191414422E+01 -0.24117785148E+02  0.40507349605E+02  0.51100000000E-03 0.  1.
         12    1    3    3    0    0  0.12970538936E+02 -0.70084687014E+01  0.19952432981E+02  0.24808327144E+02  0.00000000000E+00 0. -1.
</event>
<event>
 7    1  0.1465498E-013  0.7246156E+02  0.7816164E-02  0.1226708E+00
        -11   -1    0    0    0    0  0.00000000000E+00  0.00000000000E+00  0.45593999997E+02  0.45594000000E+02  0.51100000000E-03 0. -1.
         11   -1    0    0    0    0 -0.00000000000E+00 -0.00000000000E+00 -0.45593999997E+02  0.45594000000E+02  0.51100000000E-03 0.  1.
    9900012    2    1    2    0    0 -0.10876299779E+02 -0.10394630289E+02 -0.11150671735E+02  0.72461555707E+02  0.69999980997E+02 0.  0.
         12    1    1    2    0    0  0.10876299779E+02  0.10394630289E+02  0.11150671735E+02  0.18726444293E+02  0.00000000000E+00 0. -1.
         11    1    3    3    0    0  0.93418633369E+00  0.17402787676E+02  0.21768865571E+01  0.17563272997E+02  0.51100000000E-03 0. -1.
        -11    1    3    3    0    0 -0.13436359970E+02  0.91467311487E+01 -0.33468878648E+01  0.16595183596E+02  0.51100000000E-03 0.  1.
        -12    1    3    3    0    0  0.16258738575E+01 -0.36944149114E+02 -0.99806704272E+01  0.38303099114E+02  0.00000000000E+00 0.  1.
</event>
<event>
 7    1  0.1465498E-013  0.7246148E+02  0.7816164E-02  0.1226708E+00
        -11   -1    0    0    0    0  0.00000000000E+00  0.00000000000E+00  0.45593999997E+02  0.45594000000E+02  0.51100000000E-03 0.  1.
         11   -1    0    0    0    0 -0.00000000000E+00 -0.00000000000E+00 -0.45593999997E+02  0.45594000000E+02  0.51100000000E-03 0. -1.
    9900012    2    1    2    0    0 -0.52888072401E+01  0.11283535049E+02  0.13978300569E+02  0.72461480515E+02  0.69999883046E+02 0.  0.
         12    1    1    2    0    0  0.52888072401E+01 -0.11283535049E+02 -0.13978300569E+02  0.18726519485E+02  0.00000000000E+00 0. -1.
         11    1    3    3    0    0 -0.53491015263E+01  0.16512381622E+02  0.10022918554E+02  0.20043216573E+02  0.51100000000E-03 0. -1.
        -11    1    3    3    0    0  0.16636990850E+00  0.92556365774E+01  0.25120089378E+02  0.26771503096E+02  0.51100000000E-03 0.  1.
         12    1    3    3    0    0 -0.10607562231E+00 -0.14484483150E+02 -0.21164707363E+02  0.25646760847E+02  0.00000000000E+00 0. -1.
</event>
<event>
 7    1  0.1465498E-013  0.7246155E+02  0.7816164E-02  0.1226708E+00
        -11   -1    0    0    0    0  0.00000000000E+00  0.00000000000E+00  0.45593999997E+02  0.45594000000E+02  0.51100000000E-03 0.  1.
         11   -1    0    0    0    0 -0.00000000000E+00 -0.00000000000E+00 -0.45593999997E+02  0.45594000000E+02  0.51100000000E-03 0. -1.
    9900012    2    1    2    0    0  0.16094617097E+02 -0.52021174111E+00 -0.95589090228E+01  0.72461546480E+02  0.69999968977E+02 0.  0.
         12    1    1    2    0    0 -0.16094617097E+02  0.52021174111E+00  0.95589090228E+01  0.18726453520E+02  0.00000000000E+00 0. -1.
         11    1    3    3    0    0  0.96678622018E+01  0.50866649200E+01  0.97442356165E+01  0.14638710584E+02  0.51100000000E-03 0. -1.
        -11    1    3    3    0    0 -0.52366704643E+01 -0.18836612816E+02  0.11241135592E+02  0.22552246664E+02  0.51100000000E-03 0.  1.
         12    1    3    3    0    0  0.11663425359E+02  0.13229736155E+02 -0.30544280232E+02  0.35270589231E+02  0.00000000000E+00 0. -1.
</event>
<event>
 7    1  0.1465498E-013  0.7246153E+02  0.7816164E-02  0.1226708E+00
        -11   -1    0    0    0    0  0.00000000000E+00  0.00000000000E+00  0.45593999997E+02  0.45594000000E+02  0.51100000000E-03 0.  1.
         11   -1    0    0    0    0 -0.00000000000E+00 -0.00000000000E+00 -0.45593999997E+02  0.45594000000E+02  0.51100000000E-03 0. -1.
    9900012    2    1    2    0    0 -0.17418595660E+02 -0.63780288883E+01  0.25678729861E+01  0.72461529459E+02  0.69999946804E+02 0.  0.
         12    1    1    2    0    0  0.17418595660E+02  0.63780288883E+01 -0.25678729861E+01  0.18726470541E+02  0.00000000000E+00 0. -1.
         11    1    3    3    0    0  0.47297074451E+01  0.41190746603E+01  0.93721284832E+01  0.11277131778E+02  0.51100000000E-03 0. -1.
        -11    1    3    3    0    0 -0.77328353568E+01  0.10002023957E+02  0.20523968463E+02  0.24105404117E+02  0.51100000000E-03 0.  1.
         12    1    3    3    0    0 -0.14415467748E+02 -0.20499127506E+02 -0.27328223960E+02  0.37078993564E+02  0.00000000000E+00 0. -1.
</event>
<event>
 7    1  0.1465498E-013  0.7246156E+02  0.7816164E-02  0.1226708E+00
        -11   -1    0    0    0    0  0.00000000000E+00  0.00000000000E+00  0.45593999997E+02  0.45594000000E+02  0.51100000000E-03 0.  1.
         11   -1    0    0    0    0 -0.00000000000E+00 -0.00000000000E+00 -0.45593999997E+02  0.45594000000E+02  0.51100000000E-03 0. -1.
    9900012    2    1    2    0    0  0.75842879106E+01 -0.11654371993E+02  0.12543268550E+02  0.72461564258E+02  0.69999992137E+02 0.  0.
         12    1    1    2    0    0 -0.75842879106E+01  0.11654371993E+02 -0.12543268550E+02  0.18726435742E+02  0.00000000000E+00 0. -1.
         11    1    3    3    0    0  0.14664579042E+01  0.19773907795E+02 -0.11095078352E+02  0.22721326814E+02  0.51100000000E-03 0. -1.
        -11    1    3    3    0    0 -0.33612889588E+01  0.79174114659E+00 -0.46753960454E+01  0.58124388986E+01  0.51100000000E-03 0.  1.
        -12    1    3    3    0    0  0.94791189652E+01 -0.32220020935E+02  0.28313742947E+02  0.43927798546E+02  0.00000000000E+00 0.  1.
</event>
<event>
 7    1  0.1465498E-013  0.7246152E+02  0.7816164E-02  0.1226708E+00
        -11   -1    0    0    0    0  0.00000000000E+00  0.00000000000E+00  0.45593999997E+02  0.45594000000E+02  0.51100000000E-03 0. -1.
         11   -1    0    0    0    0 -0.00000000000E+00 -0.00000000000E+00 -0.45593999997E+02  0.45594000000E+02  0.51100000000E-03 0.  1.
    9900012    2    1    2    0    0 -0.88249421366E+00 -0.18704341757E+02 -0.22355580014E+00  0.72461516780E+02  0.69999930288E+02 0.  0.
         12    1    1    2    0    0  0.88249421366E+00  0.18704341757E+02  0.22355580014E+00  0.18726483220E+02  0.00000000000E+00 0. -1.
         11    1    3    3    0    0  0.18118938439E+02 -0.14989458074E+02  0.16883460388E+02  0.28948765405E+02  0.51100000000E-03 0. -1.
        -11    1    3    3    0    0  0.96868797377E+01  0.32593088085E+01 -0.66415490967E+01  0.12188884593E+02  0.51100000000E-03 0.  1.
        -12    1    3    3    0    0 -0.28688312391E+02 -0.69741924917E+01 -0.10465467091E+02  0.31323866782E+02  0.00000000000E+00 0.  1.
</event>
<event>
 7    1  0.1465498E-013  0.7246157E+02  0.7816164E-02  0.1226708E+00
        -11   -1    0    0    0    0  0.00000000000E+00  0.00000000000E+00  0.45593999997E+02  0.45594000000E+02  0.51100000000E-03 0.  1.
         11   -1    0    0    0    0 -0.00000000000E+00 -0.00000000000E+00 -0.45593999997E+02  0.45594000000E+02  0.51100000000E-03 0. -1.
    9900012    2    1    2    0    0 -0.10411466435E+02  0.15505613085E+02 -0.13624872418E+01  0.72461573700E+02  0.70000004437E+02 0.  0.
         12    1    1    2    0    0  0.10411466435E+02 -0.15505613085E+02  0.13624872418E+01  0.18726426300E+02  0.00000000000E+00 0. -1.
         11    1    3    3    0    0  0.87205465147E+01  0.23754971545E+02 -0.11866903895E+02  0.27949418830E+02  0.51100000000E-03 0. -1.
        -11    1    3    3    0    0  0.91616645432E+01 -0.80573879607E+01 -0.38382488068E+01  0.12790220956E+02  0.51100000000E-03 0.  1.
        -12    1    3    3    0    0 -0.28293677493E+02 -0.19197049954E+00  0.14342665460E+02  0.31721933914E+02  0.00000000000E+00 0.  1.
</event>
<event>
 7    1  0.1465498E-013  0.7246155E+02  0.7816164E-02  0.1226708E+00
        -11   -1    0    0    0    0  0.00000000000E+00  0.00000000000E+00  0.45593999997E+02  0.45594000000E+02  0.51100000000E-03 0.  1.
         11   -1    0    0    0    0 -0.00000000000E+00 -0.00000000000E+00 -0.45593999997E+02  0.45594000000E+02  0.51100000000E-03 0. -1.
    9900012    2    1    2    0    0 -0.10949319009E+02  0.14201638652E+02 -0.53949633590E+01  0.72461554614E+02  0.69999979573E+02 0.  0.
         12    1    1    2    0    0  0.10949319009E+02 -0.14201638652E+02  0.53949633590E+01  0.18726445386E+02  0.00000000000E+00 0. -1.
         11    1    3    3    0    0 -0.28112072201E+02 -0.88826435362E+01 -0.54317785931E+01  0.29978228410E+02  0.51100000000E-03 0. -1.
        -11    1    3    3    0    0 -0.49457623774E+01 -0.88654397301E-01  0.80683636976E+01  0.94639800356E+01  0.51100000000E-03 0.  1.
        -12    1    3    3    0    0  0.22108515569E+02  0.23172936585E+02 -0.80315484635E+01  0.33019346168E+02  0.00000000000E+00 0.  1.
</event>
<event>
 7    1  0.1465498E-013  0.7246156E+02  0.7816164E-02  0.1226708E+00
        -11   -1    0    0    0    0  0.00000000000E+00  0.00000000000E+00  0.45593999997E+02  0.45594000000E+02  0.51100000000E-03 0. -1.
         11   -1    0    0    0    0 -0.00000000000E+00 -0.00000000000E+00 -0.45593999997E+02  0.45594000000E+02  0.51100000000E-03 0.  1.
    9900012    2    1    2    0    0  0.14933146875E+02  0.10178400835E+02 -0.49072299913E+01  0.72461558124E+02  0.69999984146E+02 0.  0.
         12    1    1    2    0    0 -0.14933146875E+02 -0.10178400835E+02  0.49072299913E+01  0.18726441876E+02  0.00000000000E+00 0. -1.
         11    1    3    3    0    0  0.24858240612E+02  0.38044473794E+01  0.17570388450E+02  0.30677752472E+02  0.51100000000E-03 0. -1.
        -11    1    3    3    0    0 -0.10215371625E+01  0.15172378433E+02  0.93458205811E+00  0.15235420879E+02  0.51100000000E-03 0.  1.
        -12    1    3    3    0    0 -0.89035565746E+01 -0.87984249779E+01 -0.23412200500E+02  0.26548384772E+02  0.00000000000E+00 0.  1.
</event>
<event>
 7    1  0.1465498E-013  0.7246160E+02  0.7816164E-02  0.1226708E+00
        -11   -1    0    0    0    0  0.00000000000E+00  0.00000000000E+00  0.45593999997E+02  0.45594000000E+02  0.51100000000E-03 0. -1.
         11   -1    0    0    0    0 -0.00000000000E+00 -0.00000000000E+00 -0.45593999997E+02  0.45594000000E+02  0.51100000000E-03 0.  1.
    9900012    2    1    2    0    0 -0.14175027606E+02 -0.59694321582E+01 -0.10682344349E+02  0.72461601288E+02  0.70000040375E+02 0.  0.
         12    1    1    2    0    0  0.14175027606E+02  0.59694321582E+01  0.10682344349E+02  0.18726398712E+02  0.00000000000E+00 0. -1.
         11    1    3    3    0    0 -0.12396012151E+02 -0.22527833816E+01 -0.14155912632E+02  0.18950620384E+02  0.51100000000E-03 0. -1.
        -11    1    3    3    0    0 -0.16793225716E+02  0.11476037737E+02 -0.14998307653E+02  0.25271745187E+02  0.51100000000E-03 0.  1.
        -12    1    3    3    0    0  0.15014210261E+02 -0.15192686514E+02  0.18471875936E+02  0.28239235717E+02  0.00000000000E+00 0.  1.
</event>
<event>
 7    1  0.1465498E-013  0.7246176E+02  0.7816164E-02  0.1226708E+00
        -11   -1    0    0    0    0  0.00000000000E+00  0.00000000000E+00  0.45593999997E+02  0.45594000000E+02  0.51100000000E-03 0. -1.
         11   -1    0    0    0    0 -0.00000000000E+00 -0.00000000000E+00 -0.45593999997E+02  0.45594000000E+02  0.51100000000E-03 0.  1.
    9900012    2    1    2    0    0  0.11357495302E+02 -0.30631723941E+01 -0.14570396524E+02  0.72461756930E+02  0.70000243127E+02 0.  0.
         12    1    1    2    0    0 -0.11357495302E+02  0.30631723941E+01  0.14570396524E+02  0.18726243070E+02  0.00000000000E+00 0. -1.
         11    1    3    3    0    0  0.17192450765E+01  0.62245403686E+00  0.11714179464E+02  0.11856021822E+02  0.51100000000E-03 0. -1.
        -11    1    3    3    0    0  0.74989763258E+01  0.24868021681E+02 -0.12729880732E+02  0.28925819124E+02  0.51100000000E-03 0.  1.
        -12    1    3    3    0    0  0.21392738999E+01 -0.28553648112E+02 -0.13554695256E+02  0.31679915985E+02  0.00000000000E+00 0.  1.
</event>
<event>
 7    1  0.1465498E-013  0.7246160E+02  0.7816164E-02  0.1226708E+00
        -11   -1    0    0    0    0  0.00000000000E+00  0.00000000000E+00  0.45593999997E+02  0.45594000000E+02  0.51100000000E-03 0.  1.
         11   -1    0    0    0    0 -0.00000000000E+00 -0.00000000000E+00 -0.45593999997E+02  0.45594000000E+02  0.51100000000E-03 0. -1.
    9900012    2    1    2    0    0  0.10215885716E+02  0.55801436215E+00  0.15684457719E+02  0.72461603792E+02  0.70000043637E+02 0.  0.
         12    1    1    2    0    0 -0.10215885716E+02 -0.55801436215E+00 -0.15684457719E+02  0.18726396208E+02  0.00000000000E+00 0. -1.
         11    1    3    3    0    0 -0.29240859442E+01 -0.17839465177E+02  0.98372227773E+01  0.20580761615E+02  0.51100000000E-03 0. -1.
        -11    1    3    3    0    0  0.49113437048E+01 -0.72938074425E+01  0.19686638867E+02  0.21561184433E+02  0.51100000000E-03 0.  1.
         12    1    3    3    0    0  0.82286279552E+01  0.25691286981E+02 -0.13839403925E+02  0.30319657745E+02  0.00000000000E+00 0. -1.
</event>
<event>
 7    1  0.1465498E-013  0.7246157E+02  0.7816164E-02  0.1226708E+00
        -11   -1    0    0    0    0  0.00000000000E+00  0.00000000000E+00  0.45593999997E+02  0.45594000000E+02  0.51100000000E-03 0. -1.
         11   -1    0    0    0    0 -0.00000000000E+00 -0.00000000000E+00 -0.45593999997E+02  0.45594000000E+02  0.51100000000E-03 0.  1.
    9900012    2    1    2    0    0  0.14312913133E+01  0.18323296512E+02  0.35899132530E+01  0.72461567690E+02  0.69999996607E+02 0.  0.
         12    1    1    2    0    0 -0.14312913133E+01 -0.18323296512E+02 -0.35899132530E+01  0.18726432310E+02  0.00000000000E+00 0. -1.
         11    1    3    3    0    0 -0.81120189721E+01  0.11132528380E+02  0.11181432269E+02  0.17741546375E+02  0.51100000000E-03 0. -1.
        -11    1    3    3    0    0  0.17451551764E+02  0.24531305173E+02  0.67684830617E+01  0.30856992006E+02  0.51100000000E-03 0.  1.
        -12    1    3    3    0    0 -0.79082414782E+01 -0.17340537041E+02 -0.14360002077E+02  0.23863029309E+02  0.00000000000E+00 0.  1.
</event>
<event>
 7    1  0.1465498E-013  0.7246157E+02  0.7816164E-02  0.1226708E+00
        -11   -1    0    0    0    0  0.00000000000E+00  0.00000000000E+00  0.45593999997E+02  0.45594000000E+02  0.51100000000E-03 0. -1.
         11   -1    0    0    0    0 -0.00000000000E+00 -0.00000000000E+00 -0.45593999997E+02  0.45594000000E+02  0.51100000000E-03 0.  1.
    9900012    2    1    2    0    0  0.12775064479E+02 -0.12401743819E+02 -0.58028858037E+01  0.72461574665E+02  0.70000005693E+02 0.  0.
         12    1    1    2    0    0 -0.12775064479E+02  0.12401743819E+02  0.58028858037E+01  0.18726425335E+02  0.00000000000E+00 0. -1.
         11    1    3    3    0    0  0.23353701845E+01  0.73689095833E+01 -0.27487616300E+02  0.28553875962E+02  0.51100000000E-03 0. -1.
        -11    1    3    3    0    0  0.44692661161E+01 -0.44585902641E+01 -0.78709755237E+01  0.10089877240E+02  0.51100000000E-03 0.  1.
         12    1    3    3    0    0  0.59704281781E+01 -0.15312063138E+02  0.29555706020E+02  0.33817821463E+02  0.00000000000E+00 0. -1.
</event>
<event>
 7    1  0.1465498E-013  0.7246157E+02  0.7816164E-02  0.1226708E+00
        -11   -1    0    0    0    0  0.00000000000E+00  0.00000000000E+00  0.45593999997E+02  0.45594000000E+02  0.51100000000E-03 0.  1.
         11   -1    0    0    0    0 -0.00000000000E+00 -0.00000000000E+00 -0.45593999997E+02  0.45594000000E+02  0.51100000000E-03 0. -1.
    9900012    2    1    2    0    0  0.77264641075E+01 -0.12214345388E+02  0.11907595075E+02  0.72461566775E+02  0.69999995415E+02 0.  0.
         12    1    1    2    0    0 -0.77264641075E+01  0.12214345388E+02 -0.11907595075E+02  0.18726433225E+02  0.00000000000E+00 0. -1.
         11    1    3    3    0    0  0.97319252091E+01  0.88646774245E+01  0.29731601040E+01  0.13495649498E+02  0.51100000000E-03 0. -1.
        -11    1    3    3    0    0  0.31691002130E+01  0.17801950092E+02 -0.21417779728E+01  0.18208235400E+02  0.51100000000E-03 0.  1.
         12    1    3    3    0    0 -0.51745613146E+01 -0.38880972904E+02  0.11076212944E+02  0.40757681877E+02  0.00000000000E+00 0. -1.
</event>
<event>
 7    1  0.1465498E-013  0.7246109E+02  0.7816164E-02  0.1226709E+00
        -11   -1    0    0    0    0  0.00000000000E+00  0.00000000000E+00  0.45593999997E+02  0.45594000000E+02  0.51100000000E-03 0.  1.
         11   -1    0    0    0    0 -0.00000000000E+00 -0.00000000000E+00 -0.45593999997E+02  0.45594000000E+02  0.51100000000E-03 0. -1.
    9900012    2    1    2    0    0  0.12372163451E+02 -0.11204045972E+01  0.14013258540E+02  0.72461090222E+02  0.69999374614E+02 0.  0.
         12    1    1    2    0    0 -0.12372163451E+02  0.11204045972E+01 -0.14013258540E+02  0.18726909778E+02  0.00000000000E+00 0. -1.
         11    1    3    3    0    0 -0.18749283209E+02  0.58186083633E+01 -0.60370897330E+01  0.20538701927E+02  0.51100000000E-03 0. -1.
        -11    1    3    3    0    0  0.19107071641E+02 -0.16192073841E+02 -0.20396328527E+01  0.25128142478E+02  0.51100000000E-03 0.  1.
        -12    1    3    3    0    0  0.12014375019E+02  0.92530608804E+01  0.22089981126E+02  0.26794245817E+02  0.00000000000E+00 0.  1.
</event>
<event>
 7    1  0.1465498E-013  0.7246158E+02  0.7816164E-02  0.1226708E+00
        -11   -1    0    0    0    0  0.00000000000E+00  0.00000000000E+00  0.45593999997E+02  0.45594000000E+02  0.51100000000E-03 0. -1.
         11   -1    0    0    0    0 -0.00000000000E+00 -0.00000000000E+00 -0.45593999997E+02  0.45594000000E+02  0.51100000000E-03 0.  1.
    9900012    2    1    2    0    0 -0.96012901231E+01 -0.14561113625E+02 -0.68167547723E+01  0.72461576218E+02  0.70000007717E+02 0.  0.
         12    1    1    2    0    0  0.96012901231E+01  0.14561113625E+02  0.68167547723E+01  0.18726423782E+02  0.00000000000E+00 0. -1.
         11    1    3    3    0    0 -0.13103948133E+02  0.18943470213E+02 -0.13695953501E+02  0.26798277238E+02  0.51100000000E-03 0. -1.
        -11    1    3    3    0    0 -0.72475221705E+01 -0.13114189635E+02 -0.91780387455E+01  0.17571139487E+02  0.51100000000E-03 0.  1.
        -12    1    3    3    0    0  0.10750180180E+02 -0.20390394203E+02  0.16057237474E+02  0.28092159493E+02  0.00000000000E+00 0.  1.
</event>
<event>
 7    1  0.1465498E-013  0.7246158E+02  0.7816164E-02  0.1226708E+00
        -11   -1    0    0    0    0  0.00000000000E+00  0.00000000000E+00  0.45593999997E+02  0.45594000000E+02  0.51100000000E-03 0.  1.
         11   -1    0    0    0    0 -0.00000000000E+00 -0.00000000000E+00 -0.45593999997E+02  0.45594000000E+02  0.51100000000E-03 0. -1.
    9900012    2    1    2    0    0  0.95561674930E+01  0.14420160488E+02  0.71705915547E+01  0.72461581525E+02  0.70000014630E+02 0.  0.
         12    1    1    2    0    0 -0.95561674930E+01 -0.14420160488E+02 -0.71705915547E+01  0.18726418475E+02  0.00000000000E+00 0. -1.
         11    1    3    3    0    0  0.27474371834E+02  0.24158557270E+02 -0.34954996120E+01  0.36751809681E+02  0.51100000000E-03 0. -1.
        -11    1    3    3    0    0 -0.11085877588E+01  0.11327211813E+01 -0.81101768347E+01  0.82635944144E+01  0.51100000000E-03 0.  1.
        -12    1    3    3    0    0 -0.16809616583E+02 -0.10871117963E+02  0.18776268001E+02  0.27446177429E+02  0.00000000000E+00 0.  1.
</event>
<event>
 7    1  0.1465498E-013  0.7246156E+02  0.7816164E-02  0.1226708E+00
        -11   -1    0    0    0    0  0.00000000000E+00  0.00000000000E+00  0.45593999997E+02  0.45594000000E+02  0.51100000000E-03 0. -1.
         11   -1    0    0    0    0 -0.00000000000E+00 -0.00000000000E+00 -0.45593999997E+02  0.45594000000E+02  0.51100000000E-03 0.  1.
    9900012    2    1    2    0    0  0.72066760087E+01 -0.59779693889E+01 -0.16217494224E+02  0.72461563713E+02  0.69999991426E+02 0.  0.
         12    1    1    2    0    0 -0.72066760087E+01  0.59779693889E+01  0.16217494224E+02  0.18726436287E+02  0.00000000000E+00 0. -1.
         11    1    3    3    0    0  0.17489794375E+01 -0.13111671913E+02 -0.13999590978E+02  0.19260410620E+02  0.51100000000E-03 0. -1.
        -11    1    3    3    0    0 -0.18463191349E+02 -0.25285740519E+01 -0.15449936187E+02  0.24207099164E+02  0.51100000000E-03 0.  1.
         12    1    3    3    0    0  0.23920887920E+02  0.96622765757E+01  0.13232032941E+02  0.28994053929E+02  0.00000000000E+00 0. -1.
</event>
<event>
 7    1  0.1465498E-013  0.7246155E+02  0.7816164E-02  0.1226708E+00
        -11   -1    0    0    0    0  0.00000000000E+00  0.00000000000E+00  0.45593999997E+02  0.45594000000E+02  0.51100000000E-03 0.  1.
         11   -1    0    0    0    0 -0.00000000000E+00 -0.00000000000E+00 -0.45593999997E+02  0.45594000000E+02  0.51100000000E-03 0. -1.
    9900012    2    1    2    0    0  0.12892130214E+02  0.46403060771E+01  0.12764809969E+02  0.72461552513E+02  0.69999976836E+02 0.  0.
         12    1    1    2    0    0 -0.12892130214E+02 -0.46403060771E+01 -0.12764809969E+02  0.18726447487E+02  0.00000000000E+00 0. -1.
         11    1    3    3    0    0 -0.15012548673E+02 -0.83815174001E-02  0.15994502964E+02  0.21936289870E+02  0.51100000000E-03 0. -1.
        -11    1    3    3    0    0  0.30186155098E+02 -0.11769532023E+02  0.35970502463E+01  0.32598536997E+02  0.51100000000E-03 0.  1.
         12    1    3    3    0    0 -0.22814762111E+01  0.16418219617E+02 -0.68267432414E+01  0.17926725646E+02  0.00000000000E+00 0. -1.
</event>
<event>
 7    1  0.1465498E-013  0.7246158E+02  0.7816164E-02  0.1226708E+00
        -11   -1    0    0    0    0  0.00000000000E+00  0.00000000000E+00  0.45593999997E+02  0.45594000000E+02  0.51100000000E-03 0. -1.
         11   -1    0    0    0    0 -0.00000000000E+00 -0.00000000000E+00 -0.45593999997E+02  0.45594000000E+02  0.51100000000E-03 0.  1.
    9900012    2    1    2    0    0 -0.49202658762E+01  0.79902996161E+01 -0.16205705343E+02  0.72461580430E+02  0.70000013204E+02 0.  0.
         12    1    1    2    0    0  0.49202658762E+01 -0.79902996161E+01  0.16205705343E+02  0.18726419570E+02  0.00000000000E+00 0. -1.
         11    1    3    3    0    0 -0.19186307434E+01 -0.15730396853E+01  0.81169132078E+01  0.84876308865E+01  0.51100000000E-03 0. -1.
        -11    1    3    3    0    0  0.97132598239E+01  0.19567526838E+02  0.11485143720E+02  0.24680843776E+02  0.51100000000E-03 0.  1.
        -12    1    3    3    0    0 -0.12714894957E+02 -0.10004187537E+02 -0.35807762271E+02  0.39293105768E+02  0.00000000000E+00 0.  1.
</event>
<event>
 7    1  0.1465498E-013  0.7246158E+02  0.7816164E-02  0.1226708E+00
        -11   -1    0    0    0    0  0.00000000000E+00  0.00000000000E+00  0.45593999997E+02  0.45594000000E+02  0.51100000000E-03 0. -1.
         11   -1    0    0    0    0 -0.00000000000E+00 -0.00000000000E+00 -0.45593999997E+02  0.45594000000E+02  0.51100000000E-03 0.  1.
    9900012    2    1    2    0    0  0.74641776321E+01 -0.12899274507E+01 -0.17126033386E+02  0.72461578022E+02  0.70000010066E+02 0.  0.
         12    1    1    2    0    0 -0.74641776321E+01  0.12899274507E+01  0.17126033386E+02  0.18726421978E+02  0.00000000000E+00 0. -1.
         11    1    3    3    0    0  0.56778371852E+01  0.23069665719E+00  0.63715148409E+01  0.85374034506E+01  0.51100000000E-03 0. -1.
        -11    1    3    3    0    0 -0.26722915744E+02  0.21586719819E+01 -0.20980808784E-01  0.26809970740E+02  0.51100000000E-03 0.  1.
        -12    1    3    3    0    0  0.28509256191E+02 -0.36792960898E+01 -0.23476567419E+02  0.37114203832E+02  0.00000000000E+00 0.  1.
</event>
<event>
 7    1  0.1479265E-013  0.7246154E+02  0.7816164E-02  0.1226708E+00
        -11   -1    0    0    0    0  0.00000000000E+00  0.00000000000E+00  0.45593999997E+02  0.45594000000E+02  0.51100000000E-03 0. -1.
         11   -1    0    0    0    0 -0.00000000000E+00 -0.00000000000E+00 -0.45593999997E+02  0.45594000000E+02  0.51100000000E-03 0.  1.
    9900012    2    1    2    0    0  0.15954835151E+02  0.24866522070E+01 -0.94836690498E+01  0.72461543247E+02  0.69999964766E+02 0.  0.
         12    1    1    2    0    0 -0.15954835151E+02 -0.24866522070E+01  0.94836690498E+01  0.18726456753E+02  0.00000000000E+00 0. -1.
         11    1    3    3    0    0  0.20058851797E+02 -0.18726043288E+02 -0.48087651577E+00  0.27445463653E+02  0.51100000000E-03 0. -1.
        -11    1    3    3    0    0  0.83448792415E+01  0.14883725369E+02  0.11233119545E+02  0.20429029967E+02  0.51100000000E-03 0.  1.
        -12    1    3    3    0    0 -0.12448895888E+02  0.63289701267E+01 -0.20235912079E+02  0.24587049627E+02  0.00000000000E+00 0.  1.
</event>
<event>
 7    1  0.1465498E-013  0.7246159E+02  0.7816164E-02  0.1226708E+00
        -11   -1    0    0    0    0  0.00000000000E+00  0.00000000000E+00  0.45593999997E+02  0.45594000000E+02  0.51100000000E-03 0. -1.
         11   -1    0    0    0    0 -0.00000000000E+00 -0.00000000000E+00 -0.45593999997E+02  0.45594000000E+02  0.51100000000E-03 0.  1.
    9900012    2    1    2    0    0 -0.14845894510E+02  0.98120244646E+01 -0.58311336346E+01  0.72461587440E+02  0.70000022336E+02 0.  0.
         12    1    1    2    0    0  0.14845894510E+02 -0.98120244646E+01  0.58311336346E+01  0.18726412560E+02  0.00000000000E+00 0. -1.
         11    1    3    3    0    0 -0.14019460439E+02  0.77271777202E+00  0.35443130296E+01  0.14481178089E+02  0.51100000000E-03 0. -1.
        -11    1    3    3    0    0  0.51650120239E+01  0.31824261148E+01 -0.32668107032E+02  0.33226651991E+02  0.51100000000E-03 0.  1.
         12    1    3    3    0    0 -0.59914460952E+01  0.58568805777E+01  0.23292660368E+02  0.24753757360E+02  0.00000000000E+00 0. -1.
</event>
<event>
 7    1  0.1465498E-013  0.7246157E+02  0.7816164E-02  0.1226708E+00
        -11   -1    0    0    0    0  0.00000000000E+00  0.00000000000E+00  0.45593999997E+02  0.45594000000E+02  0.51100000000E-03 0. -1.
         11   -1    0    0    0    0 -0.00000000000E+00 -0.00000000000E+00 -0.45593999997E+02  0.45594000000E+02  0.51100000000E-03 0.  1.
    9900012    2    1    2    0    0  0.40223560855E+01  0.17596244733E+02 -0.49871852577E+01  0.72461569642E+02  0.69999999150E+02 0.  0.
         12    1    1    2    0    0 -0.40223560855E+01 -0.17596244733E+02  0.49871852577E+01  0.18726430358E+02  0.00000000000E+00 0. -1.
         11    1    3    3    0    0  0.23422247662E+02  0.88212414749E+01  0.20649904778E+01  0.25113346504E+02  0.51100000000E-03 0. -1.
        -11    1    3    3    0    0 -0.16303955945E+02  0.18842432806E+02 -0.19063355767E+02  0.31373042359E+02  0.51100000000E-03 0.  1.
         12    1    3    3    0    0 -0.30959356315E+01 -0.10067429548E+02  0.12011180032E+02  0.15975180778E+02  0.00000000000E+00 0. -1.
</event>
<event>
 7    1  0.1465498E-013  0.7246148E+02  0.7816164E-02  0.1226708E+00
        -11   -1    0    0    0    0  0.00000000000E+00  0.00000000000E+00  0.45593999997E+02  0.45594000000E+02  0.51100000000E-03 0. -1.
         11   -1    0    0    0    0 -0.00000000000E+00 -0.00000000000E+00 -0.45593999997E+02  0.45594000000E+02  0.51100000000E-03 0.  1.
    9900012    2    1    2    0    0 -0.10942320198E+02  0.15115098626E+02  0.15754790957E+01  0.72461475705E+02  0.69999876779E+02 0.  0.
         12    1    1    2    0    0  0.10942320198E+02 -0.15115098626E+02 -0.15754790957E+01  0.18726524295E+02  0.00000000000E+00 0. -1.
         11    1    3    3    0    0 -0.94241876513E+01 -0.74274890918E+01 -0.17424720365E+01  0.12125143964E+02  0.51100000000E-03 0. -1.
        -11    1    3    3    0    0 -0.17863920161E+02  0.32634088339E+02 -0.79807731438E+01  0.38049915972E+02  0.51100000000E-03 0.  1.
         12    1    3    3    0    0  0.16345787614E+02 -0.10091500621E+02  0.11298724276E+02  0.22286415768E+02  0.00000000000E+00 0. -1.
</event>
<event>
 7    1  0.1465498E-013  0.7246128E+02  0.7816164E-02  0.1226709E+00
        -11   -1    0    0    0    0  0.00000000000E+00  0.00000000000E+00  0.45593999997E+02  0.45594000000E+02  0.51100000000E-03 0.  1.
         11   -1    0    0    0    0 -0.00000000000E+00 -0.00000000000E+00 -0.45593999997E+02  0.45594000000E+02  0.51100000000E-03 0. -1.
    9900012    2    1    2    0    0 -0.14542346261E+02  0.10043460186E+02  0.61918473569E+01  0.72461283765E+02  0.69999626741E+02 0.  0.
         12    1    1    2    0    0  0.14542346261E+02 -0.10043460186E+02 -0.61918473569E+01  0.18726716235E+02  0.00000000000E+00 0. -1.
         11    1    3    3    0    0  0.82705164878E+01  0.12562175470E+02  0.18844347589E+01  0.15157862321E+02  0.51100000000E-03 0. -1.
        -11    1    3    3    0    0 -0.36817178932E+01  0.63624122787E+01  0.26016648133E+02  0.27035186646E+02  0.51100000000E-03 0.  1.
         12    1    3    3    0    0 -0.19131144855E+02 -0.88811275625E+01 -0.21709235535E+02  0.30268234798E+02  0.00000000000E+00 0. -1.
</event>
<event>
 7    1  0.1465498E-013  0.7246156E+02  0.7816164E-02  0.1226708E+00
        -11   -1    0    0    0    0  0.00000000000E+00  0.00000000000E+00  0.45593999997E+02  0.45594000000E+02  0.51100000000E-03 0.  1.
         11   -1    0    0    0    0 -0.00000000000E+00 -0.00000000000E+00 -0.45593999997E+02  0.45594000000E+02  0.51100000000E-03 0. -1.
    9900012    2    1    2    0    0 -0.14320629504E+02  0.70673134537E+01  0.97801974075E+01  0.72461558528E+02  0.69999984673E+02 0.  0.
         12    1    1    2    0    0  0.14320629504E+02 -0.70673134537E+01 -0.97801974075E+01  0.18726441472E+02  0.00000000000E+00 0. -1.
         11    1    3    3    0    0  0.33939848581E+01 -0.25687963521E+02 -0.20985487615E+01  0.25996047973E+02  0.51100000000E-03 0. -1.
        -11    1    3    3    0    0  0.35085527082E+01  0.24288716739E+01  0.82307051397E+01  0.92711308411E+01  0.51100000000E-03 0.  1.
        -12    1    3    3    0    0 -0.21223167071E+02  0.30326405301E+02  0.36480410293E+01  0.37194379714E+02  0.00000000000E+00 0.  1.
</event>
<event>
 7    1  0.1465498E-013  0.7246155E+02  0.7816164E-02  0.1226708E+00
        -11   -1    0    0    0    0  0.00000000000E+00  0.00000000000E+00  0.45593999997E+02  0.45594000000E+02  0.51100000000E-03 0. -1.
         11   -1    0    0    0    0 -0.00000000000E+00 -0.00000000000E+00 -0.45593999997E+02  0.45594000000E+02  0.51100000000E-03 0.  1.
    9900012    2    1    2    0    0  0.55560348364E+01 -0.57751104499E+00 -0.17873912226E+02  0.72461553985E+02  0.69999978754E+02 0.  0.
         12    1    1    2    0    0 -0.55560348364E+01  0.57751104499E+00  0.17873912226E+02  0.18726446015E+02  0.00000000000E+00 0. -1.
         11    1    3    3    0    0  0.11737346286E+01  0.87653523539E+01 -0.25671032141E+01  0.92086412700E+01  0.51100000000E-03 0. -1.
        -11    1    3    3    0    0 -0.20992985647E+02  0.11296982340E+02 -0.18795644275E+02  0.30357923189E+02  0.51100000000E-03 0.  1.
         12    1    3    3    0    0  0.25375285855E+02 -0.20639845739E+02  0.34888352634E+01  0.32894989525E+02  0.00000000000E+00 0. -1.
</event>
<event>
 7    1  0.1465498E-013  0.7246170E+02  0.7816164E-02  0.1226708E+00
        -11   -1    0    0    0    0  0.00000000000E+00  0.00000000000E+00  0.45593999997E+02  0.45594000000E+02  0.51100000000E-03 0.  1.
         11   -1    0    0    0    0 -0.00000000000E+00 -0.00000000000E+00 -0.45593999997E+02  0.45594000000E+02  0.51100000000E-03 0. -1.
    9900012    2    1    2    0    0  0.44177195209E+01 -0.14211967027E+02 -0.11365660571E+02  0.72461695166E+02  0.70000162668E+02 0.  0.
         12    1    1    2    0    0 -0.44177195209E+01  0.14211967027E+02  0.11365660571E+02  0.18726304834E+02  0.00000000000E+00 0. -1.
         11    1    3    3    0    0 -0.10145538610E+02 -0.21521340660E+02 -0.74986000467E+01  0.24946524014E+02  0.51100000000E-03 0. -1.
        -11    1    3    3    0    0  0.24313439342E+01 -0.17802006625E+02 -0.73451900130E+01  0.19410684939E+02  0.51100000000E-03 0.  1.
        -12    1    3    3    0    0  0.12131914196E+02  0.25111380258E+02  0.34781294889E+01  0.28104486212E+02  0.00000000000E+00 0.  1.
</event>
<event>
 7    1  0.1465498E-013  0.7246171E+02  0.7816164E-02  0.1226708E+00
        -11   -1    0    0    0    0  0.00000000000E+00  0.00000000000E+00  0.45593999997E+02  0.45594000000E+02  0.51100000000E-03 0.  1.
         11   -1    0    0    0    0 -0.00000000000E+00 -0.00000000000E+00 -0.45593999997E+02  0.45594000000E+02  0.51100000000E-03 0. -1.
    9900012    2    1    2    0    0  0.12972042575E+02  0.28442528245E+01  0.13202663104E+02  0.72461708970E+02  0.70000180651E+02 0.  0.
         12    1    1    2    0    0 -0.12972042575E+02 -0.28442528245E+01 -0.13202663104E+02  0.18726291030E+02  0.00000000000E+00 0. -1.
         11    1    3    3    0    0  0.12425526405E+02  0.22045300640E+02  0.48802005511E+01  0.25772181601E+02  0.51100000000E-03 0. -1.
        -11    1    3    3    0    0  0.11889278569E+02 -0.17203385909E+02  0.20948325242E+02  0.29599725715E+02  0.51100000000E-03 0.  1.
         12    1    3    3    0    0 -0.11342762400E+02 -0.19976619064E+01 -0.12625862690E+02  0.17089801655E+02  0.00000000000E+00 0. -1.
</event>
<event>
 7    1  0.1465498E-013  0.7246156E+02  0.7816164E-02  0.1226708E+00
        -11   -1    0    0    0    0  0.00000000000E+00  0.00000000000E+00  0.45593999997E+02  0.45594000000E+02  0.51100000000E-03 0.  1.
         11   -1    0    0    0    0 -0.00000000000E+00 -0.00000000000E+00 -0.45593999997E+02  0.45594000000E+02  0.51100000000E-03 0. -1.
    9900012    2    1    2    0    0 -0.15471443241E+01  0.10284040694E+02 -0.15573197992E+02  0.72461557619E+02  0.69999983488E+02 0.  0.
         12    1    1    2    0    0  0.15471443241E+01 -0.10284040694E+02  0.15573197992E+02  0.18726442381E+02  0.00000000000E+00 0. -1.
         11    1    3    3    0    0 -0.26231951453E+02 -0.85662222885E-02 -0.70447612020E+01  0.27161443465E+02  0.51100000000E-03 0. -1.
        -11    1    3    3    0    0  0.53441316797E+01  0.59699987034E+00  0.13434638292E+02  0.14470855488E+02  0.51100000000E-03 0.  1.
         12    1    3    3    0    0  0.19340675450E+02  0.96956070463E+01 -0.21963075082E+02  0.30829258666E+02  0.00000000000E+00 0. -1.
</event>
<event>
 7    1  0.1465498E-013  0.7246161E+02  0.7816164E-02  0.1226708E+00
        -11   -1    0    0    0    0  0.00000000000E+00  0.00000000000E+00  0.45593999997E+02  0.45594000000E+02  0.51100000000E-03 0.  1.
         11   -1    0    0    0    0 -0.00000000000E+00 -0.00000000000E+00 -0.45593999997E+02  0.45594000000E+02  0.51100000000E-03 0. -1.
    9900012    2    1    2    0    0 -0.16210229121E+02 -0.12858472825E+01  0.92872267778E+01  0.72461614534E+02  0.70000057630E+02 0.  0.
         12    1    1    2    0    0  0.16210229121E+02  0.12858472825E+01 -0.92872267778E+01  0.18726385466E+02  0.00000000000E+00 0. -1.
         11    1    3    3    0    0 -0.16634899325E+02 -0.15783298046E+02  0.18334998134E+02  0.29359913651E+02  0.51100000000E-03 0. -1.
        -11    1    3    3    0    0 -0.76488305355E+01 -0.11284568082E+02  0.22519313859E+01  0.13817281953E+02  0.51100000000E-03 0.  1.
        -12    1    3    3    0    0  0.80735007392E+01  0.25782018846E+02 -0.11299702742E+02  0.29284418929E+02  0.00000000000E+00 0.  1.
</event>
<event>
 7    1  0.1465498E-013  0.7246156E+02  0.7816164E-02  0.1226708E+00
        -11   -1    0    0    0    0  0.00000000000E+00  0.00000000000E+00  0.45593999997E+02  0.45594000000E+02  0.51100000000E-03 0. -1.
         11   -1    0    0    0    0 -0.00000000000E+00 -0.00000000000E+00 -0.45593999997E+02  0.45594000000E+02  0.51100000000E-03 0.  1.
    9900012    2    1    2    0    0 -0.11416053244E+02 -0.14158934945E+02 -0.44584388192E+01  0.72461564484E+02  0.69999992431E+02 0.  0.
         12    1    1    2    0    0  0.11416053244E+02  0.14158934945E+02  0.44584388192E+01  0.18726435516E+02  0.00000000000E+00 0. -1.
         11    1    3    3    0    0 -0.23615057292E+02  0.40285797246E+01 -0.12024724615E+02  0.26804745622E+02  0.51100000000E-03 0. -1.
        -11    1    3    3    0    0 -0.82311730897E+01 -0.20333683001E+02 -0.36709817143E+01  0.22241559788E+02  0.51100000000E-03 0.  1.
         12    1    3    3    0    0  0.20430177138E+02  0.21461683315E+01  0.11237267510E+02  0.23415259074E+02  0.00000000000E+00 0. -1.
</event>
<event>
 7    1  0.1465498E-013  0.7246158E+02  0.7816164E-02  0.1226708E+00
        -11   -1    0    0    0    0  0.00000000000E+00  0.00000000000E+00  0.45593999997E+02  0.45594000000E+02  0.51100000000E-03 0. -1.
         11   -1    0    0    0    0 -0.00000000000E+00 -0.00000000000E+00 -0.45593999997E+02  0.45594000000E+02  0.51100000000E-03 0.  1.
    9900012    2    1    2    0    0 -0.14855592675E+02  0.98429989467E+01 -0.57537414794E+01  0.72461580081E+02  0.70000012748E+02 0.  0.
         12    1    1    2    0    0  0.14855592675E+02 -0.98429989467E+01  0.57537414794E+01  0.18726419919E+02  0.00000000000E+00 0. -1.
         11    1    3    3    0    0 -0.14295886446E+02 -0.11995110418E+01 -0.22301713046E+02  0.26517496131E+02  0.51100000000E-03 0. -1.
        -11    1    3    3    0    0 -0.14555331249E+02 -0.84594152301E+01  0.82226669691E-01  0.16835264634E+02  0.51100000000E-03 0.  1.
         12    1    3    3    0    0  0.13995625020E+02  0.19501925219E+02  0.16465744897E+02  0.29108819316E+02  0.00000000000E+00 0. -1.
</event>
<event>
 7    1  0.1465498E-013  0.7246153E+02  0.7816164E-02  0.1226708E+00
        -11   -1    0    0    0    0  0.00000000000E+00  0.00000000000E+00  0.45593999997E+02  0.45594000000E+02  0.51100000000E-03 0. -1.
         11   -1    0    0    0    0 -0.00000000000E+00 -0.00000000000E+00 -0.45593999997E+02  0.45594000000E+02  0.51100000000E-03 0.  1.
    9900012    2    1    2    0    0  0.42609902148E+01 -0.17884196180E+02 -0.35609484711E+01  0.72461525035E+02  0.69999941041E+02 0.  0.
         12    1    1    2    0    0 -0.42609902148E+01  0.17884196180E+02  0.35609484711E+01  0.18726474965E+02  0.00000000000E+00 0. -1.
         11    1    3    3    0    0 -0.22653452197E+02  0.76040510948E+01 -0.23099315297E+01  0.24007004674E+02  0.51100000000E-03 0. -1.
        -11    1    3    3    0    0  0.77235607388E+01  0.71818153904E+01 -0.86162710067E-01  0.10547003701E+02  0.51100000000E-03 0.  1.
        -12    1    3    3    0    0  0.19190881673E+02 -0.32670062665E+02 -0.11648542313E+01  0.37907516660E+02  0.00000000000E+00 0.  1.
</event>
<event>
 7    1  0.1465498E-013  0.7246181E+02  0.7816164E-02  0.1226707E+00
        -11   -1    0    0    0    0  0.00000000000E+00  0.00000000000E+00  0.45593999997E+02  0.45594000000E+02  0.51100000000E-03 0.  1.
         11   -1    0    0    0    0 -0.00000000000E+00 -0.00000000000E+00 -0.45593999997E+02  0.45594000000E+02  0.51100000000E-03 0. -1.
    9900012    2    1    2    0    0 -0.10453067736E+02  0.15534714938E+02 -0.27633452254E+00  0.72461805670E+02  0.70000306620E+02 0.  0.
         12    1    1    2    0    0  0.10453067736E+02 -0.15534714938E+02  0.27633452254E+00  0.18726194330E+02  0.00000000000E+00 0. -1.
         11    1    3    3    0    0 -0.68807187970E+01  0.24388409387E+02  0.24483096117E+01  0.25458456823E+02  0.51100000000E-03 0. -1.
        -11    1    3    3    0    0  0.76509729867E+01  0.56706569134E+01  0.17356329195E+02  0.19797371059E+02  0.51100000000E-03 0.  1.
        -12    1    3    3    0    0 -0.11223321926E+02 -0.14524351362E+02 -0.20080973329E+02  0.27205977788E+02  0.00000000000E+00 0.  1.
</event>
<event>
 7    1  0.1465498E-013  0.7246152E+02  0.7816164E-02  0.1226708E+00
        -11   -1    0    0    0    0  0.00000000000E+00  0.00000000000E+00  0.45593999997E+02  0.45594000000E+02  0.51100000000E-03 0. -1.
         11   -1    0    0    0    0 -0.00000000000E+00 -0.00000000000E+00 -0.45593999997E+02  0.45594000000E+02  0.51100000000E-03 0.  1.
    9900012    2    1    2    0    0 -0.43855397704E+00  0.14271432680E+02 -0.12116720596E+02  0.72461520397E+02  0.69999934999E+02 0.  0.
         12    1    1    2    0    0  0.43855397704E+00 -0.14271432680E+02  0.12116720596E+02  0.18726479603E+02  0.00000000000E+00 0. -1.
         11    1    3    3    0    0  0.31119587818E+01  0.10492535958E+02  0.81473285430E+01  0.13643920292E+02  0.51100000000E-03 0. -1.
        -11    1    3    3    0    0  0.79847127931E+01  0.26554863907E+02 -0.18274836408E+02  0.33209728717E+02  0.51100000000E-03 0.  1.
        -12    1    3    3    0    0 -0.11535225552E+02 -0.22775967184E+02 -0.19892127307E+01  0.25607871387E+02  0.00000000000E+00 0.  1.
</event>
<event>
 7    1  0.1465498E-013  0.7246155E+02  0.7816164E-02  0.1226708E+00
        -11   -1    0    0    0    0  0.00000000000E+00  0.00000000000E+00  0.45593999997E+02  0.45594000000E+02  0.51100000000E-03 0. -1.
         11   -1    0    0    0    0 -0.00000000000E+00 -0.00000000000E+00 -0.45593999997E+02  0.45594000000E+02  0.51100000000E-03 0.  1.
    9900012    2    1    2    0    0 -0.45879381555E+00  0.85942403413E+01 -0.16631553720E+02  0.72461547107E+02  0.69999969795E+02 0.  0.
         12    1    1    2    0    0  0.45879381555E+00 -0.85942403413E+01  0.16631553720E+02  0.18726452893E+02  0.00000000000E+00 0. -1.
         11    1    3    3    0    0 -0.73387694455E+01  0.44423620319E+01  0.15938272504E+02  0.18100294144E+02  0.51100000000E-03 0. -1.
        -11    1    3    3    0    0  0.11334389540E+02  0.20823268359E+02 -0.94745068425E+01  0.25531219547E+02  0.51100000000E-03 0.  1.
         12    1    3    3    0    0 -0.44544139099E+01 -0.16671390050E+02 -0.23095319382E+02  0.28830033417E+02  0.00000000000E+00 0. -1.
</event>
<event>
 7    1  0.1465498E-013  0.7246200E+02  0.7816164E-02  0.1226707E+00
        -11   -1    0    0    0    0  0.00000000000E+00  0.00000000000E+00  0.45593999997E+02  0.45594000000E+02  0.51100000000E-03 0.  1.
         11   -1    0    0    0    0 -0.00000000000E+00 -0.00000000000E+00 -0.45593999997E+02  0.45594000000E+02  0.51100000000E-03 0. -1.
    9900012    2    1    2    0    0 -0.18517026078E+02 -0.27233759411E+01 -0.60515735656E+00  0.72461995442E+02  0.70000553832E+02 0.  0.
         12    1    1    2    0    0  0.18517026078E+02  0.27233759411E+01  0.60515735656E+00  0.18726004558E+02  0.00000000000E+00 0. -1.
         11    1    3    3    0    0  0.13983347128E+02 -0.25787901104E+01  0.24630987399E+01  0.14430904719E+02  0.51100000000E-03 0. -1.
        -11    1    3    3    0    0  0.80301227102E+01 -0.12680285603E+02  0.25890241370E+01  0.15230743907E+02  0.51100000000E-03 0.  1.
        -12    1    3    3    0    0 -0.40530495916E+02  0.12535699772E+02 -0.56572802334E+01  0.42800346817E+02  0.00000000000E+00 0.  1.
</event>
<event>
 7    1  0.1465498E-013  0.7246158E+02  0.7816164E-02  0.1226708E+00
        -11   -1    0    0    0    0  0.00000000000E+00  0.00000000000E+00  0.45593999997E+02  0.45594000000E+02  0.51100000000E-03 0. -1.
         11   -1    0    0    0    0 -0.00000000000E+00 -0.00000000000E+00 -0.45593999997E+02  0.45594000000E+02  0.51100000000E-03 0.  1.
    9900012    2    1    2    0    0  0.16799967504E+02  0.32741046052E+01 -0.75973817636E+01  0.72461578058E+02  0.70000010113E+02 0.  0.
         12    1    1    2    0    0 -0.16799967504E+02 -0.32741046052E+01  0.75973817636E+01  0.18726421942E+02  0.00000000000E+00 0. -1.
         11    1    3    3    0    0 -0.13404937940E+02  0.10564472255E+02 -0.17323956108E+02  0.24319126027E+02  0.51100000000E-03 0. -1.
        -11    1    3    3    0    0 -0.26274386611E+01  0.97909518090E+01  0.18936282484E+01  0.10312710577E+02  0.51100000000E-03 0.  1.
         12    1    3    3    0    0  0.32832344105E+02 -0.17081319459E+02  0.78329460962E+01  0.37829741454E+02  0.00000000000E+00 0. -1.
</event>
<event>
 7    1  0.1465498E-013  0.7246158E+02  0.7816164E-02  0.1226708E+00
        -11   -1    0    0    0    0  0.00000000000E+00  0.00000000000E+00  0.45593999997E+02  0.45594000000E+02  0.51100000000E-03 0.  1.
         11   -1    0    0    0    0 -0.00000000000E+00 -0.00000000000E+00 -0.45593999997E+02  0.45594000000E+02  0.51100000000E-03 0. -1.
    9900012    2    1    2    0    0 -0.29501066319E+00  0.18219299079E+02  0.43184367157E+01  0.72461580537E+02  0.70000013343E+02 0.  0.
         12    1    1    2    0    0  0.29501066319E+00 -0.18219299079E+02 -0.43184367157E+01  0.18726419463E+02  0.00000000000E+00 0. -1.
         11    1    3    3    0    0  0.48082314937E+01  0.11964172170E+02 -0.10913457989E+02  0.16892722437E+02  0.51100000000E-03 0. -1.
        -11    1    3    3    0    0  0.17519611330E+02  0.20190423681E+02  0.56413607723E+01  0.27320595550E+02  0.51100000000E-03 0.  1.
         12    1    3    3    0    0 -0.22622853487E+02 -0.13935296772E+02  0.95905339323E+01  0.28248262550E+02  0.00000000000E+00 0. -1.
</event>
<event>
 7    1  0.1465498E-013  0.7246157E+02  0.7816164E-02  0.1226708E+00
        -11   -1    0    0    0    0  0.00000000000E+00  0.00000000000E+00  0.45593999997E+02  0.45594000000E+02  0.51100000000E-03 0.  1.
         11   -1    0    0    0    0 -0.00000000000E+00 -0.00000000000E+00 -0.45593999997E+02  0.45594000000E+02  0.51100000000E-03 0. -1.
    9900012    2    1    2    0    0  0.14445736960E+01 -0.11652607959E+01  0.18634232265E+02  0.72461568467E+02  0.69999997619E+02 0.  0.
         12    1    1    2    0    0 -0.14445736960E+01  0.11652607959E+01 -0.18634232265E+02  0.18726431533E+02  0.00000000000E+00 0. -1.
         11    1    3    3    0    0  0.13167585181E+02  0.50180159496E+01  0.97444040554E+01  0.17132401881E+02  0.51100000000E-03 0. -1.
        -11    1    3    3    0    0  0.15665684728E+02 -0.38137531311E+01  0.19989897697E+02  0.25681791237E+02  0.51100000000E-03 0.  1.
         12    1    3    3    0    0 -0.27388696213E+02 -0.23695236144E+01 -0.11100069488E+02  0.29647375348E+02  0.00000000000E+00 0. -1.
</event>
<event>
 7    1  0.1465498E-013  0.7246154E+02  0.7816164E-02  0.1226708E+00
        -11   -1    0    0    0    0  0.00000000000E+00  0.00000000000E+00  0.45593999997E+02  0.45594000000E+02  0.51100000000E-03 0.  1.
         11   -1    0    0    0    0 -0.00000000000E+00 -0.00000000000E+00 -0.45593999997E+02  0.45594000000E+02  0.51100000000E-03 0. -1.
    9900012    2    1    2    0    0  0.25249599180E+01  0.14994177319E+02  0.10930674484E+02  0.72461536887E+02  0.69999956481E+02 0.  0.
         12    1    1    2    0    0 -0.25249599180E+01 -0.14994177319E+02 -0.10930674484E+02  0.18726463113E+02  0.00000000000E+00 0. -1.
         11    1    3    3    0    0  0.13369113639E+02  0.76522051664E+01  0.94856459566E+01  0.18090520249E+02  0.51100000000E-03 0. -1.
        -11    1    3    3    0    0 -0.10757353339E+02 -0.41773247542E+01  0.25340136986E+02  0.27844087985E+02  0.51100000000E-03 0.  1.
        -12    1    3    3    0    0 -0.86800381360E-01  0.11519296907E+02 -0.23895108459E+02  0.26526928654E+02  0.00000000000E+00 0.  1.
</event>
<event>
 7    1  0.1753496E-013  0.7246151E+02  0.7816164E-02  0.1226708E+00
        -11   -1    0    0    0    0  0.00000000000E+00  0.00000000000E+00  0.45593999997E+02  0.45594000000E+02  0.51100000000E-03 0. -1.
         11   -1    0    0    0    0 -0.00000000000E+00 -0.00000000000E+00 -0.45593999997E+02  0.45594000000E+02  0.51100000000E-03 0.  1.
    9900012    2    1    2    0    0  0.86562670999E+01 -0.13209157496E+02 -0.10063239374E+02  0.72461505706E+02  0.69999915861E+02 0.  0.
         12    1    1    2    0    0 -0.86562670999E+01  0.13209157496E+02  0.10063239374E+02  0.18726494294E+02  0.00000000000E+00 0. -1.
         11    1    3    3    0    0  0.16955810599E+02 -0.10069644490E+02  0.81586152531E+01  0.21341514856E+02  0.51100000000E-03 0. -1.
        -11    1    3    3    0    0 -0.70849823486E+01  0.14537009269E+01  0.15479274656E+02  0.17085612819E+02  0.51100000000E-03 0.  1.
        -12    1    3    3    0    0 -0.12145611509E+01 -0.45932139329E+01 -0.33701129283E+02  0.34034378031E+02  0.00000000000E+00 0.  1.
</event>
<event>
 7    1  0.1465498E-013  0.7246160E+02  0.7816164E-02  0.1226708E+00
        -11   -1    0    0    0    0  0.00000000000E+00  0.00000000000E+00  0.45593999997E+02  0.45594000000E+02  0.51100000000E-03 0. -1.
         11   -1    0    0    0    0 -0.00000000000E+00 -0.00000000000E+00 -0.45593999997E+02  0.45594000000E+02  0.51100000000E-03 0.  1.
    9900012    2    1    2    0    0 -0.13397079897E+02 -0.10735090204E+02  0.74802598478E+01  0.72461596212E+02  0.70000033763E+02 0.  0.
         12    1    1    2    0    0  0.13397079897E+02  0.10735090204E+02 -0.74802598478E+01  0.18726403788E+02  0.00000000000E+00 0. -1.
         11    1    3    3    0    0  0.96609763907E+00  0.66262606903E+01  0.38649829139E+01  0.77316730770E+01  0.51100000000E-03 0. -1.
        -11    1    3    3    0    0  0.18245870275E+02  0.55043616904E+01 -0.11352618492E+02  0.22183140594E+02  0.51100000000E-03 0.  1.
         12    1    3    3    0    0 -0.32609047811E+02 -0.22865712584E+02  0.14967895426E+02  0.42546782541E+02  0.00000000000E+00 0. -1.
</event>
<event>
 7    1  0.1465498E-013  0.7246162E+02  0.7816164E-02  0.1226708E+00
        -11   -1    0    0    0    0  0.00000000000E+00  0.00000000000E+00  0.45593999997E+02  0.45594000000E+02  0.51100000000E-03 0.  1.
         11   -1    0    0    0    0 -0.00000000000E+00 -0.00000000000E+00 -0.45593999997E+02  0.45594000000E+02  0.51100000000E-03 0. -1.
    9900012    2    1    2    0    0 -0.12171975992E+02  0.72243614304E+01 -0.12260867064E+02  0.72461621311E+02  0.70000066459E+02 0.  0.
         12    1    1    2    0    0  0.12171975992E+02 -0.72243614304E+01  0.12260867064E+02  0.18726378689E+02  0.00000000000E+00 0. -1.
         11    1    3    3    0    0  0.51992963040E+01 -0.81568122573E+01 -0.21800131994E+02  0.23849780365E+02  0.51100000000E-03 0. -1.
        -11    1    3    3    0    0 -0.16042518753E+02 -0.10096655137E+02  0.12828359740E+02  0.22888242981E+02  0.51100000000E-03 0.  1.
         12    1    3    3    0    0 -0.13287535437E+01  0.25477828824E+02 -0.32890948095E+01  0.25723597965E+02  0.00000000000E+00 0. -1.
</event>
<event>
 7    1  0.1521992E-013  0.7246156E+02  0.7816164E-02  0.1226708E+00
        -11   -1    0    0    0    0  0.00000000000E+00  0.00000000000E+00  0.45593999997E+02  0.45594000000E+02  0.51100000000E-03 0.  1.
         11   -1    0    0    0    0 -0.00000000000E+00 -0.00000000000E+00 -0.45593999997E+02  0.45594000000E+02  0.51100000000E-03 0. -1.
    9900012    2    1    2    0    0  0.14335541785E+02  0.90348355383E+00  0.12014798604E+02  0.72461563438E+02  0.69999991068E+02 0.  0.
         12    1    1    2    0    0 -0.14335541785E+02 -0.90348355383E+00 -0.12014798604E+02  0.18726436562E+02  0.00000000000E+00 0. -1.
         11    1    3    3    0    0 -0.15451857153E+02 -0.15503648262E+02 -0.21126612318E+01  0.21990596550E+02  0.51100000000E-03 0. -1.
        -11    1    3    3    0    0 -0.17205109447E+01  0.10855773922E+02 -0.61481709061E+01  0.12593966457E+02  0.51100000000E-03 0.  1.
        -12    1    3    3    0    0  0.31507909883E+02  0.55513578933E+01  0.20275630742E+02  0.37877000431E+02  0.00000000000E+00 0.  1.
</event>
<event>
 7    1  0.1465498E-013  0.7246156E+02  0.7816164E-02  0.1226708E+00
        -11   -1    0    0    0    0  0.00000000000E+00  0.00000000000E+00  0.45593999997E+02  0.45594000000E+02  0.51100000000E-03 0. -1.
         11   -1    0    0    0    0 -0.00000000000E+00 -0.00000000000E+00 -0.45593999997E+02  0.45594000000E+02  0.51100000000E-03 0.  1.
    9900012    2    1    2    0    0  0.32491448313E+01  0.49418056848E+00 -0.18435793855E+02  0.72461557422E+02  0.69999983232E+02 0.  0.
         12    1    1    2    0    0 -0.32491448313E+01 -0.49418056848E+00  0.18435793855E+02  0.18726442578E+02  0.00000000000E+00 0. -1.
         11    1    3    3    0    0  0.51275590828E+01 -0.65905326018E+00  0.18253632598E+01  0.54825326846E+01  0.51100000000E-03 0. -1.
        -11    1    3    3    0    0 -0.64929140413E+01  0.28003745571E+02 -0.26424514945E+02  0.39046417110E+02  0.51100000000E-03 0.  1.
         12    1    3    3    0    0  0.46144997899E+01 -0.26850511742E+02  0.61633578307E+01  0.27932607628E+02  0.00000000000E+00 0. -1.
</event>
<event>
 7    1  0.1465498E-013  0.7246126E+02  0.7816164E-02  0.1226709E+00
        -11   -1    0    0    0    0  0.00000000000E+00  0.00000000000E+00  0.45593999997E+02  0.45594000000E+02  0.51100000000E-03 0.  1.
         11   -1    0    0    0    0 -0.00000000000E+00 -0.00000000000E+00 -0.45593999997E+02  0.45594000000E+02  0.51100000000E-03 0. -1.
    9900012    2    1    2    0    0  0.77783651100E+00 -0.63151565044E+01  0.17612625019E+02  0.72461259991E+02  0.69999595771E+02 0.  0.
         12    1    1    2    0    0 -0.77783651100E+00  0.63151565044E+01 -0.17612625019E+02  0.18726740009E+02  0.00000000000E+00 0. -1.
         11    1    3    3    0    0  0.81231361368E+01  0.52977088531E+01 -0.20385197444E+01  0.99099254689E+01  0.51100000000E-03 0. -1.
        -11    1    3    3    0    0  0.16577294224E+02  0.12350104572E+02  0.19894675081E+02  0.28690239865E+02  0.51100000000E-03 0.  1.
         12    1    3    3    0    0 -0.23922593850E+02 -0.23962969929E+02 -0.24353031722E+00  0.33861094657E+02  0.00000000000E+00 0. -1.
</event>
<event>
 7    1  0.1465498E-013  0.7246115E+02  0.7816164E-02  0.1226709E+00
        -11   -1    0    0    0    0  0.00000000000E+00  0.00000000000E+00  0.45593999997E+02  0.45594000000E+02  0.51100000000E-03 0. -1.
         11   -1    0    0    0    0 -0.00000000000E+00 -0.00000000000E+00 -0.45593999997E+02  0.45594000000E+02  0.51100000000E-03 0.  1.
    9900012    2    1    2    0    0  0.71080292930E+00  0.17440355878E+02 -0.67840676853E+01  0.72461152205E+02  0.69999455360E+02 0.  0.
         12    1    1    2    0    0 -0.71080292930E+00 -0.17440355878E+02  0.67840676853E+01  0.18726847795E+02  0.00000000000E+00 0. -1.
         11    1    3    3    0    0  0.23479658114E+02 -0.66189650313E+01  0.14349695837E+02  0.28302275776E+02  0.51100000000E-03 0. -1.
        -11    1    3    3    0    0  0.20623057096E+01  0.41727624546E+01 -0.89588492192E+01  0.10095842260E+02  0.51100000000E-03 0.  1.
        -12    1    3    3    0    0 -0.24831160894E+02  0.19886558455E+02 -0.12174914303E+02  0.34063034169E+02  0.00000000000E+00 0.  1.
</event>
<event>
 7    1  0.1465498E-013  0.7246156E+02  0.7816164E-02  0.1226708E+00
        -11   -1    0    0    0    0  0.00000000000E+00  0.00000000000E+00  0.45593999997E+02  0.45594000000E+02  0.51100000000E-03 0.  1.
         11   -1    0    0    0    0 -0.00000000000E+00 -0.00000000000E+00 -0.45593999997E+02  0.45594000000E+02  0.51100000000E-03 0. -1.
    9900012    2    1    2    0    0 -0.91011898676E+01  0.12473683480E+02  0.10595052175E+02  0.72461559678E+02  0.69999986170E+02 0.  0.
         12    1    1    2    0    0  0.91011898676E+01 -0.12473683480E+02 -0.10595052175E+02  0.18726440322E+02  0.00000000000E+00 0. -1.
         11    1    3    3    0    0  0.10735778511E+02 -0.17352747160E+01  0.17004950171E+02  0.20185055094E+02  0.51100000000E-03 0. -1.
        -11    1    3    3    0    0 -0.44763154853E+01  0.78208042339E+01  0.19502365689E+02  0.21483590177E+02  0.51100000000E-03 0.  1.
         12    1    3    3    0    0 -0.15360652893E+02  0.63881539618E+01 -0.25912263685E+02  0.30792914406E+02  0.00000000000E+00 0. -1.
</event>
<event>
 7    1  0.1465498E-013  0.7246159E+02  0.7816164E-02  0.1226708E+00
        -11   -1    0    0    0    0  0.00000000000E+00  0.00000000000E+00  0.45593999997E+02  0.45594000000E+02  0.51100000000E-03 0.  1.
         11   -1    0    0    0    0 -0.00000000000E+00 -0.00000000000E+00 -0.45593999997E+02  0.45594000000E+02  0.51100000000E-03 0. -1.
    9900012    2    1    2    0    0 -0.17107919135E+02 -0.41139387351E+01  0.64088197111E+01  0.72461591932E+02  0.70000028186E+02 0.  0.
         12    1    1    2    0    0  0.17107919135E+02  0.41139387351E+01 -0.64088197111E+01  0.18726408068E+02  0.00000000000E+00 0. -1.
         11    1    3    3    0    0 -0.20079390218E+02 -0.59656864827E+01  0.22142435838E+02  0.30480465742E+02  0.51100000000E-03 0. -1.
        -11    1    3    3    0    0 -0.81994269295E+01  0.13090514570E+02  0.46792346450E+01  0.16139622387E+02  0.51100000000E-03 0.  1.
         12    1    3    3    0    0  0.11170898013E+02 -0.11238766822E+02 -0.20412850772E+02  0.25841503802E+02  0.00000000000E+00 0. -1.
</event>
<event>
 7    1  0.1596446E-013  0.7246161E+02  0.7816164E-02  0.1226708E+00
        -11   -1    0    0    0    0  0.00000000000E+00  0.00000000000E+00  0.45593999997E+02  0.45594000000E+02  0.51100000000E-03 0. -1.
         11   -1    0    0    0    0 -0.00000000000E+00 -0.00000000000E+00 -0.45593999997E+02  0.45594000000E+02  0.51100000000E-03 0.  1.
    9900012    2    1    2    0    0  0.38051764528E+01 -0.26738012260E+01 -0.18139707311E+02  0.72461613211E+02  0.70000055907E+02 0.  0.
         12    1    1    2    0    0 -0.38051764528E+01  0.26738012260E+01  0.18139707311E+02  0.18726386789E+02  0.00000000000E+00 0. -1.
         11    1    3    3    0    0  0.90551112586E+01  0.45093849532E+01  0.17405842398E+02  0.20131888695E+02  0.51100000000E-03 0. -1.
        -11    1    3    3    0    0  0.10558995971E+02 -0.65114256471E+01  0.10601706607E+01  0.12450502880E+02  0.51100000000E-03 0.  1.
        -12    1    3    3    0    0 -0.15808930777E+02 -0.67176053211E+00 -0.36605720370E+02  0.39879221636E+02  0.00000000000E+00 0.  1.
</event>
<event>
 7    1  0.1465498E-013  0.7246157E+02  0.7816164E-02  0.1226708E+00
        -11   -1    0    0    0    0  0.00000000000E+00  0.00000000000E+00  0.45593999997E+02  0.45594000000E+02  0.51100000000E-03 0.  1.
         11   -1    0    0    0    0 -0.00000000000E+00 -0.00000000000E+00 -0.45593999997E+02  0.45594000000E+02  0.51100000000E-03 0. -1.
    9900012    2    1    2    0    0  0.95643185368E+01  0.12494575969E+02  0.10153244707E+02  0.72461574933E+02  0.70000006042E+02 0.  0.
         12    1    1    2    0    0 -0.95643185368E+01 -0.12494575969E+02 -0.10153244707E+02  0.18726425067E+02  0.00000000000E+00 0. -1.
         11    1    3    3    0    0  0.44560434546E+01 -0.15484417242E+01 -0.12804105918E+02  0.13645479972E+02  0.51100000000E-03 0. -1.
        -11    1    3    3    0    0  0.21915432901E+02  0.28838028385E+01 -0.65652068836E+01  0.23058717652E+02  0.51100000000E-03 0.  1.
         12    1    3    3    0    0 -0.16807157819E+02  0.11159214855E+02  0.29522557509E+02  0.35757377309E+02  0.00000000000E+00 0. -1.
</event>
<event>
 7    1  0.1465498E-013  0.7246160E+02  0.7816164E-02  0.1226708E+00
        -11   -1    0    0    0    0  0.00000000000E+00  0.00000000000E+00  0.45593999997E+02  0.45594000000E+02  0.51100000000E-03 0. -1.
         11   -1    0    0    0    0 -0.00000000000E+00 -0.00000000000E+00 -0.45593999997E+02  0.45594000000E+02  0.51100000000E-03 0.  1.
    9900012    2    1    2    0    0  0.57012374523E+01  0.11836415648E+02 -0.13344405042E+02  0.72461601793E+02  0.70000041033E+02 0.  0.
         12    1    1    2    0    0 -0.57012374523E+01 -0.11836415648E+02  0.13344405042E+02  0.18726398207E+02  0.00000000000E+00 0. -1.
         11    1    3    3    0    0 -0.10201501311E+02  0.64249960865E+01  0.23162806472E+02  0.26112579490E+02  0.51100000000E-03 0. -1.
        -11    1    3    3    0    0  0.85835416950E+01  0.78569464513E+01 -0.30725277814E+01  0.12035332268E+02  0.51100000000E-03 0.  1.
        -12    1    3    3    0    0  0.73191970684E+01 -0.24455268899E+01 -0.33434683733E+02  0.34313690035E+02  0.00000000000E+00 0.  1.
</event>
<event>
 7    1  0.1465498E-013  0.7246155E+02  0.7816164E-02  0.1226708E+00
        -11   -1    0    0    0    0  0.00000000000E+00  0.00000000000E+00  0.45593999997E+02  0.45594000000E+02  0.51100000000E-03 0.  1.
         11   -1    0    0    0    0 -0.00000000000E+00 -0.00000000000E+00 -0.45593999997E+02  0.45594000000E+02  0.51100000000E-03 0. -1.
    9900012    2    1    2    0    0  0.73227669354E+01  0.10555183163E+02  0.13625163251E+02  0.72461551303E+02  0.69999975260E+02 0.  0.
         12    1    1    2    0    0 -0.73227669354E+01 -0.10555183163E+02 -0.13625163251E+02  0.18726448697E+02  0.00000000000E+00 0. -1.
         11    1    3    3    0    0  0.17729350972E+02  0.19919255652E+01  0.16446344642E+01  0.17916541969E+02  0.51100000000E-03 0. -1.
        -11    1    3    3    0    0 -0.45552633184E+01  0.21935219657E+01  0.32178355204E+02  0.32573125524E+02  0.51100000000E-03 0.  1.
         12    1    3    3    0    0 -0.58513207182E+01  0.63697356324E+01 -0.20197826417E+02  0.21971883810E+02  0.00000000000E+00 0. -1.
</event>
<event>
 7    1  0.1465498E-013  0.7246163E+02  0.7816164E-02  0.1226708E+00
        -11   -1    0    0    0    0  0.00000000000E+00  0.00000000000E+00  0.45593999997E+02  0.45594000000E+02  0.51100000000E-03 0. -1.
         11   -1    0    0    0    0 -0.00000000000E+00 -0.00000000000E+00 -0.45593999997E+02  0.45594000000E+02  0.51100000000E-03 0.  1.
    9900012    2    1    2    0    0 -0.78654604788E+01 -0.15558668622E+02 -0.68366221151E+01  0.72461627159E+02  0.70000074077E+02 0.  0.
         12    1    1    2    0    0  0.78654604788E+01  0.15558668622E+02  0.68366221151E+01  0.18726372841E+02  0.00000000000E+00 0. -1.
         11    1    3    3    0    0  0.11064078748E+02 -0.32054750198E+02  0.64502048752E+01  0.34518487683E+02  0.51100000000E-03 0. -1.
        -11    1    3    3    0    0  0.32637384118E+01  0.78429486804E+01  0.30862597961E+01  0.90381874407E+01  0.51100000000E-03 0.  1.
        -12    1    3    3    0    0 -0.22193277638E+02  0.86531328952E+01 -0.16373086786E+02  0.28904952035E+02  0.00000000000E+00 0.  1.
</event>
<event>
 7    1  0.1465498E-013  0.7246160E+02  0.7816164E-02  0.1226708E+00
        -11   -1    0    0    0    0  0.00000000000E+00  0.00000000000E+00  0.45593999997E+02  0.45594000000E+02  0.51100000000E-03 0.  1.
         11   -1    0    0    0    0 -0.00000000000E+00 -0.00000000000E+00 -0.45593999997E+02  0.45594000000E+02  0.51100000000E-03 0. -1.
    9900012    2    1    2    0    0 -0.89400134393E+01 -0.14057964402E+02  0.85514902369E+01  0.72461596483E+02  0.70000034115E+02 0.  0.
         12    1    1    2    0    0  0.89400134393E+01  0.14057964402E+02 -0.85514902369E+01  0.18726403517E+02  0.00000000000E+00 0. -1.
         11    1    3    3    0    0  0.27496496888E+02 -0.10829428649E+02  0.16235200254E+02  0.33718178977E+02  0.51100000000E-03 0.  1.
        -11    1    3    3    0    0 -0.24461359784E+02 -0.12021436776E+01 -0.22756116411E+00  0.24491938597E+02  0.51100000000E-03 0. -1.
        -12    1    3    3    0    0 -0.11975150543E+02 -0.20263920755E+01 -0.74561488528E+01  0.14251478909E+02  0.00000000000E+00 0.  1.
</event>
<event>
 7    1  0.1465498E-013  0.7246160E+02  0.7816164E-02  0.1226708E+00
        -11   -1    0    0    0    0  0.00000000000E+00  0.00000000000E+00  0.45593999997E+02  0.45594000000E+02  0.51100000000E-03 0. -1.
         11   -1    0    0    0    0 -0.00000000000E+00 -0.00000000000E+00 -0.45593999997E+02  0.45594000000E+02  0.51100000000E-03 0.  1.
    9900012    2    1    2    0    0  0.71856743967E+01  0.27389152738E+01 -0.17074617661E+02  0.72461597738E+02  0.70000035750E+02 0.  0.
         12    1    1    2    0    0 -0.71856743967E+01 -0.27389152738E+01  0.17074617661E+02  0.18726402262E+02  0.00000000000E+00 0. -1.
         11    1    3    3    0    0 -0.23221113937E+02  0.18257535165E+02 -0.84141440535E+01  0.30714093559E+02  0.51100000000E-03 0. -1.
        -11    1    3    3    0    0  0.11541093402E+02  0.29740244003E+01  0.38401580521E+01  0.12521520362E+02  0.51100000000E-03 0.  1.
        -12    1    3    3    0    0  0.18865694931E+02 -0.18492644291E+02 -0.12500631660E+02  0.29225983816E+02  0.00000000000E+00 0.  1.
</event>
<event>
 7    1  0.1465498E-013  0.7246159E+02  0.7816164E-02  0.1226708E+00
        -11   -1    0    0    0    0  0.00000000000E+00  0.00000000000E+00  0.45593999997E+02  0.45594000000E+02  0.51100000000E-03 0.  1.
         11   -1    0    0    0    0 -0.00000000000E+00 -0.00000000000E+00 -0.45593999997E+02  0.45594000000E+02  0.51100000000E-03 0. -1.
    9900012    2    1    2    0    0 -0.14763471617E+02 -0.29409916331E+01  0.11138617729E+02  0.72461592686E+02  0.70000029170E+02 0.  0.
         12    1    1    2    0    0  0.14763471617E+02  0.29409916331E+01 -0.11138617729E+02  0.18726407314E+02  0.00000000000E+00 0. -1.
         11    1    3    3    0    0  0.27989212306E+01  0.19618825999E+02 -0.37812718687E+01  0.20174992214E+02  0.51100000000E-03 0.  1.
        -11    1    3    3    0    0  0.10885609054E+02 -0.11820514289E+02  0.14848111253E+02  0.21878927089E+02  0.51100000000E-03 0. -1.
        -12    1    3    3    0    0 -0.28448001901E+02 -0.10739303342E+02  0.71778344747E-01  0.30407673383E+02  0.00000000000E+00 0.  1.
</event>
<event>
 7    1  0.1465498E-013  0.7246162E+02  0.7816164E-02  0.1226708E+00
        -11   -1    0    0    0    0  0.00000000000E+00  0.00000000000E+00  0.45593999997E+02  0.45594000000E+02  0.51100000000E-03 0. -1.
         11   -1    0    0    0    0 -0.00000000000E+00 -0.00000000000E+00 -0.45593999997E+02  0.45594000000E+02  0.51100000000E-03 0.  1.
    9900012    2    1    2    0    0  0.12650715650E+02  0.12464215676E+02 -0.59396920652E+01  0.72461622328E+02  0.70000067784E+02 0.  0.
         12    1    1    2    0    0 -0.12650715650E+02 -0.12464215676E+02  0.59396920652E+01  0.18726377672E+02  0.00000000000E+00 0. -1.
         11    1    3    3    0    0 -0.50498606618E+01  0.11481243555E+00  0.55244787467E+00  0.50812866003E+01  0.51100000000E-03 0. -1.
        -11    1    3    3    0    0  0.15242879087E+02  0.32040858482E+02 -0.22387972405E+02  0.41954538298E+02  0.51100000000E-03 0.  1.
         12    1    3    3    0    0  0.24576972253E+01 -0.19691455242E+02  0.15895832465E+02  0.25425797430E+02  0.00000000000E+00 0. -1.
</event>
<event>
 7    1  0.1465498E-013  0.7246148E+02  0.7816164E-02  0.1226708E+00
        -11   -1    0    0    0    0  0.00000000000E+00  0.00000000000E+00  0.45593999997E+02  0.45594000000E+02  0.51100000000E-03 0.  1.
         11   -1    0    0    0    0 -0.00000000000E+00 -0.00000000000E+00 -0.45593999997E+02  0.45594000000E+02  0.51100000000E-03 0. -1.
    9900012    2    1    2    0    0 -0.16326889520E+01 -0.14209136382E+02  0.12087897676E+02  0.72461481366E+02  0.69999884154E+02 0.  0.
         12    1    1    2    0    0  0.16326889520E+01  0.14209136382E+02 -0.12087897676E+02  0.18726518634E+02  0.00000000000E+00 0. -1.
         11    1    3    3    0    0  0.14605556158E+01 -0.23407855463E+02 -0.14426736564E+02  0.27535280065E+02  0.51100000000E-03 0. -1.
        -11    1    3    3    0    0 -0.43425444107E+01 -0.13081797432E+02  0.80519135168E+01  0.15963221090E+02  0.51100000000E-03 0.  1.
         12    1    3    3    0    0  0.12492998430E+01  0.22280516514E+02  0.18462720723E+02  0.28962980211E+02  0.00000000000E+00 0. -1.
</event>
<event>
 7    1  0.1465498E-013  0.7246158E+02  0.7816164E-02  0.1226708E+00
        -11   -1    0    0    0    0  0.00000000000E+00  0.00000000000E+00  0.45593999997E+02  0.45594000000E+02  0.51100000000E-03 0. -1.
         11   -1    0    0    0    0 -0.00000000000E+00 -0.00000000000E+00 -0.45593999997E+02  0.45594000000E+02  0.51100000000E-03 0.  1.
    9900012    2    1    2    0    0  0.16011954118E+02 -0.78247952353E+01 -0.57505254489E+01  0.72461584484E+02  0.70000018484E+02 0.  0.
         12    1    1    2    0    0 -0.16011954118E+02  0.78247952353E+01  0.57505254489E+01  0.18726415516E+02  0.00000000000E+00 0. -1.
         11    1    3    3    0    0 -0.10027160400E+02 -0.45213247454E+01  0.23792567419E+02  0.26212069506E+02  0.51100000000E-03 0. -1.
        -11    1    3    3    0    0  0.57357330721E+01  0.10342931046E+01  0.38095588146E+01  0.69628395589E+01  0.51100000000E-03 0.  1.
        -12    1    3    3    0    0  0.20303381446E+02 -0.43377635945E+01 -0.33352651683E+02  0.39286675418E+02  0.00000000000E+00 0.  1.
</event>
<event>
 7    1  0.1465498E-013  0.7246164E+02  0.7816164E-02  0.1226708E+00
        -11   -1    0    0    0    0  0.00000000000E+00  0.00000000000E+00  0.45593999997E+02  0.45594000000E+02  0.51100000000E-03 0.  1.
         11   -1    0    0    0    0 -0.00000000000E+00 -0.00000000000E+00 -0.45593999997E+02  0.45594000000E+02  0.51100000000E-03 0. -1.
    9900012    2    1    2    0    0  0.15595055220E+02 -0.48692765113E+01  0.91521037841E+01  0.72461638775E+02  0.70000089208E+02 0.  0.
         12    1    1    2    0    0 -0.15595055220E+02  0.48692765113E+01 -0.91521037841E+01  0.18726361225E+02  0.00000000000E+00 0. -1.
         11    1    3    3    0    0 -0.83699695996E+01 -0.13214562727E+01  0.80904668378E+01  0.11715728389E+02  0.51100000000E-03 0. -1.
        -11    1    3    3    0    0 -0.88986294484E+01  0.18858793112E+02  0.20901106685E+01  0.20957295784E+02  0.51100000000E-03 0.  1.
         12    1    3    3    0    0  0.32863654268E+02 -0.22406613350E+02 -0.10284737221E+01  0.39788614602E+02  0.00000000000E+00 0. -1.
</event>
<event>
 7    1  0.1465498E-013  0.7246155E+02  0.7816164E-02  0.1226708E+00
        -11   -1    0    0    0    0  0.00000000000E+00  0.00000000000E+00  0.45593999997E+02  0.45594000000E+02  0.51100000000E-03 0. -1.
         11   -1    0    0    0    0 -0.00000000000E+00 -0.00000000000E+00 -0.45593999997E+02  0.45594000000E+02  0.51100000000E-03 0.  1.
    9900012    2    1    2    0    0  0.13310768021E+02 -0.12567653115E+02 -0.39442836023E+01  0.72461552839E+02  0.69999977262E+02 0.  0.
         12    1    1    2    0    0 -0.13310768021E+02  0.12567653115E+02  0.39442836023E+01  0.18726447161E+02  0.00000000000E+00 0. -1.
         11    1    3    3    0    0  0.12629599566E+02 -0.11516157074E+02  0.65382214957E+00  0.17104272643E+02  0.51100000000E-03 0. -1.
        -11    1    3    3    0    0  0.15469045992E+02 -0.18519125214E+02 -0.16818129104E+02  0.29412562782E+02  0.51100000000E-03 0.  1.
        -12    1    3    3    0    0 -0.14787877538E+02  0.17467629173E+02  0.12220023352E+02  0.25944717415E+02  0.00000000000E+00 0.  1.
</event>
<event>
 7    1  0.2365572E-013  0.7246166E+02  0.7816164E-02  0.1226708E+00
        -11   -1    0    0    0    0  0.00000000000E+00  0.00000000000E+00  0.45593999997E+02  0.45594000000E+02  0.51100000000E-03 0. -1.
         11   -1    0    0    0    0 -0.00000000000E+00 -0.00000000000E+00 -0.45593999997E+02  0.45594000000E+02  0.51100000000E-03 0.  1.
    9900012    2    1    2    0    0 -0.52316522269E+01 -0.12048906568E+02 -0.13346516736E+02  0.72461659100E+02  0.70000115686E+02 0.  0.
         12    1    1    2    0    0  0.52316522269E+01  0.12048906568E+02  0.13346516736E+02  0.18726340900E+02  0.00000000000E+00 0. -1.
         11    1    3    3    0    0 -0.66931664365E+01 -0.51653263485E+01  0.20601404999E+02  0.22268744047E+02  0.51100000000E-03 0. -1.
        -11    1    3    3    0    0 -0.80360843910E+01  0.27764118967E+01  0.43637725984E+01  0.95566535414E+01  0.51100000000E-03 0.  1.
        -12    1    3    3    0    0  0.94975986006E+01 -0.96599921161E+01 -0.38311694334E+02  0.40636261511E+02  0.00000000000E+00 0.  1.
</event>
<event>
 7    1  0.1465498E-013  0.7246153E+02  0.7816164E-02  0.1226708E+00
        -11   -1    0    0    0    0  0.00000000000E+00  0.00000000000E+00  0.45593999997E+02  0.45594000000E+02  0.51100000000E-03 0.  1.
         11   -1    0    0    0    0 -0.00000000000E+00 -0.00000000000E+00 -0.45593999997E+02  0.45594000000E+02  0.51100000000E-03 0. -1.
    9900012    2    1    2    0    0 -0.16977873659E+02 -0.65602429545E+01  0.44040354217E+01  0.72461534514E+02  0.69999953389E+02 0.  0.
         12    1    1    2    0    0  0.16977873659E+02  0.65602429545E+01 -0.44040354217E+01  0.18726465486E+02  0.00000000000E+00 0. -1.
         11    1    3    3    0    0  0.17689722832E+02 -0.11320274774E+02 -0.15361798646E+01  0.21057890770E+02  0.51100000000E-03 0. -1.
        -11    1    3    3    0    0 -0.18282872408E+02 -0.15551823054E+02  0.78072983011E+01  0.25240375013E+02  0.51100000000E-03 0.  1.
         12    1    3    3    0    0 -0.16384724083E+02  0.20311854873E+02 -0.18670830148E+01  0.26163268731E+02  0.00000000000E+00 0. -1.
</event>
<event>
 7    1  0.1465498E-013  0.7246159E+02  0.7816164E-02  0.1226708E+00
        -11   -1    0    0    0    0  0.00000000000E+00  0.00000000000E+00  0.45593999997E+02  0.45594000000E+02  0.51100000000E-03 0.  1.
         11   -1    0    0    0    0 -0.00000000000E+00 -0.00000000000E+00 -0.45593999997E+02  0.45594000000E+02  0.51100000000E-03 0. -1.
    9900012    2    1    2    0    0 -0.49835639473E+01 -0.17544300626E+02  0.42473625115E+01  0.72461588641E+02  0.70000023900E+02 0.  0.
         12    1    1    2    0    0  0.49835639473E+01  0.17544300626E+02 -0.42473625115E+01  0.18726411359E+02  0.00000000000E+00 0. -1.
         11    1    3    3    0    0  0.16026502620E+02 -0.87830705614E+00 -0.27702573934E+01  0.16287864679E+02  0.51100000000E-03 0. -1.
        -11    1    3    3    0    0 -0.55880483502E+01 -0.38629915494E+01  0.27017531116E+02  0.27858499169E+02  0.51100000000E-03 0.  1.
         12    1    3    3    0    0 -0.15422018217E+02 -0.12803002021E+02 -0.19999911211E+02  0.28315224793E+02  0.00000000000E+00 0. -1.
</event>
<event>
 7    1  0.1465498E-013  0.7246160E+02  0.7816164E-02  0.1226708E+00
        -11   -1    0    0    0    0  0.00000000000E+00  0.00000000000E+00  0.45593999997E+02  0.45594000000E+02  0.51100000000E-03 0.  1.
         11   -1    0    0    0    0 -0.00000000000E+00 -0.00000000000E+00 -0.45593999997E+02  0.45594000000E+02  0.51100000000E-03 0. -1.
    9900012    2    1    2    0    0  0.12723975414E+02 -0.11928974710E+02  0.68174709563E+01  0.72461604239E+02  0.70000044219E+02 0.  0.
         12    1    1    2    0    0 -0.12723975414E+02  0.11928974710E+02 -0.68174709563E+01  0.18726395761E+02  0.00000000000E+00 0. -1.
         11    1    3    3    0    0  0.63477322054E+01  0.11069279089E+02  0.59865172847E+01  0.14094716498E+02  0.51100000000E-03 0. -1.
        -11    1    3    3    0    0 -0.13529131578E+02 -0.57585762715E+00  0.18982450581E+02  0.23317427894E+02  0.51100000000E-03 0.  1.
         12    1    3    3    0    0  0.19905374787E+02 -0.22422396172E+02 -0.18151496909E+02  0.35049459847E+02  0.00000000000E+00 0. -1.
</event>
<event>
 7    1  0.1465498E-013  0.7246159E+02  0.7816164E-02  0.1226708E+00
        -11   -1    0    0    0    0  0.00000000000E+00  0.00000000000E+00  0.45593999997E+02  0.45594000000E+02  0.51100000000E-03 0.  1.
         11   -1    0    0    0    0 -0.00000000000E+00 -0.00000000000E+00 -0.45593999997E+02  0.45594000000E+02  0.51100000000E-03 0. -1.
    9900012    2    1    2    0    0 -0.16109309987E+02 -0.95280522544E+01  0.62033332337E+00  0.72461589200E+02  0.70000024628E+02 0.  0.
         12    1    1    2    0    0  0.16109309987E+02  0.95280522544E+01 -0.62033332337E+00  0.18726410800E+02  0.00000000000E+00 0. -1.
         11    1    3    3    0    0 -0.36246082194E+01 -0.54832231076E+00 -0.11151389864E+02  0.11738481089E+02  0.51100000000E-03 0. -1.
        -11    1    3    3    0    0 -0.10916286100E+02  0.21100384991E+02  0.18195982547E+02  0.29924660902E+02  0.51100000000E-03 0.  1.
         12    1    3    3    0    0 -0.15684156678E+01 -0.30080114935E+02 -0.64242593590E+01  0.30798447209E+02  0.00000000000E+00 0. -1.
</event>
<event>
 7    1  0.1465498E-013  0.7246155E+02  0.7816164E-02  0.1226708E+00
        -11   -1    0    0    0    0  0.00000000000E+00  0.00000000000E+00  0.45593999997E+02  0.45594000000E+02  0.51100000000E-03 0.  1.
         11   -1    0    0    0    0 -0.00000000000E+00 -0.00000000000E+00 -0.45593999997E+02  0.45594000000E+02  0.51100000000E-03 0. -1.
    9900012    2    1    2    0    0  0.76476742062E+01  0.10443344751E+02 -0.13532541127E+02  0.72461547061E+02  0.69999969734E+02 0.  0.
         12    1    1    2    0    0 -0.76476742062E+01 -0.10443344751E+02  0.13532541127E+02  0.18726452939E+02  0.00000000000E+00 0. -1.
         11    1    3    3    0    0 -0.13407070000E+02  0.31724382712E+01  0.12501737438E+00  0.13777863411E+02  0.51100000000E-03 0. -1.
        -11    1    3    3    0    0 -0.85045469614E+01 -0.13338694048E+02  0.68313891655E+01  0.17231249407E+02  0.51100000000E-03 0.  1.
        -12    1    3    3    0    0  0.29559291167E+02  0.20609600527E+02 -0.20488947666E+02  0.41452434243E+02  0.00000000000E+00 0.  1.
</event>
<event>
 7    1  0.1465498E-013  0.7246157E+02  0.7816164E-02  0.1226708E+00
        -11   -1    0    0    0    0  0.00000000000E+00  0.00000000000E+00  0.45593999997E+02  0.45594000000E+02  0.51100000000E-03 0.  1.
         11   -1    0    0    0    0 -0.00000000000E+00 -0.00000000000E+00 -0.45593999997E+02  0.45594000000E+02  0.51100000000E-03 0. -1.
    9900012    2    1    2    0    0  0.67283181937E+01  0.19869329148E+01  0.17362637654E+02  0.72461565358E+02  0.69999993569E+02 0.  0.
         12    1    1    2    0    0 -0.67283181937E+01 -0.19869329148E+01 -0.17362637654E+02  0.18726434642E+02  0.00000000000E+00 0. -1.
         11    1    3    3    0    0 -0.14039311527E+02 -0.16469140191E+01 -0.58682129729E+01  0.15305244777E+02  0.51100000000E-03 0. -1.
        -11    1    3    3    0    0 -0.56579200289E+01  0.20120563055E+02  0.70543713693E+01  0.22059312600E+02  0.51100000000E-03 0.  1.
         12    1    3    3    0    0  0.26425549750E+02 -0.16486716121E+02  0.16176479257E+02  0.35097007980E+02  0.00000000000E+00 0. -1.
</event>
<event>
 7    1  0.1465498E-013  0.7246157E+02  0.7816164E-02  0.1226708E+00
        -11   -1    0    0    0    0  0.00000000000E+00  0.00000000000E+00  0.45593999997E+02  0.45594000000E+02  0.51100000000E-03 0.  1.
         11   -1    0    0    0    0 -0.00000000000E+00 -0.00000000000E+00 -0.45593999997E+02  0.45594000000E+02  0.51100000000E-03 0. -1.
    9900012    2    1    2    0    0 -0.60040086659E+01  0.13356998346E+02 -0.11671396535E+02  0.72461574235E+02  0.70000005133E+02 0.  0.
         12    1    1    2    0    0  0.60040086659E+01 -0.13356998346E+02  0.11671396535E+02  0.18726425765E+02  0.00000000000E+00 0. -1.
         11    1    3    3    0    0  0.66630600311E+01 -0.90098489924E+00 -0.49931953271E+01  0.83749712001E+01  0.51100000000E-03 0. -1.
        -11    1    3    3    0    0  0.18550397607E+02  0.24470491243E+02 -0.56668522562E+01  0.31225556966E+02  0.51100000000E-03 0.  1.
        -12    1    3    3    0    0 -0.31217466304E+02 -0.10212507998E+02 -0.10113489513E+01  0.32861046069E+02  0.00000000000E+00 0.  1.
</event>
<event>
 7    1  0.1465498E-013  0.7246155E+02  0.7816164E-02  0.1226708E+00
        -11   -1    0    0    0    0  0.00000000000E+00  0.00000000000E+00  0.45593999997E+02  0.45594000000E+02  0.51100000000E-03 0. -1.
         11   -1    0    0    0    0 -0.00000000000E+00 -0.00000000000E+00 -0.45593999997E+02  0.45594000000E+02  0.51100000000E-03 0.  1.
    9900012    2    1    2    0    0  0.18566162323E+01  0.17581378685E+02  0.61747813271E+01  0.72461552800E+02  0.69999977211E+02 0.  0.
         12    1    1    2    0    0 -0.18566162323E+01 -0.17581378685E+02 -0.61747813271E+01  0.18726447200E+02  0.00000000000E+00 0. -1.
         11    1    3    3    0    0  0.41511707214E+01  0.15155331525E+02  0.61228429332E+01  0.16864326189E+02  0.51100000000E-03 0. -1.
        -11    1    3    3    0    0  0.13838406607E+02  0.23042055692E+02 -0.82808752000E+01  0.28124912840E+02  0.51100000000E-03 0.  1.
         12    1    3    3    0    0 -0.16132961096E+02 -0.20616008532E+02  0.83328135938E+01  0.27472313771E+02  0.00000000000E+00 0. -1.
</event>
<event>
 7    1  0.1731268E-013  0.7246156E+02  0.7816164E-02  0.1226708E+00
        -11   -1    0    0    0    0  0.00000000000E+00  0.00000000000E+00  0.45593999997E+02  0.45594000000E+02  0.51100000000E-03 0. -1.
         11   -1    0    0    0    0 -0.00000000000E+00 -0.00000000000E+00 -0.45593999997E+02  0.45594000000E+02  0.51100000000E-03 0.  1.
    9900012    2    1    2    0    0  0.29962036612E+01 -0.17679593594E+02 -0.53976145126E+01  0.72461561245E+02  0.69999988211E+02 0.  0.
         12    1    1    2    0    0 -0.29962036612E+01  0.17679593594E+02  0.53976145126E+01  0.18726438755E+02  0.00000000000E+00 0. -1.
         11    1    3    3    0    0  0.18027984920E+02 -0.23229621272E+02  0.11705866339E+02  0.31648868096E+02  0.51100000000E-03 0. -1.
        -11    1    3    3    0    0 -0.71871082009E+01 -0.13279464014E+02 -0.15853699590E+01  0.15182624509E+02  0.51100000000E-03 0.  1.
        -12    1    3    3    0    0 -0.78446730583E+01  0.18829491693E+02 -0.15518110893E+02  0.25630068640E+02  0.00000000000E+00 0.  1.
</event>
<event>
 7    1  0.1465498E-013  0.7246154E+02  0.7816164E-02  0.1226708E+00
        -11   -1    0    0    0    0  0.00000000000E+00  0.00000000000E+00  0.45593999997E+02  0.45594000000E+02  0.51100000000E-03 0. -1.
         11   -1    0    0    0    0 -0.00000000000E+00 -0.00000000000E+00 -0.45593999997E+02  0.45594000000E+02  0.51100000000E-03 0.  1.
    9900012    2    1    2    0    0 -0.17703659958E+02 -0.53784057619E+00 -0.60804178559E+01  0.72461539317E+02  0.69999959647E+02 0.  0.
         12    1    1    2    0    0  0.17703659958E+02  0.53784057619E+00  0.60804178559E+01  0.18726460683E+02  0.00000000000E+00 0. -1.
         11    1    3    3    0    0 -0.15016209036E+02 -0.64895648562E+01  0.11727495026E+02  0.20127968742E+02  0.51100000000E-03 0. -1.
        -11    1    3    3    0    0 -0.20364777440E+02  0.18471949417E+02 -0.11177492263E+02  0.29679511603E+02  0.51100000000E-03 0.  1.
        -12    1    3    3    0    0  0.17677326518E+02 -0.12520225137E+02 -0.66304206179E+01  0.22654058972E+02  0.00000000000E+00 0.  1.
</event>
<event>
 7    1  0.1465498E-013  0.7246153E+02  0.7816164E-02  0.1226708E+00
        -11   -1    0    0    0    0  0.00000000000E+00  0.00000000000E+00  0.45593999997E+02  0.45594000000E+02  0.51100000000E-03 0.  1.
         11   -1    0    0    0    0 -0.00000000000E+00 -0.00000000000E+00 -0.45593999997E+02  0.45594000000E+02  0.51100000000E-03 0. -1.
    9900012    2    1    2    0    0  0.10511876158E+02 -0.15011633493E+02  0.38512544131E+01  0.72461525664E+02  0.69999941861E+02 0.  0.
         12    1    1    2    0    0 -0.10511876158E+02  0.15011633493E+02 -0.38512544131E+01  0.18726474336E+02  0.00000000000E+00 0. -1.
         11    1    3    3    0    0 -0.53501873252E+01 -0.18885742615E+02 -0.71453728403E+01  0.20889043344E+02  0.51100000000E-03 0. -1.
        -11    1    3    3    0    0 -0.16109238023E+02 -0.50746582227E+01  0.10849096867E+01  0.16924441942E+02  0.51100000000E-03 0.  1.
         12    1    3    3    0    0  0.31971301506E+02  0.89487673445E+01  0.99117175667E+01  0.34648040378E+02  0.00000000000E+00 0. -1.
</event>
<event>
 7    1  0.1465498E-013  0.7246160E+02  0.7816164E-02  0.1226708E+00
        -11   -1    0    0    0    0  0.00000000000E+00  0.00000000000E+00  0.45593999997E+02  0.45594000000E+02  0.51100000000E-03 0.  1.
         11   -1    0    0    0    0 -0.00000000000E+00 -0.00000000000E+00 -0.45593999997E+02  0.45594000000E+02  0.51100000000E-03 0. -1.
    9900012    2    1    2    0    0  0.68839855954E+01  0.79751280326E+01  0.15481803530E+02  0.72461597106E+02  0.70000034927E+02 0.  0.
         12    1    1    2    0    0 -0.68839855954E+01 -0.79751280326E+01 -0.15481803530E+02  0.18726402894E+02  0.00000000000E+00 0. -1.
         11    1    3    3    0    0  0.26688078346E+02  0.11253097217E+02  0.20042731973E+02  0.35222107092E+02  0.51100000000E-03 0. -1.
        -11    1    3    3    0    0 -0.24378687514E+01  0.12898363723E+02 -0.29345135966E+01  0.13450738311E+02  0.51100000000E-03 0.  1.
        -12    1    3    3    0    0 -0.17366224000E+02 -0.16176332907E+02 -0.16264148465E+01  0.23788751703E+02  0.00000000000E+00 0.  1.
</event>
<event>
 7    1  0.1465498E-013  0.7246137E+02  0.7816164E-02  0.1226709E+00
        -11   -1    0    0    0    0  0.00000000000E+00  0.00000000000E+00  0.45593999997E+02  0.45594000000E+02  0.51100000000E-03 0. -1.
         11   -1    0    0    0    0 -0.00000000000E+00 -0.00000000000E+00 -0.45593999997E+02  0.45594000000E+02  0.51100000000E-03 0.  1.
    9900012    2    1    2    0    0 -0.11273438420E+02 -0.41444777192E+01 -0.14367304693E+02  0.72461373141E+02  0.69999743171E+02 0.  0.
         12    1    1    2    0    0  0.11273438420E+02  0.41444777192E+01  0.14367304693E+02  0.18726626859E+02  0.00000000000E+00 0. -1.
         11    1    3    3    0    0 -0.44837528250E+01  0.11070677857E+02  0.73038330127E+01  0.14000354444E+02  0.51100000000E-03 0. -1.
        -11    1    3    3    0    0 -0.89297048810E+01 -0.14482678194E+02  0.14417608638E+02  0.22301458159E+02  0.51100000000E-03 0.  1.
         12    1    3    3    0    0  0.21400192858E+01 -0.73247738213E+00 -0.36088746344E+02  0.36159560538E+02  0.00000000000E+00 0. -1.
</event>
<event>
 7    1  0.1465498E-013  0.7246158E+02  0.7816164E-02  0.1226708E+00
        -11   -1    0    0    0    0  0.00000000000E+00  0.00000000000E+00  0.45593999997E+02  0.45594000000E+02  0.51100000000E-03 0. -1.
         11   -1    0    0    0    0 -0.00000000000E+00 -0.00000000000E+00 -0.45593999997E+02  0.45594000000E+02  0.51100000000E-03 0.  1.
    9900012    2    1    2    0    0 -0.88309771809E+01 -0.50053357220E+00 -0.16505821872E+02  0.72461578893E+02  0.70000011201E+02 0.  0.
         12    1    1    2    0    0  0.88309771809E+01  0.50053357220E+00  0.16505821872E+02  0.18726421107E+02  0.00000000000E+00 0. -1.
         11    1    3    3    0    0 -0.13180455258E+01 -0.14454999977E+02 -0.42641959607E+01  0.15128371882E+02  0.51100000000E-03 0. -1.
        -11    1    3    3    0    0 -0.24894128812E+02 -0.14547844332E+00 -0.21710411960E+02  0.33031512243E+02  0.51100000000E-03 0.  1.
         12    1    3    3    0    0  0.17381197157E+02  0.14099944849E+02  0.94687860495E+01  0.24301694768E+02  0.00000000000E+00 0. -1.
</event>
<event>
 7    1  0.1465498E-013  0.7246160E+02  0.7816164E-02  0.1226708E+00
        -11   -1    0    0    0    0  0.00000000000E+00  0.00000000000E+00  0.45593999997E+02  0.45594000000E+02  0.51100000000E-03 0. -1.
         11   -1    0    0    0    0 -0.00000000000E+00 -0.00000000000E+00 -0.45593999997E+02  0.45594000000E+02  0.51100000000E-03 0.  1.
    9900012    2    1    2    0    0  0.23057853460E+01 -0.18599220952E+01 -0.18490592918E+02  0.72461601982E+02  0.70000041279E+02 0.  0.
         12    1    1    2    0    0 -0.23057853460E+01  0.18599220952E+01  0.18490592918E+02  0.18726398018E+02  0.00000000000E+00 0. -1.
         11    1    3    3    0    0  0.21580380324E+02 -0.17433271028E+02 -0.61364547949E+01  0.28412811043E+02  0.51100000000E-03 0. -1.
        -11    1    3    3    0    0  0.50381383381E+01 -0.30571731147E+01  0.59432493944E+01  0.83696689894E+01  0.51100000000E-03 0.  1.
        -12    1    3    3    0    0 -0.24312733316E+02  0.18630522048E+02 -0.18297387518E+02  0.35679121949E+02  0.00000000000E+00 0.  1.
</event>
<event>
 7    1  0.1465498E-013  0.7246157E+02  0.7816164E-02  0.1226708E+00
        -11   -1    0    0    0    0  0.00000000000E+00  0.00000000000E+00  0.45593999997E+02  0.45594000000E+02  0.51100000000E-03 0. -1.
         11   -1    0    0    0    0 -0.00000000000E+00 -0.00000000000E+00 -0.45593999997E+02  0.45594000000E+02  0.51100000000E-03 0.  1.
    9900012    2    1    2    0    0  0.54362883231E+01  0.12061576592E+02 -0.13253089024E+02  0.72461568698E+02  0.69999997921E+02 0.  0.
         12    1    1    2    0    0 -0.54362883231E+01 -0.12061576592E+02  0.13253089024E+02  0.18726431302E+02  0.00000000000E+00 0. -1.
         11    1    3    3    0    0 -0.11821212351E+02  0.20814359057E+00 -0.30937172476E+01  0.12221107637E+02  0.51100000000E-03 0. -1.
        -11    1    3    3    0    0  0.14861146097E+02 -0.20491317145E+02  0.24736740541E+01  0.25433576336E+02  0.51100000000E-03 0.  1.
         12    1    3    3    0    0  0.23963545776E+01  0.32344750147E+02 -0.12633045831E+02  0.34806884725E+02  0.00000000000E+00 0. -1.
</event>
<event>
 7    1  0.1465498E-013  0.7246155E+02  0.7816164E-02  0.1226708E+00
        -11   -1    0    0    0    0  0.00000000000E+00  0.00000000000E+00  0.45593999997E+02  0.45594000000E+02  0.51100000000E-03 0. -1.
         11   -1    0    0    0    0 -0.00000000000E+00 -0.00000000000E+00 -0.45593999997E+02  0.45594000000E+02  0.51100000000E-03 0.  1.
    9900012    2    1    2    0    0 -0.27738809095E+01  0.61116686739E+01 -0.17482366159E+02  0.72461547164E+02  0.69999969869E+02 0.  0.
         12    1    1    2    0    0  0.27738809095E+01 -0.61116686739E+01  0.17482366159E+02  0.18726452836E+02  0.00000000000E+00 0. -1.
         11    1    3    3    0    0 -0.30246631740E+02  0.20202463164E+01  0.51905266379E+01  0.30755189706E+02  0.51100000000E-03 0. -1.
        -11    1    3    3    0    0 -0.32221600897E+01 -0.40796690637E+00 -0.51161769909E+01  0.60600346454E+01  0.51100000000E-03 0.  1.
         12    1    3    3    0    0  0.30694910920E+02  0.44993892639E+01 -0.17556715806E+02  0.35646322813E+02  0.00000000000E+00 0. -1.
</event>
<event>
 7    1  0.1465498E-013  0.7246134E+02  0.7816164E-02  0.1226709E+00
        -11   -1    0    0    0    0  0.00000000000E+00  0.00000000000E+00  0.45593999997E+02  0.45594000000E+02  0.51100000000E-03 0. -1.
         11   -1    0    0    0    0 -0.00000000000E+00 -0.00000000000E+00 -0.45593999997E+02  0.45594000000E+02  0.51100000000E-03 0.  1.
    9900012    2    1    2    0    0  0.13008482216E+02 -0.13178375777E+02 -0.27924305842E+01  0.72461338091E+02  0.69999697512E+02 0.  0.
         12    1    1    2    0    0 -0.13008482216E+02  0.13178375777E+02  0.27924305842E+01  0.18726661909E+02  0.00000000000E+00 0. -1.
         11    1    3    3    0    0  0.68806661347E+01  0.79149316468E+01  0.11862298276E+02  0.15833629719E+02  0.51100000000E-03 0. -1.
        -11    1    3    3    0    0  0.26930658769E+02 -0.93862304868E+01  0.18521146015E+00  0.28520098317E+02  0.51100000000E-03 0.  1.
        -12    1    3    3    0    0 -0.20802842687E+02 -0.11707076937E+02 -0.14839940321E+02  0.28107610055E+02  0.00000000000E+00 0.  1.
</event>
<event>
 7    1  0.1465498E-013  0.7246137E+02  0.7816164E-02  0.1226709E+00
        -11   -1    0    0    0    0  0.00000000000E+00  0.00000000000E+00  0.45593999997E+02  0.45594000000E+02  0.51100000000E-03 0.  1.
         11   -1    0    0    0    0 -0.00000000000E+00 -0.00000000000E+00 -0.45593999997E+02  0.45594000000E+02  0.51100000000E-03 0. -1.
    9900012    2    1    2    0    0  0.94252953894E+01  0.12255872217E+02  0.10566169036E+02  0.72461373900E+02  0.69999744160E+02 0.  0.
         12    1    1    2    0    0 -0.94252953894E+01 -0.12255872217E+02 -0.10566169036E+02  0.18726626100E+02  0.00000000000E+00 0. -1.
         11    1    3    3    0    0  0.42481422194E+01  0.47009056374E+01  0.55181605075E+01  0.84021022236E+01  0.51100000000E-03 0. -1.
        -11    1    3    3    0    0  0.28099776178E+02 -0.74681528067E+01  0.17522257337E+02  0.33947020930E+02  0.51100000000E-03 0.  1.
         12    1    3    3    0    0 -0.22922623008E+02  0.15023119387E+02 -0.12474248809E+02  0.30112250746E+02  0.00000000000E+00 0. -1.
</event>
<event>
 7    1  0.1465498E-013  0.7246158E+02  0.7816164E-02  0.1226708E+00
        -11   -1    0    0    0    0  0.00000000000E+00  0.00000000000E+00  0.45593999997E+02  0.45594000000E+02  0.51100000000E-03 0.  1.
         11   -1    0    0    0    0 -0.00000000000E+00 -0.00000000000E+00 -0.45593999997E+02  0.45594000000E+02  0.51100000000E-03 0. -1.
    9900012    2    1    2    0    0 -0.16918156395E+02  0.67879268070E+01  0.42870760099E+01  0.72461575172E+02  0.70000006354E+02 0.  0.
         12    1    1    2    0    0  0.16918156395E+02 -0.67879268070E+01 -0.42870760099E+01  0.18726424828E+02  0.00000000000E+00 0. -1.
         11    1    3    3    0    0 -0.73527104676E+01  0.67951739421E+01 -0.73813745579E+01  0.12438706956E+02  0.51100000000E-03 0.  1.
        -11    1    3    3    0    0  0.21170081389E+02 -0.53727213742E+01 -0.78628935316E+01  0.23213435246E+02  0.51100000000E-03 0. -1.
         12    1    3    3    0    0 -0.30735527316E+02  0.53654742391E+01  0.19531344099E+02  0.36809432969E+02  0.00000000000E+00 0. -1.
</event>
<event>
 7    1  0.1465498E-013  0.7246153E+02  0.7816164E-02  0.1226708E+00
        -11   -1    0    0    0    0  0.00000000000E+00  0.00000000000E+00  0.45593999997E+02  0.45594000000E+02  0.51100000000E-03 0. -1.
         11   -1    0    0    0    0 -0.00000000000E+00 -0.00000000000E+00 -0.45593999997E+02  0.45594000000E+02  0.51100000000E-03 0.  1.
    9900012    2    1    2    0    0 -0.15466500059E+02 -0.54519727845E+01 -0.90412340503E+01  0.72461533583E+02  0.69999952177E+02 0.  0.
         12    1    1    2    0    0  0.15466500059E+02  0.54519727845E+01  0.90412340503E+01  0.18726466417E+02  0.00000000000E+00 0. -1.
         11    1    3    3    0    0  0.21144901238E+01 -0.17571946311E+02 -0.25204426771E+02  0.30797848866E+02  0.51100000000E-03 0. -1.
        -11    1    3    3    0    0  0.50656609019E+01 -0.52951444270E+01 -0.22616904173E+01  0.76690754776E+01  0.51100000000E-03 0.  1.
         12    1    3    3    0    0 -0.22646651085E+02  0.17415117954E+02  0.18424883138E+02  0.33994609239E+02  0.00000000000E+00 0. -1.
</event>
<event>
 7    1  0.1465498E-013  0.7246159E+02  0.7816164E-02  0.1226708E+00
        -11   -1    0    0    0    0  0.00000000000E+00  0.00000000000E+00  0.45593999997E+02  0.45594000000E+02  0.51100000000E-03 0.  1.
         11   -1    0    0    0    0 -0.00000000000E+00 -0.00000000000E+00 -0.45593999997E+02  0.45594000000E+02  0.51100000000E-03 0. -1.
    9900012    2    1    2    0    0 -0.10600934079E+02 -0.67430319894E+01 -0.13886323262E+02  0.72461594646E+02  0.70000031723E+02 0.  0.
         12    1    1    2    0    0  0.10600934079E+02  0.67430319894E+01  0.13886323262E+02  0.18726405354E+02  0.00000000000E+00 0. -1.
         11    1    3    3    0    0 -0.55625738036E+01  0.19088978814E+01 -0.10745766945E+02  0.12249801057E+02  0.51100000000E-03 0. -1.
        -11    1    3    3    0    0 -0.28067833060E+02 -0.19126543711E+02  0.32418857918E+01  0.34119462932E+02  0.51100000000E-03 0.  1.
         12    1    3    3    0    0  0.23029472785E+02  0.10474613840E+02 -0.63824421083E+01  0.26092330657E+02  0.00000000000E+00 0. -1.
</event>
<event>
 7    1  0.1465498E-013  0.7246129E+02  0.7816164E-02  0.1226709E+00
        -11   -1    0    0    0    0  0.00000000000E+00  0.00000000000E+00  0.45593999997E+02  0.45594000000E+02  0.51100000000E-03 0. -1.
         11   -1    0    0    0    0 -0.00000000000E+00 -0.00000000000E+00 -0.45593999997E+02  0.45594000000E+02  0.51100000000E-03 0.  1.
    9900012    2    1    2    0    0  0.97950814435E+01  0.11644193356E+02 -0.10915982831E+02  0.72461293387E+02  0.69999639276E+02 0.  0.
         12    1    1    2    0    0 -0.97950814435E+01 -0.11644193356E+02  0.10915982831E+02  0.18726706613E+02  0.00000000000E+00 0. -1.
         11    1    3    3    0    0  0.23390363698E+02  0.75144639490E+01 -0.79207170092E+01  0.25813059496E+02  0.51100000000E-03 0.  1.
        -11    1    3    3    0    0 -0.11592429874E+02 -0.13737871725E+02  0.13317610449E+02  0.22371238192E+02  0.51100000000E-03 0. -1.
         12    1    3    3    0    0 -0.20028523807E+01  0.17867601132E+02 -0.16312876271E+02  0.24276995698E+02  0.00000000000E+00 0. -1.
</event>
<event>
 7    1  0.1465498E-013  0.7246158E+02  0.7816164E-02  0.1226708E+00
        -11   -1    0    0    0    0  0.00000000000E+00  0.00000000000E+00  0.45593999997E+02  0.45594000000E+02  0.51100000000E-03 0.  1.
         11   -1    0    0    0    0 -0.00000000000E+00 -0.00000000000E+00 -0.45593999997E+02  0.45594000000E+02  0.51100000000E-03 0. -1.
    9900012    2    1    2    0    0  0.97987739265E+01 -0.15953211660E+02  0.39750324934E+00  0.72461576381E+02  0.70000007929E+02 0.  0.
         12    1    1    2    0    0 -0.97987739265E+01  0.15953211660E+02 -0.39750324934E+00  0.18726423619E+02  0.00000000000E+00 0. -1.
         11    1    3    3    0    0  0.15489718417E+02  0.73648588320E+01 -0.49868718678E+01  0.17861730419E+02  0.51100000000E-03 0. -1.
        -11    1    3    3    0    0  0.66966888198E+01  0.97928178255E+01 -0.10500112591E+02  0.15842893890E+02  0.51100000000E-03 0.  1.
        -12    1    3    3    0    0 -0.12387633310E+02 -0.33110888317E+02  0.15884487708E+02  0.38756952073E+02  0.00000000000E+00 0.  1.
</event>
<event>
 7    1  0.1465498E-013  0.7246141E+02  0.7816164E-02  0.1226708E+00
        -11   -1    0    0    0    0  0.00000000000E+00  0.00000000000E+00  0.45593999997E+02  0.45594000000E+02  0.51100000000E-03 0. -1.
         11   -1    0    0    0    0 -0.00000000000E+00 -0.00000000000E+00 -0.45593999997E+02  0.45594000000E+02  0.51100000000E-03 0.  1.
    9900012    2    1    2    0    0 -0.12503036954E+02 -0.63232563938E+01 -0.12424793884E+02  0.72461414418E+02  0.69999796942E+02 0.  0.
         12    1    1    2    0    0  0.12503036954E+02  0.63232563938E+01  0.12424793884E+02  0.18726585582E+02  0.00000000000E+00 0. -1.
         11    1    3    3    0    0  0.20706688397E+01  0.87143261919E+01  0.16359913937E+01  0.91051424220E+01  0.51100000000E-03 0. -1.
        -11    1    3    3    0    0  0.10997606244E+02  0.14843476603E+02 -0.15331291939E+02  0.24006762663E+02  0.51100000000E-03 0.  1.
         12    1    3    3    0    0 -0.25571312039E+02 -0.29881059188E+02  0.12705066615E+01  0.39349509333E+02  0.00000000000E+00 0. -1.
</event>
<event>
 7    1  0.1465498E-013  0.7246145E+02  0.7816164E-02  0.1226708E+00
        -11   -1    0    0    0    0  0.00000000000E+00  0.00000000000E+00  0.45593999997E+02  0.45594000000E+02  0.51100000000E-03 0. -1.
         11   -1    0    0    0    0 -0.00000000000E+00 -0.00000000000E+00 -0.45593999997E+02  0.45594000000E+02  0.51100000000E-03 0.  1.
    9900012    2    1    2    0    0  0.15503387569E+02  0.51601345889E+01  0.91488708498E+01  0.72461445247E+02  0.69999837103E+02 0.  0.
         12    1    1    2    0    0 -0.15503387569E+02 -0.51601345889E+01 -0.91488708498E+01  0.18726554753E+02  0.00000000000E+00 0. -1.
         11    1    3    3    0    0  0.90643692114E+00  0.13379987475E+02  0.61531870252E+01  0.14754911167E+02  0.51100000000E-03 0. -1.
        -11    1    3    3    0    0  0.51795626591E+01  0.15992863411E+02 -0.17759598074E+02  0.24454097273E+02  0.51100000000E-03 0.  1.
        -12    1    3    3    0    0  0.94173879886E+01 -0.24212716296E+02  0.20755281898E+02  0.33252436808E+02  0.00000000000E+00 0.  1.
</event>
<event>
 7    1  0.1465498E-013  0.7246157E+02  0.7816164E-02  0.1226708E+00
        -11   -1    0    0    0    0  0.00000000000E+00  0.00000000000E+00  0.45593999997E+02  0.45594000000E+02  0.51100000000E-03 0.  1.
         11   -1    0    0    0    0 -0.00000000000E+00 -0.00000000000E+00 -0.45593999997E+02  0.45594000000E+02  0.51100000000E-03 0. -1.
    9900012    2    1    2    0    0  0.12132210519E+01  0.16652325493E+02  0.84798194208E+01  0.72461569826E+02  0.69999999390E+02 0.  0.
         12    1    1    2    0    0 -0.12132210519E+01 -0.16652325493E+02 -0.84798194208E+01  0.18726430174E+02  0.00000000000E+00 0. -1.
         11    1    3    3    0    0 -0.33267512197E+01  0.12719456514E+02 -0.80828321324E+01  0.15433211695E+02  0.51100000000E-03 0. -1.
        -11    1    3    3    0    0  0.12975354876E+02  0.16761360190E+02  0.29926969047E+02  0.36673239647E+02  0.51100000000E-03 0.  1.
         12    1    3    3    0    0 -0.84353826041E+01 -0.12828491211E+02 -0.13364317494E+02  0.20355118484E+02  0.00000000000E+00 0. -1.
</event>
<event>
 7    1  0.1465498E-013  0.7246154E+02  0.7816164E-02  0.1226708E+00
        -11   -1    0    0    0    0  0.00000000000E+00  0.00000000000E+00  0.45593999997E+02  0.45594000000E+02  0.51100000000E-03 0. -1.
         11   -1    0    0    0    0 -0.00000000000E+00 -0.00000000000E+00 -0.45593999997E+02  0.45594000000E+02  0.51100000000E-03 0.  1.
    9900012    2    1    2    0    0 -0.27754469353E+01 -0.16556631197E+02 -0.82978935713E+01  0.72461543314E+02  0.69999964853E+02 0.  0.
         12    1    1    2    0    0  0.27754469353E+01  0.16556631197E+02  0.82978935713E+01  0.18726456686E+02  0.00000000000E+00 0. -1.
         11    1    3    3    0    0 -0.17556788884E+01  0.48632322496E+01 -0.12264173909E+01  0.53139002767E+01  0.51100000000E-03 0. -1.
        -11    1    3    3    0    0 -0.94297175437E+01 -0.34569302948E+02 -0.24761720171E+02  0.43555700722E+02  0.51100000000E-03 0.  1.
         12    1    3    3    0    0  0.84099494967E+01  0.13149439502E+02  0.17690243991E+02  0.23591942315E+02  0.00000000000E+00 0. -1.
</event>
<event>
 7    1  0.1501242E-013  0.7246162E+02  0.7816164E-02  0.1226708E+00
        -11   -1    0    0    0    0  0.00000000000E+00  0.00000000000E+00  0.45593999997E+02  0.45594000000E+02  0.51100000000E-03 0. -1.
         11   -1    0    0    0    0 -0.00000000000E+00 -0.00000000000E+00 -0.45593999997E+02  0.45594000000E+02  0.51100000000E-03 0.  1.
    9900012    2    1    2    0    0  0.71424349594E+01  0.99332905808E+01 -0.14177189173E+02  0.72461619363E+02  0.70000063921E+02 0.  0.
         12    1    1    2    0    0 -0.71424349594E+01 -0.99332905808E+01  0.14177189173E+02  0.18726380637E+02  0.00000000000E+00 0. -1.
         11    1    3    3    0    0 -0.21485456273E+02 -0.37502460839E+01 -0.60819625201E+01  0.22642425782E+02  0.51100000000E-03 0.  1.
        -11    1    3    3    0    0  0.20245261605E+01  0.21365780546E+02 -0.38957956111E+01  0.21812210072E+02  0.51100000000E-03 0. -1.
        -12    1    3    3    0    0  0.26603365072E+02 -0.76822438817E+01 -0.41994310415E+01  0.28006983509E+02  0.00000000000E+00 0.  1.
</event>
<event>
 7    1  0.1465498E-013  0.7246152E+02  0.7816164E-02  0.1226708E+00
        -11   -1    0    0    0    0  0.00000000000E+00  0.00000000000E+00  0.45593999997E+02  0.45594000000E+02  0.51100000000E-03 0.  1.
         11   -1    0    0    0    0 -0.00000000000E+00 -0.00000000000E+00 -0.45593999997E+02  0.45594000000E+02  0.51100000000E-03 0. -1.
    9900012    2    1    2    0    0  0.17832286759E+02  0.23204259708E+01  0.52255265793E+01  0.72461522601E+02  0.69999937870E+02 0.  0.
         12    1    1    2    0    0 -0.17832286759E+02 -0.23204259708E+01 -0.52255265793E+01  0.18726477399E+02  0.00000000000E+00 0. -1.
         11    1    3    3    0    0  0.13458173718E+02 -0.85328164324E+01  0.62076959057E+01  0.17101663218E+02  0.51100000000E-03 0. -1.
        -11    1    3    3    0    0 -0.93208519825E+01 -0.89576458946E+01  0.19734630656E+02  0.23591806820E+02  0.51100000000E-03 0.  1.
         12    1    3    3    0    0  0.13694965024E+02  0.19810888298E+02 -0.20716799982E+02  0.31768052563E+02  0.00000000000E+00 0. -1.
</event>
<event>
 7    1  0.1465498E-013  0.7246156E+02  0.7816164E-02  0.1226708E+00
        -11   -1    0    0    0    0  0.00000000000E+00  0.00000000000E+00  0.45593999997E+02  0.45594000000E+02  0.51100000000E-03 0.  1.
         11   -1    0    0    0    0 -0.00000000000E+00 -0.00000000000E+00 -0.45593999997E+02  0.45594000000E+02  0.51100000000E-03 0. -1.
    9900012    2    1    2    0    0  0.36609540367E+01 -0.17143456665E+02  0.65862540161E+01  0.72461563264E+02  0.69999990841E+02 0.  0.
         12    1    1    2    0    0 -0.36609540367E+01  0.17143456665E+02 -0.65862540161E+01  0.18726436736E+02  0.00000000000E+00 0. -1.
         11    1    3    3    0    0  0.28289634494E+01 -0.34030021815E+01 -0.15217829820E+02  0.15848211341E+02  0.51100000000E-03 0. -1.
        -11    1    3    3    0    0  0.82264528576E+01 -0.21090466827E+02 -0.87952401909E+01  0.24286592348E+02  0.51100000000E-03 0.  1.
        -12    1    3    3    0    0 -0.73944622703E+01  0.73500123434E+01  0.30599324027E+02  0.32326759575E+02  0.00000000000E+00 0.  1.
</event>
<event>
 7    1  0.1465498E-013  0.7246156E+02  0.7816164E-02  0.1226708E+00
        -11   -1    0    0    0    0  0.00000000000E+00  0.00000000000E+00  0.45593999997E+02  0.45594000000E+02  0.51100000000E-03 0.  1.
         11   -1    0    0    0    0 -0.00000000000E+00 -0.00000000000E+00 -0.45593999997E+02  0.45594000000E+02  0.51100000000E-03 0. -1.
    9900012    2    1    2    0    0 -0.77696467271E+01 -0.16549467246E+02 -0.40530738786E+01  0.72461556551E+02  0.69999982096E+02 0.  0.
         12    1    1    2    0    0  0.77696467271E+01  0.16549467246E+02  0.40530738786E+01  0.18726443449E+02  0.00000000000E+00 0. -1.
         11    1    3    3    0    0  0.18927983749E+02 -0.74308924383E+01  0.11028481784E+02  0.23132534274E+02  0.51100000000E-03 0. -1.
        -11    1    3    3    0    0 -0.21191750076E+02 -0.20288348931E+02  0.55056820674E+00  0.29342980408E+02  0.51100000000E-03 0.  1.
         12    1    3    3    0    0 -0.55058803997E+01  0.11169774122E+02 -0.15632123869E+02  0.19986041869E+02  0.00000000000E+00 0. -1.
</event>
<event>
 7    1  0.1465498E-013  0.7246152E+02  0.7816164E-02  0.1226708E+00
        -11   -1    0    0    0    0  0.00000000000E+00  0.00000000000E+00  0.45593999997E+02  0.45594000000E+02  0.51100000000E-03 0.  1.
         11   -1    0    0    0    0 -0.00000000000E+00 -0.00000000000E+00 -0.45593999997E+02  0.45594000000E+02  0.51100000000E-03 0. -1.
    9900012    2    1    2    0    0 -0.12030323755E+02  0.46534470432E-01  0.14350958547E+02  0.72461524989E+02  0.69999940981E+02 0.  0.
         12    1    1    2    0    0  0.12030323755E+02 -0.46534470432E-01 -0.14350958547E+02  0.18726475011E+02  0.00000000000E+00 0. -1.
         11    1    3    3    0    0  0.22721891770E+01  0.74584588514E+01 -0.17241257141E+01  0.79852402490E+01  0.51100000000E-03 0. -1.
        -11    1    3    3    0    0  0.70151506691E+01  0.79165353923E+01 -0.18350339363E+02  0.21180623847E+02  0.51100000000E-03 0.  1.
        -12    1    3    3    0    0 -0.21317663601E+02 -0.15328459773E+02  0.34425423625E+02  0.43295660893E+02  0.00000000000E+00 0.  1.
</event>
<event>
 7    1  0.1465498E-013  0.7246162E+02  0.7816164E-02  0.1226708E+00
        -11   -1    0    0    0    0  0.00000000000E+00  0.00000000000E+00  0.45593999997E+02  0.45594000000E+02  0.51100000000E-03 0.  1.
         11   -1    0    0    0    0 -0.00000000000E+00 -0.00000000000E+00 -0.45593999997E+02  0.45594000000E+02  0.51100000000E-03 0. -1.
    9900012    2    1    2    0    0  0.11879835492E+01 -0.46383990746E+01  0.18103901703E+02  0.72461620004E+02  0.70000064756E+02 0.  0.
         12    1    1    2    0    0 -0.11879835492E+01  0.46383990746E+01 -0.18103901703E+02  0.18726379996E+02  0.00000000000E+00 0. -1.
         11    1    3    3    0    0 -0.80497688778E+00 -0.11326836902E+02  0.66218802721E+01  0.13145132962E+02  0.51100000000E-03 0. -1.
        -11    1    3    3    0    0  0.20542502860E+02 -0.16926838011E+02  0.12195220241E+02  0.29278587155E+02  0.51100000000E-03 0.  1.
         12    1    3    3    0    0 -0.18549542423E+02  0.23615275839E+02 -0.71319881049E+00  0.30037899886E+02  0.00000000000E+00 0. -1.
</event>
<event>
 7    1  0.1465498E-013  0.7246158E+02  0.7816164E-02  0.1226708E+00
        -11   -1    0    0    0    0  0.00000000000E+00  0.00000000000E+00  0.45593999997E+02  0.45594000000E+02  0.51100000000E-03 0.  1.
         11   -1    0    0    0    0 -0.00000000000E+00 -0.00000000000E+00 -0.45593999997E+02  0.45594000000E+02  0.51100000000E-03 0. -1.
    9900012    2    1    2    0    0 -0.14223286601E+01 -0.15349479174E+02 -0.10632467779E+02  0.72461577469E+02  0.70000009347E+02 0.  0.
         12    1    1    2    0    0  0.14223286601E+01  0.15349479174E+02  0.10632467779E+02  0.18726422531E+02  0.00000000000E+00 0. -1.
         11    1    3    3    0    0  0.86623211590E+00 -0.10656730010E+02 -0.11688231925E+02  0.15840802328E+02  0.51100000000E-03 0. -1.
        -11    1    3    3    0    0 -0.17558353385E+02 -0.23680060903E+02 -0.81317940671E+01  0.30580502497E+02  0.51100000000E-03 0.  1.
         12    1    3    3    0    0  0.15269792609E+02  0.18987311740E+02  0.91875582134E+01  0.26040272644E+02  0.00000000000E+00 0. -1.
</event>
<event>
 7    1  0.1465498E-013  0.7246158E+02  0.7816164E-02  0.1226708E+00
        -11   -1    0    0    0    0  0.00000000000E+00  0.00000000000E+00  0.45593999997E+02  0.45594000000E+02  0.51100000000E-03 0.  1.
         11   -1    0    0    0    0 -0.00000000000E+00 -0.00000000000E+00 -0.45593999997E+02  0.45594000000E+02  0.51100000000E-03 0. -1.
    9900012    2    1    2    0    0 -0.18616951794E+02  0.73313595963E+00  0.18842426573E+01  0.72461581421E+02  0.70000014494E+02 0.  0.
         12    1    1    2    0    0  0.18616951794E+02 -0.73313595963E+00 -0.18842426573E+01  0.18726418579E+02  0.00000000000E+00 0. -1.
         11    1    3    3    0    0 -0.52360795632E+01 -0.20704686549E+02 -0.16836720823E+01  0.21422775876E+02  0.51100000000E-03 0. -1.
        -11    1    3    3    0    0  0.61269174014E+01  0.14896877178E+01 -0.15841635565E+02  0.17050387209E+02  0.51100000000E-03 0.  1.
        -12    1    3    3    0    0 -0.19507789632E+02  0.19948134791E+02  0.19409550304E+02  0.33988418336E+02  0.00000000000E+00 0.  1.
</event>
<event>
 7    1  0.1536172E-013  0.7246156E+02  0.7816164E-02  0.1226708E+00
        -11   -1    0    0    0    0  0.00000000000E+00  0.00000000000E+00  0.45593999997E+02  0.45594000000E+02  0.51100000000E-03 0.  1.
         11   -1    0    0    0    0 -0.00000000000E+00 -0.00000000000E+00 -0.45593999997E+02  0.45594000000E+02  0.51100000000E-03 0. -1.
    9900012    2    1    2    0    0 -0.17538768560E+02  0.43774728231E+01  0.48896753007E+01  0.72461558921E+02  0.69999985184E+02 0.  0.
         12    1    1    2    0    0  0.17538768560E+02 -0.43774728231E+01 -0.48896753007E+01  0.18726441079E+02  0.00000000000E+00 0. -1.
         11    1    3    3    0    0 -0.14825142342E+02 -0.11170501960E+01 -0.22054472464E+02  0.26597601444E+02  0.51100000000E-03 0. -1.
        -11    1    3    3    0    0 -0.17957447734E+02  0.13141909109E+01  0.47590878862E+01  0.18623800489E+02  0.51100000000E-03 0.  1.
        -12    1    3    3    0    0  0.15243821516E+02  0.41803321082E+01  0.22185059879E+02  0.27240156989E+02  0.00000000000E+00 0.  1.
</event>
<event>
 7    1  0.1465498E-013  0.7246156E+02  0.7816164E-02  0.1226708E+00
        -11   -1    0    0    0    0  0.00000000000E+00  0.00000000000E+00  0.45593999997E+02  0.45594000000E+02  0.51100000000E-03 0. -1.
         11   -1    0    0    0    0 -0.00000000000E+00 -0.00000000000E+00 -0.45593999997E+02  0.45594000000E+02  0.51100000000E-03 0.  1.
    9900012    2    1    2    0    0  0.17184316664E+02  0.67055125435E+01 -0.32272438834E+01  0.72461555042E+02  0.69999980131E+02 0.  0.
         12    1    1    2    0    0 -0.17184316664E+02 -0.67055125435E+01  0.32272438834E+01  0.18726444958E+02  0.00000000000E+00 0. -1.
         11    1    3    3    0    0  0.23423697870E+02  0.48831369888E+01  0.25122877798E+02  0.34694000027E+02  0.51100000000E-03 0. -1.
        -11    1    3    3    0    0 -0.34306470107E+01  0.12346040315E+02 -0.93341363255E+01  0.15853080192E+02  0.51100000000E-03 0.  1.
        -12    1    3    3    0    0 -0.28087341961E+01 -0.10523664760E+02 -0.19015985355E+02  0.21914474824E+02  0.00000000000E+00 0.  1.
</event>
<event>
 7    1  0.1465498E-013  0.7246148E+02  0.7816164E-02  0.1226708E+00
        -11   -1    0    0    0    0  0.00000000000E+00  0.00000000000E+00  0.45593999997E+02  0.45594000000E+02  0.51100000000E-03 0. -1.
         11   -1    0    0    0    0 -0.00000000000E+00 -0.00000000000E+00 -0.45593999997E+02  0.45594000000E+02  0.51100000000E-03 0.  1.
    9900012    2    1    2    0    0 -0.15012071788E+02 -0.10706932685E+02 -0.32683052386E+01  0.72461480675E+02  0.69999883254E+02 0.  0.
         12    1    1    2    0    0  0.15012071788E+02  0.10706932685E+02  0.32683052386E+01  0.18726519325E+02  0.00000000000E+00 0. -1.
         11    1    3    3    0    0  0.87096912384E+01 -0.13665147831E+02  0.16992476579E+02  0.23480614286E+02  0.51100000000E-03 0. -1.
        -11    1    3    3    0    0  0.20019792521E+01 -0.73487303905E+01  0.68275995317E+01  0.10228776804E+02  0.51100000000E-03 0.  1.
        -12    1    3    3    0    0 -0.25723742278E+02  0.10306945536E+02 -0.27088381349E+02  0.38752089585E+02  0.00000000000E+00 0.  1.
</event>
<event>
 7    1  0.1465498E-013  0.7246143E+02  0.7816164E-02  0.1226708E+00
        -11   -1    0    0    0    0  0.00000000000E+00  0.00000000000E+00  0.45593999997E+02  0.45594000000E+02  0.51100000000E-03 0. -1.
         11   -1    0    0    0    0 -0.00000000000E+00 -0.00000000000E+00 -0.45593999997E+02  0.45594000000E+02  0.51100000000E-03 0.  1.
    9900012    2    1    2    0    0 -0.16105895860E+02  0.77619322293E+01 -0.55710697835E+01  0.72461433525E+02  0.69999821833E+02 0.  0.
         12    1    1    2    0    0  0.16105895860E+02 -0.77619322293E+01  0.55710697835E+01  0.18726566475E+02  0.00000000000E+00 0. -1.
         11    1    3    3    0    0 -0.14327449512E+02 -0.68456835395E+01  0.16367436638E+02  0.22804213975E+02  0.51100000000E-03 0. -1.
        -11    1    3    3    0    0 -0.21127445480E+02  0.51697147674E+01 -0.51377924923E+01  0.22349313530E+02  0.51100000000E-03 0.  1.
        -12    1    3    3    0    0  0.19348999132E+02  0.94379010015E+01 -0.16800713929E+02  0.27307906021E+02  0.00000000000E+00 0.  1.
</event>
<event>
 7    1  0.1465498E-013  0.7246159E+02  0.7816164E-02  0.1226708E+00
        -11   -1    0    0    0    0  0.00000000000E+00  0.00000000000E+00  0.45593999997E+02  0.45594000000E+02  0.51100000000E-03 0. -1.
         11   -1    0    0    0    0 -0.00000000000E+00 -0.00000000000E+00 -0.45593999997E+02  0.45594000000E+02  0.51100000000E-03 0.  1.
    9900012    2    1    2    0    0  0.10286716214E+01 -0.18590363863E+02 -0.20046275847E+01  0.72461592827E+02  0.70000029353E+02 0.  0.
         12    1    1    2    0    0 -0.10286716214E+01  0.18590363863E+02  0.20046275847E+01  0.18726407173E+02  0.00000000000E+00 0. -1.
         11    1    3    3    0    0  0.72362948328E+01  0.19319459157E+02 -0.61261972209E+01  0.21520589157E+02  0.51100000000E-03 0. -1.
        -11    1    3    3    0    0  0.68250378126E+00 -0.36496824024E+01  0.14114106341E+02  0.14594313657E+02  0.51100000000E-03 0.  1.
        -12    1    3    3    0    0 -0.68901269926E+01 -0.34260140617E+02 -0.99925367049E+01  0.36346690013E+02  0.00000000000E+00 0.  1.
</event>
<event>
 7    1  0.1465498E-013  0.7246142E+02  0.7816164E-02  0.1226708E+00
        -11   -1    0    0    0    0  0.00000000000E+00  0.00000000000E+00  0.45593999997E+02  0.45594000000E+02  0.51100000000E-03 0.  1.
         11   -1    0    0    0    0 -0.00000000000E+00 -0.00000000000E+00 -0.45593999997E+02  0.45594000000E+02  0.51100000000E-03 0. -1.
    9900012    2    1    2    0    0 -0.16475017092E+02 -0.43854375764E+01  0.77476808331E+01  0.72461419714E+02  0.69999803840E+02 0.  0.
         12    1    1    2    0    0  0.16475017092E+02  0.43854375764E+01 -0.77476808331E+01  0.18726580286E+02  0.00000000000E+00 0. -1.
         11    1    3    3    0    0 -0.38896265276E+00 -0.26138861017E+02  0.30863935044E+01  0.26323319934E+02  0.51100000000E-03 0. -1.
        -11    1    3    3    0    0 -0.26434568695E+02  0.61657844360E+01  0.17232394433E+01  0.27198766043E+02  0.51100000000E-03 0.  1.
         12    1    3    3    0    0  0.10348514255E+02  0.15587639005E+02  0.29380478854E+01  0.18939333737E+02  0.00000000000E+00 0. -1.
</event>
<event>
 7    1  0.1465498E-013  0.7246164E+02  0.7816164E-02  0.1226708E+00
        -11   -1    0    0    0    0  0.00000000000E+00  0.00000000000E+00  0.45593999997E+02  0.45594000000E+02  0.51100000000E-03 0. -1.
         11   -1    0    0    0    0 -0.00000000000E+00 -0.00000000000E+00 -0.45593999997E+02  0.45594000000E+02  0.51100000000E-03 0.  1.
    9900012    2    1    2    0    0 -0.12521741375E+02 -0.60770023303E+01  0.12528076970E+02  0.72461636846E+02  0.70000086696E+02 0.  0.
         12    1    1    2    0    0  0.12521741375E+02  0.60770023303E+01 -0.12528076970E+02  0.18726363154E+02  0.00000000000E+00 0. -1.
         11    1    3    3    0    0  0.22866438411E+02  0.64506720497E+01  0.10910780965E+02  0.26144412730E+02  0.51100000000E-03 0. -1.
        -11    1    3    3    0    0  0.29524830537E+00 -0.59774648921E+01 -0.68157390715E+01  0.90703669964E+01  0.51100000000E-03 0.  1.
        -12    1    3    3    0    0 -0.35683428091E+02 -0.65502094879E+01  0.84330350767E+01  0.37246857120E+02  0.00000000000E+00 0.  1.
</event>
<event>
 7    1  0.1465498E-013  0.7246159E+02  0.7816164E-02  0.1226708E+00
        -11   -1    0    0    0    0  0.00000000000E+00  0.00000000000E+00  0.45593999997E+02  0.45594000000E+02  0.51100000000E-03 0.  1.
         11   -1    0    0    0    0 -0.00000000000E+00 -0.00000000000E+00 -0.45593999997E+02  0.45594000000E+02  0.51100000000E-03 0. -1.
    9900012    2    1    2    0    0  0.64740985927E+01  0.89562470020E+01  0.15117871663E+02  0.72461592001E+02  0.70000028276E+02 0.  0.
         12    1    1    2    0    0 -0.64740985927E+01 -0.89562470020E+01 -0.15117871663E+02  0.18726407999E+02  0.00000000000E+00 0. -1.
         11    1    3    3    0    0 -0.44432836589E+01 -0.61586815040E+01 -0.68791930736E+01  0.10246727534E+02  0.51100000000E-03 0. -1.
        -11    1    3    3    0    0 -0.18374238290E+02  0.19289296480E+02  0.24477704449E+01  0.26752218073E+02  0.51100000000E-03 0.  1.
        -12    1    3    3    0    0  0.29291620542E+02 -0.41743679738E+01  0.19549294292E+02  0.35462646394E+02  0.00000000000E+00 0.  1.
</event>
<event>
 7    1  0.1465498E-013  0.7246157E+02  0.7816164E-02  0.1226708E+00
        -11   -1    0    0    0    0  0.00000000000E+00  0.00000000000E+00  0.45593999997E+02  0.45594000000E+02  0.51100000000E-03 0. -1.
         11   -1    0    0    0    0 -0.00000000000E+00 -0.00000000000E+00 -0.45593999997E+02  0.45594000000E+02  0.51100000000E-03 0.  1.
    9900012    2    1    2    0    0  0.26105295402E+01 -0.11296761959E+02  0.14705350920E+02  0.72461573727E+02  0.70000004472E+02 0.  0.
         12    1    1    2    0    0 -0.26105295402E+01  0.11296761959E+02 -0.14705350920E+02  0.18726426273E+02  0.00000000000E+00 0. -1.
         11    1    3    3    0    0  0.16896976577E+02 -0.10746739932E+02  0.34675155429E+02  0.40042060897E+02  0.51100000000E-03 0. -1.
        -11    1    3    3    0    0 -0.92781891385E+01  0.25838645595E+00  0.23137158700E+01  0.95658161512E+01  0.51100000000E-03 0.  1.
        -12    1    3    3    0    0 -0.50082578984E+01 -0.80840848360E+00 -0.22283520378E+02  0.22853696679E+02  0.00000000000E+00 0.  1.
</event>
<event>
 7    1  0.1465498E-013  0.7246157E+02  0.7816164E-02  0.1226708E+00
        -11   -1    0    0    0    0  0.00000000000E+00  0.00000000000E+00  0.45593999997E+02  0.45594000000E+02  0.51100000000E-03 0. -1.
         11   -1    0    0    0    0 -0.00000000000E+00 -0.00000000000E+00 -0.45593999997E+02  0.45594000000E+02  0.51100000000E-03 0.  1.
    9900012    2    1    2    0    0 -0.46007477166E+01  0.16303351264E+02  0.79820416323E+01  0.72461571333E+02  0.70000001353E+02 0.  0.
         12    1    1    2    0    0  0.46007477166E+01 -0.16303351264E+02 -0.79820416323E+01  0.18726428667E+02  0.00000000000E+00 0. -1.
         11    1    3    3    0    0 -0.20328954611E+02  0.32106175915E+02  0.62108029347E+01  0.38505155510E+02  0.51100000000E-03 0. -1.
        -11    1    3    3    0    0 -0.23353417671E+01 -0.39328794335E+01 -0.87830685068E+01  0.99027094506E+01  0.51100000000E-03 0.  1.
        -12    1    3    3    0    0  0.18063548661E+02 -0.11869945217E+02  0.10554307204E+02  0.24053706373E+02  0.00000000000E+00 0.  1.
</event>
<event>
 7    1  0.1465498E-013  0.7246148E+02  0.7816164E-02  0.1226708E+00
        -11   -1    0    0    0    0  0.00000000000E+00  0.00000000000E+00  0.45593999997E+02  0.45594000000E+02  0.51100000000E-03 0. -1.
         11   -1    0    0    0    0 -0.00000000000E+00 -0.00000000000E+00 -0.45593999997E+02  0.45594000000E+02  0.51100000000E-03 0.  1.
    9900012    2    1    2    0    0  0.13808593772E+02  0.12635097643E+02 -0.59977925529E+00  0.72461476309E+02  0.69999877566E+02 0.  0.
         12    1    1    2    0    0 -0.13808593772E+02 -0.12635097643E+02  0.59977925529E+00  0.18726523691E+02  0.00000000000E+00 0. -1.
         11    1    3    3    0    0  0.13185580588E+02  0.14851357986E+02  0.21228368293E+02  0.29070018750E+02  0.51100000000E-03 0. -1.
        -11    1    3    3    0    0  0.70983751547E+00 -0.17749766712E+02 -0.15275101557E+01  0.17829508551E+02  0.51100000000E-03 0.  1.
        -12    1    3    3    0    0 -0.86824331797E-01  0.15533506369E+02 -0.20300637393E+02  0.25561949009E+02  0.00000000000E+00 0.  1.
</event>
<event>
 7    1  0.1465498E-013  0.7246162E+02  0.7816164E-02  0.1226708E+00
        -11   -1    0    0    0    0  0.00000000000E+00  0.00000000000E+00  0.45593999997E+02  0.45594000000E+02  0.51100000000E-03 0. -1.
         11   -1    0    0    0    0 -0.00000000000E+00 -0.00000000000E+00 -0.45593999997E+02  0.45594000000E+02  0.51100000000E-03 0.  1.
    9900012    2    1    2    0    0 -0.15640109622E+02  0.10287619985E+02  0.47870507935E+00  0.72461619877E+02  0.70000064591E+02 0.  0.
         12    1    1    2    0    0  0.15640109622E+02 -0.10287619985E+02 -0.47870507935E+00  0.18726380123E+02  0.00000000000E+00 0. -1.
         11    1    3    3    0    0 -0.32139871214E+02  0.27193273359E+01  0.11281093990E+02  0.34170588884E+02  0.51100000000E-03 0. -1.
        -11    1    3    3    0    0  0.31695090575E+00  0.12840615002E+02 -0.15978748328E+02  0.20501274348E+02  0.51100000000E-03 0.  1.
        -12    1    3    3    0    0  0.16182810686E+02 -0.52723223531E+01  0.51763594174E+01  0.17789756645E+02  0.00000000000E+00 0.  1.
</event>
<event>
 7    1  0.1465498E-013  0.7246160E+02  0.7816164E-02  0.1226708E+00
        -11   -1    0    0    0    0  0.00000000000E+00  0.00000000000E+00  0.45593999997E+02  0.45594000000E+02  0.51100000000E-03 0.  1.
         11   -1    0    0    0    0 -0.00000000000E+00 -0.00000000000E+00 -0.45593999997E+02  0.45594000000E+02  0.51100000000E-03 0. -1.
    9900012    2    1    2    0    0 -0.10562432112E+02 -0.16797952013E+01  0.15371771230E+02  0.72461600592E+02  0.70000039468E+02 0.  0.
         12    1    1    2    0    0  0.10562432112E+02  0.16797952013E+01 -0.15371771230E+02  0.18726399408E+02  0.00000000000E+00 0. -1.
         11    1    3    3    0    0 -0.27245270614E+01  0.53667182590E+01  0.32033974227E+01  0.68180985538E+01  0.51100000000E-03 0. -1.
        -11    1    3    3    0    0 -0.55458600351E+01  0.27570709185E+02  0.12905325663E+02  0.30942656629E+02  0.51100000000E-03 0.  1.
         12    1    3    3    0    0 -0.22920450159E+01 -0.34617222646E+02 -0.73695185542E+00  0.34700845409E+02  0.00000000000E+00 0. -1.
</event>
<event>
 7    1  0.1465498E-013  0.7246156E+02  0.7816164E-02  0.1226708E+00
        -11   -1    0    0    0    0  0.00000000000E+00  0.00000000000E+00  0.45593999997E+02  0.45594000000E+02  0.51100000000E-03 0. -1.
         11   -1    0    0    0    0 -0.00000000000E+00 -0.00000000000E+00 -0.45593999997E+02  0.45594000000E+02  0.51100000000E-03 0.  1.
    9900012    2    1    2    0    0 -0.13668569734E+01  0.69406193574E+01 -0.17338946083E+02  0.72461560234E+02  0.69999986895E+02 0.  0.
         12    1    1    2    0    0  0.13668569734E+01 -0.69406193574E+01  0.17338946083E+02  0.18726439766E+02  0.00000000000E+00 0. -1.
         11    1    3    3    0    0  0.15738607137E+02  0.67110319216E+01 -0.20076995115E+02  0.26378541226E+02  0.51100000000E-03 0. -1.
        -11    1    3    3    0    0  0.28050179290E+01 -0.84021603509E+01 -0.15422726574E+02  0.17785525558E+02  0.51100000000E-03 0.  1.
         12    1    3    3    0    0 -0.19910482040E+02  0.86317477867E+01  0.18160775607E+02  0.28297493450E+02  0.00000000000E+00 0. -1.
</event>
<event>
 7    1  0.1465498E-013  0.7246157E+02  0.7816164E-02  0.1226708E+00
        -11   -1    0    0    0    0  0.00000000000E+00  0.00000000000E+00  0.45593999997E+02  0.45594000000E+02  0.51100000000E-03 0. -1.
         11   -1    0    0    0    0 -0.00000000000E+00 -0.00000000000E+00 -0.45593999997E+02  0.45594000000E+02  0.51100000000E-03 0.  1.
    9900012    2    1    2    0    0  0.18309781509E+02  0.26193871555E+01 -0.29274275417E+01  0.72461571616E+02  0.70000001722E+02 0.  0.
         12    1    1    2    0    0 -0.18309781509E+02 -0.26193871555E+01  0.29274275417E+01  0.18726428384E+02  0.00000000000E+00 0. -1.
         11    1    3    3    0    0  0.76278307353E+01 -0.30516006417E+01  0.34130183120E+01  0.88963342148E+01  0.51100000000E-03 0. -1.
        -11    1    3    3    0    0 -0.77907054694E+01 -0.24673825525E+02  0.48374936455E+01  0.26322881734E+02  0.51100000000E-03 0.  1.
         12    1    3    3    0    0  0.18472656244E+02  0.30344813322E+02 -0.11177939499E+02  0.37242355668E+02  0.00000000000E+00 0. -1.
</event>
<event>
 7    1  0.1465498E-013  0.7246158E+02  0.7816164E-02  0.1226708E+00
        -11   -1    0    0    0    0  0.00000000000E+00  0.00000000000E+00  0.45593999997E+02  0.45594000000E+02  0.51100000000E-03 0.  1.
         11   -1    0    0    0    0 -0.00000000000E+00 -0.00000000000E+00 -0.45593999997E+02  0.45594000000E+02  0.51100000000E-03 0. -1.
    9900012    2    1    2    0    0 -0.19627547156E+01  0.15955045953E+02  0.96053652322E+01  0.72461576458E+02  0.70000008030E+02 0.  0.
         12    1    1    2    0    0  0.19627547156E+01 -0.15955045953E+02 -0.96053652322E+01  0.18726423542E+02  0.00000000000E+00 0. -1.
         11    1    3    3    0    0  0.65561995655E+01  0.51626373106E+01 -0.16294470174E+02  0.18307002356E+02  0.51100000000E-03 0. -1.
        -11    1    3    3    0    0 -0.10920004864E+02  0.27797543725E+02  0.12518612375E+02  0.32383106699E+02  0.51100000000E-03 0.  1.
         12    1    3    3    0    0  0.24010505834E+01 -0.17005135083E+02  0.13381223031E+02  0.21771467404E+02  0.00000000000E+00 0. -1.
</event>
<event>
 7    1  0.1465498E-013  0.7246164E+02  0.7816164E-02  0.1226708E+00
        -11   -1    0    0    0    0  0.00000000000E+00  0.00000000000E+00  0.45593999997E+02  0.45594000000E+02  0.51100000000E-03 0. -1.
         11   -1    0    0    0    0 -0.00000000000E+00 -0.00000000000E+00 -0.45593999997E+02  0.45594000000E+02  0.51100000000E-03 0.  1.
    9900012    2    1    2    0    0  0.17213060876E+02 -0.17954895017E+01 -0.71528661032E+01  0.72461635143E+02  0.70000084477E+02 0.  0.
         12    1    1    2    0    0 -0.17213060876E+02  0.17954895017E+01  0.71528661032E+01  0.18726364857E+02  0.00000000000E+00 0. -1.
         11    1    3    3    0    0  0.20138805888E+01 -0.27061873159E+02 -0.88461443284E+01  0.28542161160E+02  0.51100000000E-03 0. -1.
        -11    1    3    3    0    0  0.11039040538E+02  0.41131792608E+01 -0.13218687307E+02  0.17706280072E+02  0.51100000000E-03 0.  1.
        -12    1    3    3    0    0  0.41601397491E+01  0.21153204397E+02  0.14911965532E+02  0.26213193911E+02  0.00000000000E+00 0.  1.
</event>
<event>
 7    1  0.1465498E-013  0.7246161E+02  0.7816164E-02  0.1226708E+00
        -11   -1    0    0    0    0  0.00000000000E+00  0.00000000000E+00  0.45593999997E+02  0.45594000000E+02  0.51100000000E-03 0.  1.
         11   -1    0    0    0    0 -0.00000000000E+00 -0.00000000000E+00 -0.45593999997E+02  0.45594000000E+02  0.51100000000E-03 0. -1.
    9900012    2    1    2    0    0  0.51555731317E+01  0.13291477511E+01  0.17953582588E+02  0.72461609643E+02  0.70000051259E+02 0.  0.
         12    1    1    2    0    0 -0.51555731317E+01 -0.13291477511E+01 -0.17953582588E+02  0.18726390357E+02  0.00000000000E+00 0. -1.
         11    1    3    3    0    0  0.11221736448E+02  0.31676235143E+01 -0.24153046020E+02  0.26820343770E+02  0.51100000000E-03 0. -1.
        -11    1    3    3    0    0 -0.92730716611E+01 -0.22457787862E+01  0.11855752481E+02  0.15218155195E+02  0.51100000000E-03 0.  1.
        -12    1    3    3    0    0  0.32069083446E+01  0.40730302295E+00  0.30250876127E+02  0.30423110678E+02  0.00000000000E+00 0.  1.
</event>
<event>
 7    1  0.1465498E-013  0.7246156E+02  0.7816164E-02  0.1226708E+00
        -11   -1    0    0    0    0  0.00000000000E+00  0.00000000000E+00  0.45593999997E+02  0.45594000000E+02  0.51100000000E-03 0.  1.
         11   -1    0    0    0    0 -0.00000000000E+00 -0.00000000000E+00 -0.45593999997E+02  0.45594000000E+02  0.51100000000E-03 0. -1.
    9900012    2    1    2    0    0  0.39660990024E+01  0.50683465271E+01  0.17585830587E+02  0.72461561063E+02  0.69999987975E+02 0.  0.
         12    1    1    2    0    0 -0.39660990024E+01 -0.50683465271E+01 -0.17585830587E+02  0.18726438937E+02  0.00000000000E+00 0. -1.
         11    1    3    3    0    0  0.22780326890E+02 -0.13775511969E+02  0.93523091550E+01  0.28216550285E+02  0.51100000000E-03 0. -1.
        -11    1    3    3    0    0 -0.37877188848E+01  0.86197969172E+00  0.18323879539E+02  0.18731107414E+02  0.51100000000E-03 0.  1.
         12    1    3    3    0    0 -0.15026509003E+02  0.17981878804E+02 -0.10090358107E+02  0.25513903364E+02  0.00000000000E+00 0. -1.
</event>
<event>
 7    1  0.1465498E-013  0.7246197E+02  0.7816164E-02  0.1226707E+00
        -11   -1    0    0    0    0  0.00000000000E+00  0.00000000000E+00  0.45593999997E+02  0.45594000000E+02  0.51100000000E-03 0.  1.
         11   -1    0    0    0    0 -0.00000000000E+00 -0.00000000000E+00 -0.45593999997E+02  0.45594000000E+02  0.51100000000E-03 0. -1.
    9900012    2    1    2    0    0  0.10319877458E+02 -0.41210100376E+01  0.15072545094E+02  0.72461969719E+02  0.70000520323E+02 0.  0.
         12    1    1    2    0    0 -0.10319877458E+02  0.41210100376E+01 -0.15072545094E+02  0.18726030281E+02  0.00000000000E+00 0. -1.
         11    1    3    3    0    0  0.30193645493E+02 -0.15351506788E+02 -0.95469963653E+01  0.35191904306E+02  0.51100000000E-03 0. -1.
        -11    1    3    3    0    0 -0.76860441439E+01  0.67701067318E+00 -0.14844868873E+00  0.77172310649E+01  0.51100000000E-03 0.  1.
        -12    1    3    3    0    0 -0.12187723891E+02  0.10553486077E+02  0.24767990148E+02  0.29552834348E+02  0.00000000000E+00 0.  1.
</event>
<event>
 7    1  0.1465498E-013  0.7246145E+02  0.7816164E-02  0.1226708E+00
        -11   -1    0    0    0    0  0.00000000000E+00  0.00000000000E+00  0.45593999997E+02  0.45594000000E+02  0.51100000000E-03 0. -1.
         11   -1    0    0    0    0 -0.00000000000E+00 -0.00000000000E+00 -0.45593999997E+02  0.45594000000E+02  0.51100000000E-03 0.  1.
    9900012    2    1    2    0    0 -0.10975046452E+02 -0.13777824536E+02  0.63563717656E+01  0.72461453186E+02  0.69999847445E+02 0.  0.
         12    1    1    2    0    0  0.10975046452E+02  0.13777824536E+02 -0.63563717656E+01  0.18726546814E+02  0.00000000000E+00 0. -1.
         11    1    3    3    0    0  0.13691032635E+02 -0.14233616857E+02  0.17902472122E+02  0.26655932393E+02  0.51100000000E-03 0. -1.
        -11    1    3    3    0    0 -0.21419613217E+02  0.17055203253E+01  0.10198210058E+02  0.23784703458E+02  0.51100000000E-03 0.  1.
        -12    1    3    3    0    0 -0.32464658699E+01 -0.12497280042E+01 -0.21744310414E+02  0.22020817335E+02  0.00000000000E+00 0.  1.
</event>
<event>
 7    1  0.1465498E-013  0.7246157E+02  0.7816164E-02  0.1226708E+00
        -11   -1    0    0    0    0  0.00000000000E+00  0.00000000000E+00  0.45593999997E+02  0.45594000000E+02  0.51100000000E-03 0.  1.
         11   -1    0    0    0    0 -0.00000000000E+00 -0.00000000000E+00 -0.45593999997E+02  0.45594000000E+02  0.51100000000E-03 0. -1.
    9900012    2    1    2    0    0  0.92543042206E+01  0.56914005114E+01  0.15252702890E+02  0.72461571301E+02  0.70000001311E+02 0.  0.
         12    1    1    2    0    0 -0.92543042206E+01 -0.56914005114E+01 -0.15252702890E+02  0.18726428699E+02  0.00000000000E+00 0. -1.
         11    1    3    3    0    0 -0.21614721700E+02 -0.20090465998E+01 -0.12176738676E+02  0.24889865959E+02  0.51100000000E-03 0. -1.
        -11    1    3    3    0    0 -0.24715894649E+00  0.25387169836E+01  0.12350650340E+02  0.12611293969E+02  0.51100000000E-03 0.  1.
        -12    1    3    3    0    0  0.31116184867E+02  0.51617301276E+01  0.15078791225E+02  0.34960411373E+02  0.00000000000E+00 0.  1.
</event>
<event>
 7    1  0.1465498E-013  0.7246155E+02  0.7816164E-02  0.1226708E+00
        -11   -1    0    0    0    0  0.00000000000E+00  0.00000000000E+00  0.45593999997E+02  0.45594000000E+02  0.51100000000E-03 0.  1.
         11   -1    0    0    0    0 -0.00000000000E+00 -0.00000000000E+00 -0.45593999997E+02  0.45594000000E+02  0.51100000000E-03 0. -1.
    9900012    2    1    2    0    0 -0.17823387943E+01 -0.11837096924E+02  0.14400915796E+02  0.72461548896E+02  0.69999972125E+02 0.  0.
         12    1    1    2    0    0  0.17823387943E+01  0.11837096924E+02 -0.14400915796E+02  0.18726451104E+02  0.00000000000E+00 0. -1.
         11    1    3    3    0    0  0.15526229337E+02 -0.40803865491E+01  0.26337142132E+00  0.16055613242E+02  0.51100000000E-03 0. -1.
        -11    1    3    3    0    0  0.12389925735E+02  0.10488284287E+02 -0.45478980090E+01  0.16858165487E+02  0.51100000000E-03 0.  1.
         12    1    3    3    0    0 -0.29698493866E+02 -0.18244994663E+02  0.18685442384E+02  0.39547770168E+02  0.00000000000E+00 0. -1.
</event>
<event>
 7    1  0.1465498E-013  0.7246155E+02  0.7816164E-02  0.1226708E+00
        -11   -1    0    0    0    0  0.00000000000E+00  0.00000000000E+00  0.45593999997E+02  0.45594000000E+02  0.51100000000E-03 0.  1.
         11   -1    0    0    0    0 -0.00000000000E+00 -0.00000000000E+00 -0.45593999997E+02  0.45594000000E+02  0.51100000000E-03 0. -1.
    9900012    2    1    2    0    0 -0.30338836195E+01 -0.14930817236E+01  0.18418639346E+02  0.72461547634E+02  0.69999970481E+02 0.  0.
         12    1    1    2    0    0  0.30338836195E+01  0.14930817236E+01 -0.18418639346E+02  0.18726452366E+02  0.00000000000E+00 0. -1.
         11    1    3    3    0    0  0.35986629426E+01 -0.29751242780E+01  0.17900693791E+02  0.18499637237E+02  0.51100000000E-03 0. -1.
        -11    1    3    3    0    0  0.14724347767E+02  0.66875789681E+01  0.19207263181E+02  0.25108745265E+02  0.51100000000E-03 0.  1.
         12    1    3    3    0    0 -0.21356894329E+02 -0.52055364137E+01 -0.18689317627E+02  0.28853165131E+02  0.00000000000E+00 0. -1.
</event>
<event>
 7    1  0.1465498E-013  0.7246148E+02  0.7816164E-02  0.1226708E+00
        -11   -1    0    0    0    0  0.00000000000E+00  0.00000000000E+00  0.45593999997E+02  0.45594000000E+02  0.51100000000E-03 0. -1.
         11   -1    0    0    0    0 -0.00000000000E+00 -0.00000000000E+00 -0.45593999997E+02  0.45594000000E+02  0.51100000000E-03 0.  1.
    9900012    2    1    2    0    0  0.66000072821E+01  0.17437013137E+02  0.17530134178E+01  0.72461479253E+02  0.69999881401E+02 0.  0.
         12    1    1    2    0    0 -0.66000072821E+01 -0.17437013137E+02 -0.17530134178E+01  0.18726520747E+02  0.00000000000E+00 0. -1.
         11    1    3    3    0    0  0.10684144236E+02  0.68764325397E+01 -0.69625681512E+00  0.12724819698E+02  0.51100000000E-03 0. -1.
        -11    1    3    3    0    0 -0.30212139303E+02  0.11217539018E+02 -0.48737769852E+01  0.32593868216E+02  0.51100000000E-03 0.  1.
         12    1    3    3    0    0  0.26128002349E+02 -0.65695842083E+00  0.73230472181E+01  0.27142791339E+02  0.00000000000E+00 0. -1.
</event>
<event>
 7    1  0.1465498E-013  0.7246157E+02  0.7816164E-02  0.1226708E+00
        -11   -1    0    0    0    0  0.00000000000E+00  0.00000000000E+00  0.45593999997E+02  0.45594000000E+02  0.51100000000E-03 0. -1.
         11   -1    0    0    0    0 -0.00000000000E+00 -0.00000000000E+00 -0.45593999997E+02  0.45594000000E+02  0.51100000000E-03 0.  1.
    9900012    2    1    2    0    0  0.59332829501E+01 -0.16195686247E+01 -0.17687629891E+02  0.72461572144E+02  0.70000002409E+02 0.  0.
         12    1    1    2    0    0 -0.59332829501E+01  0.16195686247E+01  0.17687629891E+02  0.18726427856E+02  0.00000000000E+00 0. -1.
         11    1    3    3    0    0 -0.95269540107E+01  0.28231424322E+01  0.13001527594E+02  0.16363761974E+02  0.51100000000E-03 0. -1.
        -11    1    3    3    0    0 -0.43453539049E+01  0.11541156764E+02  0.40974549223E+01  0.12994981228E+02  0.51100000000E-03 0.  1.
        -12    1    3    3    0    0  0.19805590866E+02 -0.15983867821E+02 -0.34786612407E+02  0.43102828942E+02  0.00000000000E+00 0.  1.
</event>
<event>
 7    1  0.1465498E-013  0.7246158E+02  0.7816164E-02  0.1226708E+00
        -11   -1    0    0    0    0  0.00000000000E+00  0.00000000000E+00  0.45593999997E+02  0.45594000000E+02  0.51100000000E-03 0. -1.
         11   -1    0    0    0    0 -0.00000000000E+00 -0.00000000000E+00 -0.45593999997E+02  0.45594000000E+02  0.51100000000E-03 0.  1.
    9900012    2    1    2    0    0  0.18444451039E+02  0.21554501663E+01  0.24156060317E+01  0.72461577703E+02  0.70000009651E+02 0.  0.
         12    1    1    2    0    0 -0.18444451039E+02 -0.21554501663E+01 -0.24156060317E+01  0.18726422297E+02  0.00000000000E+00 0. -1.
         11    1    3    3    0    0 -0.10625671463E+00  0.30216484666E+02 -0.48956276226E+01  0.30610691043E+02  0.51100000000E-03 0. -1.
        -11    1    3    3    0    0  0.11808949851E+02 -0.21270157251E-01  0.52946720923E+01  0.12941611254E+02  0.51100000000E-03 0.  1.
        -12    1    3    3    0    0  0.67417579024E+01 -0.28039764342E+02  0.20165615620E+01  0.28909275406E+02  0.00000000000E+00 0.  1.
</event>
<event>
 7    1  0.1483826E-013  0.7246159E+02  0.7816164E-02  0.1226708E+00
        -11   -1    0    0    0    0  0.00000000000E+00  0.00000000000E+00  0.45593999997E+02  0.45594000000E+02  0.51100000000E-03 0.  1.
         11   -1    0    0    0    0 -0.00000000000E+00 -0.00000000000E+00 -0.45593999997E+02  0.45594000000E+02  0.51100000000E-03 0. -1.
    9900012    2    1    2    0    0  0.10970871528E+02 -0.13490012670E+02 -0.69525596710E+01  0.72461586839E+02  0.70000021552E+02 0.  0.
         12    1    1    2    0    0 -0.10970871528E+02  0.13490012670E+02  0.69525596710E+01  0.18726413161E+02  0.00000000000E+00 0. -1.
         11    1    3    3    0    0 -0.26426543990E+02 -0.55096646868E+01  0.65309730145E+01  0.27773588911E+02  0.51100000000E-03 0. -1.
        -11    1    3    3    0    0  0.58681453481E+01 -0.38768042388E+00  0.46813561190E+01  0.75166828662E+01  0.51100000000E-03 0.  1.
        -12    1    3    3    0    0  0.31529270170E+02 -0.75926675590E+01 -0.18164888804E+02  0.37171315061E+02  0.00000000000E+00 0.  1.
</event>
<event>
 7    1  0.1465498E-013  0.7246160E+02  0.7816164E-02  0.1226708E+00
        -11   -1    0    0    0    0  0.00000000000E+00  0.00000000000E+00  0.45593999997E+02  0.45594000000E+02  0.51100000000E-03 0.  1.
         11   -1    0    0    0    0 -0.00000000000E+00 -0.00000000000E+00 -0.45593999997E+02  0.45594000000E+02  0.51100000000E-03 0. -1.
    9900012    2    1    2    0    0 -0.14389724033E+02  0.62473417919E+01 -0.10226662680E+02  0.72461599738E+02  0.70000038355E+02 0.  0.
         12    1    1    2    0    0  0.14389724033E+02 -0.62473417919E+01  0.10226662680E+02  0.18726400262E+02  0.00000000000E+00 0. -1.
         11    1    3    3    0    0 -0.75283836608E+00  0.29295772299E+02 -0.42805041801E+01  0.29616410256E+02  0.51100000000E-03 0. -1.
        -11    1    3    3    0    0 -0.28272137049E+01  0.16714371590E+01 -0.14244192199E+02  0.14617929100E+02  0.51100000000E-03 0.  1.
        -12    1    3    3    0    0 -0.10809671962E+02 -0.24719867666E+02  0.82980336990E+01  0.28227260381E+02  0.00000000000E+00 0.  1.
</event>
<event>
 7    1  0.1465498E-013  0.7246146E+02  0.7816164E-02  0.1226708E+00
        -11   -1    0    0    0    0  0.00000000000E+00  0.00000000000E+00  0.45593999997E+02  0.45594000000E+02  0.51100000000E-03 0.  1.
         11   -1    0    0    0    0 -0.00000000000E+00 -0.00000000000E+00 -0.45593999997E+02  0.45594000000E+02  0.51100000000E-03 0. -1.
    9900012    2    1    2    0    0 -0.48581934229E-01 -0.87357247655E+01  0.16564057697E+02  0.72461461217E+02  0.69999857907E+02 0.  0.
         12    1    1    2    0    0  0.48581934229E-01  0.87357247655E+01 -0.16564057697E+02  0.18726538783E+02  0.00000000000E+00 0. -1.
         11    1    3    3    0    0 -0.39246886293E-01  0.15962514614E+02  0.92502626021E+01  0.18449140132E+02  0.51100000000E-03 0. -1.
        -11    1    3    3    0    0 -0.21372877266E+02 -0.73683591882E+00  0.20830391394E+01  0.21486783429E+02  0.51100000000E-03 0.  1.
         12    1    3    3    0    0  0.21363542218E+02 -0.23961403461E+02  0.52307559559E+01  0.32525537656E+02  0.00000000000E+00 0. -1.
</event>
<event>
 7    1  0.1465498E-013  0.7246156E+02  0.7816164E-02  0.1226708E+00
        -11   -1    0    0    0    0  0.00000000000E+00  0.00000000000E+00  0.45593999997E+02  0.45594000000E+02  0.51100000000E-03 0.  1.
         11   -1    0    0    0    0 -0.00000000000E+00 -0.00000000000E+00 -0.45593999997E+02  0.45594000000E+02  0.51100000000E-03 0. -1.
    9900012    2    1    2    0    0  0.13276190514E+02  0.97224261206E+01  0.89384936453E+01  0.72461562195E+02  0.69999989449E+02 0.  0.
         12    1    1    2    0    0 -0.13276190514E+02 -0.97224261206E+01 -0.89384936453E+01  0.18726437805E+02  0.00000000000E+00 0. -1.
         11    1    3    3    0    0 -0.28868430630E+01 -0.22110969953E+02  0.87724565520E+01  0.23962154523E+02  0.51100000000E-03 0. -1.
        -11    1    3    3    0    0 -0.64693956526E+01 -0.50107308732E+00  0.57103384634E+01  0.86436172969E+01  0.51100000000E-03 0.  1.
        -12    1    3    3    0    0  0.22632429229E+02  0.32334469161E+02 -0.55443013700E+01  0.39855790375E+02  0.00000000000E+00 0.  1.
</event>
<event>
 7    1  0.1465498E-013  0.7246153E+02  0.7816164E-02  0.1226708E+00
        -11   -1    0    0    0    0  0.00000000000E+00  0.00000000000E+00  0.45593999997E+02  0.45594000000E+02  0.51100000000E-03 0.  1.
         11   -1    0    0    0    0 -0.00000000000E+00 -0.00000000000E+00 -0.45593999997E+02  0.45594000000E+02  0.51100000000E-03 0. -1.
    9900012    2    1    2    0    0  0.68894941289E+01  0.10420866949E+02  0.13950663108E+02  0.72461532141E+02  0.69999950298E+02 0.  0.
         12    1    1    2    0    0 -0.68894941289E+01 -0.10420866949E+02 -0.13950663108E+02  0.18726467859E+02  0.00000000000E+00 0. -1.
         11    1    3    3    0    0  0.18340736775E+02  0.26672114169E+02  0.55934246845E+01  0.32849211553E+02  0.51100000000E-03 0. -1.
        -11    1    3    3    0    0  0.47251835345E+01 -0.25119853426E+01  0.16142040744E+02  0.17005966878E+02  0.51100000000E-03 0.  1.
        -12    1    3    3    0    0 -0.16176426181E+02 -0.13739261877E+02 -0.77848023207E+01  0.22606353710E+02  0.00000000000E+00 0.  1.
</event>
<event>
 7    1  0.1465498E-013  0.7246155E+02  0.7816164E-02  0.1226708E+00
        -11   -1    0    0    0    0  0.00000000000E+00  0.00000000000E+00  0.45593999997E+02  0.45594000000E+02  0.51100000000E-03 0. -1.
         11   -1    0    0    0    0 -0.00000000000E+00 -0.00000000000E+00 -0.45593999997E+02  0.45594000000E+02  0.51100000000E-03 0.  1.
    9900012    2    1    2    0    0 -0.69998656666E+01 -0.92309689044E+00 -0.17344446876E+02  0.72461546394E+02  0.69999968866E+02 0.  0.
         12    1    1    2    0    0  0.69998656666E+01  0.92309689044E+00  0.17344446876E+02  0.18726453606E+02  0.00000000000E+00 0. -1.
         11    1    3    3    0    0  0.65823270638E+01  0.68430175674E+00 -0.56221692593E+01  0.86835526088E+01  0.51100000000E-03 0. -1.
        -11    1    3    3    0    0  0.10063655643E+02  0.25076145591E+02 -0.42917391299E+01  0.27358897413E+02  0.51100000000E-03 0.  1.
         12    1    3    3    0    0 -0.23645848373E+02 -0.26683544239E+02 -0.74305384865E+01  0.36419096373E+02  0.00000000000E+00 0. -1.
</event>
<event>
 7    1  0.1465498E-013  0.7246156E+02  0.7816164E-02  0.1226708E+00
        -11   -1    0    0    0    0  0.00000000000E+00  0.00000000000E+00  0.45593999997E+02  0.45594000000E+02  0.51100000000E-03 0.  1.
         11   -1    0    0    0    0 -0.00000000000E+00 -0.00000000000E+00 -0.45593999997E+02  0.45594000000E+02  0.51100000000E-03 0. -1.
    9900012    2    1    2    0    0 -0.94601298299E+01  0.13025350994E+02  0.95669126270E+01  0.72461557676E+02  0.69999983562E+02 0.  0.
         12    1    1    2    0    0  0.94601298299E+01 -0.13025350994E+02 -0.95669126270E+01  0.18726442324E+02  0.00000000000E+00 0. -1.
         11    1    3    3    0    0  0.11155052044E+02 -0.60604718989E+01 -0.36269646524E+01  0.13203006422E+02  0.51100000000E-03 0. -1.
        -11    1    3    3    0    0  0.12402738492E+02  0.60629580289E+01 -0.98336970755E+01  0.16949601193E+02  0.51100000000E-03 0.  1.
         12    1    3    3    0    0 -0.33017920366E+02  0.13022864863E+02  0.23027574355E+02  0.42308950061E+02  0.00000000000E+00 0. -1.
</event>
<event>
 7    1  0.1465498E-013  0.7246142E+02  0.7816164E-02  0.1226708E+00
        -11   -1    0    0    0    0  0.00000000000E+00  0.00000000000E+00  0.45593999997E+02  0.45594000000E+02  0.51100000000E-03 0.  1.
         11   -1    0    0    0    0 -0.00000000000E+00 -0.00000000000E+00 -0.45593999997E+02  0.45594000000E+02  0.51100000000E-03 0. -1.
    9900012    2    1    2    0    0  0.67701520435E+00  0.17692616412E+02  0.60990009692E+01  0.72461418947E+02  0.69999802842E+02 0.  0.
         12    1    1    2    0    0 -0.67701520435E+00 -0.17692616412E+02 -0.60990009692E+01  0.18726581053E+02  0.00000000000E+00 0. -1.
         11    1    3    3    0    0  0.84754886428E+01 -0.91173281926E+01  0.12767661706E+02  0.17831790903E+02  0.51100000000E-03 0. -1.
        -11    1    3    3    0    0 -0.12723335306E+02  0.30159979230E+02  0.12130643442E+02  0.34909312784E+02  0.51100000000E-03 0.  1.
        -12    1    3    3    0    0  0.49248618675E+01 -0.33500346251E+01 -0.18799304178E+02  0.19720315261E+02  0.00000000000E+00 0.  1.
</event>
<event>
 7    1  0.1465498E-013  0.7246158E+02  0.7816164E-02  0.1226708E+00
        -11   -1    0    0    0    0  0.00000000000E+00  0.00000000000E+00  0.45593999997E+02  0.45594000000E+02  0.51100000000E-03 0.  1.
         11   -1    0    0    0    0 -0.00000000000E+00 -0.00000000000E+00 -0.45593999997E+02  0.45594000000E+02  0.51100000000E-03 0. -1.
    9900012    2    1    2    0    0 -0.30412658700E+01  0.10269158794E+02  0.15361437484E+02  0.72461583312E+02  0.70000016957E+02 0.  0.
         12    1    1    2    0    0  0.30412658700E+01 -0.10269158794E+02 -0.15361437484E+02  0.18726416688E+02  0.00000000000E+00 0. -1.
         11    1    3    3    0    0  0.77469571125E+00  0.22405068559E+02  0.10985041945E+01  0.22445355027E+02  0.51100000000E-03 0. -1.
        -11    1    3    3    0    0 -0.18386707295E+02  0.91055194620E+01  0.12869575451E+02  0.24219980644E+02  0.51100000000E-03 0.  1.
        -12    1    3    3    0    0  0.14570745714E+02 -0.21241429227E+02  0.13933578386E+01  0.25796247641E+02  0.00000000000E+00 0.  1.
</event>
<event>
 7    1  0.1465498E-013  0.7246156E+02  0.7816164E-02  0.1226708E+00
        -11   -1    0    0    0    0  0.00000000000E+00  0.00000000000E+00  0.45593999997E+02  0.45594000000E+02  0.51100000000E-03 0.  1.
         11   -1    0    0    0    0 -0.00000000000E+00 -0.00000000000E+00 -0.45593999997E+02  0.45594000000E+02  0.51100000000E-03 0. -1.
    9900012    2    1    2    0    0  0.15302975678E+02 -0.60392988414E+01  0.89456889024E+01  0.72461560268E+02  0.69999986939E+02 0.  0.
         12    1    1    2    0    0 -0.15302975678E+02  0.60392988414E+01 -0.89456889024E+01  0.18726439732E+02  0.00000000000E+00 0. -1.
         11    1    3    3    0    0 -0.43429200034E+01 -0.52847188321E+01 -0.21149209110E+01  0.71597554435E+01  0.51100000000E-03 0.  1.
        -11    1    3    3    0    0 -0.48784887941E+01  0.26908363153E+02  0.35299926583E+01  0.27573909932E+02  0.51100000000E-03 0. -1.
         12    1    3    3    0    0  0.24524384475E+02 -0.27662943162E+02  0.75306171551E+01  0.37727894893E+02  0.00000000000E+00 0. -1.
</event>
<event>
 7    1  0.1465498E-013  0.7246159E+02  0.7816164E-02  0.1226708E+00
        -11   -1    0    0    0    0  0.00000000000E+00  0.00000000000E+00  0.45593999997E+02  0.45594000000E+02  0.51100000000E-03 0. -1.
         11   -1    0    0    0    0 -0.00000000000E+00 -0.00000000000E+00 -0.45593999997E+02  0.45594000000E+02  0.51100000000E-03 0.  1.
    9900012    2    1    2    0    0  0.11956355404E+02  0.97352070437E+01 -0.10627778860E+02  0.72461591529E+02  0.70000027662E+02 0.  0.
         12    1    1    2    0    0 -0.11956355404E+02 -0.97352070437E+01  0.10627778860E+02  0.18726408471E+02  0.00000000000E+00 0. -1.
         11    1    3    3    0    0 -0.26322068719E+02  0.22723136388E+01 -0.23658158043E+01  0.26525681812E+02  0.51100000000E-03 0.  1.
        -11    1    3    3    0    0 -0.17474645065E+00  0.66958145720E+01 -0.18029501931E+01  0.69365047945E+01  0.51100000000E-03 0. -1.
         12    1    3    3    0    0  0.38453170574E+02  0.76707883298E+00 -0.64590128622E+01  0.38999404922E+02  0.00000000000E+00 0. -1.
</event>
<event>
 7    1  0.1465498E-013  0.7246160E+02  0.7816164E-02  0.1226708E+00
        -11   -1    0    0    0    0  0.00000000000E+00  0.00000000000E+00  0.45593999997E+02  0.45594000000E+02  0.51100000000E-03 0. -1.
         11   -1    0    0    0    0 -0.00000000000E+00 -0.00000000000E+00 -0.45593999997E+02  0.45594000000E+02  0.51100000000E-03 0.  1.
    9900012    2    1    2    0    0 -0.15792925412E+02  0.71207140212E+01 -0.71103380018E+01  0.72461602382E+02  0.70000041801E+02 0.  0.
         12    1    1    2    0    0  0.15792925412E+02 -0.71207140212E+01  0.71103380018E+01  0.18726397618E+02  0.00000000000E+00 0. -1.
         11    1    3    3    0    0  0.67270551376E+01  0.12044367617E+02 -0.13969379983E+02  0.19633227944E+02  0.51100000000E-03 0. -1.
        -11    1    3    3    0    0 -0.24456017211E+02 -0.48984086254E+01 -0.16165678251E+02  0.29722387832E+02  0.51100000000E-03 0.  1.
         12    1    3    3    0    0  0.19360366615E+01 -0.25244969968E-01  0.23024720233E+02  0.23105986606E+02  0.00000000000E+00 0. -1.
</event>
<event>
 7    1  0.1465498E-013  0.7246155E+02  0.7816164E-02  0.1226708E+00
        -11   -1    0    0    0    0  0.00000000000E+00  0.00000000000E+00  0.45593999997E+02  0.45594000000E+02  0.51100000000E-03 0.  1.
         11   -1    0    0    0    0 -0.00000000000E+00 -0.00000000000E+00 -0.45593999997E+02  0.45594000000E+02  0.51100000000E-03 0. -1.
    9900012    2    1    2    0    0  0.70568497525E+00  0.14998287309E+02  0.11190772515E+02  0.72461548040E+02  0.69999971010E+02 0.  0.
         12    1    1    2    0    0 -0.70568497525E+00 -0.14998287309E+02 -0.11190772515E+02  0.18726451960E+02  0.00000000000E+00 0. -1.
         11    1    3    3    0    0 -0.71132213914E+01 -0.18421380723E+02  0.22011190197E+02  0.29570892453E+02  0.51100000000E-03 0. -1.
        -11    1    3    3    0    0  0.61860570589E+01  0.89261870606E+00  0.36662216468E+01  0.72460507530E+01  0.51100000000E-03 0.  1.
        -12    1    3    3    0    0  0.16328493078E+01  0.32527049327E+02 -0.14486639329E+02  0.35644604834E+02  0.00000000000E+00 0.  1.
</event>
<event>
 7    1  0.1465498E-013  0.7246157E+02  0.7816164E-02  0.1226708E+00
        -11   -1    0    0    0    0  0.00000000000E+00  0.00000000000E+00  0.45593999997E+02  0.45594000000E+02  0.51100000000E-03 0.  1.
         11   -1    0    0    0    0 -0.00000000000E+00 -0.00000000000E+00 -0.45593999997E+02  0.45594000000E+02  0.51100000000E-03 0. -1.
    9900012    2    1    2    0    0  0.74966066211E+01  0.14434906559E+02  0.92797429193E+01  0.72461567696E+02  0.69999996615E+02 0.  0.
         12    1    1    2    0    0 -0.74966066211E+01 -0.14434906559E+02 -0.92797429193E+01  0.18726432304E+02  0.00000000000E+00 0. -1.
         11    1    3    3    0    0 -0.19231188676E+02 -0.18788783058E+02  0.92794858421E+01  0.28442324878E+02  0.51100000000E-03 0. -1.
        -11    1    3    3    0    0  0.43867508841E+01  0.82883899087E+01  0.42035286678E+01  0.10276703952E+02  0.51100000000E-03 0.  1.
        -12    1    3    3    0    0  0.22341044413E+02  0.24935299708E+02 -0.42032715905E+01  0.33742538866E+02  0.00000000000E+00 0.  1.
</event>
<event>
 7    1  0.1465498E-013  0.7246155E+02  0.7816164E-02  0.1226708E+00
        -11   -1    0    0    0    0  0.00000000000E+00  0.00000000000E+00  0.45593999997E+02  0.45594000000E+02  0.51100000000E-03 0.  1.
         11   -1    0    0    0    0 -0.00000000000E+00 -0.00000000000E+00 -0.45593999997E+02  0.45594000000E+02  0.51100000000E-03 0. -1.
    9900012    2    1    2    0    0 -0.18496255701E+02  0.65205743696E+00 -0.28536250238E+01  0.72461552669E+02  0.69999977040E+02 0.  0.
         12    1    1    2    0    0  0.18496255701E+02 -0.65205743696E+00  0.28536250238E+01  0.18726447331E+02  0.00000000000E+00 0. -1.
         11    1    3    3    0    0  0.56878587874E+01  0.80247605468E+01  0.11394759342E+02  0.15052875477E+02  0.51100000000E-03 0. -1.
        -11    1    3    3    0    0 -0.10851908461E+02  0.16901955144E+02  0.82627262939E+01  0.21718946821E+02  0.51100000000E-03 0.  1.
         12    1    3    3    0    0 -0.13332206027E+02 -0.24274658253E+02 -0.22511110659E+02  0.35689730371E+02  0.00000000000E+00 0. -1.
</event>
<event>
 7    1  0.1465498E-013  0.7246143E+02  0.7816164E-02  0.1226708E+00
        -11   -1    0    0    0    0  0.00000000000E+00  0.00000000000E+00  0.45593999997E+02  0.45594000000E+02  0.51100000000E-03 0. -1.
         11   -1    0    0    0    0 -0.00000000000E+00 -0.00000000000E+00 -0.45593999997E+02  0.45594000000E+02  0.51100000000E-03 0.  1.
    9900012    2    1    2    0    0 -0.11660982053E+02 -0.11020405331E+02  0.96569382982E+01  0.72461433486E+02  0.69999821782E+02 0.  0.
         12    1    1    2    0    0  0.11660982053E+02  0.11020405331E+02 -0.96569382982E+01  0.18726566514E+02  0.00000000000E+00 0. -1.
         11    1    3    3    0    0 -0.11866878012E+02 -0.12993514808E+02 -0.21496424092E+01  0.17727808200E+02  0.51100000000E-03 0. -1.
        -11    1    3    3    0    0 -0.21525443743E+01 -0.58803024957E+01 -0.20483176986E+02  0.21418962263E+02  0.51100000000E-03 0.  1.
         12    1    3    3    0    0  0.23584403334E+01  0.78534119730E+01  0.32289757694E+02  0.33314663023E+02  0.00000000000E+00 0. -1.
</event>
<event>
 7    1  0.1465498E-013  0.7246158E+02  0.7816164E-02  0.1226708E+00
        -11   -1    0    0    0    0  0.00000000000E+00  0.00000000000E+00  0.45593999997E+02  0.45594000000E+02  0.51100000000E-03 0.  1.
         11   -1    0    0    0    0 -0.00000000000E+00 -0.00000000000E+00 -0.45593999997E+02  0.45594000000E+02  0.51100000000E-03 0. -1.
    9900012    2    1    2    0    0  0.45539233927E+00 -0.13593716622E+02  0.12871756776E+02  0.72461584532E+02  0.70000018547E+02 0.  0.
         12    1    1    2    0    0 -0.45539233927E+00  0.13593716622E+02 -0.12871756776E+02  0.18726415468E+02  0.00000000000E+00 0. -1.
         11    1    3    3    0    0 -0.10012158850E+02 -0.12328246996E+02 -0.15783139754E+02  0.22390544871E+02  0.51100000000E-03 0. -1.
        -11    1    3    3    0    0 -0.15150028604E+02 -0.48164411717E+00  0.79071920016E+01  0.17096170137E+02  0.51100000000E-03 0.  1.
        -12    1    3    3    0    0  0.25617579793E+02 -0.78382550894E+00  0.20747704529E+02  0.32974869524E+02  0.00000000000E+00 0.  1.
</event>
<event>
 7    1  0.1465498E-013  0.7246167E+02  0.7816164E-02  0.1226708E+00
        -11   -1    0    0    0    0  0.00000000000E+00  0.00000000000E+00  0.45593999997E+02  0.45594000000E+02  0.51100000000E-03 0. -1.
         11   -1    0    0    0    0 -0.00000000000E+00 -0.00000000000E+00 -0.45593999997E+02  0.45594000000E+02  0.51100000000E-03 0.  1.
    9900012    2    1    2    0    0 -0.14043650420E+01 -0.16624460476E+02 -0.85047407857E+01  0.72461667120E+02  0.70000126134E+02 0.  0.
         12    1    1    2    0    0  0.14043650420E+01  0.16624460476E+02  0.85047407857E+01  0.18726332880E+02  0.00000000000E+00 0. -1.
         11    1    3    3    0    0  0.90259686062E+01 -0.12948241278E+02 -0.63674592734E+01  0.17019682704E+02  0.51100000000E-03 0. -1.
        -11    1    3    3    0    0  0.52823280204E+01 -0.73602807594E+01 -0.25491749252E+02  0.27053761335E+02  0.51100000000E-03 0.  1.
         12    1    3    3    0    0 -0.15712661669E+02  0.36840615617E+01  0.23354467740E+02  0.28388223082E+02  0.00000000000E+00 0. -1.
</event>
<event>
 7    1  0.1465498E-013  0.7246154E+02  0.7816164E-02  0.1226708E+00
        -11   -1    0    0    0    0  0.00000000000E+00  0.00000000000E+00  0.45593999997E+02  0.45594000000E+02  0.51100000000E-03 0. -1.
         11   -1    0    0    0    0 -0.00000000000E+00 -0.00000000000E+00 -0.45593999997E+02  0.45594000000E+02  0.51100000000E-03 0.  1.
    9900012    2    1    2    0    0  0.66378807398E+01  0.59781479832E+01  0.16458449928E+02  0.72461540429E+02  0.69999961095E+02 0.  0.
         12    1    1    2    0    0 -0.66378807398E+01 -0.59781479832E+01 -0.16458449928E+02  0.18726459571E+02  0.00000000000E+00 0. -1.
         11    1    3    3    0    0 -0.69899246462E+01  0.90311020462E+01  0.10900099671E+02  0.15787084082E+02  0.51100000000E-03 0. -1.
        -11    1    3    3    0    0  0.12188602510E+02  0.24913423925E+02 -0.15648789577E+01  0.27779301093E+02  0.51100000000E-03 0.  1.
        -12    1    3    3    0    0  0.14392028756E+01 -0.27966377988E+02  0.71232292148E+01  0.28895155254E+02  0.00000000000E+00 0.  1.
</event>
<event>
 7    1  0.1465498E-013  0.7246159E+02  0.7816164E-02  0.1226708E+00
        -11   -1    0    0    0    0  0.00000000000E+00  0.00000000000E+00  0.45593999997E+02  0.45594000000E+02  0.51100000000E-03 0.  1.
         11   -1    0    0    0    0 -0.00000000000E+00 -0.00000000000E+00 -0.45593999997E+02  0.45594000000E+02  0.51100000000E-03 0. -1.
    9900012    2    1    2    0    0  0.14347005833E+02 -0.11911668796E+02  0.17187166670E+01  0.72461590391E+02  0.70000026179E+02 0.  0.
         12    1    1    2    0    0 -0.14347005833E+02  0.11911668796E+02 -0.17187166670E+01  0.18726409609E+02  0.00000000000E+00 0. -1.
         11    1    3    3    0    0  0.18058743276E+01 -0.11913886604E+02 -0.10486836939E+02  0.15974217519E+02  0.51100000000E-03 0. -1.
        -11    1    3    3    0    0  0.26089878863E+01  0.20001546855E+02 -0.12067786451E+02  0.23505322045E+02  0.51100000000E-03 0.  1.
         12    1    3    3    0    0  0.99321436188E+01 -0.19999329047E+02  0.24273340057E+02  0.32982050826E+02  0.00000000000E+00 0. -1.
</event>
<event>
 7    1  0.1465498E-013  0.7246155E+02  0.7816164E-02  0.1226708E+00
        -11   -1    0    0    0    0  0.00000000000E+00  0.00000000000E+00  0.45593999997E+02  0.45594000000E+02  0.51100000000E-03 0.  1.
         11   -1    0    0    0    0 -0.00000000000E+00 -0.00000000000E+00 -0.45593999997E+02  0.45594000000E+02  0.51100000000E-03 0. -1.
    9900012    2    1    2    0    0  0.19112453750E+01  0.17970652061E+02 -0.49073988941E+01  0.72461554574E+02  0.69999979522E+02 0.  0.
         12    1    1    2    0    0 -0.19112453750E+01 -0.17970652061E+02  0.49073988941E+01  0.18726445426E+02  0.00000000000E+00 0. -1.
         11    1    3    3    0    0  0.16861446277E+02 -0.71365029502E+01 -0.94478024172E+01  0.20603373891E+02  0.51100000000E-03 0. -1.
        -11    1    3    3    0    0 -0.10994308707E+02 -0.28662759858E+01 -0.14026990705E+02  0.18051227949E+02  0.51100000000E-03 0.  1.
        -12    1    3    3    0    0 -0.39558921956E+01  0.27973430997E+02  0.18567394228E+02  0.33806952735E+02  0.00000000000E+00 0.  1.
</event>
<event>
 7    1  0.1465498E-013  0.7246159E+02  0.7816164E-02  0.1226708E+00
        -11   -1    0    0    0    0  0.00000000000E+00  0.00000000000E+00  0.45593999997E+02  0.45594000000E+02  0.51100000000E-03 0.  1.
         11   -1    0    0    0    0 -0.00000000000E+00 -0.00000000000E+00 -0.45593999997E+02  0.45594000000E+02  0.51100000000E-03 0. -1.
    9900012    2    1    2    0    0  0.10384959988E+02  0.10511212636E+02  0.11504144418E+02  0.72461592875E+02  0.70000029415E+02 0.  0.
         12    1    1    2    0    0 -0.10384959988E+02 -0.10511212636E+02 -0.11504144418E+02  0.18726407125E+02  0.00000000000E+00 0. -1.
         11    1    3    3    0    0 -0.27317670294E+01  0.29526323671E+01 -0.16843668531E+02  0.17317325395E+02  0.51100000000E-03 0. -1.
        -11    1    3    3    0    0  0.96391189806E+01  0.10146206374E+02 -0.95862656833E+01  0.16963331292E+02  0.51100000000E-03 0.  1.
        -12    1    3    3    0    0  0.34776080370E+01 -0.25876261049E+01  0.37934078632E+02  0.38180936188E+02  0.00000000000E+00 0.  1.
</event>
<event>
 7    1  0.1465498E-013  0.7246171E+02  0.7816164E-02  0.1226708E+00
        -11   -1    0    0    0    0  0.00000000000E+00  0.00000000000E+00  0.45593999997E+02  0.45594000000E+02  0.51100000000E-03 0. -1.
         11   -1    0    0    0    0 -0.00000000000E+00 -0.00000000000E+00 -0.45593999997E+02  0.45594000000E+02  0.51100000000E-03 0.  1.
    9900012    2    1    2    0    0  0.67169665392E+00  0.10346359145E+02 -0.15594083518E+02  0.72461714605E+02  0.70000187991E+02 0.  0.
         12    1    1    2    0    0 -0.67169665392E+00 -0.10346359145E+02  0.15594083518E+02  0.18726285395E+02  0.00000000000E+00 0. -1.
         11    1    3    3    0    0 -0.78300515792E+01  0.15004240966E+02  0.66740767416E+00  0.16937602781E+02  0.51100000000E-03 0. -1.
        -11    1    3    3    0    0 -0.59829565933E+01 -0.26341089396E+02 -0.80835339437E+01  0.28195607485E+02  0.51100000000E-03 0.  1.
         12    1    3    3    0    0  0.14484704826E+02  0.21683207575E+02 -0.81779572481E+01  0.27328504339E+02  0.00000000000E+00 0. -1.
</event>
<event>
 7    1  0.1465498E-013  0.7246155E+02  0.7816164E-02  0.1226708E+00
        -11   -1    0    0    0    0  0.00000000000E+00  0.00000000000E+00  0.45593999997E+02  0.45594000000E+02  0.51100000000E-03 0.  1.
         11   -1    0    0    0    0 -0.00000000000E+00 -0.00000000000E+00 -0.45593999997E+02  0.45594000000E+02  0.51100000000E-03 0. -1.
    9900012    2    1    2    0    0  0.17510671844E+02 -0.11481296973E+01 -0.65374303780E+01  0.72461552761E+02  0.69999977160E+02 0.  0.
         12    1    1    2    0    0 -0.17510671844E+02  0.11481296973E+01  0.65374303780E+01  0.18726447239E+02  0.00000000000E+00 0. -1.
         11    1    3    3    0    0 -0.58188630247E+01 -0.55348502165E+01 -0.30741473670E+01  0.85990764687E+01  0.51100000000E-03 0. -1.
        -11    1    3    3    0    0 -0.74221092680E+01  0.24808657351E+02 -0.68690120536E+01  0.26790679581E+02  0.51100000000E-03 0.  1.
         12    1    3    3    0    0  0.30751644137E+02 -0.20421936832E+02  0.34057290427E+01  0.37071796711E+02  0.00000000000E+00 0. -1.
</event>
<event>
 7    1  0.1465498E-013  0.7246158E+02  0.7816164E-02  0.1226708E+00
        -11   -1    0    0    0    0  0.00000000000E+00  0.00000000000E+00  0.45593999997E+02  0.45594000000E+02  0.51100000000E-03 0. -1.
         11   -1    0    0    0    0 -0.00000000000E+00 -0.00000000000E+00 -0.45593999997E+02  0.45594000000E+02  0.51100000000E-03 0.  1.
    9900012    2    1    2    0    0 -0.13695455620E+02  0.91234420969E+01 -0.89373344928E+01  0.72461584215E+02  0.70000018134E+02 0.  0.
         12    1    1    2    0    0  0.13695455620E+02 -0.91234420969E+01  0.89373344928E+01  0.18726415785E+02  0.00000000000E+00 0. -1.
         11    1    3    3    0    0 -0.77153002427E+01  0.25572528907E+02  0.27349037002E+01  0.26850694424E+02  0.51100000000E-03 0. -1.
        -11    1    3    3    0    0 -0.23187607790E+02 -0.99300373957E+01 -0.99993364843E+01  0.27134065823E+02  0.51100000000E-03 0.  1.
         12    1    3    3    0    0  0.17207452413E+02 -0.65190494143E+01 -0.16729017086E+01  0.18476823968E+02  0.00000000000E+00 0. -1.
</event>
<event>
 7    1  0.1465498E-013  0.7246158E+02  0.7816164E-02  0.1226708E+00
        -11   -1    0    0    0    0  0.00000000000E+00  0.00000000000E+00  0.45593999997E+02  0.45594000000E+02  0.51100000000E-03 0.  1.
         11   -1    0    0    0    0 -0.00000000000E+00 -0.00000000000E+00 -0.45593999997E+02  0.45594000000E+02  0.51100000000E-03 0. -1.
    9900012    2    1    2    0    0  0.12746709895E+02 -0.10064028889E+02  0.93228441362E+01  0.72461582473E+02  0.70000015864E+02 0.  0.
         12    1    1    2    0    0 -0.12746709895E+02  0.10064028889E+02 -0.93228441362E+01  0.18726417527E+02  0.00000000000E+00 0. -1.
         11    1    3    3    0    0 -0.14701931385E+02 -0.76164741589E+01 -0.17711572786E+02  0.24245768205E+02  0.51100000000E-03 0. -1.
        -11    1    3    3    0    0  0.29788407801E+01 -0.35611937082E+01 -0.56870578328E+01  0.73415407154E+01  0.51100000000E-03 0.  1.
        -12    1    3    3    0    0  0.24469800500E+02  0.11136389778E+01  0.32721474755E+02  0.40874273552E+02  0.00000000000E+00 0.  1.
</event>
<event>
 7    1  0.1465498E-013  0.7246138E+02  0.7816164E-02  0.1226709E+00
        -11   -1    0    0    0    0  0.00000000000E+00  0.00000000000E+00  0.45593999997E+02  0.45594000000E+02  0.51100000000E-03 0.  1.
         11   -1    0    0    0    0 -0.00000000000E+00 -0.00000000000E+00 -0.45593999997E+02  0.45594000000E+02  0.51100000000E-03 0. -1.
    9900012    2    1    2    0    0 -0.11964687394E+02 -0.38958814868E+01  0.13869197488E+02  0.72461380551E+02  0.69999752824E+02 0.  0.
         12    1    1    2    0    0  0.11964687394E+02  0.38958814868E+01 -0.13869197488E+02  0.18726619449E+02  0.00000000000E+00 0. -1.
         11    1    3    3    0    0  0.74617642692E+01  0.85543949767E+01  0.26985601746E+02  0.29275899667E+02  0.51100000000E-03 0. -1.
        -11    1    3    3    0    0 -0.11700413859E+01  0.10813362597E+02 -0.10308090937E+00  0.10876968026E+02  0.51100000000E-03 0.  1.
         12    1    3    3    0    0 -0.18256410277E+02 -0.23263639061E+02 -0.13013323349E+02  0.32308512859E+02  0.00000000000E+00 0. -1.
</event>
<event>
 7    1  0.1465498E-013  0.7246154E+02  0.7816164E-02  0.1226708E+00
        -11   -1    0    0    0    0  0.00000000000E+00  0.00000000000E+00  0.45593999997E+02  0.45594000000E+02  0.51100000000E-03 0.  1.
         11   -1    0    0    0    0 -0.00000000000E+00 -0.00000000000E+00 -0.45593999997E+02  0.45594000000E+02  0.51100000000E-03 0. -1.
    9900012    2    1    2    0    0  0.79211949250E+01  0.16865981828E+02 -0.18637541476E+01  0.72461541403E+02  0.69999962363E+02 0.  0.
         12    1    1    2    0    0 -0.79211949250E+01 -0.16865981828E+02  0.18637541476E+01  0.18726458597E+02  0.00000000000E+00 0. -1.
         11    1    3    3    0    0 -0.10779018240E+02 -0.14292834131E+02 -0.22537898471E+02  0.28782446204E+02  0.51100000000E-03 0.  1.
        -11    1    3    3    0    0  0.34446831683E+01  0.16401590017E+02  0.56949354345E+01  0.17700573072E+02  0.51100000000E-03 0. -1.
        -12    1    3    3    0    0  0.15255529996E+02  0.14757225942E+02  0.14979208889E+02  0.25978522127E+02  0.00000000000E+00 0.  1.
</event>
<event>
 7    1  0.1465498E-013  0.7246143E+02  0.7816164E-02  0.1226708E+00
        -11   -1    0    0    0    0  0.00000000000E+00  0.00000000000E+00  0.45593999997E+02  0.45594000000E+02  0.51100000000E-03 0.  1.
         11   -1    0    0    0    0 -0.00000000000E+00 -0.00000000000E+00 -0.45593999997E+02  0.45594000000E+02  0.51100000000E-03 0. -1.
    9900012    2    1    2    0    0 -0.61221958875E+01  0.10180400830E+02  0.14476273289E+02  0.72461432458E+02  0.69999820443E+02 0.  0.
         12    1    1    2    0    0  0.61221958875E+01 -0.10180400830E+02 -0.14476273289E+02  0.18726567542E+02  0.00000000000E+00 0. -1.
         11    1    3    3    0    0 -0.10731512111E+02 -0.75269690077E+01  0.25425263673E+02  0.28605325514E+02  0.51100000000E-03 0. -1.
        -11    1    3    3    0    0  0.34403706469E+00  0.27061756574E+02  0.22135575894E+01  0.27154315823E+02  0.51100000000E-03 0.  1.
         12    1    3    3    0    0  0.42652791583E+01 -0.93543867361E+01 -0.13162547973E+02  0.16701791121E+02  0.00000000000E+00 0. -1.
</event>
<event>
 7    1  0.1465498E-013  0.7246158E+02  0.7816164E-02  0.1226708E+00
        -11   -1    0    0    0    0  0.00000000000E+00  0.00000000000E+00  0.45593999997E+02  0.45594000000E+02  0.51100000000E-03 0. -1.
         11   -1    0    0    0    0 -0.00000000000E+00 -0.00000000000E+00 -0.45593999997E+02  0.45594000000E+02  0.51100000000E-03 0.  1.
    9900012    2    1    2    0    0  0.24846527960E+01  0.10507367113E+02 -0.15300344229E+02  0.72461580249E+02  0.70000012967E+02 0.  0.
         12    1    1    2    0    0 -0.24846527960E+01 -0.10507367113E+02  0.15300344229E+02  0.18726419751E+02  0.00000000000E+00 0. -1.
         11    1    3    3    0    0 -0.25408629612E+02 -0.10271198971E+02 -0.59969191431E+01  0.28054572292E+02  0.51100000000E-03 0. -1.
        -11    1    3    3    0    0 -0.15480680687E+01  0.12748065901E+02 -0.38520741761E+01  0.13407019605E+02  0.51100000000E-03 0.  1.
        -12    1    3    3    0    0  0.29441350476E+02  0.80305001834E+01 -0.54513509102E+01  0.30999988352E+02  0.00000000000E+00 0.  1.
</event>
<event>
 7    1  0.1465498E-013  0.7246149E+02  0.7816164E-02  0.1226708E+00
        -11   -1    0    0    0    0  0.00000000000E+00  0.00000000000E+00  0.45593999997E+02  0.45594000000E+02  0.51100000000E-03 0. -1.
         11   -1    0    0    0    0 -0.00000000000E+00 -0.00000000000E+00 -0.45593999997E+02  0.45594000000E+02  0.51100000000E-03 0.  1.
    9900012    2    1    2    0    0  0.28445242143E+01  0.51149282166E+01 -0.17788431119E+02  0.72461492308E+02  0.69999898409E+02 0.  0.
         12    1    1    2    0    0 -0.28445242143E+01 -0.51149282166E+01  0.17788431119E+02  0.18726507692E+02  0.00000000000E+00 0. -1.
         11    1    3    3    0    0  0.26318449605E+02  0.96392245114E+01 -0.11357544436E+02  0.30241846085E+02  0.51100000000E-03 0. -1.
        -11    1    3    3    0    0 -0.72730229533E+01 -0.17549246475E+02 -0.94444762898E+01  0.21214877972E+02  0.51100000000E-03 0.  1.
         12    1    3    3    0    0 -0.16200902437E+02  0.13024950180E+02  0.30135896075E+01  0.21004768251E+02  0.00000000000E+00 0. -1.
</event>
<event>
 7    1  0.1465498E-013  0.7246164E+02  0.7816164E-02  0.1226708E+00
        -11   -1    0    0    0    0  0.00000000000E+00  0.00000000000E+00  0.45593999997E+02  0.45594000000E+02  0.51100000000E-03 0. -1.
         11   -1    0    0    0    0 -0.00000000000E+00 -0.00000000000E+00 -0.45593999997E+02  0.45594000000E+02  0.51100000000E-03 0.  1.
    9900012    2    1    2    0    0 -0.79155968539E+01  0.10070652014E+02 -0.13660222913E+02  0.72461644359E+02  0.70000096483E+02 0.  0.
         12    1    1    2    0    0  0.79155968539E+01 -0.10070652014E+02  0.13660222913E+02  0.18726355641E+02  0.00000000000E+00 0. -1.
         11    1    3    3    0    0  0.80235169537E+01  0.14541229692E+02  0.59091321345E+01  0.17627876449E+02  0.51100000000E-03 0. -1.
        -11    1    3    3    0    0  0.13273234910E+01  0.20590163353E+02 -0.10023152463E+02  0.22938618095E+02  0.51100000000E-03 0.  1.
         12    1    3    3    0    0 -0.17266437299E+02 -0.25060741030E+02 -0.95462025843E+01  0.31895149815E+02  0.00000000000E+00 0. -1.
</event>
<event>
 7    1  0.1465498E-013  0.7246156E+02  0.7816164E-02  0.1226708E+00
        -11   -1    0    0    0    0  0.00000000000E+00  0.00000000000E+00  0.45593999997E+02  0.45594000000E+02  0.51100000000E-03 0.  1.
         11   -1    0    0    0    0 -0.00000000000E+00 -0.00000000000E+00 -0.45593999997E+02  0.45594000000E+02  0.51100000000E-03 0. -1.
    9900012    2    1    2    0    0  0.16806942350E+02  0.67681815686E+01  0.47326669778E+01  0.72461555340E+02  0.69999980519E+02 0.  0.
         12    1    1    2    0    0 -0.16806942350E+02 -0.67681815686E+01 -0.47326669778E+01  0.18726444660E+02  0.00000000000E+00 0. -1.
         11    1    3    3    0    0  0.13154000990E+02  0.16129932028E+02 -0.78953516354E+01  0.22260705896E+02  0.51100000000E-03 0. -1.
        -11    1    3    3    0    0 -0.66577274971E+01  0.18082491479E+02  0.49300720459E+01  0.19889882959E+02  0.51100000000E-03 0.  1.
        -12    1    3    3    0    0  0.10310668857E+02 -0.27444241938E+02  0.76979465673E+01  0.30310966484E+02  0.00000000000E+00 0.  1.
</event>
<event>
 7    1  0.1465498E-013  0.7246158E+02  0.7816164E-02  0.1226708E+00
        -11   -1    0    0    0    0  0.00000000000E+00  0.00000000000E+00  0.45593999997E+02  0.45594000000E+02  0.51100000000E-03 0.  1.
         11   -1    0    0    0    0 -0.00000000000E+00 -0.00000000000E+00 -0.45593999997E+02  0.45594000000E+02  0.51100000000E-03 0. -1.
    9900012    2    1    2    0    0  0.15879447839E+02  0.71031501245E+01 -0.69330432074E+01  0.72461583005E+02  0.70000016558E+02 0.  0.
         12    1    1    2    0    0 -0.15879447839E+02 -0.71031501245E+01  0.69330432074E+01  0.18726416995E+02  0.00000000000E+00 0. -1.
         11    1    3    3    0    0 -0.44650666683E+00  0.38185112697E+01  0.16261387017E+01  0.41742932166E+01  0.51100000000E-03 0. -1.
        -11    1    3    3    0    0  0.28423001156E+02  0.15280497250E+02  0.17836330997E+02  0.36871334321E+02  0.51100000000E-03 0.  1.
        -12    1    3    3    0    0 -0.12097046650E+02 -0.11995858395E+02 -0.26395512907E+02  0.31415955467E+02  0.00000000000E+00 0.  1.
</event>
<event>
 7    1  0.1465498E-013  0.7246161E+02  0.7816164E-02  0.1226708E+00
        -11   -1    0    0    0    0  0.00000000000E+00  0.00000000000E+00  0.45593999997E+02  0.45594000000E+02  0.51100000000E-03 0.  1.
         11   -1    0    0    0    0 -0.00000000000E+00 -0.00000000000E+00 -0.45593999997E+02  0.45594000000E+02  0.51100000000E-03 0. -1.
    9900012    2    1    2    0    0 -0.45322007973E+00 -0.10452428466E+02  0.15531231285E+02  0.72461606473E+02  0.70000047130E+02 0.  0.
         12    1    1    2    0    0  0.45322007973E+00  0.10452428466E+02 -0.15531231285E+02  0.18726393527E+02  0.00000000000E+00 0. -1.
         11    1    3    3    0    0  0.19362526961E+01 -0.53943477766E+01  0.69632362691E+01  0.90185764973E+01  0.51100000000E-03 0. -1.
        -11    1    3    3    0    0  0.12668797087E+02  0.25140496566E+02  0.94235427660E+01  0.29687474560E+02  0.51100000000E-03 0.  1.
         12    1    3    3    0    0 -0.15058269863E+02 -0.30198577255E+02 -0.85554775014E+00  0.33755555416E+02  0.00000000000E+00 0. -1.
</event>
<event>
 7    1  0.1465498E-013  0.7246161E+02  0.7816164E-02  0.1226708E+00
        -11   -1    0    0    0    0  0.00000000000E+00  0.00000000000E+00  0.45593999997E+02  0.45594000000E+02  0.51100000000E-03 0. -1.
         11   -1    0    0    0    0 -0.00000000000E+00 -0.00000000000E+00 -0.45593999997E+02  0.45594000000E+02  0.51100000000E-03 0.  1.
    9900012    2    1    2    0    0 -0.16594230255E+02  0.68263852339E+01  0.53581448777E+01  0.72461608739E+02  0.70000050082E+02 0.  0.
         12    1    1    2    0    0  0.16594230255E+02 -0.68263852339E+01 -0.53581448777E+01  0.18726391261E+02  0.00000000000E+00 0. -1.
         11    1    3    3    0    0  0.16750327085E+01  0.13244670512E+02 -0.13768628138E+02  0.19178168647E+02  0.51100000000E-03 0. -1.
        -11    1    3    3    0    0  0.49380806394E+01  0.15067233048E+02 -0.84648061874E+00  0.15878371511E+02  0.51100000000E-03 0.  1.
        -12    1    3    3    0    0 -0.23207343603E+02 -0.21485518327E+02  0.19973253635E+02  0.37405068582E+02  0.00000000000E+00 0.  1.
</event>
<event>
 7    1  0.1465498E-013  0.7246160E+02  0.7816164E-02  0.1226708E+00
        -11   -1    0    0    0    0  0.00000000000E+00  0.00000000000E+00  0.45593999997E+02  0.45594000000E+02  0.51100000000E-03 0.  1.
         11   -1    0    0    0    0 -0.00000000000E+00 -0.00000000000E+00 -0.45593999997E+02  0.45594000000E+02  0.51100000000E-03 0. -1.
    9900012    2    1    2    0    0  0.16378805063E+02  0.88599229157E+01  0.19785290361E+01  0.72461599745E+02  0.70000038365E+02 0.  0.
         12    1    1    2    0    0 -0.16378805063E+02 -0.88599229157E+01 -0.19785290361E+01  0.18726400255E+02  0.00000000000E+00 0. -1.
         11    1    3    3    0    0 -0.13748746513E+02 -0.14494505440E+02 -0.10923762289E+02  0.22769437881E+02  0.51100000000E-03 0. -1.
        -11    1    3    3    0    0  0.51118866637E+01 -0.45889096712E+01 -0.46377706178E+01  0.82884494206E+01  0.51100000000E-03 0.  1.
        -12    1    3    3    0    0  0.25015664913E+02  0.27943338027E+02  0.17540061943E+02  0.41403712443E+02  0.00000000000E+00 0.  1.
</event>
<event>
 7    1  0.1465498E-013  0.7246155E+02  0.7816164E-02  0.1226708E+00
        -11   -1    0    0    0    0  0.00000000000E+00  0.00000000000E+00  0.45593999997E+02  0.45594000000E+02  0.51100000000E-03 0. -1.
         11   -1    0    0    0    0 -0.00000000000E+00 -0.00000000000E+00 -0.45593999997E+02  0.45594000000E+02  0.51100000000E-03 0.  1.
    9900012    2    1    2    0    0  0.21901200675E+01  0.17437828322E+02 -0.64657085164E+01  0.72461551615E+02  0.69999975667E+02 0.  0.
         12    1    1    2    0    0 -0.21901200675E+01 -0.17437828322E+02  0.64657085164E+01  0.18726448385E+02  0.00000000000E+00 0. -1.
         11    1    3    3    0    0 -0.47848545778E+01  0.82647924668E+01  0.53870753669E+01  0.10964588871E+02  0.51100000000E-03 0. -1.
        -11    1    3    3    0    0  0.61797914842E+01  0.33110128392E+02  0.21555230692E+01  0.33750803026E+02  0.51100000000E-03 0.  1.
         12    1    3    3    0    0  0.79518316111E+00 -0.23937092538E+02 -0.14008306952E+02  0.27746159718E+02  0.00000000000E+00 0. -1.
</event>
<event>
 7    1  0.1465498E-013  0.7246154E+02  0.7816164E-02  0.1226708E+00
        -11   -1    0    0    0    0  0.00000000000E+00  0.00000000000E+00  0.45593999997E+02  0.45594000000E+02  0.51100000000E-03 0.  1.
         11   -1    0    0    0    0 -0.00000000000E+00 -0.00000000000E+00 -0.45593999997E+02  0.45594000000E+02  0.51100000000E-03 0. -1.
    9900012    2    1    2    0    0  0.14320848160E+01 -0.30788301428E+01  0.18416036968E+02  0.72461535315E+02  0.69999954434E+02 0.  0.
         12    1    1    2    0    0 -0.14320848160E+01  0.30788301428E+01 -0.18416036968E+02  0.18726464685E+02  0.00000000000E+00 0. -1.
         11    1    3    3    0    0 -0.17877682329E+02  0.83694820403E+01 -0.41840549811E+01  0.20178356510E+02  0.51100000000E-03 0. -1.
        -11    1    3    3    0    0  0.13210250400E+02  0.14923391380E+02  0.11640523747E+02  0.23080730475E+02  0.51100000000E-03 0.  1.
         12    1    3    3    0    0  0.60995167451E+01 -0.26371703563E+02  0.10959568202E+02  0.29202448331E+02  0.00000000000E+00 0. -1.
</event>
<event>
 7    1  0.1465498E-013  0.7246158E+02  0.7816164E-02  0.1226708E+00
        -11   -1    0    0    0    0  0.00000000000E+00  0.00000000000E+00  0.45593999997E+02  0.45594000000E+02  0.51100000000E-03 0.  1.
         11   -1    0    0    0    0 -0.00000000000E+00 -0.00000000000E+00 -0.45593999997E+02  0.45594000000E+02  0.51100000000E-03 0. -1.
    9900012    2    1    2    0    0  0.79462133501E+01 -0.14056512310E+02  0.94842567557E+01  0.72461575591E+02  0.70000006900E+02 0.  0.
         12    1    1    2    0    0 -0.79462133501E+01  0.14056512310E+02 -0.94842567557E+01  0.18726424409E+02  0.00000000000E+00 0. -1.
         11    1    3    3    0    0  0.82909677138E+01 -0.12536817302E+02  0.72826316598E+01  0.16701756131E+02  0.51100000000E-03 0. -1.
        -11    1    3    3    0    0 -0.20169593701E+02 -0.14407335741E+02  0.14899739598E+02  0.28920340136E+02  0.51100000000E-03 0.  1.
         12    1    3    3    0    0  0.19824839338E+02  0.12887640734E+02 -0.12698114503E+02  0.26839479324E+02  0.00000000000E+00 0. -1.
</event>
<event>
 7    1  0.1465498E-013  0.7246155E+02  0.7816164E-02  0.1226708E+00
        -11   -1    0    0    0    0  0.00000000000E+00  0.00000000000E+00  0.45593999997E+02  0.45594000000E+02  0.51100000000E-03 0. -1.
         11   -1    0    0    0    0 -0.00000000000E+00 -0.00000000000E+00 -0.45593999997E+02  0.45594000000E+02  0.51100000000E-03 0.  1.
    9900012    2    1    2    0    0  0.15622493061E+02 -0.89840341009E+01  0.50896893662E+01  0.72461545557E+02  0.69999967775E+02 0.  0.
         12    1    1    2    0    0 -0.15622493061E+02  0.89840341009E+01 -0.50896893662E+01  0.18726454443E+02  0.00000000000E+00 0. -1.
         11    1    3    3    0    0 -0.13437219189E+02  0.12504014127E+02  0.67038930760E+01  0.19541018690E+02  0.51100000000E-03 0. -1.
        -11    1    3    3    0    0  0.48151507210E+01  0.64656803095E+01 -0.12028420512E+02  0.14480110449E+02  0.51100000000E-03 0.  1.
         12    1    3    3    0    0  0.24244561528E+02 -0.27953728537E+02  0.10414216802E+02  0.38440416418E+02  0.00000000000E+00 0. -1.
</event>
<event>
 7    1  0.1465498E-013  0.7246153E+02  0.7816164E-02  0.1226708E+00
        -11   -1    0    0    0    0  0.00000000000E+00  0.00000000000E+00  0.45593999997E+02  0.45594000000E+02  0.51100000000E-03 0.  1.
         11   -1    0    0    0    0 -0.00000000000E+00 -0.00000000000E+00 -0.45593999997E+02  0.45594000000E+02  0.51100000000E-03 0. -1.
    9900012    2    1    2    0    0  0.12019738386E+01 -0.17999015503E+02 -0.50270553109E+01  0.72461532493E+02  0.69999950757E+02 0.  0.
         12    1    1    2    0    0 -0.12019738386E+01  0.17999015503E+02  0.50270553109E+01  0.18726467507E+02  0.00000000000E+00 0. -1.
         11    1    3    3    0    0 -0.61793626707E+01 -0.77232039023E+01  0.11649444701E+02  0.15282079820E+02  0.51100000000E-03 0. -1.
        -11    1    3    3    0    0 -0.17578231968E+02  0.11963412404E+02 -0.66048813264E+01  0.22265262924E+02  0.51100000000E-03 0.  1.
         12    1    3    3    0    0  0.24959568477E+02 -0.22239224005E+02 -0.10071618685E+02  0.34914189749E+02  0.00000000000E+00 0. -1.
</event>
<event>
 7    1  0.1465498E-013  0.7246158E+02  0.7816164E-02  0.1226708E+00
        -11   -1    0    0    0    0  0.00000000000E+00  0.00000000000E+00  0.45593999997E+02  0.45594000000E+02  0.51100000000E-03 0.  1.
         11   -1    0    0    0    0 -0.00000000000E+00 -0.00000000000E+00 -0.45593999997E+02  0.45594000000E+02  0.51100000000E-03 0. -1.
    9900012    2    1    2    0    0 -0.61796199824E+01 -0.80472587270E+01  0.15739525094E+02  0.72461582128E+02  0.70000015415E+02 0.  0.
         12    1    1    2    0    0  0.61796199824E+01  0.80472587270E+01 -0.15739525094E+02  0.18726417872E+02  0.00000000000E+00 0. -1.
         11    1    3    3    0    0  0.59344908696E+01  0.15288659854E+01 -0.77603232051E+01  0.98882874954E+01  0.51100000000E-03 0. -1.
        -11    1    3    3    0    0 -0.92382883967E+01 -0.31013159386E+00 -0.17849534147E+02  0.20100945840E+02  0.51100000000E-03 0.  1.
        -12    1    3    3    0    0 -0.28758224552E+01 -0.92659931185E+01  0.41349382446E+02  0.42472348793E+02  0.00000000000E+00 0.  1.
</event>
<event>
 7    1  0.1465498E-013  0.7246151E+02  0.7816164E-02  0.1226708E+00
        -11   -1    0    0    0    0  0.00000000000E+00  0.00000000000E+00  0.45593999997E+02  0.45594000000E+02  0.51100000000E-03 0.  1.
         11   -1    0    0    0    0 -0.00000000000E+00 -0.00000000000E+00 -0.45593999997E+02  0.45594000000E+02  0.51100000000E-03 0. -1.
    9900012    2    1    2    0    0  0.61163349620E+01  0.14657017659E+02 -0.99218840109E+01  0.72461508008E+02  0.69999918860E+02 0.  0.
         12    1    1    2    0    0 -0.61163349620E+01 -0.14657017659E+02  0.99218840109E+01  0.18726491992E+02  0.00000000000E+00 0. -1.
         11    1    3    3    0    0 -0.20365764083E+02 -0.93566415277E+00 -0.20275772320E+02  0.28753204300E+02  0.51100000000E-03 0. -1.
        -11    1    3    3    0    0  0.13354250313E+02 -0.74374262525E+01  0.10200024472E+00  0.15285997350E+02  0.51100000000E-03 0.  1.
        -12    1    3    3    0    0  0.13127848732E+02  0.23030108064E+02  0.10251888065E+02  0.28422306357E+02  0.00000000000E+00 0.  1.
</event>
<event>
 7    1  0.1465498E-013  0.7246152E+02  0.7816164E-02  0.1226708E+00
        -11   -1    0    0    0    0  0.00000000000E+00  0.00000000000E+00  0.45593999997E+02  0.45594000000E+02  0.51100000000E-03 0.  1.
         11   -1    0    0    0    0 -0.00000000000E+00 -0.00000000000E+00 -0.45593999997E+02  0.45594000000E+02  0.51100000000E-03 0. -1.
    9900012    2    1    2    0    0  0.16230475894E+02 -0.84705823706E+01 -0.39372409988E+01  0.72461521951E+02  0.69999937024E+02 0.  0.
         12    1    1    2    0    0 -0.16230475894E+02  0.84705823706E+01  0.39372409988E+01  0.18726478049E+02  0.00000000000E+00 0. -1.
         11    1    3    3    0    0 -0.29067782662E+00 -0.13440566849E+02 -0.17747157069E+02  0.22264207040E+02  0.51100000000E-03 0. -1.
        -11    1    3    3    0    0 -0.56089404518E+01 -0.13766214490E+02 -0.49430146988E+01  0.15665320582E+02  0.51100000000E-03 0.  1.
        -12    1    3    3    0    0  0.22130094172E+02  0.18736198968E+02  0.18752930769E+02  0.34531994328E+02  0.00000000000E+00 0.  1.
</event>
<event>
 7    1  0.1465498E-013  0.7246163E+02  0.7816164E-02  0.1226708E+00
        -11   -1    0    0    0    0  0.00000000000E+00  0.00000000000E+00  0.45593999997E+02  0.45594000000E+02  0.51100000000E-03 0.  1.
         11   -1    0    0    0    0 -0.00000000000E+00 -0.00000000000E+00 -0.45593999997E+02  0.45594000000E+02  0.51100000000E-03 0. -1.
    9900012    2    1    2    0    0  0.71977817242E+01  0.59505132750E+01  0.16231462484E+02  0.72461627037E+02  0.70000073918E+02 0.  0.
         12    1    1    2    0    0 -0.71977817242E+01 -0.59505132750E+01 -0.16231462484E+02  0.18726372963E+02  0.00000000000E+00 0. -1.
         11    1    3    3    0    0  0.50939548034E+01  0.25434159007E+02 -0.51540969529E+01  0.26446352028E+02  0.51100000000E-03 0. -1.
        -11    1    3    3    0    0 -0.11624181643E+02 -0.10976907163E+00 -0.29725806854E+01  0.11998745114E+02  0.51100000000E-03 0.  1.
         12    1    3    3    0    0  0.13728008563E+02 -0.19373876660E+02  0.24358140122E+02  0.34016529896E+02  0.00000000000E+00 0. -1.
</event>
<event>
 7    1  0.1465498E-013  0.7246157E+02  0.7816164E-02  0.1226708E+00
        -11   -1    0    0    0    0  0.00000000000E+00  0.00000000000E+00  0.45593999997E+02  0.45594000000E+02  0.51100000000E-03 0.  1.
         11   -1    0    0    0    0 -0.00000000000E+00 -0.00000000000E+00 -0.45593999997E+02  0.45594000000E+02  0.51100000000E-03 0. -1.
    9900012    2    1    2    0    0 -0.12660629901E+00  0.64993277387E+01  0.17561945969E+02  0.72461568508E+02  0.69999997673E+02 0.  0.
         12    1    1    2    0    0  0.12660629901E+00 -0.64993277387E+01 -0.17561945969E+02  0.18726431492E+02  0.00000000000E+00 0. -1.
         11    1    3    3    0    0  0.29045978737E+02  0.11607477233E+02  0.12786768208E+01  0.31305549399E+02  0.51100000000E-03 0. -1.
        -11    1    3    3    0    0 -0.66795994666E+01  0.40790985266E-01 -0.60727467381E+01  0.90275670114E+01  0.51100000000E-03 0.  1.
        -12    1    3    3    0    0 -0.22492985570E+02 -0.51489404798E+01  0.22356015886E+02  0.32128452098E+02  0.00000000000E+00 0.  1.
</event>
<event>
 7    1  0.1465498E-013  0.7246154E+02  0.7816164E-02  0.1226708E+00
        -11   -1    0    0    0    0  0.00000000000E+00  0.00000000000E+00  0.45593999997E+02  0.45594000000E+02  0.51100000000E-03 0.  1.
         11   -1    0    0    0    0 -0.00000000000E+00 -0.00000000000E+00 -0.45593999997E+02  0.45594000000E+02  0.51100000000E-03 0. -1.
    9900012    2    1    2    0    0 -0.74501958478E+01 -0.47187893913E+01  0.16519927978E+02  0.72461537123E+02  0.69999956788E+02 0.  0.
         12    1    1    2    0    0  0.74501958478E+01  0.47187893913E+01 -0.16519927978E+02  0.18726462877E+02  0.00000000000E+00 0. -1.
         11    1    3    3    0    0 -0.93259043899E+01  0.22918487784E+01  0.23241847198E+01  0.98806324892E+01  0.51100000000E-03 0. -1.
        -11    1    3    3    0    0  0.62455450891E+01 -0.21002583309E+02  0.32459063192E+02  0.39162560216E+02  0.51100000000E-03 0.  1.
         12    1    3    3    0    0 -0.43698365470E+01  0.13991945139E+02 -0.18263319935E+02  0.23418344418E+02  0.00000000000E+00 0. -1.
</event>
<event>
 7    1  0.1465498E-013  0.7246153E+02  0.7816164E-02  0.1226708E+00
        -11   -1    0    0    0    0  0.00000000000E+00  0.00000000000E+00  0.45593999997E+02  0.45594000000E+02  0.51100000000E-03 0.  1.
         11   -1    0    0    0    0 -0.00000000000E+00 -0.00000000000E+00 -0.45593999997E+02  0.45594000000E+02  0.51100000000E-03 0. -1.
    9900012    2    1    2    0    0 -0.31037767430E+01 -0.59428611794E+01  0.17485130439E+02  0.72461526345E+02  0.69999942748E+02 0.  0.
         12    1    1    2    0    0  0.31037767430E+01  0.59428611794E+01 -0.17485130439E+02  0.18726473655E+02  0.00000000000E+00 0. -1.
         11    1    3    3    0    0 -0.25603634237E+02 -0.21859619939E+02  0.86477415945E+01  0.34758775942E+02  0.51100000000E-03 0. -1.
        -11    1    3    3    0    0 -0.46705806762E+01  0.55199646580E+00 -0.13077688532E+01  0.48815247194E+01  0.51100000000E-03 0.  1.
        -12    1    3    3    0    0  0.27170438170E+02  0.15364762294E+02  0.10145157698E+02  0.32821225684E+02  0.00000000000E+00 0.  1.
</event>
<event>
 7    1  0.1465498E-013  0.7246148E+02  0.7816164E-02  0.1226708E+00
        -11   -1    0    0    0    0  0.00000000000E+00  0.00000000000E+00  0.45593999997E+02  0.45594000000E+02  0.51100000000E-03 0. -1.
         11   -1    0    0    0    0 -0.00000000000E+00 -0.00000000000E+00 -0.45593999997E+02  0.45594000000E+02  0.51100000000E-03 0.  1.
    9900012    2    1    2    0    0 -0.15787234244E+02 -0.18149778540E+01 -0.99071440801E+01  0.72461483680E+02  0.69999887168E+02 0.  0.
         12    1    1    2    0    0  0.15787234244E+02  0.18149778540E+01  0.99071440801E+01  0.18726516320E+02  0.00000000000E+00 0. -1.
         11    1    3    3    0    0  0.11444177575E+02  0.47580405666E+01  0.11466270930E+02  0.16884416475E+02  0.51100000000E-03 0. -1.
        -11    1    3    3    0    0  0.74708066587E+01 -0.12622122926E+02 -0.12450099065E+02  0.19238916453E+02  0.51100000000E-03 0.  1.
        -12    1    3    3    0    0 -0.34702218477E+02  0.60491045055E+01 -0.89233159457E+01  0.36338150752E+02  0.00000000000E+00 0.  1.
</event>
<event>
 7    1  0.1465498E-013  0.7246154E+02  0.7816164E-02  0.1226708E+00
        -11   -1    0    0    0    0  0.00000000000E+00  0.00000000000E+00  0.45593999997E+02  0.45594000000E+02  0.51100000000E-03 0. -1.
         11   -1    0    0    0    0 -0.00000000000E+00 -0.00000000000E+00 -0.45593999997E+02  0.45594000000E+02  0.51100000000E-03 0.  1.
    9900012    2    1    2    0    0 -0.12097406401E+02  0.13502845941E+02 -0.46910705182E+01  0.72461541906E+02  0.69999963019E+02 0.  0.
         12    1    1    2    0    0  0.12097406401E+02 -0.13502845941E+02  0.46910705182E+01  0.18726458094E+02  0.00000000000E+00 0. -1.
         11    1    3    3    0    0 -0.24000117387E+02  0.82204234110E+01 -0.94607413798E+01  0.27075572448E+02  0.51100000000E-03 0. -1.
        -11    1    3    3    0    0  0.14392373838E+02  0.96314116693E+01 -0.16267629176E+02  0.23760056286E+02  0.51100000000E-03 0.  1.
         12    1    3    3    0    0 -0.24896628513E+01 -0.43489891390E+01  0.21037300038E+02  0.21625913172E+02  0.00000000000E+00 0. -1.
</event>
<event>
 7    1  0.1465498E-013  0.7246156E+02  0.7816164E-02  0.1226708E+00
        -11   -1    0    0    0    0  0.00000000000E+00  0.00000000000E+00  0.45593999997E+02  0.45594000000E+02  0.51100000000E-03 0.  1.
         11   -1    0    0    0    0 -0.00000000000E+00 -0.00000000000E+00 -0.45593999997E+02  0.45594000000E+02  0.51100000000E-03 0. -1.
    9900012    2    1    2    0    0 -0.11065281897E+01  0.11787755914E+02  0.14508752634E+02  0.72461561548E+02  0.69999988606E+02 0.  0.
         12    1    1    2    0    0  0.11065281897E+01 -0.11787755914E+02 -0.14508752634E+02  0.18726438452E+02  0.00000000000E+00 0. -1.
         11    1    3    3    0    0 -0.20035210489E+02  0.11015400288E+00 -0.10197762439E+02  0.22481462414E+02  0.51100000000E-03 0. -1.
        -11    1    3    3    0    0 -0.44566272845E+01  0.18455156764E+02  0.12621782472E+02  0.22798327372E+02  0.51100000000E-03 0.  1.
         12    1    3    3    0    0  0.23385309583E+02 -0.67775548527E+01  0.12084732600E+02  0.27181771762E+02  0.00000000000E+00 0. -1.
</event>
<event>
 7    1  0.1465498E-013  0.7246162E+02  0.7816164E-02  0.1226708E+00
        -11   -1    0    0    0    0  0.00000000000E+00  0.00000000000E+00  0.45593999997E+02  0.45594000000E+02  0.51100000000E-03 0. -1.
         11   -1    0    0    0    0 -0.00000000000E+00 -0.00000000000E+00 -0.45593999997E+02  0.45594000000E+02  0.51100000000E-03 0.  1.
    9900012    2    1    2    0    0 -0.82159848156E+01  0.11207045803E+02 -0.12552976069E+02  0.72461615129E+02  0.70000058406E+02 0.  0.
         12    1    1    2    0    0  0.82159848156E+01 -0.11207045803E+02  0.12552976069E+02  0.18726384871E+02  0.00000000000E+00 0. -1.
         11    1    3    3    0    0 -0.18963152759E+01 -0.24550098547E+01 -0.32701283432E+01  0.45074188461E+01  0.51100000000E-03 0. -1.
        -11    1    3    3    0    0  0.14651284834E+02 -0.12520231746E+02 -0.24455873688E+02  0.31136893043E+02  0.51100000000E-03 0.  1.
         12    1    3    3    0    0 -0.20970954374E+02  0.26182287404E+02  0.15173025962E+02  0.36817303240E+02  0.00000000000E+00 0. -1.
</event>
<event>
 7    1  0.1465498E-013  0.7246158E+02  0.7816164E-02  0.1226708E+00
        -11   -1    0    0    0    0  0.00000000000E+00  0.00000000000E+00  0.45593999997E+02  0.45594000000E+02  0.51100000000E-03 0.  1.
         11   -1    0    0    0    0 -0.00000000000E+00 -0.00000000000E+00 -0.45593999997E+02  0.45594000000E+02  0.51100000000E-03 0. -1.
    9900012    2    1    2    0    0 -0.15537990062E+01 -0.91930511329E+01  0.16240451488E+02  0.72461581628E+02  0.70000014765E+02 0.  0.
         12    1    1    2    0    0  0.15537990062E+01  0.91930511329E+01 -0.16240451488E+02  0.18726418372E+02  0.00000000000E+00 0. -1.
         11    1    3    3    0    0 -0.18946321868E+01 -0.18203706680E+02 -0.52728531424E+01  0.19046457637E+02  0.51100000000E-03 0. -1.
        -11    1    3    3    0    0 -0.23288302970E+02  0.10112133303E+01  0.14687750462E+02  0.27551726289E+02  0.51100000000E-03 0.  1.
        -12    1    3    3    0    0  0.23629136151E+02  0.79994422163E+01  0.68255541689E+01  0.25863397702E+02  0.00000000000E+00 0.  1.
</event>
<event>
 7    1  0.1465498E-013  0.7246169E+02  0.7816164E-02  0.1226708E+00
        -11   -1    0    0    0    0  0.00000000000E+00  0.00000000000E+00  0.45593999997E+02  0.45594000000E+02  0.51100000000E-03 0.  1.
         11   -1    0    0    0    0 -0.00000000000E+00 -0.00000000000E+00 -0.45593999997E+02  0.45594000000E+02  0.51100000000E-03 0. -1.
    9900012    2    1    2    0    0  0.15538121480E+02  0.51398997317E+01  0.91006984929E+01  0.72461694933E+02  0.70000162365E+02 0.  0.
         12    1    1    2    0    0 -0.15538121480E+02 -0.51398997317E+01 -0.91006984929E+01  0.18726305067E+02  0.00000000000E+00 0. -1.
         11    1    3    3    0    0 -0.69834324384E+01  0.31485358728E+01  0.29653981652E+01  0.82143285364E+01  0.51100000000E-03 0. -1.
        -11    1    3    3    0    0  0.15423402698E+02  0.27193274618E+02  0.17361155440E+02  0.35759827373E+02  0.51100000000E-03 0.  1.
         12    1    3    3    0    0  0.70981512205E+01 -0.25201910759E+02 -0.11225855112E+02  0.28487539024E+02  0.00000000000E+00 0. -1.
</event>
<event>
 7    1  0.1465498E-013  0.7246158E+02  0.7816164E-02  0.1226708E+00
        -11   -1    0    0    0    0  0.00000000000E+00  0.00000000000E+00  0.45593999997E+02  0.45594000000E+02  0.51100000000E-03 0. -1.
         11   -1    0    0    0    0 -0.00000000000E+00 -0.00000000000E+00 -0.45593999997E+02  0.45594000000E+02  0.51100000000E-03 0.  1.
    9900012    2    1    2    0    0  0.63397645832E+00  0.64891479627E+01 -0.17554705362E+02  0.72461584225E+02  0.70000018147E+02 0.  0.
         12    1    1    2    0    0 -0.63397645832E+00 -0.64891479627E+01  0.17554705362E+02  0.18726415775E+02  0.00000000000E+00 0. -1.
         11    1    3    3    0    0 -0.18893941852E+02 -0.16972033041E+02  0.57799038552E+01  0.26046846893E+02  0.51100000000E-03 0. -1.
        -11    1    3    3    0    0 -0.41455991010E+01  0.84403071138E+01 -0.13999868732E+02  0.16864788787E+02  0.51100000000E-03 0.  1.
        -12    1    3    3    0    0  0.23673517411E+02  0.15020873890E+02 -0.93347404855E+01  0.29549948544E+02  0.00000000000E+00 0.  1.
</event>
<event>
 7    1  0.1465498E-013  0.7246162E+02  0.7816164E-02  0.1226708E+00
        -11   -1    0    0    0    0  0.00000000000E+00  0.00000000000E+00  0.45593999997E+02  0.45594000000E+02  0.51100000000E-03 0. -1.
         11   -1    0    0    0    0 -0.00000000000E+00 -0.00000000000E+00 -0.45593999997E+02  0.45594000000E+02  0.51100000000E-03 0.  1.
    9900012    2    1    2    0    0 -0.11059801443E+02  0.87218372806E+01 -0.12340489719E+02  0.72461619143E+02  0.70000063634E+02 0.  0.
         12    1    1    2    0    0  0.11059801443E+02 -0.87218372806E+01  0.12340489719E+02  0.18726380857E+02  0.00000000000E+00 0. -1.
         11    1    3    3    0    0 -0.23531132011E+02  0.29475097706E+02 -0.12745964643E+02  0.39811495493E+02  0.51100000000E-03 0. -1.
        -11    1    3    3    0    0 -0.34806770029E+01  0.21926030163E+01  0.21652706826E+01  0.46487651883E+01  0.51100000000E-03 0.  1.
        -12    1    3    3    0    0  0.15952007570E+02 -0.22945863441E+02 -0.17597957581E+01  0.28001358462E+02  0.00000000000E+00 0.  1.
</event>
<event>
 7    1  0.1465498E-013  0.7246160E+02  0.7816164E-02  0.1226708E+00
        -11   -1    0    0    0    0  0.00000000000E+00  0.00000000000E+00  0.45593999997E+02  0.45594000000E+02  0.51100000000E-03 0.  1.
         11   -1    0    0    0    0 -0.00000000000E+00 -0.00000000000E+00 -0.45593999997E+02  0.45594000000E+02  0.51100000000E-03 0. -1.
    9900012    2    1    2    0    0  0.14482791719E+02 -0.34784331301E+01  0.11350211367E+02  0.72461600157E+02  0.70000038901E+02 0.  0.
         12    1    1    2    0    0 -0.14482791719E+02  0.34784331301E+01 -0.11350211367E+02  0.18726399843E+02  0.00000000000E+00 0. -1.
         11    1    3    3    0    0 -0.12429021848E+02  0.54609165593E+00 -0.45132595789E+01  0.13234361053E+02  0.51100000000E-03 0. -1.
        -11    1    3    3    0    0  0.37100995038E+02 -0.13139132042E+02  0.14848469069E+01  0.39386868297E+02  0.51100000000E-03 0.  1.
         12    1    3    3    0    0 -0.10189181471E+02  0.91146072559E+01  0.14378624039E+02  0.19840370806E+02  0.00000000000E+00 0. -1.
</event>
<event>
 7    1  0.1465498E-013  0.7246178E+02  0.7816164E-02  0.1226707E+00
        -11   -1    0    0    0    0  0.00000000000E+00  0.00000000000E+00  0.45593999997E+02  0.45594000000E+02  0.51100000000E-03 0. -1.
         11   -1    0    0    0    0 -0.00000000000E+00 -0.00000000000E+00 -0.45593999997E+02  0.45594000000E+02  0.51100000000E-03 0.  1.
    9900012    2    1    2    0    0  0.18506714218E+02  0.22854588680E+01 -0.17173797835E+01  0.72461783439E+02  0.70000277660E+02 0.  0.
         12    1    1    2    0    0 -0.18506714218E+02 -0.22854588680E+01  0.17173797835E+01  0.18726216561E+02  0.00000000000E+00 0. -1.
         11    1    3    3    0    0 -0.21337656534E+01 -0.44029323903E+01 -0.16412413220E+00  0.48954781676E+01  0.51100000000E-03 0. -1.
        -11    1    3    3    0    0  0.19863943533E+02 -0.57752823079E+01 -0.30033608444E+02  0.36468449033E+02  0.51100000000E-03 0.  1.
         12    1    3    3    0    0  0.77653633797E+00  0.12463673566E+02  0.28480352793E+02  0.31097856239E+02  0.00000000000E+00 0. -1.
</event>
<event>
 7    1  0.1465498E-013  0.7246160E+02  0.7816164E-02  0.1226708E+00
        -11   -1    0    0    0    0  0.00000000000E+00  0.00000000000E+00  0.45593999997E+02  0.45594000000E+02  0.51100000000E-03 0.  1.
         11   -1    0    0    0    0 -0.00000000000E+00 -0.00000000000E+00 -0.45593999997E+02  0.45594000000E+02  0.51100000000E-03 0. -1.
    9900012    2    1    2    0    0 -0.17944934732E+02 -0.47805170086E+01  0.24091524512E+01  0.72461600428E+02  0.70000039255E+02 0.  0.
         12    1    1    2    0    0  0.17944934732E+02  0.47805170086E+01 -0.24091524512E+01  0.18726399572E+02  0.00000000000E+00 0. -1.
         11    1    3    3    0    0  0.62530559494E+01  0.10932246957E+02  0.12202262597E+02  0.17535961479E+02  0.51100000000E-03 0. -1.
        -11    1    3    3    0    0 -0.17683147621E+02  0.15868726194E+01  0.15519862490E+02  0.23581306292E+02  0.51100000000E-03 0.  1.
         12    1    3    3    0    0 -0.65148430602E+01 -0.17299636585E+02 -0.25312972636E+02  0.31344332657E+02  0.00000000000E+00 0. -1.
</event>
<event>
 7    1  0.1465498E-013  0.7246234E+02  0.7816164E-02  0.1226706E+00
        -11   -1    0    0    0    0  0.00000000000E+00  0.00000000000E+00  0.45593999997E+02  0.45594000000E+02  0.51100000000E-03 0. -1.
         11   -1    0    0    0    0 -0.00000000000E+00 -0.00000000000E+00 -0.45593999997E+02  0.45594000000E+02  0.51100000000E-03 0.  1.
    9900012    2    1    2    0    0 -0.17364310127E+02 -0.60971247486E+01 -0.34577837926E+01  0.72462336724E+02  0.70000998410E+02 0.  0.
         12    1    1    2    0    0  0.17364310127E+02  0.60971247486E+01  0.34577837926E+01  0.18725663276E+02  0.00000000000E+00 0. -1.
         11    1    3    3    0    0 -0.10414146818E+01 -0.69885413688E+01 -0.86646044466E+01  0.11180323138E+02  0.51100000000E-03 0. -1.
        -11    1    3    3    0    0 -0.20905045295E+02 -0.15770134128E+02 -0.18416027048E+02  0.32013561216E+02  0.51100000000E-03 0.  1.
         12    1    3    3    0    0  0.45821498503E+01  0.16661550748E+02  0.23622847702E+02  0.29268452370E+02  0.00000000000E+00 0. -1.
</event>
<event>
 7    1  0.1465498E-013  0.7246159E+02  0.7816164E-02  0.1226708E+00
        -11   -1    0    0    0    0  0.00000000000E+00  0.00000000000E+00  0.45593999997E+02  0.45594000000E+02  0.51100000000E-03 0.  1.
         11   -1    0    0    0    0 -0.00000000000E+00 -0.00000000000E+00 -0.45593999997E+02  0.45594000000E+02  0.51100000000E-03 0. -1.
    9900012    2    1    2    0    0 -0.16417238171E+01  0.11384671833E+02  0.14777430003E+02  0.72461589577E+02  0.70000025119E+02 0.  0.
         12    1    1    2    0    0  0.16417238171E+01 -0.11384671833E+02 -0.14777430003E+02  0.18726410423E+02  0.00000000000E+00 0. -1.
         11    1    3    3    0    0 -0.64412774614E+00  0.17100230373E+01 -0.42301671516E+01  0.46079706741E+01  0.51100000000E-03 0. -1.
        -11    1    3    3    0    0  0.27548792139E+02  0.15346466988E+02 -0.25456547883E+01  0.31637483400E+02  0.51100000000E-03 0.  1.
         12    1    3    3    0    0 -0.28546388210E+02 -0.56718181931E+01  0.21553251943E+02  0.36216135503E+02  0.00000000000E+00 0. -1.
</event>
<event>
 7    1  0.1465498E-013  0.7246156E+02  0.7816164E-02  0.1226708E+00
        -11   -1    0    0    0    0  0.00000000000E+00  0.00000000000E+00  0.45593999997E+02  0.45594000000E+02  0.51100000000E-03 0. -1.
         11   -1    0    0    0    0 -0.00000000000E+00 -0.00000000000E+00 -0.45593999997E+02  0.45594000000E+02  0.51100000000E-03 0.  1.
    9900012    2    1    2    0    0  0.10337069638E+02 -0.14511815089E+02  0.57646929785E+01  0.72461562244E+02  0.69999989513E+02 0.  0.
         12    1    1    2    0    0 -0.10337069638E+02  0.14511815089E+02 -0.57646929785E+01  0.18726437756E+02  0.00000000000E+00 0. -1.
         11    1    3    3    0    0  0.28730772378E+02 -0.28664941787E+01 -0.68034793632E+01  0.29664143373E+02  0.51100000000E-03 0. -1.
        -11    1    3    3    0    0  0.10238451888E+02 -0.33790173359E+01  0.57772517416E+01  0.12231937425E+02  0.51100000000E-03 0.  1.
        -12    1    3    3    0    0 -0.28632154628E+02 -0.82663035743E+01  0.67909206001E+01  0.30565481446E+02  0.00000000000E+00 0.  1.
</event>
<event>
 7    1  0.1465498E-013  0.7246172E+02  0.7816164E-02  0.1226708E+00
        -11   -1    0    0    0    0  0.00000000000E+00  0.00000000000E+00  0.45593999997E+02  0.45594000000E+02  0.51100000000E-03 0.  1.
         11   -1    0    0    0    0 -0.00000000000E+00 -0.00000000000E+00 -0.45593999997E+02  0.45594000000E+02  0.51100000000E-03 0. -1.
    9900012    2    1    2    0    0 -0.18130221876E+02  0.40144642598E+01 -0.24192331301E+01  0.72461720137E+02  0.70000195198E+02 0.  0.
         12    1    1    2    0    0  0.18130221876E+02 -0.40144642598E+01  0.24192331301E+01  0.18726279863E+02  0.00000000000E+00 0. -1.
         11    1    3    3    0    0 -0.11455763772E+02  0.55015341826E+01  0.52403894119E+01  0.13746384376E+02  0.51100000000E-03 0. -1.
        -11    1    3    3    0    0 -0.11556758134E+02  0.18308392719E+02 -0.24192514179E+02  0.32465884326E+02  0.51100000000E-03 0.  1.
        -12    1    3    3    0    0  0.48823000298E+01 -0.19795462642E+02  0.16532891637E+02  0.26249451435E+02  0.00000000000E+00 0.  1.
</event>
<event>
 7    1  0.1465498E-013  0.7246152E+02  0.7816164E-02  0.1226708E+00
        -11   -1    0    0    0    0  0.00000000000E+00  0.00000000000E+00  0.45593999997E+02  0.45594000000E+02  0.51100000000E-03 0.  1.
         11   -1    0    0    0    0 -0.00000000000E+00 -0.00000000000E+00 -0.45593999997E+02  0.45594000000E+02  0.51100000000E-03 0. -1.
    9900012    2    1    2    0    0  0.63609277857E+01 -0.17408318974E+02  0.26776855506E+01  0.72461522176E+02  0.69999937317E+02 0.  0.
         12    1    1    2    0    0 -0.63609277857E+01  0.17408318974E+02 -0.26776855506E+01  0.18726477824E+02  0.00000000000E+00 0. -1.
         11    1    3    3    0    0  0.15148326829E+02 -0.10386579558E+02 -0.25501122314E+02  0.31427059681E+02  0.51100000000E-03 0. -1.
        -11    1    3    3    0    0 -0.16772104074E+00 -0.15419660864E+02  0.75917026603E+01  0.17188019695E+02  0.51100000000E-03 0.  1.
        -12    1    3    3    0    0 -0.86196780029E+01  0.83979214490E+01  0.20587105204E+02  0.23846442800E+02  0.00000000000E+00 0.  1.
</event>
<event>
 7    1  0.1465498E-013  0.7246144E+02  0.7816164E-02  0.1226708E+00
        -11   -1    0    0    0    0  0.00000000000E+00  0.00000000000E+00  0.45593999997E+02  0.45594000000E+02  0.51100000000E-03 0. -1.
         11   -1    0    0    0    0 -0.00000000000E+00 -0.00000000000E+00 -0.45593999997E+02  0.45594000000E+02  0.51100000000E-03 0.  1.
    9900012    2    1    2    0    0  0.57280517362E+01  0.16976080854E+02 -0.54485067812E+01  0.72461438009E+02  0.69999827674E+02 0.  0.
         12    1    1    2    0    0 -0.57280517362E+01 -0.16976080854E+02  0.54485067812E+01  0.18726561991E+02  0.00000000000E+00 0. -1.
         11    1    3    3    0    0 -0.23216510612E+02 -0.85938124876E+01 -0.99430398077E+01  0.26678156214E+02  0.51100000000E-03 0. -1.
        -11    1    3    3    0    0  0.15425700917E+01  0.10177935230E+02 -0.68550869408E+01  0.12367784978E+02  0.51100000000E-03 0.  1.
        -12    1    3    3    0    0  0.27401992257E+02  0.15391958111E+02  0.11349619967E+02  0.33415496817E+02  0.00000000000E+00 0.  1.
</event>
<event>
 7    1  0.1465498E-013  0.7246162E+02  0.7816164E-02  0.1226708E+00
        -11   -1    0    0    0    0  0.00000000000E+00  0.00000000000E+00  0.45593999997E+02  0.45594000000E+02  0.51100000000E-03 0. -1.
         11   -1    0    0    0    0 -0.00000000000E+00 -0.00000000000E+00 -0.45593999997E+02  0.45594000000E+02  0.51100000000E-03 0.  1.
    9900012    2    1    2    0    0  0.17490963443E+02 -0.23442615194E+01  0.62648267952E+01  0.72461617033E+02  0.70000060886E+02 0.  0.
         12    1    1    2    0    0 -0.17490963443E+02  0.23442615194E+01 -0.62648267952E+01  0.18726382967E+02  0.00000000000E+00 0. -1.
         11    1    3    3    0    0  0.15002443899E+02  0.25355847568E+02  0.87168623280E+01  0.30724192714E+02  0.51100000000E-03 0. -1.
        -11    1    3    3    0    0 -0.35244143316E+01  0.56282228516E+01  0.32517440254E+01  0.73940671025E+01  0.51100000000E-03 0.  1.
        -12    1    3    3    0    0  0.60129338756E+01 -0.33328331939E+02 -0.57037795583E+01  0.34343357216E+02  0.00000000000E+00 0.  1.
</event>
<event>
 7    1  0.1465498E-013  0.7246156E+02  0.7816164E-02  0.1226708E+00
        -11   -1    0    0    0    0  0.00000000000E+00  0.00000000000E+00  0.45593999997E+02  0.45594000000E+02  0.51100000000E-03 0.  1.
         11   -1    0    0    0    0 -0.00000000000E+00 -0.00000000000E+00 -0.45593999997E+02  0.45594000000E+02  0.51100000000E-03 0. -1.
    9900012    2    1    2    0    0  0.10303556570E+02  0.49231976159E+01  0.14841781519E+02  0.72461557962E+02  0.69999983935E+02 0.  0.
         12    1    1    2    0    0 -0.10303556570E+02 -0.49231976159E+01 -0.14841781519E+02  0.18726442038E+02  0.00000000000E+00 0. -1.
         11    1    3    3    0    0  0.20816344716E+02  0.16363108257E+01 -0.18449820813E+02  0.27863840524E+02  0.51100000000E-03 0. -1.
        -11    1    3    3    0    0  0.83043498822E+01  0.19906350576E+00  0.30556189149E+01  0.88509129733E+01  0.51100000000E-03 0.  1.
        -12    1    3    3    0    0 -0.18817138028E+02  0.30878232844E+01  0.30235983417E+02  0.35746804464E+02  0.00000000000E+00 0.  1.
</event>
<event>
 7    1  0.1465498E-013  0.7246148E+02  0.7816164E-02  0.1226708E+00
        -11   -1    0    0    0    0  0.00000000000E+00  0.00000000000E+00  0.45593999997E+02  0.45594000000E+02  0.51100000000E-03 0. -1.
         11   -1    0    0    0    0 -0.00000000000E+00 -0.00000000000E+00 -0.45593999997E+02  0.45594000000E+02  0.51100000000E-03 0.  1.
    9900012    2    1    2    0    0  0.33774890051E+01  0.16784810322E+01 -0.18342783431E+02  0.72461483118E+02  0.69999886436E+02 0.  0.
         12    1    1    2    0    0 -0.33774890051E+01 -0.16784810322E+01  0.18342783431E+02  0.18726516882E+02  0.00000000000E+00 0. -1.
         11    1    3    3    0    0 -0.33410585253E+01  0.22288078535E+02 -0.19612212218E+02  0.29875742421E+02  0.51100000000E-03 0. -1.
        -11    1    3    3    0    0  0.98340066092E+01 -0.95047819827E-01 -0.13796817827E+02  0.16943107817E+02  0.51100000000E-03 0.  1.
         12    1    3    3    0    0 -0.31154590788E+01 -0.20514549683E+02  0.15066246614E+02  0.25642632880E+02  0.00000000000E+00 0. -1.
</event>
<event>
 7    1  0.1465498E-013  0.7246122E+02  0.7816164E-02  0.1226709E+00
        -11   -1    0    0    0    0  0.00000000000E+00  0.00000000000E+00  0.45593999997E+02  0.45594000000E+02  0.51100000000E-03 0.  1.
         11   -1    0    0    0    0 -0.00000000000E+00 -0.00000000000E+00 -0.45593999997E+02  0.45594000000E+02  0.51100000000E-03 0. -1.
    9900012    2    1    2    0    0  0.76323762436E+00 -0.17479169269E+02 -0.66774416620E+01  0.72461224593E+02  0.69999549658E+02 0.  0.
         12    1    1    2    0    0 -0.76323762436E+00  0.17479169269E+02  0.66774416620E+01  0.18726775407E+02  0.00000000000E+00 0. -1.
         11    1    3    3    0    0  0.77469715226E+01  0.20607227283E+02  0.11419602476E+02  0.24800820653E+02  0.51100000000E-03 0. -1.
        -11    1    3    3    0    0  0.75175362130E+01 -0.15511199211E+02 -0.78251086952E+01  0.18929949235E+02  0.51100000000E-03 0.  1.
        -12    1    3    3    0    0 -0.14501270111E+02 -0.22575197341E+02 -0.10271935443E+02  0.28730454705E+02  0.00000000000E+00 0.  1.
</event>
<event>
 7    1  0.1465498E-013  0.7246176E+02  0.7816164E-02  0.1226708E+00
        -11   -1    0    0    0    0  0.00000000000E+00  0.00000000000E+00  0.45593999997E+02  0.45594000000E+02  0.51100000000E-03 0.  1.
         11   -1    0    0    0    0 -0.00000000000E+00 -0.00000000000E+00 -0.45593999997E+02  0.45594000000E+02  0.51100000000E-03 0. -1.
    9900012    2    1    2    0    0 -0.10613902742E+02  0.12956160650E+02  0.83758548348E+01  0.72461762407E+02  0.70000250262E+02 0.  0.
         12    1    1    2    0    0  0.10613902742E+02 -0.12956160650E+02 -0.83758548348E+01  0.18726237593E+02  0.00000000000E+00 0. -1.
         11    1    3    3    0    0 -0.19012248023E+02 -0.34886768255E+01 -0.57809121025E+01  0.20175613643E+02  0.51100000000E-03 0. -1.
        -11    1    3    3    0    0 -0.14722661397E+02 -0.79299247028E+01  0.52958215054E+01  0.17540986007E+02  0.51100000000E-03 0.  1.
         12    1    3    3    0    0  0.23121006678E+02  0.24374762178E+02  0.88609454320E+01  0.34745162757E+02  0.00000000000E+00 0. -1.
</event>
<event>
 7    1  0.1465498E-013  0.7246173E+02  0.7816164E-02  0.1226708E+00
        -11   -1    0    0    0    0  0.00000000000E+00  0.00000000000E+00  0.45593999997E+02  0.45594000000E+02  0.51100000000E-03 0.  1.
         11   -1    0    0    0    0 -0.00000000000E+00 -0.00000000000E+00 -0.45593999997E+02  0.45594000000E+02  0.51100000000E-03 0. -1.
    9900012    2    1    2    0    0 -0.38280034352E+01  0.18240108092E+02 -0.18214994764E+01  0.72461734653E+02  0.70000214107E+02 0.  0.
         12    1    1    2    0    0  0.38280034352E+01 -0.18240108092E+02  0.18214994764E+01  0.18726265347E+02  0.00000000000E+00 0. -1.
         11    1    3    3    0    0 -0.96504013458E+01 -0.64645356845E+01 -0.46271174382E+01  0.12503226935E+02  0.51100000000E-03 0. -1.
        -11    1    3    3    0    0 -0.23632195600E+02  0.72354874534E+01  0.63853308123E+01  0.25526562585E+02  0.51100000000E-03 0.  1.
         12    1    3    3    0    0  0.29454593511E+02  0.17469156323E+02 -0.35797128505E+01  0.34431945132E+02  0.00000000000E+00 0. -1.
</event>
<event>
 7    1  0.1465498E-013  0.7246160E+02  0.7816164E-02  0.1226708E+00
        -11   -1    0    0    0    0  0.00000000000E+00  0.00000000000E+00  0.45593999997E+02  0.45594000000E+02  0.51100000000E-03 0.  1.
         11   -1    0    0    0    0 -0.00000000000E+00 -0.00000000000E+00 -0.45593999997E+02  0.45594000000E+02  0.51100000000E-03 0. -1.
    9900012    2    1    2    0    0 -0.15233771951E+02  0.10713344399E+02  0.19581458936E+01  0.72461604420E+02  0.70000044455E+02 0.  0.
         12    1    1    2    0    0  0.15233771951E+02 -0.10713344399E+02 -0.19581458936E+01  0.18726395580E+02  0.00000000000E+00 0. -1.
         11    1    3    3    0    0  0.83011663913E+01  0.41416626782E+01 -0.92658815293E+01  0.13111799799E+02  0.51100000000E-03 0. -1.
        -11    1    3    3    0    0 -0.19477537563E+00  0.21116344189E+02 -0.11165283191E+02  0.23887266029E+02  0.51100000000E-03 0.  1.
        -12    1    3    3    0    0 -0.23340162967E+02 -0.14544662468E+02  0.22389310614E+02  0.35462538592E+02  0.00000000000E+00 0.  1.
</event>
<event>
 7    1  0.1465498E-013  0.7246162E+02  0.7816164E-02  0.1226708E+00
        -11   -1    0    0    0    0  0.00000000000E+00  0.00000000000E+00  0.45593999997E+02  0.45594000000E+02  0.51100000000E-03 0. -1.
         11   -1    0    0    0    0 -0.00000000000E+00 -0.00000000000E+00 -0.45593999997E+02  0.45594000000E+02  0.51100000000E-03 0.  1.
    9900012    2    1    2    0    0 -0.10128119090E+02  0.31853324798E+00 -0.15747927206E+02  0.72461615645E+02  0.70000059078E+02 0.  0.
         12    1    1    2    0    0  0.10128119090E+02 -0.31853324799E+00  0.15747927206E+02  0.18726384355E+02  0.00000000000E+00 0. -1.
         11    1    3    3    0    0  0.68042596823E+00 -0.41360722910E+01  0.62371998240E+00  0.42378178786E+01  0.51100000000E-03 0. -1.
        -11    1    3    3    0    0 -0.34136152701E+02 -0.13182849337E+02 -0.54042055858E+01  0.36990132145E+02  0.51100000000E-03 0.  1.
         12    1    3    3    0    0  0.23327607643E+02  0.17637454876E+02 -0.10967441602E+02  0.31233665621E+02  0.00000000000E+00 0. -1.
</event>
<event>
 7    1  0.1465498E-013  0.7246160E+02  0.7816164E-02  0.1226708E+00
        -11   -1    0    0    0    0  0.00000000000E+00  0.00000000000E+00  0.45593999997E+02  0.45594000000E+02  0.51100000000E-03 0.  1.
         11   -1    0    0    0    0 -0.00000000000E+00 -0.00000000000E+00 -0.45593999997E+02  0.45594000000E+02  0.51100000000E-03 0. -1.
    9900012    2    1    2    0    0 -0.27352411816E+01  0.72270123575E+01  0.17057751142E+02  0.72461598157E+02  0.70000036297E+02 0.  0.
         12    1    1    2    0    0  0.27352411816E+01 -0.72270123575E+01 -0.17057751142E+02  0.18726401843E+02  0.00000000000E+00 0. -1.
         11    1    3    3    0    0  0.12595143488E+02 -0.12075794340E+02  0.15228910130E+02  0.23159925571E+02  0.51100000000E-03 0. -1.
        -11    1    3    3    0    0  0.12762228975E+02  0.16751697278E+02  0.70607215469E+00  0.21071126886E+02  0.51100000000E-03 0.  1.
        -12    1    3    3    0    0 -0.28092613644E+02  0.25511094198E+01  0.11227688574E+01  0.28230545701E+02  0.00000000000E+00 0.  1.
</event>
<event>
 7    1  0.1465498E-013  0.7246160E+02  0.7816164E-02  0.1226708E+00
        -11   -1    0    0    0    0  0.00000000000E+00  0.00000000000E+00  0.45593999997E+02  0.45594000000E+02  0.51100000000E-03 0.  1.
         11   -1    0    0    0    0 -0.00000000000E+00 -0.00000000000E+00 -0.45593999997E+02  0.45594000000E+02  0.51100000000E-03 0. -1.
    9900012    2    1    2    0    0  0.93762502731E+00 -0.39126700472E+01  0.18289069118E+02  0.72461596800E+02  0.70000034529E+02 0.  0.
         12    1    1    2    0    0 -0.93762502731E+00  0.39126700472E+01 -0.18289069118E+02  0.18726403200E+02  0.00000000000E+00 0. -1.
         11    1    3    3    0    0 -0.20013031258E+02 -0.67152982219E+01 -0.12761327981E+02  0.24667147027E+02  0.51100000000E-03 0. -1.
        -11    1    3    3    0    0  0.24768791995E+01 -0.11693368885E+02  0.57100034075E+01  0.13246657904E+02  0.51100000000E-03 0.  1.
        -12    1    3    3    0    0  0.18473777086E+02  0.14495997060E+02  0.25340393692E+02  0.34547791869E+02  0.00000000000E+00 0.  1.
</event>
<event>
 7    1  0.1465498E-013  0.7246161E+02  0.7816164E-02  0.1226708E+00
        -11   -1    0    0    0    0  0.00000000000E+00  0.00000000000E+00  0.45593999997E+02  0.45594000000E+02  0.51100000000E-03 0.  1.
         11   -1    0    0    0    0 -0.00000000000E+00 -0.00000000000E+00 -0.45593999997E+02  0.45594000000E+02  0.51100000000E-03 0. -1.
    9900012    2    1    2    0    0  0.15701149433E+02  0.10190749728E+02 -0.54776345279E+00  0.72461614382E+02  0.70000057432E+02 0.  0.
         12    1    1    2    0    0 -0.15701149433E+02 -0.10190749728E+02  0.54776345279E+00  0.18726385618E+02  0.00000000000E+00 0. -1.
         11    1    3    3    0    0  0.34015605022E+02  0.14262698049E+02 -0.26417730979E+01  0.36979249668E+02  0.51100000000E-03 0. -1.
        -11    1    3    3    0    0  0.76722230380E+01 -0.97858466849E+00  0.49098299282E+01  0.91611715672E+01  0.51100000000E-03 0.  1.
        -12    1    3    3    0    0 -0.25986678627E+02 -0.30933636529E+01 -0.28158202830E+01  0.26321193146E+02  0.00000000000E+00 0.  1.
</event>
<event>
 7    1  0.1465498E-013  0.7246156E+02  0.7816164E-02  0.1226708E+00
        -11   -1    0    0    0    0  0.00000000000E+00  0.00000000000E+00  0.45593999997E+02  0.45594000000E+02  0.51100000000E-03 0. -1.
         11   -1    0    0    0    0 -0.00000000000E+00 -0.00000000000E+00 -0.45593999997E+02  0.45594000000E+02  0.51100000000E-03 0.  1.
    9900012    2    1    2    0    0 -0.43606070948E+01 -0.11246528176E+02 -0.14324119998E+02  0.72461556025E+02  0.69999981411E+02 0.  0.
         12    1    1    2    0    0  0.43606070948E+01  0.11246528176E+02  0.14324119998E+02  0.18726443975E+02  0.00000000000E+00 0. -1.
         11    1    3    3    0    0 -0.19968765902E+01  0.50615008007E+01 -0.59286164307E+01  0.80470366916E+01  0.51100000000E-03 0. -1.
        -11    1    3    3    0    0  0.16207771285E+02  0.13858328986E+02  0.11035129854E+02  0.24010814719E+02  0.51100000000E-03 0.  1.
        -12    1    3    3    0    0 -0.18571501789E+02 -0.30166357962E+02 -0.19430633421E+02  0.40403704614E+02  0.00000000000E+00 0.  1.
</event>
<event>
 7    1  0.1465498E-013  0.7246160E+02  0.7816164E-02  0.1226708E+00
        -11   -1    0    0    0    0  0.00000000000E+00  0.00000000000E+00  0.45593999997E+02  0.45594000000E+02  0.51100000000E-03 0.  1.
         11   -1    0    0    0    0 -0.00000000000E+00 -0.00000000000E+00 -0.45593999997E+02  0.45594000000E+02  0.51100000000E-03 0. -1.
    9900012    2    1    2    0    0 -0.79055507997E+01 -0.19972350521E+01  0.16857979370E+02  0.72461597523E+02  0.70000035470E+02 0.  0.
         12    1    1    2    0    0  0.79055507997E+01  0.19972350521E+01 -0.16857979370E+02  0.18726402477E+02  0.00000000000E+00 0. -1.
         11    1    3    3    0    0  0.74022533935E+01  0.16526396852E+00  0.98966552339E+01  0.12359791769E+02  0.51100000000E-03 0. -1.
        -11    1    3    3    0    0 -0.12882593265E+02  0.17566969639E+02 -0.17953288481E+02  0.28229066564E+02  0.51100000000E-03 0.  1.
        -12    1    3    3    0    0 -0.24252109277E+01 -0.19729468660E+02  0.24914612617E+02  0.31872739190E+02  0.00000000000E+00 0.  1.
</event>
<event>
 7    1  0.1465498E-013  0.7246150E+02  0.7816164E-02  0.1226708E+00
        -11   -1    0    0    0    0  0.00000000000E+00  0.00000000000E+00  0.45593999997E+02  0.45594000000E+02  0.51100000000E-03 0.  1.
         11   -1    0    0    0    0 -0.00000000000E+00 -0.00000000000E+00 -0.45593999997E+02  0.45594000000E+02  0.51100000000E-03 0. -1.
    9900012    2    1    2    0    0  0.17152703645E+02 -0.68462245556E+01  0.30976930634E+01  0.72461501787E+02  0.69999910756E+02 0.  0.
         12    1    1    2    0    0 -0.17152703645E+02  0.68462245556E+01 -0.30976930634E+01  0.18726498213E+02  0.00000000000E+00 0. -1.
         11    1    3    3    0    0  0.33249287412E+02  0.92744306148E+01 -0.67221469147E+01  0.35166993559E+02  0.51100000000E-03 0. -1.
        -11    1    3    3    0    0 -0.21039405538E+01 -0.15655334368E+02 -0.53253421676E+01  0.16669592961E+02  0.51100000000E-03 0.  1.
        -12    1    3    3    0    0 -0.13992643212E+02 -0.46532080238E+00  0.15145182146E+02  0.20624915266E+02  0.00000000000E+00 0.  1.
</event>
<event>
 7    1  0.1465498E-013  0.7246139E+02  0.7816164E-02  0.1226708E+00
        -11   -1    0    0    0    0  0.00000000000E+00  0.00000000000E+00  0.45593999997E+02  0.45594000000E+02  0.51100000000E-03 0. -1.
         11   -1    0    0    0    0 -0.00000000000E+00 -0.00000000000E+00 -0.45593999997E+02  0.45594000000E+02  0.51100000000E-03 0.  1.
    9900012    2    1    2    0    0  0.17174223343E+02 -0.64493120749E+01 -0.37600951277E+01  0.72461390883E+02  0.69999766283E+02 0.  0.
         12    1    1    2    0    0 -0.17174223343E+02  0.64493120749E+01  0.37600951277E+01  0.18726609117E+02  0.00000000000E+00 0. -1.
         11    1    3    3    0    0  0.75781522520E+01  0.49711944868E+01  0.39718309802E+01  0.98952820968E+01  0.51100000000E-03 0. -1.
        -11    1    3    3    0    0  0.29263404528E+02  0.11537486466E+02 -0.74885345443E+01  0.32334789135E+02  0.51100000000E-03 0.  1.
         12    1    3    3    0    0 -0.19667333437E+02 -0.22957993028E+02 -0.24339156361E+00  0.30231319651E+02  0.00000000000E+00 0. -1.
</event>
<event>
 7    1  0.1465498E-013  0.7246159E+02  0.7816164E-02  0.1226708E+00
        -11   -1    0    0    0    0  0.00000000000E+00  0.00000000000E+00  0.45593999997E+02  0.45594000000E+02  0.51100000000E-03 0.  1.
         11   -1    0    0    0    0 -0.00000000000E+00 -0.00000000000E+00 -0.45593999997E+02  0.45594000000E+02  0.51100000000E-03 0. -1.
    9900012    2    1    2    0    0  0.17353600917E+02  0.66283754088E+01  0.23655343286E+01  0.72461586088E+02  0.70000020575E+02 0.  0.
         12    1    1    2    0    0 -0.17353600917E+02 -0.66283754088E+01 -0.23655343286E+01  0.18726413912E+02  0.00000000000E+00 0. -1.
         11    1    3    3    0    0  0.22615382553E+02  0.12944869957E+02 -0.12176063679E+02  0.28762505336E+02  0.51100000000E-03 0. -1.
        -11    1    3    3    0    0  0.92871744821E+01 -0.17954869317E+02  0.24729162510E+00  0.20216085067E+02  0.51100000000E-03 0.  1.
        -12    1    3    3    0    0 -0.14548956119E+02  0.11638374768E+02  0.14294306382E+02  0.23482995685E+02  0.00000000000E+00 0.  1.
</event>
<event>
 7    1  0.1465498E-013  0.7246156E+02  0.7816164E-02  0.1226708E+00
        -11   -1    0    0    0    0  0.00000000000E+00  0.00000000000E+00  0.45593999997E+02  0.45594000000E+02  0.51100000000E-03 0.  1.
         11   -1    0    0    0    0 -0.00000000000E+00 -0.00000000000E+00 -0.45593999997E+02  0.45594000000E+02  0.51100000000E-03 0. -1.
    9900012    2    1    2    0    0  0.50855751977E+01 -0.18021331795E+02  0.21925371954E+00  0.72461560216E+02  0.69999986872E+02 0.  0.
         12    1    1    2    0    0 -0.50855751977E+01  0.18021331795E+02 -0.21925371954E+00  0.18726439784E+02  0.00000000000E+00 0. -1.
         11    1    3    3    0    0 -0.19413703521E+02  0.11441166617E+02  0.10308462177E+02  0.24780164864E+02  0.51100000000E-03 0. -1.
        -11    1    3    3    0    0  0.33749286752E+01 -0.68621111701E+01  0.86240225764E+01  0.11526164971E+02  0.51100000000E-03 0.  1.
         12    1    3    3    0    0  0.21124350044E+02 -0.22600387242E+02 -0.18713231034E+02  0.36155230382E+02  0.00000000000E+00 0. -1.
</event>
<event>
 7    1  0.1465498E-013  0.7246158E+02  0.7816164E-02  0.1226708E+00
        -11   -1    0    0    0    0  0.00000000000E+00  0.00000000000E+00  0.45593999997E+02  0.45594000000E+02  0.51100000000E-03 0.  1.
         11   -1    0    0    0    0 -0.00000000000E+00 -0.00000000000E+00 -0.45593999997E+02  0.45594000000E+02  0.51100000000E-03 0. -1.
    9900012    2    1    2    0    0 -0.34119513739E+01 -0.89944664236E+01 -0.16066643590E+02  0.72461578167E+02  0.70000010256E+02 0.  0.
         12    1    1    2    0    0  0.34119513739E+01  0.89944664236E+01  0.16066643590E+02  0.18726421833E+02  0.00000000000E+00 0. -1.
         11    1    3    3    0    0  0.57661618144E+01 -0.33033705152E+02  0.66878337756E+00  0.33539850471E+02  0.51100000000E-03 0. -1.
        -11    1    3    3    0    0  0.21768098409E+01  0.25669018087E+01  0.51993513213E+01  0.61936047987E+01  0.51100000000E-03 0.  1.
        -12    1    3    3    0    0 -0.11354923029E+02  0.21472336920E+02 -0.21934778289E+02  0.32728122897E+02  0.00000000000E+00 0.  1.
</event>
<event>
 7    1  0.1465498E-013  0.7246157E+02  0.7816164E-02  0.1226708E+00
        -11   -1    0    0    0    0  0.00000000000E+00  0.00000000000E+00  0.45593999997E+02  0.45594000000E+02  0.51100000000E-03 0. -1.
         11   -1    0    0    0    0 -0.00000000000E+00 -0.00000000000E+00 -0.45593999997E+02  0.45594000000E+02  0.51100000000E-03 0.  1.
    9900012    2    1    2    0    0  0.33044710169E+01 -0.10609104240E+02 -0.15073375490E+02  0.72461567608E+02  0.69999996501E+02 0.  0.
         12    1    1    2    0    0 -0.33044710169E+01  0.10609104240E+02  0.15073375490E+02  0.18726432392E+02  0.00000000000E+00 0. -1.
         11    1    3    3    0    0 -0.16315541427E+02  0.26906232103E+00 -0.22472766204E+01  0.16471780082E+02  0.51100000000E-03 0. -1.
        -11    1    3    3    0    0  0.21505212526E+01 -0.13178970138E+02 -0.29091515141E+02  0.32009783646E+02  0.51100000000E-03 0.  1.
         12    1    3    3    0    0  0.17469491192E+02  0.23008035777E+01  0.16265416272E+02  0.23980003881E+02  0.00000000000E+00 0. -1.
</event>
<event>
 7    1  0.1465498E-013  0.7246155E+02  0.7816164E-02  0.1226708E+00
        -11   -1    0    0    0    0  0.00000000000E+00  0.00000000000E+00  0.45593999997E+02  0.45594000000E+02  0.51100000000E-03 0.  1.
         11   -1    0    0    0    0 -0.00000000000E+00 -0.00000000000E+00 -0.45593999997E+02  0.45594000000E+02  0.51100000000E-03 0. -1.
    9900012    2    1    2    0    0  0.15507789021E+02  0.10177342504E+02 -0.25709822846E+01  0.72461554243E+02  0.69999979090E+02 0.  0.
         12    1    1    2    0    0 -0.15507789021E+02 -0.10177342504E+02  0.25709822846E+01  0.18726445757E+02  0.00000000000E+00 0. -1.
         11    1    3    3    0    0  0.38455152381E+01 -0.94671374936E+01  0.10666017205E+02  0.14770870084E+02  0.51100000000E-03 0. -1.
        -11    1    3    3    0    0  0.83551370475E+01 -0.17218646310E+02 -0.47227885584E+01  0.19712808726E+02  0.51100000000E-03 0.  1.
         12    1    3    3    0    0  0.33071367356E+01  0.36863126308E+02 -0.85142109313E+01  0.37977875433E+02  0.00000000000E+00 0. -1.
</event>
<event>
 7    1  0.1465498E-013  0.7246153E+02  0.7816164E-02  0.1226708E+00
        -11   -1    0    0    0    0  0.00000000000E+00  0.00000000000E+00  0.45593999997E+02  0.45594000000E+02  0.51100000000E-03 0. -1.
         11   -1    0    0    0    0 -0.00000000000E+00 -0.00000000000E+00 -0.45593999997E+02  0.45594000000E+02  0.51100000000E-03 0.  1.
    9900012    2    1    2    0    0  0.10935262599E+02 -0.18140227459E+01 -0.15093372602E+02  0.72461533619E+02  0.69999952223E+02 0.  0.
         12    1    1    2    0    0 -0.10935262599E+02  0.18140227459E+01  0.15093372602E+02  0.18726466381E+02  0.00000000000E+00 0. -1.
         11    1    3    3    0    0 -0.17511736667E+02 -0.34806245870E+01 -0.93590490466E+01  0.20158558180E+02  0.51100000000E-03 0.  1.
        -11    1    3    3    0    0  0.16744605235E+01 -0.17489946500E+02 -0.79986950973E+01  0.19304951959E+02  0.51100000000E-03 0. -1.
        -12    1    3    3    0    0  0.26772538742E+02  0.19156548341E+02  0.22643715418E+01  0.32998023479E+02  0.00000000000E+00 0.  1.
</event>
<event>
 7    1  0.1465498E-013  0.7246153E+02  0.7816164E-02  0.1226708E+00
        -11   -1    0    0    0    0  0.00000000000E+00  0.00000000000E+00  0.45593999997E+02  0.45594000000E+02  0.51100000000E-03 0.  1.
         11   -1    0    0    0    0 -0.00000000000E+00 -0.00000000000E+00 -0.45593999997E+02  0.45594000000E+02  0.51100000000E-03 0. -1.
    9900012    2    1    2    0    0  0.10382529853E+02  0.30358057916E+01  0.15286196791E+02  0.72461525284E+02  0.69999941366E+02 0.  0.
         12    1    1    2    0    0 -0.10382529853E+02 -0.30358057916E+01 -0.15286196791E+02  0.18726474716E+02  0.00000000000E+00 0. -1.
         11    1    3    3    0    0 -0.21056744962E+01  0.11624419655E+02 -0.68743146910E+01  0.13668108872E+02  0.51100000000E-03 0. -1.
        -11    1    3    3    0    0  0.63836424830E+01  0.47956515226E+01 -0.16007713401E+02  0.17888433511E+02  0.51100000000E-03 0.  1.
        -12    1    3    3    0    0  0.61045618663E+01 -0.13384265386E+02  0.38168224883E+02  0.40904982902E+02  0.00000000000E+00 0.  1.
</event>
<event>
 7    1  0.1465498E-013  0.7246161E+02  0.7816164E-02  0.1226708E+00
        -11   -1    0    0    0    0  0.00000000000E+00  0.00000000000E+00  0.45593999997E+02  0.45594000000E+02  0.51100000000E-03 0.  1.
         11   -1    0    0    0    0 -0.00000000000E+00 -0.00000000000E+00 -0.45593999997E+02  0.45594000000E+02  0.51100000000E-03 0. -1.
    9900012    2    1    2    0    0  0.13443801116E+02  0.61915630097E+01  0.11471986431E+02  0.72461609167E+02  0.70000050639E+02 0.  0.
         12    1    1    2    0    0 -0.13443801116E+02 -0.61915630097E+01 -0.11471986431E+02  0.18726390833E+02  0.00000000000E+00 0. -1.
         11    1    3    3    0    0  0.19462713033E+01 -0.81151172932E+01 -0.17107221647E+02  0.19034183287E+02  0.51100000000E-03 0. -1.
        -11    1    3    3    0    0 -0.59592409570E+01 -0.86305384797E+01 -0.27629995565E+01  0.10845870829E+02  0.51100000000E-03 0.  1.
        -12    1    3    3    0    0  0.17456770770E+02  0.22937218783E+02  0.31342207634E+02  0.42581555051E+02  0.00000000000E+00 0.  1.
</event>
<event>
 7    1  0.1465498E-013  0.7246158E+02  0.7816164E-02  0.1226708E+00
        -11   -1    0    0    0    0  0.00000000000E+00  0.00000000000E+00  0.45593999997E+02  0.45594000000E+02  0.51100000000E-03 0. -1.
         11   -1    0    0    0    0 -0.00000000000E+00 -0.00000000000E+00 -0.45593999997E+02  0.45594000000E+02  0.51100000000E-03 0.  1.
    9900012    2    1    2    0    0 -0.12349194739E+02 -0.10431101762E+01 -0.14038803736E+02  0.72461582834E+02  0.70000016335E+02 0.  0.
         12    1    1    2    0    0  0.12349194739E+02  0.10431101762E+01  0.14038803736E+02  0.18726417166E+02  0.00000000000E+00 0. -1.
         11    1    3    3    0    0  0.13145996012E+02 -0.30934188305E+01 -0.11788284819E+01  0.13556403950E+02  0.51100000000E-03 0. -1.
        -11    1    3    3    0    0 -0.13568854912E+02 -0.23392347368E+02 -0.14636822764E+02  0.30749834470E+02  0.51100000000E-03 0.  1.
         12    1    3    3    0    0 -0.11926335839E+02  0.25442656022E+02  0.17768475104E+01  0.28155344414E+02  0.00000000000E+00 0. -1.
</event>
<event>
 7    1  0.1465498E-013  0.7246155E+02  0.7816164E-02  0.1226708E+00
        -11   -1    0    0    0    0  0.00000000000E+00  0.00000000000E+00  0.45593999997E+02  0.45594000000E+02  0.51100000000E-03 0.  1.
         11   -1    0    0    0    0 -0.00000000000E+00 -0.00000000000E+00 -0.45593999997E+02  0.45594000000E+02  0.51100000000E-03 0. -1.
    9900012    2    1    2    0    0 -0.15412524614E+02  0.16625497643E+01  0.10505711453E+02  0.72461549193E+02  0.69999972511E+02 0.  0.
         12    1    1    2    0    0  0.15412524614E+02 -0.16625497643E+01 -0.10505711453E+02  0.18726450807E+02  0.00000000000E+00 0. -1.
         11    1    3    3    0    0 -0.81946069715E+01  0.49030600141E+01  0.19114136097E+02  0.21366838323E+02  0.51100000000E-03 0. -1.
        -11    1    3    3    0    0  0.47892526249E+01  0.72278718107E+01  0.18058467004E+02  0.20032156709E+02  0.51100000000E-03 0.  1.
         12    1    3    3    0    0 -0.12007170268E+02 -0.10468382061E+02 -0.26666891648E+02  0.31062554161E+02  0.00000000000E+00 0. -1.
</event>
<event>
 7    1  0.1465498E-013  0.7246154E+02  0.7816164E-02  0.1226708E+00
        -11   -1    0    0    0    0  0.00000000000E+00  0.00000000000E+00  0.45593999997E+02  0.45594000000E+02  0.51100000000E-03 0. -1.
         11   -1    0    0    0    0 -0.00000000000E+00 -0.00000000000E+00 -0.45593999997E+02  0.45594000000E+02  0.51100000000E-03 0.  1.
    9900012    2    1    2    0    0 -0.76782594874E+01  0.16849405411E+02  0.27967997836E+01  0.72461542234E+02  0.69999963446E+02 0.  0.
         12    1    1    2    0    0  0.76782594874E+01 -0.16849405411E+02 -0.27967997836E+01  0.18726457766E+02  0.00000000000E+00 0. -1.
         11    1    3    3    0    0 -0.10149585787E+02  0.93325895935E+01  0.15139214933E+02  0.20476990727E+02  0.51100000000E-03 0. -1.
        -11    1    3    3    0    0  0.36732741713E+01  0.21562467375E+02  0.11177476088E+02  0.24563568845E+02  0.51100000000E-03 0.  1.
        -12    1    3    3    0    0 -0.12019478716E+01 -0.14045651558E+02 -0.23519891237E+02  0.27420982662E+02  0.00000000000E+00 0.  1.
</event>
<event>
 7    1  0.1465498E-013  0.7246157E+02  0.7816164E-02  0.1226708E+00
        -11   -1    0    0    0    0  0.00000000000E+00  0.00000000000E+00  0.45593999997E+02  0.45594000000E+02  0.51100000000E-03 0.  1.
         11   -1    0    0    0    0 -0.00000000000E+00 -0.00000000000E+00 -0.45593999997E+02  0.45594000000E+02  0.51100000000E-03 0. -1.
    9900012    2    1    2    0    0 -0.10645866609E+02  0.65487216362E+01  0.13944856571E+02  0.72461567993E+02  0.69999997002E+02 0.  0.
         12    1    1    2    0    0  0.10645866609E+02 -0.65487216362E+01 -0.13944856571E+02  0.18726432007E+02  0.00000000000E+00 0. -1.
         11    1    3    3    0    0 -0.60895700740E+01  0.16643909887E+02  0.79264171769E+01  0.19414702922E+02  0.51100000000E-03 0. -1.
        -11    1    3    3    0    0  0.10305733217E+02 -0.78519904343E+01  0.25403969093E+02  0.28517074479E+02  0.51100000000E-03 0.  1.
         12    1    3    3    0    0 -0.14862029752E+02 -0.22431978166E+01 -0.19385529699E+02  0.24529790593E+02  0.00000000000E+00 0. -1.
</event>
<event>
 7    1  0.1465498E-013  0.7246156E+02  0.7816164E-02  0.1226708E+00
        -11   -1    0    0    0    0  0.00000000000E+00  0.00000000000E+00  0.45593999997E+02  0.45594000000E+02  0.51100000000E-03 0.  1.
         11   -1    0    0    0    0 -0.00000000000E+00 -0.00000000000E+00 -0.45593999997E+02  0.45594000000E+02  0.51100000000E-03 0. -1.
    9900012    2    1    2    0    0  0.14154977204E+02 -0.26608295605E+01  0.11968128060E+02  0.72461561928E+02  0.69999989102E+02 0.  0.
         12    1    1    2    0    0 -0.14154977204E+02  0.26608295605E+01 -0.11968128060E+02  0.18726438072E+02  0.00000000000E+00 0. -1.
         11    1    3    3    0    0  0.90760251516E+01  0.22752911179E+02 -0.14690357560E+02  0.28563539787E+02  0.51100000000E-03 0. -1.
        -11    1    3    3    0    0 -0.14996104299E+01  0.35030698016E+01 -0.29734861991E+00  0.38221389220E+01  0.51100000000E-03 0.  1.
        -12    1    3    3    0    0  0.65785624821E+01 -0.28916810541E+02  0.26955834240E+02  0.40075883219E+02  0.00000000000E+00 0.  1.
</event>
<event>
 7    1  0.1465498E-013  0.7246163E+02  0.7816164E-02  0.1226708E+00
        -11   -1    0    0    0    0  0.00000000000E+00  0.00000000000E+00  0.45593999997E+02  0.45594000000E+02  0.51100000000E-03 0. -1.
         11   -1    0    0    0    0 -0.00000000000E+00 -0.00000000000E+00 -0.45593999997E+02  0.45594000000E+02  0.51100000000E-03 0.  1.
    9900012    2    1    2    0    0 -0.30469039984E+00  0.10571985857E+02 -0.15453711790E+02  0.72461630109E+02  0.70000077920E+02 0.  0.
         12    1    1    2    0    0  0.30469039984E+00 -0.10571985857E+02  0.15453711790E+02  0.18726369891E+02  0.00000000000E+00 0. -1.
         11    1    3    3    0    0  0.61669580383E+00  0.21015043076E+02  0.55853852850E+01  0.21753364757E+02  0.51100000000E-03 0. -1.
        -11    1    3    3    0    0  0.90455864407E+01  0.15449995988E+02 -0.47012065989E+01  0.18510168930E+02  0.51100000000E-03 0.  1.
        -12    1    3    3    0    0 -0.99669726444E+01 -0.25893053206E+02 -0.16337890476E+02  0.32198096423E+02  0.00000000000E+00 0.  1.
</event>
<event>
 7    1  0.1465498E-013  0.7246148E+02  0.7816164E-02  0.1226708E+00
        -11   -1    0    0    0    0  0.00000000000E+00  0.00000000000E+00  0.45593999997E+02  0.45594000000E+02  0.51100000000E-03 0. -1.
         11   -1    0    0    0    0 -0.00000000000E+00 -0.00000000000E+00 -0.45593999997E+02  0.45594000000E+02  0.51100000000E-03 0.  1.
    9900012    2    1    2    0    0 -0.13064548904E+01  0.12509739372E+02 -0.13873798670E+02  0.72461476215E+02  0.69999877444E+02 0.  0.
         12    1    1    2    0    0  0.13064548904E+01 -0.12509739372E+02  0.13873798670E+02  0.18726523785E+02  0.00000000000E+00 0. -1.
         11    1    3    3    0    0 -0.10789507765E+02  0.15070432879E+02 -0.13784457052E+02  0.23098542843E+02  0.51100000000E-03 0. -1.
        -11    1    3    3    0    0 -0.59583103419E+01  0.74504190317E+01 -0.20055931169E+02  0.22209245399E+02  0.51100000000E-03 0.  1.
         12    1    3    3    0    0  0.15441363217E+02 -0.10011112539E+02  0.19966589551E+02  0.27153687973E+02  0.00000000000E+00 0. -1.
</event>
<event>
 7    1  0.1465498E-013  0.7246161E+02  0.7816164E-02  0.1226708E+00
        -11   -1    0    0    0    0  0.00000000000E+00  0.00000000000E+00  0.45593999997E+02  0.45594000000E+02  0.51100000000E-03 0.  1.
         11   -1    0    0    0    0 -0.00000000000E+00 -0.00000000000E+00 -0.45593999997E+02  0.45594000000E+02  0.51100000000E-03 0. -1.
    9900012    2    1    2    0    0 -0.39366439807E+01  0.16891080316E+02  0.70619956512E+01  0.72461613732E+02  0.70000056585E+02 0.  0.
         12    1    1    2    0    0  0.39366439807E+01 -0.16891080316E+02 -0.70619956512E+01  0.18726386268E+02  0.00000000000E+00 0. -1.
         11    1    3    3    0    0 -0.26562637725E+02  0.55086151441E+01 -0.62613641622E+01  0.27841035275E+02  0.51100000000E-03 0. -1.
        -11    1    3    3    0    0 -0.81248670191E+01 -0.29600997997E+01  0.23920754789E+01  0.89720499475E+01  0.51100000000E-03 0.  1.
        -12    1    3    3    0    0  0.30750860764E+02  0.14342564972E+02  0.10931284334E+02  0.35648528510E+02  0.00000000000E+00 0.  1.
</event>
<event>
 7    1  0.1465498E-013  0.7246149E+02  0.7816164E-02  0.1226708E+00
        -11   -1    0    0    0    0  0.00000000000E+00  0.00000000000E+00  0.45593999997E+02  0.45594000000E+02  0.51100000000E-03 0.  1.
         11   -1    0    0    0    0 -0.00000000000E+00 -0.00000000000E+00 -0.45593999997E+02  0.45594000000E+02  0.51100000000E-03 0. -1.
    9900012    2    1    2    0    0  0.79372357445E+01 -0.17552659092E+01  0.16870135532E+02  0.72461490914E+02  0.69999896592E+02 0.  0.
         12    1    1    2    0    0 -0.79372357445E+01  0.17552659092E+01 -0.16870135532E+02  0.18726509086E+02  0.00000000000E+00 0. -1.
         11    1    3    3    0    0 -0.18419857602E+02 -0.58364186018E+01  0.74655960701E+01  0.20714489159E+02  0.51100000000E-03 0. -1.
        -11    1    3    3    0    0  0.11542608665E+02  0.19279818850E+02  0.18056803781E+02  0.28826921319E+02  0.51100000000E-03 0.  1.
        -12    1    3    3    0    0  0.14814484681E+02 -0.15198666157E+02 -0.86522643191E+01  0.22920080436E+02  0.00000000000E+00 0.  1.
</event>
<event>
 7    1  0.1465498E-013  0.7246158E+02  0.7816164E-02  0.1226708E+00
        -11   -1    0    0    0    0  0.00000000000E+00  0.00000000000E+00  0.45593999997E+02  0.45594000000E+02  0.51100000000E-03 0.  1.
         11   -1    0    0    0    0 -0.00000000000E+00 -0.00000000000E+00 -0.45593999997E+02  0.45594000000E+02  0.51100000000E-03 0. -1.
    9900012    2    1    2    0    0  0.33875931594E+01 -0.16135033283E+02  0.88805213262E+01  0.72461581616E+02  0.70000014749E+02 0.  0.
         12    1    1    2    0    0 -0.33875931594E+01  0.16135033283E+02 -0.88805213262E+01  0.18726418384E+02  0.00000000000E+00 0. -1.
         11    1    3    3    0    0  0.21727649072E+02 -0.18227490481E+02 -0.26138260740E+00  0.28361954527E+02  0.51100000000E-03 0. -1.
        -11    1    3    3    0    0  0.21965041706E+01 -0.37885550339E+01  0.19763353119E+02  0.20242724781E+02  0.51100000000E-03 0.  1.
         12    1    3    3    0    0 -0.20536560083E+02  0.58810122319E+01 -0.10621449185E+02  0.23856902308E+02  0.00000000000E+00 0. -1.
</event>
<event>
 7    1  0.1465498E-013  0.7246159E+02  0.7816164E-02  0.1226708E+00
        -11   -1    0    0    0    0  0.00000000000E+00  0.00000000000E+00  0.45593999997E+02  0.45594000000E+02  0.51100000000E-03 0. -1.
         11   -1    0    0    0    0 -0.00000000000E+00 -0.00000000000E+00 -0.45593999997E+02  0.45594000000E+02  0.51100000000E-03 0.  1.
    9900012    2    1    2    0    0 -0.75268668579E+01  0.14729050123E+02 -0.87795053124E+01  0.72461592022E+02  0.70000028304E+02 0.  0.
         12    1    1    2    0    0  0.75268668579E+01 -0.14729050123E+02  0.87795053124E+01  0.18726407978E+02  0.00000000000E+00 0. -1.
         11    1    3    3    0    0  0.85838353843E+01 -0.15006534755E+01  0.84181868233E+01  0.12116107478E+02  0.51100000000E-03 0. -1.
        -11    1    3    3    0    0  0.81322666386E+01  0.23998306901E+02 -0.23016427003E+02  0.34231687178E+02  0.51100000000E-03 0.  1.
         12    1    3    3    0    0 -0.24242968881E+02 -0.77686033023E+01  0.58187348677E+01  0.26113797366E+02  0.00000000000E+00 0. -1.
</event>
<event>
 7    1  0.1465498E-013  0.7246159E+02  0.7816164E-02  0.1226708E+00
        -11   -1    0    0    0    0  0.00000000000E+00  0.00000000000E+00  0.45593999997E+02  0.45594000000E+02  0.51100000000E-03 0. -1.
         11   -1    0    0    0    0 -0.00000000000E+00 -0.00000000000E+00 -0.45593999997E+02  0.45594000000E+02  0.51100000000E-03 0.  1.
    9900012    2    1    2    0    0  0.88924751099E+01  0.66607020328E+01 -0.15074395000E+02  0.72461589512E+02  0.70000025035E+02 0.  0.
         12    1    1    2    0    0 -0.88924751099E+01 -0.66607020328E+01  0.15074395000E+02  0.18726410488E+02  0.00000000000E+00 0. -1.
         11    1    3    3    0    0  0.72819042889E+00  0.31023037930E+01  0.12275314672E+02  0.12682188324E+02  0.51100000000E-03 0. -1.
        -11    1    3    3    0    0  0.23653523373E+02  0.16704448255E+02 -0.46708257728E+01  0.29331627523E+02  0.51100000000E-03 0.  1.
        -12    1    3    3    0    0 -0.15489238692E+02 -0.13146050016E+02 -0.22678883899E+02  0.30447773665E+02  0.00000000000E+00 0.  1.
</event>
<event>
 7    1  0.1465498E-013  0.7246145E+02  0.7816164E-02  0.1226708E+00
        -11   -1    0    0    0    0  0.00000000000E+00  0.00000000000E+00  0.45593999997E+02  0.45594000000E+02  0.51100000000E-03 0. -1.
         11   -1    0    0    0    0 -0.00000000000E+00 -0.00000000000E+00 -0.45593999997E+02  0.45594000000E+02  0.51100000000E-03 0.  1.
    9900012    2    1    2    0    0  0.81165330215E+01 -0.16262892433E+02 -0.45082215622E+01  0.72461445586E+02  0.69999837544E+02 0.  0.
         12    1    1    2    0    0 -0.81165330215E+01  0.16262892433E+02  0.45082215622E+01  0.18726554414E+02  0.00000000000E+00 0. -1.
         11    1    3    3    0    0 -0.34477725490E+01  0.82356713081E+01 -0.16794819936E+02  0.19020499320E+02  0.51100000000E-03 0. -1.
        -11    1    3    3    0    0  0.83801407277E+01  0.11632603539E+02  0.92084608474E+01  0.17039365456E+02  0.51100000000E-03 0.  1.
        -12    1    3    3    0    0  0.31841648429E+01 -0.36131167280E+02  0.30781375262E+01  0.36401580809E+02  0.00000000000E+00 0.  1.
</event>
<event>
 7    1  0.1465498E-013  0.7246175E+02  0.7816164E-02  0.1226708E+00
        -11   -1    0    0    0    0  0.00000000000E+00  0.00000000000E+00  0.45593999997E+02  0.45594000000E+02  0.51100000000E-03 0.  1.
         11   -1    0    0    0    0 -0.00000000000E+00 -0.00000000000E+00 -0.45593999997E+02  0.45594000000E+02  0.51100000000E-03 0. -1.
    9900012    2    1    2    0    0 -0.42502992182E+01  0.17640640034E+02  0.46276706986E+01  0.72461746761E+02  0.70000229881E+02 0.  0.
         12    1    1    2    0    0  0.42502992182E+01 -0.17640640034E+02 -0.46276706986E+01  0.18726253239E+02  0.00000000000E+00 0. -1.
         11    1    3    3    0    0  0.42444054826E+01  0.16987048713E+02  0.17973249179E+01  0.17601283448E+02  0.51100000000E-03 0. -1.
        -11    1    3    3    0    0 -0.25881332145E+02  0.15103753068E+02 -0.60510545847E+01  0.30570933453E+02  0.51100000000E-03 0.  1.
         12    1    3    3    0    0  0.17386627444E+02 -0.14450161747E+02  0.88814003654E+01  0.24289529861E+02  0.00000000000E+00 0. -1.
</event>
<event>
 7    1  0.1465498E-013  0.7246158E+02  0.7816164E-02  0.1226708E+00
        -11   -1    0    0    0    0  0.00000000000E+00  0.00000000000E+00  0.45593999997E+02  0.45594000000E+02  0.51100000000E-03 0. -1.
         11   -1    0    0    0    0 -0.00000000000E+00 -0.00000000000E+00 -0.45593999997E+02  0.45594000000E+02  0.51100000000E-03 0.  1.
    9900012    2    1    2    0    0 -0.79539619061E+01 -0.16818233209E+02 -0.21355062046E+01  0.72461578424E+02  0.70000010591E+02 0.  0.
         12    1    1    2    0    0  0.79539619061E+01  0.16818233209E+02  0.21355062046E+01  0.18726421576E+02  0.00000000000E+00 0. -1.
         11    1    3    3    0    0 -0.12207250348E+02  0.31698613637E+01 -0.22253941527E+01  0.12806926310E+02  0.51100000000E-03 0. -1.
        -11    1    3    3    0    0  0.26482891528E+01  0.19658458016E+02 -0.18926593772E+01  0.19926127742E+02  0.51100000000E-03 0.  1.
         12    1    3    3    0    0  0.16049992891E+01 -0.39646552589E+02  0.19825473253E+01  0.39728524372E+02  0.00000000000E+00 0. -1.
</event>
<event>
 7    1  0.1465498E-013  0.7246159E+02  0.7816164E-02  0.1226708E+00
        -11   -1    0    0    0    0  0.00000000000E+00  0.00000000000E+00  0.45593999997E+02  0.45594000000E+02  0.51100000000E-03 0.  1.
         11   -1    0    0    0    0 -0.00000000000E+00 -0.00000000000E+00 -0.45593999997E+02  0.45594000000E+02  0.51100000000E-03 0. -1.
    9900012    2    1    2    0    0 -0.55964671178E+01 -0.17614430247E+02 -0.30149490900E+01  0.72461587767E+02  0.70000022761E+02 0.  0.
         12    1    1    2    0    0  0.55964671178E+01  0.17614430247E+02  0.30149490900E+01  0.18726412233E+02  0.00000000000E+00 0. -1.
         11    1    3    3    0    0 -0.19625600276E+02  0.77121346842E+01  0.99079709717E+01  0.23298263811E+02  0.51100000000E-03 0. -1.
        -11    1    3    3    0    0 -0.70173249999E+01  0.40142767272E+01 -0.10110516451E+02  0.12945262105E+02  0.51100000000E-03 0.  1.
        -12    1    3    3    0    0  0.21046458158E+02 -0.29340841658E+02 -0.28124036111E+01  0.36218061851E+02  0.00000000000E+00 0.  1.
</event>
<event>
 7    1  0.1465498E-013  0.7246161E+02  0.7816164E-02  0.1226708E+00
        -11   -1    0    0    0    0  0.00000000000E+00  0.00000000000E+00  0.45593999997E+02  0.45594000000E+02  0.51100000000E-03 0.  1.
         11   -1    0    0    0    0 -0.00000000000E+00 -0.00000000000E+00 -0.45593999997E+02  0.45594000000E+02  0.51100000000E-03 0. -1.
    9900012    2    1    2    0    0  0.11672479301E+02  0.75702081284E+01 -0.12534864592E+02  0.72461610747E+02  0.70000052697E+02 0.  0.
         12    1    1    2    0    0 -0.11672479301E+02 -0.75702081284E+01  0.12534864592E+02  0.18726389253E+02  0.00000000000E+00 0. -1.
         11    1    3    3    0    0  0.59073081621E+01 -0.69980265933E+01  0.22974607918E+02  0.24732595399E+02  0.51100000000E-03 0. -1.
        -11    1    3    3    0    0  0.10149979765E+02 -0.20689858389E+01 -0.27361774058E+01  0.10713984258E+02  0.51100000000E-03 0.  1.
         12    1    3    3    0    0 -0.43848086259E+01  0.16637220561E+02 -0.32773295103E+02  0.37015031090E+02  0.00000000000E+00 0. -1.
</event>
<event>
 7    1  0.1465498E-013  0.7246159E+02  0.7816164E-02  0.1226708E+00
        -11   -1    0    0    0    0  0.00000000000E+00  0.00000000000E+00  0.45593999997E+02  0.45594000000E+02  0.51100000000E-03 0.  1.
         11   -1    0    0    0    0 -0.00000000000E+00 -0.00000000000E+00 -0.45593999997E+02  0.45594000000E+02  0.51100000000E-03 0. -1.
    9900012    2    1    2    0    0  0.15382126576E+01 -0.12537010913E+02  0.13825180330E+02  0.72461592123E+02  0.70000028436E+02 0.  0.
         12    1    1    2    0    0 -0.15382126576E+01  0.12537010913E+02 -0.13825180330E+02  0.18726407877E+02  0.00000000000E+00 0. -1.
         11    1    3    3    0    0 -0.32719962743E+00 -0.50789527602E+01 -0.27799483082E+01  0.57992183606E+01  0.51100000000E-03 0. -1.
        -11    1    3    3    0    0  0.31601494415E+02 -0.13178528353E+02  0.99901830352E+01  0.35666956923E+02  0.51100000000E-03 0.  1.
         12    1    3    3    0    0 -0.29736082130E+02  0.57204702006E+01  0.66149456030E+01  0.30995416840E+02  0.00000000000E+00 0. -1.
</event>
<event>
 7    1  0.1465498E-013  0.7246157E+02  0.7816164E-02  0.1226708E+00
        -11   -1    0    0    0    0  0.00000000000E+00  0.00000000000E+00  0.45593999997E+02  0.45594000000E+02  0.51100000000E-03 0. -1.
         11   -1    0    0    0    0 -0.00000000000E+00 -0.00000000000E+00 -0.45593999997E+02  0.45594000000E+02  0.51100000000E-03 0.  1.
    9900012    2    1    2    0    0  0.14391379299E+02 -0.47809151912E+01  0.10986824807E+02  0.72461567677E+02  0.69999996591E+02 0.  0.
         12    1    1    2    0    0 -0.14391379299E+02  0.47809151912E+01 -0.10986824807E+02  0.18726432323E+02  0.00000000000E+00 0. -1.
         11    1    3    3    0    0 -0.15640135488E+01  0.38615885139E+01  0.17809630669E+02  0.18290460603E+02  0.51100000000E-03 0. -1.
        -11    1    3    3    0    0  0.19682438533E+01 -0.25090578498E+02  0.97113318477E+01  0.26976305895E+02  0.51100000000E-03 0.  1.
         12    1    3    3    0    0  0.13987148995E+02  0.16448074793E+02 -0.16534137710E+02  0.27194801180E+02  0.00000000000E+00 0. -1.
</event>
<event>
 7    1  0.1465498E-013  0.7246153E+02  0.7816164E-02  0.1226708E+00
        -11   -1    0    0    0    0  0.00000000000E+00  0.00000000000E+00  0.45593999997E+02  0.45594000000E+02  0.51100000000E-03 0.  1.
         11   -1    0    0    0    0 -0.00000000000E+00 -0.00000000000E+00 -0.45593999997E+02  0.45594000000E+02  0.51100000000E-03 0. -1.
    9900012    2    1    2    0    0 -0.13441158017E+02  0.10510554303E+02  0.77164833435E+01  0.72461532213E+02  0.69999950392E+02 0.  0.
         12    1    1    2    0    0  0.13441158017E+02 -0.10510554303E+02 -0.77164833435E+01  0.18726467787E+02  0.00000000000E+00 0. -1.
         11    1    3    3    0    0  0.91366035324E+01  0.57691996503E-01 -0.86305531397E+01  0.12568504296E+02  0.51100000000E-03 0. -1.
        -11    1    3    3    0    0  0.18753322547E+01  0.26973584534E+02  0.20915896947E+01  0.27119474209E+02  0.51100000000E-03 0.  1.
        -12    1    3    3    0    0 -0.24453093804E+02 -0.16520722227E+02  0.14255446788E+02  0.32773553708E+02  0.00000000000E+00 0.  1.
</event>
<event>
 7    1  0.1465498E-013  0.7246158E+02  0.7816164E-02  0.1226708E+00
        -11   -1    0    0    0    0  0.00000000000E+00  0.00000000000E+00  0.45593999997E+02  0.45594000000E+02  0.51100000000E-03 0.  1.
         11   -1    0    0    0    0 -0.00000000000E+00 -0.00000000000E+00 -0.45593999997E+02  0.45594000000E+02  0.51100000000E-03 0. -1.
    9900012    2    1    2    0    0 -0.18140447245E+02 -0.43805158145E+00  0.46272207802E+01  0.72461577822E+02  0.70000009806E+02 0.  0.
         12    1    1    2    0    0  0.18140447245E+02  0.43805158145E+00 -0.46272207802E+01  0.18726422178E+02  0.00000000000E+00 0. -1.
         11    1    3    3    0    0 -0.28295901886E+02 -0.65945828650E+01 -0.61096080218E+01  0.29689626086E+02  0.51100000000E-03 0. -1.
        -11    1    3    3    0    0 -0.47202963138E+01 -0.14878038599E+02  0.32588492594E+01  0.15945448523E+02  0.51100000000E-03 0.  1.
        -12    1    3    3    0    0  0.14875750954E+02  0.21034569882E+02  0.74779795426E+01  0.26826503213E+02  0.00000000000E+00 0.  1.
</event>
<event>
 7    1  0.1465498E-013  0.7246157E+02  0.7816164E-02  0.1226708E+00
        -11   -1    0    0    0    0  0.00000000000E+00  0.00000000000E+00  0.45593999997E+02  0.45594000000E+02  0.51100000000E-03 0.  1.
         11   -1    0    0    0    0 -0.00000000000E+00 -0.00000000000E+00 -0.45593999997E+02  0.45594000000E+02  0.51100000000E-03 0. -1.
    9900012    2    1    2    0    0 -0.14393030660E+02 -0.31920314436E+01  0.11546890328E+02  0.72461572884E+02  0.70000003373E+02 0.  0.
         12    1    1    2    0    0  0.14393030660E+02  0.31920314436E+01 -0.11546890328E+02  0.18726427116E+02  0.00000000000E+00 0. -1.
         11    1    3    3    0    0  0.14534917924E+02 -0.86061465547E+01  0.40975619048E+01  0.17381588287E+02  0.51100000000E-03 0. -1.
        -11    1    3    3    0    0  0.34816357743E+01  0.17397794216E+02 -0.48641323442E+01  0.18397413269E+02  0.51100000000E-03 0.  1.
         12    1    3    3    0    0 -0.32409584357E+02 -0.11983679105E+02  0.12313460767E+02  0.36682571327E+02  0.00000000000E+00 0. -1.
</event>
<event>
 7    1  0.1465498E-013  0.7246157E+02  0.7816164E-02  0.1226708E+00
        -11   -1    0    0    0    0  0.00000000000E+00  0.00000000000E+00  0.45593999997E+02  0.45594000000E+02  0.51100000000E-03 0.  1.
         11   -1    0    0    0    0 -0.00000000000E+00 -0.00000000000E+00 -0.45593999997E+02  0.45594000000E+02  0.51100000000E-03 0. -1.
    9900012    2    1    2    0    0 -0.71099165850E+01  0.14709659355E+02  0.91517297807E+01  0.72461570811E+02  0.70000000673E+02 0.  0.
         12    1    1    2    0    0  0.71099165850E+01 -0.14709659355E+02 -0.91517297807E+01  0.18726429189E+02  0.00000000000E+00 0. -1.
         11    1    3    3    0    0 -0.59907033055E+01  0.22881469084E+02 -0.26042098412E+01  0.23795631168E+02  0.51100000000E-03 0. -1.
        -11    1    3    3    0    0 -0.77684310867E+01  0.17897704368E+02  0.94046616722E+01  0.21659270639E+02  0.51100000000E-03 0.  1.
        -12    1    3    3    0    0  0.66492178072E+01 -0.26069514096E+02  0.23512779497E+01  0.27006669004E+02  0.00000000000E+00 0.  1.
</event>
<event>
 7    1  0.1465498E-013  0.7246160E+02  0.7816164E-02  0.1226708E+00
        -11   -1    0    0    0    0  0.00000000000E+00  0.00000000000E+00  0.45593999997E+02  0.45594000000E+02  0.51100000000E-03 0.  1.
         11   -1    0    0    0    0 -0.00000000000E+00 -0.00000000000E+00 -0.45593999997E+02  0.45594000000E+02  0.51100000000E-03 0. -1.
    9900012    2    1    2    0    0  0.78337858689E+01 -0.14728100326E+02  0.85084055550E+01  0.72461598708E+02  0.70000037014E+02 0.  0.
         12    1    1    2    0    0 -0.78337858689E+01  0.14728100326E+02 -0.85084055550E+01  0.18726401292E+02  0.00000000000E+00 0. -1.
         11    1    3    3    0    0  0.73846296480E+01  0.39146743480E+01  0.73236083260E+01  0.11112725564E+02  0.51100000000E-03 0. -1.
        -11    1    3    3    0    0  0.87629125861E+01  0.19919406021E+02  0.23150379084E+01  0.21884487062E+02  0.51100000000E-03 0.  1.
         12    1    3    3    0    0 -0.83137563652E+01 -0.38562180695E+02 -0.11302406794E+01  0.39464386082E+02  0.00000000000E+00 0. -1.
</event>
<event>
 7    1  0.1465498E-013  0.7246155E+02  0.7816164E-02  0.1226708E+00
        -11   -1    0    0    0    0  0.00000000000E+00  0.00000000000E+00  0.45593999997E+02  0.45594000000E+02  0.51100000000E-03 0.  1.
         11   -1    0    0    0    0 -0.00000000000E+00 -0.00000000000E+00 -0.45593999997E+02  0.45594000000E+02  0.51100000000E-03 0. -1.
    9900012    2    1    2    0    0  0.82799844563E+01  0.14736684451E+01  0.16731710005E+02  0.72461549162E+02  0.69999972472E+02 0.  0.
         12    1    1    2    0    0 -0.82799844563E+01 -0.14736684451E+01 -0.16731710005E+02  0.18726450838E+02  0.00000000000E+00 0. -1.
         11    1    3    3    0    0  0.11107676762E+02  0.11985010976E+00 -0.42996689510E+01  0.11911423107E+02  0.51100000000E-03 0.  1.
        -11    1    3    3    0    0  0.26065088937E+02  0.12105274151E+01  0.17554364684E+02  0.31448528703E+02  0.51100000000E-03 0. -1.
        -12    1    3    3    0    0 -0.28892781242E+02  0.14329092021E+00  0.34770142724E+01  0.29101597352E+02  0.00000000000E+00 0.  1.
</event>
<event>
 7    1  0.1465498E-013  0.7246158E+02  0.7816164E-02  0.1226708E+00
        -11   -1    0    0    0    0  0.00000000000E+00  0.00000000000E+00  0.45593999997E+02  0.45594000000E+02  0.51100000000E-03 0.  1.
         11   -1    0    0    0    0 -0.00000000000E+00 -0.00000000000E+00 -0.45593999997E+02  0.45594000000E+02  0.51100000000E-03 0. -1.
    9900012    2    1    2    0    0 -0.97051890697E+00  0.13035672910E+02 -0.13409259066E+02  0.72461577388E+02  0.70000009241E+02 0.  0.
         12    1    1    2    0    0  0.97051890697E+00 -0.13035672910E+02  0.13409259066E+02  0.18726422612E+02  0.00000000000E+00 0. -1.
         11    1    3    3    0    0  0.21560003326E+02  0.21115703783E+02  0.32783332647E+01  0.30355463411E+02  0.51100000000E-03 0. -1.
        -11    1    3    3    0    0 -0.13327344076E+02 -0.74451335124E+00  0.74253089819E+01  0.15274410430E+02  0.51100000000E-03 0.  1.
        -12    1    3    3    0    0 -0.92031781566E+01 -0.73355175223E+01 -0.24112901312E+02  0.26831703546E+02  0.00000000000E+00 0.  1.
</event>
<event>
 7    1  0.1563100E-013  0.7246161E+02  0.7816164E-02  0.1226708E+00
        -11   -1    0    0    0    0  0.00000000000E+00  0.00000000000E+00  0.45593999997E+02  0.45594000000E+02  0.51100000000E-03 0. -1.
         11   -1    0    0    0    0 -0.00000000000E+00 -0.00000000000E+00 -0.45593999997E+02  0.45594000000E+02  0.51100000000E-03 0.  1.
    9900012    2    1    2    0    0 -0.10082852413E+02 -0.29480486881E+01 -0.15502345967E+02  0.72461611284E+02  0.70000053396E+02 0.  0.
         12    1    1    2    0    0  0.10082852413E+02  0.29480486881E+01  0.15502345967E+02  0.18726388716E+02  0.00000000000E+00 0. -1.
         11    1    3    3    0    0  0.12208974736E+02 -0.85100245147E+01  0.97934394557E+01  0.17815471871E+02  0.51100000000E-03 0. -1.
        -11    1    3    3    0    0 -0.14772959743E+02 -0.18044121210E+02 -0.90213722442E+01  0.25004315772E+02  0.51100000000E-03 0.  1.
        -12    1    3    3    0    0 -0.75188674071E+01  0.23606097037E+02 -0.16274413179E+02  0.29641823640E+02  0.00000000000E+00 0.  1.
</event>
<event>
 7    1  0.1465498E-013  0.7246157E+02  0.7816164E-02  0.1226708E+00
        -11   -1    0    0    0    0  0.00000000000E+00  0.00000000000E+00  0.45593999997E+02  0.45594000000E+02  0.51100000000E-03 0.  1.
         11   -1    0    0    0    0 -0.00000000000E+00 -0.00000000000E+00 -0.45593999997E+02  0.45594000000E+02  0.51100000000E-03 0. -1.
    9900012    2    1    2    0    0 -0.66592224650E+01  0.16017705829E+02  0.70545744445E+01  0.72461570430E+02  0.70000000177E+02 0.  0.
         12    1    1    2    0    0  0.66592224650E+01 -0.16017705829E+02 -0.70545744445E+01  0.18726429570E+02  0.00000000000E+00 0. -1.
         11    1    3    3    0    0 -0.21709794067E+02  0.17916147017E+02 -0.17192304520E+02  0.32983008009E+02  0.51100000000E-03 0. -1.
        -11    1    3    3    0    0 -0.15454773968E+01 -0.86150466931E+01 -0.69052737187E+00  0.87797698273E+01  0.51100000000E-03 0.  1.
        -12    1    3    3    0    0  0.16596048999E+02  0.67166055052E+01  0.24937406337E+02  0.30698792593E+02  0.00000000000E+00 0.  1.
</event>
<event>
 7    1  0.1465498E-013  0.7246154E+02  0.7816164E-02  0.1226708E+00
        -11   -1    0    0    0    0  0.00000000000E+00  0.00000000000E+00  0.45593999997E+02  0.45594000000E+02  0.51100000000E-03 0.  1.
         11   -1    0    0    0    0 -0.00000000000E+00 -0.00000000000E+00 -0.45593999997E+02  0.45594000000E+02  0.51100000000E-03 0. -1.
    9900012    2    1    2    0    0  0.16248748913E+02 -0.87234283677E+01 -0.32496520230E+01  0.72461540591E+02  0.69999961306E+02 0.  0.
         12    1    1    2    0    0 -0.16248748913E+02  0.87234283677E+01  0.32496520230E+01  0.18726459409E+02  0.00000000000E+00 0. -1.
         11    1    3    3    0    0 -0.36511013128E+01 -0.18005299310E+02  0.33862130003E+00  0.18374874385E+02  0.51100000000E-03 0. -1.
        -11    1    3    3    0    0  0.24862459899E+02  0.65251597668E+01  0.18248893728E+02  0.31523669595E+02  0.51100000000E-03 0.  1.
         12    1    3    3    0    0 -0.49626096726E+01  0.27567111751E+01 -0.21837167051E+02  0.22562996611E+02  0.00000000000E+00 0. -1.
</event>
<event>
 7    1  0.1465498E-013  0.7246172E+02  0.7816164E-02  0.1226708E+00
        -11   -1    0    0    0    0  0.00000000000E+00  0.00000000000E+00  0.45593999997E+02  0.45594000000E+02  0.51100000000E-03 0.  1.
         11   -1    0    0    0    0 -0.00000000000E+00 -0.00000000000E+00 -0.45593999997E+02  0.45594000000E+02  0.51100000000E-03 0. -1.
    9900012    2    1    2    0    0  0.12303034359E+02  0.12974055172E+02 -0.55662142283E+01  0.72461721595E+02  0.70000197097E+02 0.  0.
         12    1    1    2    0    0 -0.12303034359E+02 -0.12974055172E+02  0.55662142283E+01  0.18726278405E+02  0.00000000000E+00 0. -1.
         11    1    3    3    0    0 -0.11292754124E+02 -0.91238662017E+00 -0.10841969800E+02  0.15681423866E+02  0.51100000000E-03 0. -1.
        -11    1    3    3    0    0  0.71755775768E+01 -0.11070330255E+02 -0.15528527343E+02  0.20375875128E+02  0.51100000000E-03 0.  1.
        -12    1    3    3    0    0  0.16420210907E+02  0.24956772048E+02  0.20804282915E+02  0.36404422601E+02  0.00000000000E+00 0.  1.
</event>
<event>
 7    1  0.1465498E-013  0.7246156E+02  0.7816164E-02  0.1226708E+00
        -11   -1    0    0    0    0  0.00000000000E+00  0.00000000000E+00  0.45593999997E+02  0.45594000000E+02  0.51100000000E-03 0. -1.
         11   -1    0    0    0    0 -0.00000000000E+00 -0.00000000000E+00 -0.45593999997E+02  0.45594000000E+02  0.51100000000E-03 0.  1.
    9900012    2    1    2    0    0 -0.80852975114E+01 -0.10498579155E+02  0.13232051630E+02  0.72461564395E+02  0.69999992315E+02 0.  0.
         12    1    1    2    0    0  0.80852975114E+01  0.10498579155E+02 -0.13232051630E+02  0.18726435605E+02  0.00000000000E+00 0. -1.
         11    1    3    3    0    0 -0.29849267215E+01 -0.29230695714E+02  0.27576020667E+01  0.29511823543E+02  0.51100000000E-03 0. -1.
        -11    1    3    3    0    0  0.31570460872E+01 -0.10529852179E+02  0.49116862509E+01  0.12040323459E+02  0.51100000000E-03 0.  1.
        -12    1    3    3    0    0 -0.82574168771E+01  0.29261968738E+02  0.55627633122E+01  0.30909417393E+02  0.00000000000E+00 0.  1.
</event>
<event>
 7    1  0.1465498E-013  0.7246155E+02  0.7816164E-02  0.1226708E+00
        -11   -1    0    0    0    0  0.00000000000E+00  0.00000000000E+00  0.45593999997E+02  0.45594000000E+02  0.51100000000E-03 0.  1.
         11   -1    0    0    0    0 -0.00000000000E+00 -0.00000000000E+00 -0.45593999997E+02  0.45594000000E+02  0.51100000000E-03 0. -1.
    9900012    2    1    2    0    0  0.12580294145E+02 -0.10576484003E+02  0.89751845454E+01  0.72461554735E+02  0.69999979731E+02 0.  0.
         12    1    1    2    0    0 -0.12580294145E+02  0.10576484003E+02 -0.89751845454E+01  0.18726445265E+02  0.00000000000E+00 0. -1.
         11    1    3    3    0    0  0.93328366071E+01  0.86848781758E+01  0.12052805685E+02  0.17544203408E+02  0.51100000000E-03 0. -1.
        -11    1    3    3    0    0  0.26389926852E+02 -0.17216146024E+02 -0.22239972335E+00  0.31509893447E+02  0.51100000000E-03 0.  1.
         12    1    3    3    0    0 -0.23142469314E+02 -0.20452161548E+01 -0.28552214163E+01  0.23407457880E+02  0.00000000000E+00 0. -1.
</event>
<event>
 7    1  0.1465498E-013  0.7246195E+02  0.7816164E-02  0.1226707E+00
        -11   -1    0    0    0    0  0.00000000000E+00  0.00000000000E+00  0.45593999997E+02  0.45594000000E+02  0.51100000000E-03 0.  1.
         11   -1    0    0    0    0 -0.00000000000E+00 -0.00000000000E+00 -0.45593999997E+02  0.45594000000E+02  0.51100000000E-03 0. -1.
    9900012    2    1    2    0    0 -0.10571208377E+02 -0.10935852867E+02  0.10923449188E+02  0.72461946848E+02  0.70000490529E+02 0.  0.
         12    1    1    2    0    0  0.10571208377E+02  0.10935852867E+02 -0.10923449188E+02  0.18726053152E+02  0.00000000000E+00 0. -1.
         11    1    3    3    0    0  0.85832209765E-01  0.88178291296E+01 -0.95901736308E+01  0.13028158283E+02  0.51100000000E-03 0. -1.
        -11    1    3    3    0    0  0.14855515231E+02 -0.25601674081E+02  0.11378556188E+02  0.31711253361E+02  0.51100000000E-03 0.  1.
         12    1    3    3    0    0 -0.25512555817E+02  0.58479920847E+01  0.91350666309E+01  0.27722535204E+02  0.00000000000E+00 0. -1.
</event>
<event>
 7    1  0.1465498E-013  0.7246162E+02  0.7816164E-02  0.1226708E+00
        -11   -1    0    0    0    0  0.00000000000E+00  0.00000000000E+00  0.45593999997E+02  0.45594000000E+02  0.51100000000E-03 0.  1.
         11   -1    0    0    0    0 -0.00000000000E+00 -0.00000000000E+00 -0.45593999997E+02  0.45594000000E+02  0.51100000000E-03 0. -1.
    9900012    2    1    2    0    0 -0.27969312896E+01  0.23865204338E+01  0.18361888731E+02  0.72461621220E+02  0.70000066340E+02 0.  0.
         12    1    1    2    0    0  0.27969312896E+01 -0.23865204338E+01 -0.18361888731E+02  0.18726378780E+02  0.00000000000E+00 0. -1.
         11    1    3    3    0    0  0.13493644996E+02  0.16762287433E+02 -0.85694315831E+00  0.21535716545E+02  0.51100000000E-03 0. -1.
        -11    1    3    3    0    0  0.83360277998E+01  0.89197977861E+01  0.10038102969E+02  0.15805557994E+02  0.51100000000E-03 0.  1.
         12    1    3    3    0    0 -0.24626604086E+02 -0.23295564785E+02  0.91807289204E+01  0.35120346681E+02  0.00000000000E+00 0. -1.
</event>
<event>
 7    1  0.1465498E-013  0.7246160E+02  0.7816164E-02  0.1226708E+00
        -11   -1    0    0    0    0  0.00000000000E+00  0.00000000000E+00  0.45593999997E+02  0.45594000000E+02  0.51100000000E-03 0.  1.
         11   -1    0    0    0    0 -0.00000000000E+00 -0.00000000000E+00 -0.45593999997E+02  0.45594000000E+02  0.51100000000E-03 0. -1.
    9900012    2    1    2    0    0  0.29827851752E+01 -0.17372815437E+02 -0.63218800831E+01  0.72461604421E+02  0.70000044456E+02 0.  0.
         12    1    1    2    0    0 -0.29827851752E+01  0.17372815437E+02  0.63218800831E+01  0.18726395579E+02  0.00000000000E+00 0. -1.
         11    1    3    3    0    0 -0.39128071440E+01  0.19056699623E+02  0.74312239086E+00  0.19468438340E+02  0.51100000000E-03 0. -1.
        -11    1    3    3    0    0 -0.12557356218E+02 -0.22750287308E+01 -0.47573947259E+01  0.13619682660E+02  0.51100000000E-03 0.  1.
         12    1    3    3    0    0  0.19452948537E+02 -0.34154486329E+02 -0.23076077480E+01  0.39373483421E+02  0.00000000000E+00 0. -1.
</event>
<event>
 7    1  0.1465498E-013  0.7246160E+02  0.7816164E-02  0.1226708E+00
        -11   -1    0    0    0    0  0.00000000000E+00  0.00000000000E+00  0.45593999997E+02  0.45594000000E+02  0.51100000000E-03 0.  1.
         11   -1    0    0    0    0 -0.00000000000E+00 -0.00000000000E+00 -0.45593999997E+02  0.45594000000E+02  0.51100000000E-03 0. -1.
    9900012    2    1    2    0    0 -0.79180875226E+01  0.13122010203E+02  0.10760795585E+02  0.72461601964E+02  0.70000041255E+02 0.  0.
         12    1    1    2    0    0  0.79180875226E+01 -0.13122010203E+02 -0.10760795585E+02  0.18726398036E+02  0.00000000000E+00 0. -1.
         11    1    3    3    0    0  0.90448946739E+01 -0.91767030382E+01 -0.95915777967E+01  0.16063012271E+02  0.51100000000E-03 0. -1.
        -11    1    3    3    0    0  0.80905689487E+01  0.88498823086E+01  0.24867384031E+02  0.27607327136E+02  0.51100000000E-03 0.  1.
        -12    1    3    3    0    0 -0.25053551145E+02  0.13448830933E+02 -0.45150106495E+01  0.28791262557E+02  0.00000000000E+00 0.  1.
</event>
<event>
 7    1  0.1490636E-013  0.7246158E+02  0.7816164E-02  0.1226708E+00
        -11   -1    0    0    0    0  0.00000000000E+00  0.00000000000E+00  0.45593999997E+02  0.45594000000E+02  0.51100000000E-03 0. -1.
         11   -1    0    0    0    0 -0.00000000000E+00 -0.00000000000E+00 -0.45593999997E+02  0.45594000000E+02  0.51100000000E-03 0.  1.
    9900012    2    1    2    0    0  0.82835288683E+00 -0.14577323854E+02 -0.11725796318E+02  0.72461579132E+02  0.70000011513E+02 0.  0.
         12    1    1    2    0    0 -0.82835288683E+00  0.14577323854E+02  0.11725796318E+02  0.18726420868E+02  0.00000000000E+00 0. -1.
         11    1    3    3    0    0 -0.31989224037E+01  0.21308211546E+02 -0.80553221739E+00  0.21562046894E+02  0.51100000000E-03 0. -1.
        -11    1    3    3    0    0 -0.51548075568E+00 -0.16836075829E+02  0.12052845134E+02  0.20712079707E+02  0.51100000000E-03 0.  1.
        -12    1    3    3    0    0  0.45427560462E+01 -0.19049459571E+02 -0.22973109234E+02  0.30187452531E+02  0.00000000000E+00 0.  1.
</event>
<event>
 7    1  0.1465498E-013  0.7246157E+02  0.7816164E-02  0.1226708E+00
        -11   -1    0    0    0    0  0.00000000000E+00  0.00000000000E+00  0.45593999997E+02  0.45594000000E+02  0.51100000000E-03 0. -1.
         11   -1    0    0    0    0 -0.00000000000E+00 -0.00000000000E+00 -0.45593999997E+02  0.45594000000E+02  0.51100000000E-03 0.  1.
    9900012    2    1    2    0    0 -0.12666079819E+02 -0.38278944848E+00 -0.13787792789E+02  0.72461565856E+02  0.69999994219E+02 0.  0.
         12    1    1    2    0    0  0.12666079819E+02  0.38278944848E+00  0.13787792789E+02  0.18726434144E+02  0.00000000000E+00 0. -1.
         11    1    3    3    0    0  0.33233090587E+01  0.42983490396E+01 -0.35645620587E+01  0.64981759362E+01  0.51100000000E-03 0. -1.
        -11    1    3    3    0    0 -0.12038826552E+02  0.11557927194E+02 -0.33430460669E+02  0.37364618646E+02  0.51100000000E-03 0.  1.
         12    1    3    3    0    0 -0.39505623262E+01 -0.16239065682E+02  0.23207229939E+02  0.28598771274E+02  0.00000000000E+00 0. -1.
</event>
<event>
 7    1  0.1465498E-013  0.7246158E+02  0.7816164E-02  0.1226708E+00
        -11   -1    0    0    0    0  0.00000000000E+00  0.00000000000E+00  0.45593999997E+02  0.45594000000E+02  0.51100000000E-03 0. -1.
         11   -1    0    0    0    0 -0.00000000000E+00 -0.00000000000E+00 -0.45593999997E+02  0.45594000000E+02  0.51100000000E-03 0.  1.
    9900012    2    1    2    0    0 -0.28451044016E+01 -0.13676066561E+02 -0.12471947503E+02  0.72461577753E+02  0.70000009717E+02 0.  0.
         12    1    1    2    0    0  0.28451044016E+01  0.13676066561E+02  0.12471947503E+02  0.18726422247E+02  0.00000000000E+00 0. -1.
         11    1    3    3    0    0  0.15205468863E+02 -0.31042457582E+01  0.47809597186E+00  0.15526467759E+02  0.51100000000E-03 0. -1.
        -11    1    3    3    0    0 -0.99990531398E+01 -0.68588073189E+01  0.19683519027E+02  0.23118503911E+02  0.51100000000E-03 0.  1.
        -12    1    3    3    0    0 -0.80515201246E+01 -0.37130134838E+01 -0.32633562502E+02  0.33816606083E+02  0.00000000000E+00 0.  1.
</event>
<event>
 7    1  0.1465498E-013  0.7246155E+02  0.7816164E-02  0.1226708E+00
        -11   -1    0    0    0    0  0.00000000000E+00  0.00000000000E+00  0.45593999997E+02  0.45594000000E+02  0.51100000000E-03 0.  1.
         11   -1    0    0    0    0 -0.00000000000E+00 -0.00000000000E+00 -0.45593999997E+02  0.45594000000E+02  0.51100000000E-03 0. -1.
    9900012    2    1    2    0    0  0.14025532870E+02  0.33605413999E+01  0.11944505173E+02  0.72461547730E+02  0.69999970606E+02 0.  0.
         12    1    1    2    0    0 -0.14025532870E+02 -0.33605413999E+01 -0.11944505173E+02  0.18726452270E+02  0.00000000000E+00 0. -1.
         11    1    3    3    0    0 -0.28503956558E+01 -0.19952677738E+02  0.73841033827E+01  0.21465299610E+02  0.51100000000E-03 0. -1.
        -11    1    3    3    0    0 -0.20947120875E+01  0.11185479342E+02  0.20474183240E+02  0.23424238439E+02  0.51100000000E-03 0.  1.
        -12    1    3    3    0    0  0.18970640614E+02  0.12127739796E+02 -0.15913781450E+02  0.27572009682E+02  0.00000000000E+00 0.  1.
</event>
<event>
 7    1  0.1465498E-013  0.7246156E+02  0.7816164E-02  0.1226708E+00
        -11   -1    0    0    0    0  0.00000000000E+00  0.00000000000E+00  0.45593999997E+02  0.45594000000E+02  0.51100000000E-03 0. -1.
         11   -1    0    0    0    0 -0.00000000000E+00 -0.00000000000E+00 -0.45593999997E+02  0.45594000000E+02  0.51100000000E-03 0.  1.
    9900012    2    1    2    0    0  0.18285887327E+02 -0.30613570706E+01 -0.26332259937E+01  0.72461562496E+02  0.69999989841E+02 0.  0.
         12    1    1    2    0    0 -0.18285887327E+02  0.30613570706E+01  0.26332259937E+01  0.18726437504E+02  0.00000000000E+00 0. -1.
         11    1    3    3    0    0 -0.43463474339E+01 -0.47110299934E+01  0.49771555806E+01  0.81152090268E+01  0.51100000000E-03 0. -1.
        -11    1    3    3    0    0  0.77543314976E+01 -0.16462867723E+02 -0.27923347245E+02  0.33329701353E+02  0.51100000000E-03 0.  1.
         12    1    3    3    0    0  0.14877903263E+02  0.18112540645E+02  0.20312965671E+02  0.31016652116E+02  0.00000000000E+00 0. -1.
</event>
<event>
 7    1  0.1465498E-013  0.7246162E+02  0.7816164E-02  0.1226708E+00
        -11   -1    0    0    0    0  0.00000000000E+00  0.00000000000E+00  0.45593999997E+02  0.45594000000E+02  0.51100000000E-03 0.  1.
         11   -1    0    0    0    0 -0.00000000000E+00 -0.00000000000E+00 -0.45593999997E+02  0.45594000000E+02  0.51100000000E-03 0. -1.
    9900012    2    1    2    0    0 -0.14713927400E+02 -0.11530390350E+02  0.11080037503E+01  0.72461621988E+02  0.70000067341E+02 0.  0.
         12    1    1    2    0    0  0.14713927400E+02  0.11530390350E+02 -0.11080037503E+01  0.18726378012E+02  0.00000000000E+00 0. -1.
         11    1    3    3    0    0 -0.72832678684E-01 -0.26260985767E+02 -0.18623896045E+02  0.32194629711E+02  0.51100000000E-03 0. -1.
        -11    1    3    3    0    0 -0.11806484890E+02  0.20549469465E+02  0.50642359064E+01  0.24234691380E+02  0.51100000000E-03 0.  1.
        -12    1    3    3    0    0 -0.28346098313E+01 -0.58188740469E+01  0.14667663889E+02  0.16032300896E+02  0.00000000000E+00 0.  1.
</event>
<event>
 7    1  0.1465498E-013  0.7246159E+02  0.7816164E-02  0.1226708E+00
        -11   -1    0    0    0    0  0.00000000000E+00  0.00000000000E+00  0.45593999997E+02  0.45594000000E+02  0.51100000000E-03 0. -1.
         11   -1    0    0    0    0 -0.00000000000E+00 -0.00000000000E+00 -0.45593999997E+02  0.45594000000E+02  0.51100000000E-03 0.  1.
    9900012    2    1    2    0    0 -0.27851990855E+01 -0.13651987979E+02  0.12511773766E+02  0.72461585701E+02  0.70000020070E+02 0.  0.
         12    1    1    2    0    0  0.27851990855E+01  0.13651987979E+02 -0.12511773766E+02  0.18726414299E+02  0.00000000000E+00 0. -1.
         11    1    3    3    0    0 -0.85210572641E+01  0.11511590053E+02  0.20623257876E+01  0.14469910516E+02  0.51100000000E-03 0. -1.
        -11    1    3    3    0    0  0.32729749171E+01  0.66227952919E+00 -0.18684794321E+02  0.18980846084E+02  0.51100000000E-03 0.  1.
         12    1    3    3    0    0  0.24628832616E+01 -0.25825857561E+02  0.29134242300E+02  0.39010829100E+02  0.00000000000E+00 0. -1.
</event>
<event>
 7    1  0.1465498E-013  0.7246161E+02  0.7816164E-02  0.1226708E+00
        -11   -1    0    0    0    0  0.00000000000E+00  0.00000000000E+00  0.45593999997E+02  0.45594000000E+02  0.51100000000E-03 0.  1.
         11   -1    0    0    0    0 -0.00000000000E+00 -0.00000000000E+00 -0.45593999997E+02  0.45594000000E+02  0.51100000000E-03 0. -1.
    9900012    2    1    2    0    0 -0.13632863389E+02 -0.12825518131E+02  0.57325293920E+00  0.72461614913E+02  0.70000058124E+02 0.  0.
         12    1    1    2    0    0  0.13632863389E+02  0.12825518131E+02 -0.57325293920E+00  0.18726385087E+02  0.00000000000E+00 0. -1.
         11    1    3    3    0    0 -0.34493164856E+02 -0.12469908232E+02  0.67293766222E+01  0.37290233884E+02  0.51100000000E-03 0.  1.
        -11    1    3    3    0    0  0.28455325637E+01 -0.12528812261E+02 -0.14876845300E+01  0.12933731007E+02  0.51100000000E-03 0. -1.
         12    1    3    3    0    0  0.18014768904E+02  0.12173202361E+02 -0.46684391530E+01  0.22237650022E+02  0.00000000000E+00 0. -1.
</event>
<event>
 7    1  0.1465498E-013  0.7246156E+02  0.7816164E-02  0.1226708E+00
        -11   -1    0    0    0    0  0.00000000000E+00  0.00000000000E+00  0.45593999997E+02  0.45594000000E+02  0.51100000000E-03 0.  1.
         11   -1    0    0    0    0 -0.00000000000E+00 -0.00000000000E+00 -0.45593999997E+02  0.45594000000E+02  0.51100000000E-03 0. -1.
    9900012    2    1    2    0    0  0.38430459535E+01 -0.14307086837E+02  0.11455032837E+02  0.72461561116E+02  0.69999988044E+02 0.  0.
         12    1    1    2    0    0 -0.38430459535E+01  0.14307086837E+02 -0.11455032837E+02  0.18726438884E+02  0.00000000000E+00 0. -1.
         11    1    3    3    0    0  0.61588008843E+01  0.10091342329E+02 -0.13970910186E+02  0.18301703473E+02  0.51100000000E-03 0. -1.
        -11    1    3    3    0    0 -0.55215937522E+01  0.30149402751E+01  0.25801217514E+02  0.26557121227E+02  0.51100000000E-03 0.  1.
        -12    1    3    3    0    0  0.32058388214E+01 -0.27413369441E+02 -0.37527449000E+00  0.27602736415E+02  0.00000000000E+00 0.  1.
</event>
<event>
 7    1  0.1465498E-013  0.7246158E+02  0.7816164E-02  0.1226708E+00
        -11   -1    0    0    0    0  0.00000000000E+00  0.00000000000E+00  0.45593999997E+02  0.45594000000E+02  0.51100000000E-03 0. -1.
         11   -1    0    0    0    0 -0.00000000000E+00 -0.00000000000E+00 -0.45593999997E+02  0.45594000000E+02  0.51100000000E-03 0.  1.
    9900012    2    1    2    0    0  0.16119478312E+02 -0.23836799168E+01 -0.92281820747E+01  0.72461578681E+02  0.70000010925E+02 0.  0.
         12    1    1    2    0    0 -0.16119478312E+02  0.23836799168E+01  0.92281820747E+01  0.18726421319E+02  0.00000000000E+00 0. -1.
         11    1    3    3    0    0 -0.63277232242E+01 -0.58404293627E+01  0.70879591129E+01  0.11153020263E+02  0.51100000000E-03 0. -1.
        -11    1    3    3    0    0  0.25685235840E+01 -0.24217312915E+02 -0.11374094929E+02  0.26878348051E+02  0.51100000000E-03 0.  1.
        -12    1    3    3    0    0  0.19878677953E+02  0.27674062361E+02 -0.49420462590E+01  0.34430210367E+02  0.00000000000E+00 0.  1.
</event>
<event>
 7    1  0.1465498E-013  0.7246159E+02  0.7816164E-02  0.1226708E+00
        -11   -1    0    0    0    0  0.00000000000E+00  0.00000000000E+00  0.45593999997E+02  0.45594000000E+02  0.51100000000E-03 0. -1.
         11   -1    0    0    0    0 -0.00000000000E+00 -0.00000000000E+00 -0.45593999997E+02  0.45594000000E+02  0.51100000000E-03 0.  1.
    9900012    2    1    2    0    0  0.12769780506E+02 -0.10127521286E+02 -0.92219546472E+01  0.72461590064E+02  0.70000025754E+02 0.  0.
         12    1    1    2    0    0 -0.12769780506E+02  0.10127521286E+02  0.92219546472E+01  0.18726409936E+02  0.00000000000E+00 0. -1.
         11    1    3    3    0    0  0.10002854276E+02  0.32905413452E+01 -0.22926481136E+01  0.10776873000E+02  0.51100000000E-03 0. -1.
        -11    1    3    3    0    0  0.62431533751E+01  0.18617149223E+02 -0.18953400558E+02  0.27291145125E+02  0.51100000000E-03 0.  1.
         12    1    3    3    0    0 -0.34762271457E+01 -0.32035211854E+02  0.12024094024E+02  0.34393571940E+02  0.00000000000E+00 0. -1.
</event>
<event>
 7    1  0.1465498E-013  0.7246152E+02  0.7816164E-02  0.1226708E+00
        -11   -1    0    0    0    0  0.00000000000E+00  0.00000000000E+00  0.45593999997E+02  0.45594000000E+02  0.51100000000E-03 0. -1.
         11   -1    0    0    0    0 -0.00000000000E+00 -0.00000000000E+00 -0.45593999997E+02  0.45594000000E+02  0.51100000000E-03 0.  1.
    9900012    2    1    2    0    0 -0.12029338050E+02 -0.13685674959E+02 -0.43218319144E+01  0.72461523981E+02  0.69999939668E+02 0.  0.
         12    1    1    2    0    0  0.12029338050E+02  0.13685674959E+02  0.43218319144E+01  0.18726476019E+02  0.00000000000E+00 0. -1.
         11    1    3    3    0    0 -0.81468387241E+01 -0.71337847520E+01 -0.18237684497E+02  0.21210257003E+02  0.51100000000E-03 0. -1.
        -11    1    3    3    0    0 -0.22686461970E+02  0.42774085989E+01 -0.35992173559E+01  0.23365062527E+02  0.51100000000E-03 0.  1.
         12    1    3    3    0    0  0.18803962645E+02 -0.10829298806E+02  0.17515069938E+02  0.27886204451E+02  0.00000000000E+00 0. -1.
</event>
<event>
 7    1  0.1465498E-013  0.7246154E+02  0.7816164E-02  0.1226708E+00
        -11   -1    0    0    0    0  0.00000000000E+00  0.00000000000E+00  0.45593999997E+02  0.45594000000E+02  0.51100000000E-03 0.  1.
         11   -1    0    0    0    0 -0.00000000000E+00 -0.00000000000E+00 -0.45593999997E+02  0.45594000000E+02  0.51100000000E-03 0. -1.
    9900012    2    1    2    0    0 -0.62189275703E+01  0.15002374066E+02  0.93238351239E+01  0.72461543070E+02  0.69999964535E+02 0.  0.
         12    1    1    2    0    0  0.62189275703E+01 -0.15002374066E+02 -0.93238351239E+01  0.18726456930E+02  0.00000000000E+00 0. -1.
         11    1    3    3    0    0  0.13739709081E+02  0.11510927272E+02 -0.14628706927E+02  0.23136121519E+02  0.51100000000E-03 0. -1.
        -11    1    3    3    0    0 -0.21533808142E+02  0.16925712429E+02  0.82600538990E+01  0.28607920669E+02  0.51100000000E-03 0.  1.
        -12    1    3    3    0    0  0.15751714903E+01 -0.13434265636E+02  0.15692488152E+02  0.20717500882E+02  0.00000000000E+00 0.  1.
</event>
<event>
 7    1  0.1465498E-013  0.7246156E+02  0.7816164E-02  0.1226708E+00
        -11   -1    0    0    0    0  0.00000000000E+00  0.00000000000E+00  0.45593999997E+02  0.45594000000E+02  0.51100000000E-03 0. -1.
         11   -1    0    0    0    0 -0.00000000000E+00 -0.00000000000E+00 -0.45593999997E+02  0.45594000000E+02  0.51100000000E-03 0.  1.
    9900012    2    1    2    0    0 -0.54768563819E+01  0.14320989351E+02 -0.10751405071E+02  0.72461564065E+02  0.69999991885E+02 0.  0.
         12    1    1    2    0    0  0.54768563819E+01 -0.14320989351E+02  0.10751405071E+02  0.18726435935E+02  0.00000000000E+00 0. -1.
         11    1    3    3    0    0  0.14670723493E+02  0.45196952106E+01 -0.10672445286E+02  0.18696493288E+02  0.51100000000E-03 0. -1.
        -11    1    3    3    0    0  0.89267758939E+01  0.20003856212E+02  0.51739174436E+01  0.22508021086E+02  0.51100000000E-03 0.  1.
         12    1    3    3    0    0 -0.29074355769E+02 -0.10202562072E+02 -0.52528772290E+01  0.31257049691E+02  0.00000000000E+00 0. -1.
</event>
<event>
 7    1  0.1465498E-013  0.7246171E+02  0.7816164E-02  0.1226708E+00
        -11   -1    0    0    0    0  0.00000000000E+00  0.00000000000E+00  0.45593999997E+02  0.45594000000E+02  0.51100000000E-03 0. -1.
         11   -1    0    0    0    0 -0.00000000000E+00 -0.00000000000E+00 -0.45593999997E+02  0.45594000000E+02  0.51100000000E-03 0.  1.
    9900012    2    1    2    0    0 -0.40145968007E+01  0.14806920780E+02 -0.10738342940E+02  0.72461711004E+02  0.70000183301E+02 0.  0.
         12    1    1    2    0    0  0.40145968007E+01 -0.14806920780E+02  0.10738342940E+02  0.18726288996E+02  0.00000000000E+00 0. -1.
         11    1    3    3    0    0  0.21488170648E+02 -0.32842284413E+01  0.13286651179E+02  0.25476709640E+02  0.51100000000E-03 0. -1.
        -11    1    3    3    0    0  0.14454042688E+01  0.68621140545E+01  0.25941273228E+01  0.74771184038E+01  0.51100000000E-03 0.  1.
        -12    1    3    3    0    0 -0.26948171718E+02  0.11229035167E+02 -0.26619121442E+02  0.39507882961E+02  0.00000000000E+00 0.  1.
</event>
<event>
 7    1  0.1465498E-013  0.7246163E+02  0.7816164E-02  0.1226708E+00
        -11   -1    0    0    0    0  0.00000000000E+00  0.00000000000E+00  0.45593999997E+02  0.45594000000E+02  0.51100000000E-03 0. -1.
         11   -1    0    0    0    0 -0.00000000000E+00 -0.00000000000E+00 -0.45593999997E+02  0.45594000000E+02  0.51100000000E-03 0.  1.
    9900012    2    1    2    0    0 -0.42957638373E+01  0.32304993560E+01 -0.17938428343E+02  0.72461630239E+02  0.70000078088E+02 0.  0.
         12    1    1    2    0    0  0.42957638373E+01 -0.32304993560E+01  0.17938428343E+02  0.18726369761E+02  0.00000000000E+00 0. -1.
         11    1    3    3    0    0  0.32833316509E+01 -0.21423658365E+02 -0.85764128343E+01  0.23308973848E+02  0.51100000000E-03 0. -1.
        -11    1    3    3    0    0 -0.10526063008E+02 -0.47638027417E+01 -0.15122928559E+02  0.19031415803E+02  0.51100000000E-03 0.  1.
        -12    1    3    3    0    0  0.29469675201E+01  0.29417960463E+02  0.57609130502E+01  0.30121240588E+02  0.00000000000E+00 0.  1.
</event>
<event>
 7    1  0.1465498E-013  0.7246163E+02  0.7816164E-02  0.1226708E+00
        -11   -1    0    0    0    0  0.00000000000E+00  0.00000000000E+00  0.45593999997E+02  0.45594000000E+02  0.51100000000E-03 0.  1.
         11   -1    0    0    0    0 -0.00000000000E+00 -0.00000000000E+00 -0.45593999997E+02  0.45594000000E+02  0.51100000000E-03 0. -1.
    9900012    2    1    2    0    0  0.53849766150E+01 -0.73863811660E+01  0.16343814488E+02  0.72461631642E+02  0.70000079917E+02 0.  0.
         12    1    1    2    0    0 -0.53849766150E+01  0.73863811660E+01 -0.16343814488E+02  0.18726368358E+02  0.00000000000E+00 0. -1.
         11    1    3    3    0    0  0.19836293832E+02 -0.62984821609E+01  0.17265084426E-01  0.20812249491E+02  0.51100000000E-03 0. -1.
        -11    1    3    3    0    0  0.50278940841E+01  0.19795642031E+02  0.75144746786E+01  0.21762685779E+02  0.51100000000E-03 0.  1.
        -12    1    3    3    0    0 -0.19479211301E+02 -0.20883541036E+02  0.88120747247E+01  0.29886696373E+02  0.00000000000E+00 0.  1.
</event>
<event>
 7    1  0.1465498E-013  0.7246155E+02  0.7816164E-02  0.1226708E+00
        -11   -1    0    0    0    0  0.00000000000E+00  0.00000000000E+00  0.45593999997E+02  0.45594000000E+02  0.51100000000E-03 0. -1.
         11   -1    0    0    0    0 -0.00000000000E+00 -0.00000000000E+00 -0.45593999997E+02  0.45594000000E+02  0.51100000000E-03 0.  1.
    9900012    2    1    2    0    0  0.95310181529E+01  0.13105760977E+02 -0.93850235226E+01  0.72461549607E+02  0.69999973051E+02 0.  0.
         12    1    1    2    0    0 -0.95310181529E+01 -0.13105760977E+02  0.93850235226E+01  0.18726450393E+02  0.00000000000E+00 0. -1.
         11    1    3    3    0    0  0.15537520055E+02  0.11843367038E+01  0.10754542993E+02  0.18933498835E+02  0.51100000000E-03 0. -1.
        -11    1    3    3    0    0  0.78547736159E+01  0.27005923824E+02 -0.16831172079E+02  0.32776603607E+02  0.51100000000E-03 0.  1.
        -12    1    3    3    0    0 -0.13861275518E+02 -0.15084499552E+02 -0.33083944363E+01  0.20751447165E+02  0.00000000000E+00 0.  1.
</event>
<event>
 7    1  0.1465498E-013  0.7246157E+02  0.7816164E-02  0.1226708E+00
        -11   -1    0    0    0    0  0.00000000000E+00  0.00000000000E+00  0.45593999997E+02  0.45594000000E+02  0.51100000000E-03 0.  1.
         11   -1    0    0    0    0 -0.00000000000E+00 -0.00000000000E+00 -0.45593999997E+02  0.45594000000E+02  0.51100000000E-03 0. -1.
    9900012    2    1    2    0    0 -0.67850203709E+01  0.17396112331E+02  0.14205913173E+01  0.72461566668E+02  0.69999995276E+02 0.  0.
         12    1    1    2    0    0  0.67850203709E+01 -0.17396112331E+02 -0.14205913173E+01  0.18726433332E+02  0.00000000000E+00 0. -1.
         11    1    3    3    0    0 -0.28934537557E+02  0.17444010826E+02 -0.66358856113E+01  0.34431612734E+02  0.51100000000E-03 0. -1.
        -11    1    3    3    0    0  0.41913850379E+01  0.83994759412E+01 -0.81314986325E+01  0.12419346798E+02  0.51100000000E-03 0.  1.
         12    1    3    3    0    0  0.17958132148E+02 -0.84473744363E+01  0.16187975561E+02  0.25610607136E+02  0.00000000000E+00 0. -1.
</event>
<event>
 7    1  0.1465498E-013  0.7246163E+02  0.7816164E-02  0.1226708E+00
        -11   -1    0    0    0    0  0.00000000000E+00  0.00000000000E+00  0.45593999997E+02  0.45594000000E+02  0.51100000000E-03 0.  1.
         11   -1    0    0    0    0 -0.00000000000E+00 -0.00000000000E+00 -0.45593999997E+02  0.45594000000E+02  0.51100000000E-03 0. -1.
    9900012    2    1    2    0    0  0.26492217200E+01  0.11632743049E+02 -0.14433916355E+02  0.72461627476E+02  0.70000074489E+02 0.  0.
         12    1    1    2    0    0 -0.26492217200E+01 -0.11632743049E+02  0.14433916355E+02  0.18726372524E+02  0.00000000000E+00 0. -1.
         11    1    3    3    0    0  0.52016682689E+01 -0.20222334058E+01  0.75085511808E+01  0.93554861885E+01  0.51100000000E-03 0. -1.
        -11    1    3    3    0    0  0.15940865541E+02  0.15697478965E+02  0.11259847572E+02  0.25046081683E+02  0.51100000000E-03 0.  1.
         12    1    3    3    0    0 -0.18493312090E+02 -0.20425025098E+01 -0.33202315108E+02  0.38060059604E+02  0.00000000000E+00 0. -1.
</event>
<event>
 7    1  0.1465498E-013  0.7246156E+02  0.7816164E-02  0.1226708E+00
        -11   -1    0    0    0    0  0.00000000000E+00  0.00000000000E+00  0.45593999997E+02  0.45594000000E+02  0.51100000000E-03 0.  1.
         11   -1    0    0    0    0 -0.00000000000E+00 -0.00000000000E+00 -0.45593999997E+02  0.45594000000E+02  0.51100000000E-03 0. -1.
    9900012    2    1    2    0    0 -0.34515715192E+00 -0.15404539196E+02  0.10642404129E+02  0.72461555411E+02  0.69999980611E+02 0.  0.
         12    1    1    2    0    0  0.34515715192E+00  0.15404539196E+02 -0.10642404129E+02  0.18726444589E+02  0.00000000000E+00 0. -1.
         11    1    3    3    0    0  0.44519160579E+01  0.16863358972E+02  0.57694401671E+01  0.18370598044E+02  0.51100000000E-03 0. -1.
        -11    1    3    3    0    0 -0.16202827906E+02  0.26536884150E+01 -0.25385226810E+01  0.16613783194E+02  0.51100000000E-03 0.  1.
        -12    1    3    3    0    0  0.11405754696E+02 -0.34921586583E+02  0.74114866428E+01  0.37477174172E+02  0.00000000000E+00 0.  1.
</event>
<event>
 7    1  0.1465498E-013  0.7246148E+02  0.7816164E-02  0.1226708E+00
        -11   -1    0    0    0    0  0.00000000000E+00  0.00000000000E+00  0.45593999997E+02  0.45594000000E+02  0.51100000000E-03 0. -1.
         11   -1    0    0    0    0 -0.00000000000E+00 -0.00000000000E+00 -0.45593999997E+02  0.45594000000E+02  0.51100000000E-03 0.  1.
    9900012    2    1    2    0    0 -0.63254872681E+01 -0.14195916758E+02  0.10447338283E+02  0.72461475524E+02  0.69999876543E+02 0.  0.
         12    1    1    2    0    0  0.63254872681E+01  0.14195916758E+02 -0.10447338283E+02  0.18726524476E+02  0.00000000000E+00 0. -1.
         11    1    3    3    0    0  0.20043211638E+02  0.86295470732E+01  0.11261392409E+02  0.24556432451E+02  0.51100000000E-03 0.  1.
        -11    1    3    3    0    0 -0.23104896318E+02 -0.47111582374E+01  0.11014481615E+02  0.26025949575E+02  0.51100000000E-03 0. -1.
        -12    1    3    3    0    0 -0.32638025886E+01 -0.18114305594E+02 -0.11828535742E+02  0.21879093497E+02  0.00000000000E+00 0.  1.
</event>
<event>
 7    1  0.1465498E-013  0.7246150E+02  0.7816164E-02  0.1226708E+00
        -11   -1    0    0    0    0  0.00000000000E+00  0.00000000000E+00  0.45593999997E+02  0.45594000000E+02  0.51100000000E-03 0.  1.
         11   -1    0    0    0    0 -0.00000000000E+00 -0.00000000000E+00 -0.45593999997E+02  0.45594000000E+02  0.51100000000E-03 0. -1.
    9900012    2    1    2    0    0 -0.36898345876E+01  0.63148221304E+01  0.17239197540E+02  0.72461500337E+02  0.69999908867E+02 0.  0.
         12    1    1    2    0    0  0.36898345876E+01 -0.63148221304E+01 -0.17239197540E+02  0.18726499663E+02  0.00000000000E+00 0. -1.
         11    1    3    3    0    0  0.53912489383E+01 -0.32025926430E+01  0.25269544970E+01  0.67607443409E+01  0.51100000000E-03 0. -1.
        -11    1    3    3    0    0  0.99745347757E+01 -0.52749417963E+01  0.33355971425E+02  0.35212741798E+02  0.51100000000E-03 0.  1.
         12    1    3    3    0    0 -0.19055618302E+02  0.14792356570E+02 -0.18643728383E+02  0.30488014198E+02  0.00000000000E+00 0. -1.
</event>
<event>
 7    1  0.1465498E-013  0.7246159E+02  0.7816164E-02  0.1226708E+00
        -11   -1    0    0    0    0  0.00000000000E+00  0.00000000000E+00  0.45593999997E+02  0.45594000000E+02  0.51100000000E-03 0.  1.
         11   -1    0    0    0    0 -0.00000000000E+00 -0.00000000000E+00 -0.45593999997E+02  0.45594000000E+02  0.51100000000E-03 0. -1.
    9900012    2    1    2    0    0 -0.42932035616E+01 -0.15104564947E+02 -0.10202887940E+02  0.72461590805E+02  0.70000026718E+02 0.  0.
         12    1    1    2    0    0  0.42932035616E+01  0.15104564947E+02  0.10202887940E+02  0.18726409195E+02  0.00000000000E+00 0. -1.
         11    1    3    3    0    0 -0.20984122766E+02 -0.13915562926E+02 -0.62739692336E+01  0.25948776272E+02  0.51100000000E-03 0. -1.
        -11    1    3    3    0    0  0.37602066239E+01 -0.40948302833E+01 -0.22791502953E+02  0.23459739896E+02  0.51100000000E-03 0.  1.
        -12    1    3    3    0    0  0.12930712580E+02  0.29058282630E+01  0.18862584247E+02  0.23053074636E+02  0.00000000000E+00 0.  1.
</event>
<event>
 7    1  0.1465498E-013  0.7246144E+02  0.7816164E-02  0.1226708E+00
        -11   -1    0    0    0    0  0.00000000000E+00  0.00000000000E+00  0.45593999997E+02  0.45594000000E+02  0.51100000000E-03 0. -1.
         11   -1    0    0    0    0 -0.00000000000E+00 -0.00000000000E+00 -0.45593999997E+02  0.45594000000E+02  0.51100000000E-03 0.  1.
    9900012    2    1    2    0    0 -0.13459368447E+02  0.20614355268E+01 -0.12856124300E+02  0.72461440053E+02  0.69999830337E+02 0.  0.
         12    1    1    2    0    0  0.13459368447E+02 -0.20614355268E+01  0.12856124300E+02  0.18726559947E+02  0.00000000000E+00 0. -1.
         11    1    3    3    0    0  0.11330825777E+02  0.33096229164E+01  0.33702513114E+01  0.12275985125E+02  0.51100000000E-03 0. -1.
        -11    1    3    3    0    0 -0.80552811763E+01  0.17900725950E+02 -0.26311993305E+02  0.32827496651E+02  0.51100000000E-03 0.  1.
        -12    1    3    3    0    0 -0.16734913048E+02 -0.19148913340E+02  0.10085617694E+02  0.27357958277E+02  0.00000000000E+00 0.  1.
</event>
<event>
 7    1  0.1465498E-013  0.7246144E+02  0.7816164E-02  0.1226708E+00
        -11   -1    0    0    0    0  0.00000000000E+00  0.00000000000E+00  0.45593999997E+02  0.45594000000E+02  0.51100000000E-03 0. -1.
         11   -1    0    0    0    0 -0.00000000000E+00 -0.00000000000E+00 -0.45593999997E+02  0.45594000000E+02  0.51100000000E-03 0.  1.
    9900012    2    1    2    0    0 -0.43455990330E+01 -0.15999729856E+02 -0.87068019393E+01  0.72461441682E+02  0.69999832458E+02 0.  0.
         12    1    1    2    0    0  0.43455990330E+01  0.15999729856E+02  0.87068019393E+01  0.18726558318E+02  0.00000000000E+00 0. -1.
         11    1    3    3    0    0  0.23950939395E+02 -0.20642198495E+01 -0.69182973597E+01  0.25015422046E+02  0.51100000000E-03 0. -1.
        -11    1    3    3    0    0  0.51908734825E+01  0.32082459129E+01  0.65079478337E+01  0.89214009335E+01  0.51100000000E-03 0.  1.
        -12    1    3    3    0    0 -0.33487411911E+02 -0.17143755920E+02 -0.82964524134E+01  0.38524618703E+02  0.00000000000E+00 0.  1.
</event>
<event>
 7    1  0.1465498E-013  0.7246162E+02  0.7816164E-02  0.1226708E+00
        -11   -1    0    0    0    0  0.00000000000E+00  0.00000000000E+00  0.45593999997E+02  0.45594000000E+02  0.51100000000E-03 0.  1.
         11   -1    0    0    0    0 -0.00000000000E+00 -0.00000000000E+00 -0.45593999997E+02  0.45594000000E+02  0.51100000000E-03 0. -1.
    9900012    2    1    2    0    0  0.11355306588E+01 -0.21736631069E+01  0.18565106317E+02  0.72461617174E+02  0.70000061070E+02 0.  0.
         12    1    1    2    0    0 -0.11355306588E+01  0.21736631069E+01 -0.18565106317E+02  0.18726382826E+02  0.00000000000E+00 0. -1.
         11    1    3    3    0    0  0.64606303433E+01 -0.37468180469E+01  0.22308065803E+02  0.23525054517E+02  0.51100000000E-03 0. -1.
        -11    1    3    3    0    0  0.11597733647E+02  0.13214049455E+02  0.13461306004E+02  0.22143289917E+02  0.51100000000E-03 0.  1.
         12    1    3    3    0    0 -0.16922833332E+02 -0.11640894515E+02 -0.17204265490E+02  0.26793272740E+02  0.00000000000E+00 0. -1.
</event>
<event>
 7    1  0.1465498E-013  0.7246156E+02  0.7816164E-02  0.1226708E+00
        -11   -1    0    0    0    0  0.00000000000E+00  0.00000000000E+00  0.45593999997E+02  0.45594000000E+02  0.51100000000E-03 0.  1.
         11   -1    0    0    0    0 -0.00000000000E+00 -0.00000000000E+00 -0.45593999997E+02  0.45594000000E+02  0.51100000000E-03 0. -1.
    9900012    2    1    2    0    0 -0.17033158145E+01  0.18290189776E+02 -0.36396731887E+01  0.72461560196E+02  0.69999986846E+02 0.  0.
         12    1    1    2    0    0  0.17033158145E+01 -0.18290189776E+02  0.36396731887E+01  0.18726439804E+02  0.00000000000E+00 0. -1.
         11    1    3    3    0    0  0.97251964696E+01  0.78505365669E+00 -0.82044406076E+01  0.12747886161E+02  0.51100000000E-03 0. -1.
        -11    1    3    3    0    0  0.15878913299E+02 -0.49458663572E+00  0.18305959435E+02  0.24238247763E+02  0.51100000000E-03 0.  1.
         12    1    3    3    0    0 -0.27307425584E+02  0.17999722755E+02 -0.13741192016E+02  0.35475426273E+02  0.00000000000E+00 0. -1.
</event>
<event>
 7    1  0.1465498E-013  0.7246160E+02  0.7816164E-02  0.1226708E+00
        -11   -1    0    0    0    0  0.00000000000E+00  0.00000000000E+00  0.45593999997E+02  0.45594000000E+02  0.51100000000E-03 0.  1.
         11   -1    0    0    0    0 -0.00000000000E+00 -0.00000000000E+00 -0.45593999997E+02  0.45594000000E+02  0.51100000000E-03 0. -1.
    9900012    2    1    2    0    0 -0.47539755362E+01  0.48839036443E+01  0.17442052484E+02  0.72461601706E+02  0.70000040920E+02 0.  0.
         12    1    1    2    0    0  0.47539755362E+01 -0.48839036443E+01 -0.17442052484E+02  0.18726398294E+02  0.00000000000E+00 0. -1.
         11    1    3    3    0    0 -0.93378710881E+01 -0.15256837216E+02  0.14889797931E+01  0.17949484098E+02  0.51100000000E-03 0. -1.
        -11    1    3    3    0    0  0.16758119552E+02 -0.95503853937E+01  0.15887209345E+01  0.19353771378E+02  0.51100000000E-03 0.  1.
        -12    1    3    3    0    0 -0.12174224000E+02  0.29691126254E+02  0.14364351756E+02  0.35158346230E+02  0.00000000000E+00 0.  1.
</event>
<event>
 7    1  0.1465498E-013  0.7246156E+02  0.7816164E-02  0.1226708E+00
        -11   -1    0    0    0    0  0.00000000000E+00  0.00000000000E+00  0.45593999997E+02  0.45594000000E+02  0.51100000000E-03 0. -1.
         11   -1    0    0    0    0 -0.00000000000E+00 -0.00000000000E+00 -0.45593999997E+02  0.45594000000E+02  0.51100000000E-03 0.  1.
    9900012    2    1    2    0    0 -0.71324192539E+01 -0.11570631077E+02 -0.12881325405E+02  0.72461562749E+02  0.69999990170E+02 0.  0.
         12    1    1    2    0    0  0.71324192539E+01  0.11570631077E+02  0.12881325405E+02  0.18726437251E+02  0.00000000000E+00 0. -1.
         11    1    3    3    0    0  0.10126377500E+01  0.72362432310E+01  0.13307129399E+02  0.15181183894E+02  0.51100000000E-03 0. -1.
        -11    1    3    3    0    0  0.47542486053E+01  0.12839491219E+02  0.82871736405E+00  0.13716493258E+02  0.51100000000E-03 0.  1.
        -12    1    3    3    0    0 -0.12899305609E+02 -0.31646365527E+02 -0.27017172169E+02  0.43563885597E+02  0.00000000000E+00 0.  1.
</event>
<event>
 7    1  0.1465498E-013  0.7246153E+02  0.7816164E-02  0.1226708E+00
        -11   -1    0    0    0    0  0.00000000000E+00  0.00000000000E+00  0.45593999997E+02  0.45594000000E+02  0.51100000000E-03 0.  1.
         11   -1    0    0    0    0 -0.00000000000E+00 -0.00000000000E+00 -0.45593999997E+02  0.45594000000E+02  0.51100000000E-03 0. -1.
    9900012    2    1    2    0    0  0.99792282536E+01  0.13538523720E+02  0.82343255873E+01  0.72461528391E+02  0.69999945413E+02 0.  0.
         12    1    1    2    0    0 -0.99792282536E+01 -0.13538523720E+02 -0.82343255873E+01  0.18726471609E+02  0.00000000000E+00 0. -1.
         11    1    3    3    0    0  0.14529790328E+00 -0.94343603808E+01 -0.36091561229E+01  0.10102191616E+02  0.51100000000E-03 0. -1.
        -11    1    3    3    0    0  0.99654810843E+01 -0.17446969272E+02  0.84501633479E+01  0.21797082623E+02  0.51100000000E-03 0.  1.
        -12    1    3    3    0    0 -0.13155073396E+00  0.40419853373E+02  0.33933183622E+01  0.40562254151E+02  0.00000000000E+00 0.  1.
</event>
<event>
 7    1  0.1465498E-013  0.7246160E+02  0.7816164E-02  0.1226708E+00
        -11   -1    0    0    0    0  0.00000000000E+00  0.00000000000E+00  0.45593999997E+02  0.45594000000E+02  0.51100000000E-03 0.  1.
         11   -1    0    0    0    0 -0.00000000000E+00 -0.00000000000E+00 -0.45593999997E+02  0.45594000000E+02  0.51100000000E-03 0. -1.
    9900012    2    1    2    0    0  0.44772260939E+01 -0.25843474757E+01  0.17998715844E+02  0.72461596784E+02  0.70000034508E+02 0.  0.
         12    1    1    2    0    0 -0.44772260939E+01  0.25843474757E+01 -0.17998715844E+02  0.18726403216E+02  0.00000000000E+00 0. -1.
         11    1    3    3    0    0 -0.12722105871E+02 -0.55645921804E+01 -0.22049286928E+00  0.13887594511E+02  0.51100000000E-03 0. -1.
        -11    1    3    3    0    0 -0.17299940429E+02  0.73779244513E+01  0.14195866027E+02  0.23563622823E+02  0.51100000000E-03 0.  1.
        -12    1    3    3    0    0  0.34499272394E+02 -0.43976797466E+01  0.40233426863E+01  0.35010379450E+02  0.00000000000E+00 0.  1.
</event>
<event>
 7    1  0.1465498E-013  0.7246156E+02  0.7816164E-02  0.1226708E+00
        -11   -1    0    0    0    0  0.00000000000E+00  0.00000000000E+00  0.45593999997E+02  0.45594000000E+02  0.51100000000E-03 0. -1.
         11   -1    0    0    0    0 -0.00000000000E+00 -0.00000000000E+00 -0.45593999997E+02  0.45594000000E+02  0.51100000000E-03 0.  1.
    9900012    2    1    2    0    0 -0.15968275666E+02  0.47180294022E+01  0.85693677457E+01  0.72461556324E+02  0.69999981801E+02 0.  0.
         12    1    1    2    0    0  0.15968275666E+02 -0.47180294022E+01 -0.85693677457E+01  0.18726443676E+02  0.00000000000E+00 0. -1.
         11    1    3    3    0    0 -0.98734444847E+01  0.63633045237E+01  0.42550585250E+01  0.12493281145E+02  0.51100000000E-03 0. -1.
        -11    1    3    3    0    0 -0.32151962362E+02 -0.77008779585E+01  0.23672981431E+01  0.33145984762E+02  0.51100000000E-03 0.  1.
         12    1    3    3    0    0  0.26057131181E+02  0.60556028370E+01  0.19470110776E+01  0.26822290417E+02  0.00000000000E+00 0. -1.
</event>
<event>
 7    1  0.1465498E-013  0.7246151E+02  0.7816164E-02  0.1226708E+00
        -11   -1    0    0    0    0  0.00000000000E+00  0.00000000000E+00  0.45593999997E+02  0.45594000000E+02  0.51100000000E-03 0. -1.
         11   -1    0    0    0    0 -0.00000000000E+00 -0.00000000000E+00 -0.45593999997E+02  0.45594000000E+02  0.51100000000E-03 0.  1.
    9900012    2    1    2    0    0 -0.72989538864E+01 -0.13949135913E+02 -0.10140422343E+02  0.72461513788E+02  0.69999926390E+02 0.  0.
         12    1    1    2    0    0  0.72989538864E+01  0.13949135913E+02  0.10140422343E+02  0.18726486212E+02  0.00000000000E+00 0. -1.
         11    1    3    3    0    0 -0.38876570410E+01  0.49537827783E+01  0.20431879561E+01  0.66203065162E+01  0.51100000000E-03 0. -1.
        -11    1    3    3    0    0 -0.27974518926E+02 -0.11144293597E+02  0.10120125793E+02  0.31767686967E+02  0.51100000000E-03 0.  1.
        -12    1    3    3    0    0  0.24563222080E+02 -0.77586250939E+01 -0.22303736092E+02  0.34073520305E+02  0.00000000000E+00 0.  1.
</event>
<event>
 7    1  0.1465498E-013  0.7246157E+02  0.7816164E-02  0.1226708E+00
        -11   -1    0    0    0    0  0.00000000000E+00  0.00000000000E+00  0.45593999997E+02  0.45594000000E+02  0.51100000000E-03 0.  1.
         11   -1    0    0    0    0 -0.00000000000E+00 -0.00000000000E+00 -0.45593999997E+02  0.45594000000E+02  0.51100000000E-03 0. -1.
    9900012    2    1    2    0    0  0.26945205215E+00  0.28042326359E+01  0.18513317588E+02  0.72461568060E+02  0.69999997090E+02 0.  0.
         12    1    1    2    0    0 -0.26945205215E+00 -0.28042326359E+01 -0.18513317588E+02  0.18726431940E+02  0.00000000000E+00 0. -1.
         11    1    3    3    0    0  0.67352017914E+01 -0.31063229325E+01 -0.21807980543E+01  0.77309809045E+01  0.51100000000E-03 0. -1.
        -11    1    3    3    0    0  0.23584689637E+02 -0.84929416996E+01 -0.79297681074E+00  0.25079801763E+02  0.51100000000E-03 0.  1.
         12    1    3    3    0    0 -0.30050439376E+02  0.14403497268E+02  0.21487092453E+02  0.39650785393E+02  0.00000000000E+00 0. -1.
</event>
<event>
 7    1  0.1465498E-013  0.7246155E+02  0.7816164E-02  0.1226708E+00
        -11   -1    0    0    0    0  0.00000000000E+00  0.00000000000E+00  0.45593999997E+02  0.45594000000E+02  0.51100000000E-03 0.  1.
         11   -1    0    0    0    0 -0.00000000000E+00 -0.00000000000E+00 -0.45593999997E+02  0.45594000000E+02  0.51100000000E-03 0. -1.
    9900012    2    1    2    0    0  0.84819764238E-01 -0.18477778421E+02 -0.30404756287E+01  0.72461548605E+02  0.69999971746E+02 0.  0.
         12    1    1    2    0    0 -0.84819764238E-01  0.18477778421E+02  0.30404756287E+01  0.18726451395E+02  0.00000000000E+00 0. -1.
         11    1    3    3    0    0  0.26257229262E+01  0.16195974728E+02 -0.17558828043E+02  0.24031572167E+02  0.51100000000E-03 0. -1.
        -11    1    3    3    0    0  0.11032050501E+02 -0.58318619936E+01 -0.18200176057E+01  0.12610678686E+02  0.51100000000E-03 0.  1.
        -12    1    3    3    0    0 -0.13572953663E+02 -0.28841891156E+02  0.16338370020E+02  0.35819297753E+02  0.00000000000E+00 0.  1.
</event>
<event>
 7    1  0.1465498E-013  0.7246151E+02  0.7816164E-02  0.1226708E+00
        -11   -1    0    0    0    0  0.00000000000E+00  0.00000000000E+00  0.45593999997E+02  0.45594000000E+02  0.51100000000E-03 0.  1.
         11   -1    0    0    0    0 -0.00000000000E+00 -0.00000000000E+00 -0.45593999997E+02  0.45594000000E+02  0.51100000000E-03 0. -1.
    9900012    2    1    2    0    0 -0.67377068492E+01  0.16459381252E+02  0.58628924848E+01  0.72461509857E+02  0.69999921269E+02 0.  0.
         12    1    1    2    0    0  0.67377068492E+01 -0.16459381252E+02 -0.58628924848E+01  0.18726490143E+02  0.00000000000E+00 0. -1.
         11    1    3    3    0    0 -0.16107236653E+01  0.21303328515E+01 -0.47448266296E+00  0.27125417680E+01  0.51100000000E-03 0. -1.
        -11    1    3    3    0    0 -0.30978677486E+02 -0.11342280808E+02  0.41664381212E+01  0.33251842048E+02  0.51100000000E-03 0.  1.
         12    1    3    3    0    0  0.25851694302E+02  0.25671329209E+02  0.21709370266E+01  0.36497126041E+02  0.00000000000E+00 0. -1.
</event>
<event>
 7    1  0.1465498E-013  0.7246163E+02  0.7816164E-02  0.1226708E+00
        -11   -1    0    0    0    0  0.00000000000E+00  0.00000000000E+00  0.45593999997E+02  0.45594000000E+02  0.51100000000E-03 0. -1.
         11   -1    0    0    0    0 -0.00000000000E+00 -0.00000000000E+00 -0.45593999997E+02  0.45594000000E+02  0.51100000000E-03 0.  1.
    9900012    2    1    2    0    0  0.12836011456E+02 -0.10168559098E+01 -0.13597047635E+02  0.72461631147E+02  0.70000079272E+02 0.  0.
         12    1    1    2    0    0 -0.12836011456E+02  0.10168559098E+01  0.13597047635E+02  0.18726368853E+02  0.00000000000E+00 0. -1.
         11    1    3    3    0    0 -0.15352235683E+02  0.69635830787E+01  0.57676718497E+01  0.17817089229E+02  0.51100000000E-03 0. -1.
        -11    1    3    3    0    0 -0.98593204767E+01 -0.77538270096E+01 -0.82242454663E+01  0.14998874868E+02  0.51100000000E-03 0.  1.
         12    1    3    3    0    0  0.38047567616E+02 -0.22661197885E+00 -0.11140474018E+02  0.39645667050E+02  0.00000000000E+00 0. -1.
</event>
<event>
 7    1  0.1465498E-013  0.7246157E+02  0.7816164E-02  0.1226708E+00
        -11   -1    0    0    0    0  0.00000000000E+00  0.00000000000E+00  0.45593999997E+02  0.45594000000E+02  0.51100000000E-03 0.  1.
         11   -1    0    0    0    0 -0.00000000000E+00 -0.00000000000E+00 -0.45593999997E+02  0.45594000000E+02  0.51100000000E-03 0. -1.
    9900012    2    1    2    0    0  0.16704638318E+02  0.74911777662E+01  0.39390814303E+01  0.72461573534E+02  0.70000004220E+02 0.  0.
         12    1    1    2    0    0 -0.16704638318E+02 -0.74911777662E+01 -0.39390814303E+01  0.18726426466E+02  0.00000000000E+00 0. -1.
         11    1    3    3    0    0 -0.42646590618E+01  0.76103938062E+01  0.20133041099E+02  0.21941849397E+02  0.51100000000E-03 0. -1.
        -11    1    3    3    0    0 -0.20135343100E+01  0.14652007418E+02  0.53492281014E+01  0.15727360978E+02  0.51100000000E-03 0.  1.
        -12    1    3    3    0    0  0.22982831690E+02 -0.14771223458E+02 -0.21543187770E+02  0.34792363160E+02  0.00000000000E+00 0.  1.
</event>
<event>
 7    1  0.1465498E-013  0.7246148E+02  0.7816164E-02  0.1226708E+00
        -11   -1    0    0    0    0  0.00000000000E+00  0.00000000000E+00  0.45593999997E+02  0.45594000000E+02  0.51100000000E-03 0.  1.
         11   -1    0    0    0    0 -0.00000000000E+00 -0.00000000000E+00 -0.45593999997E+02  0.45594000000E+02  0.51100000000E-03 0. -1.
    9900012    2    1    2    0    0 -0.56671216652E+01 -0.17569529203E+02  0.31429057843E+01  0.72461481874E+02  0.69999884815E+02 0.  0.
         12    1    1    2    0    0  0.56671216652E+01  0.17569529203E+02 -0.31429057843E+01  0.18726518126E+02  0.00000000000E+00 0. -1.
         11    1    3    3    0    0 -0.13263659938E+01  0.10262414693E+02  0.17153021191E+02  0.20032536992E+02  0.51100000000E-03 0. -1.
        -11    1    3    3    0    0  0.12467513077E+02  0.51614508405E+01 -0.36314136320E+01  0.13973783393E+02  0.51100000000E-03 0.  1.
        -12    1    3    3    0    0 -0.16808268748E+02 -0.32993394737E+02 -0.10378701775E+02  0.38455161488E+02  0.00000000000E+00 0.  1.
</event>
<event>
 7    1  0.1465498E-013  0.7246154E+02  0.7816164E-02  0.1226708E+00
        -11   -1    0    0    0    0  0.00000000000E+00  0.00000000000E+00  0.45593999997E+02  0.45594000000E+02  0.51100000000E-03 0.  1.
         11   -1    0    0    0    0 -0.00000000000E+00 -0.00000000000E+00 -0.45593999997E+02  0.45594000000E+02  0.51100000000E-03 0. -1.
    9900012    2    1    2    0    0 -0.32726887330E+01 -0.82001897557E+01  0.16514444122E+02  0.72461535619E+02  0.69999954829E+02 0.  0.
         12    1    1    2    0    0  0.32726887330E+01  0.82001897557E+01 -0.16514444122E+02  0.18726464381E+02  0.00000000000E+00 0. -1.
         11    1    3    3    0    0  0.91079815511E+01  0.25486738483E+01 -0.23505149932E+01  0.97455624422E+01  0.51100000000E-03 0. -1.
        -11    1    3    3    0    0  0.10771146646E+01  0.14149227038E+00  0.37363952572E+02  0.37379742484E+02  0.51100000000E-03 0.  1.
         12    1    3    3    0    0 -0.13457784949E+02 -0.10890355874E+02 -0.18498993457E+02  0.25336230693E+02  0.00000000000E+00 0. -1.
</event>
<event>
 7    1  0.1465498E-013  0.7246159E+02  0.7816164E-02  0.1226708E+00
        -11   -1    0    0    0    0  0.00000000000E+00  0.00000000000E+00  0.45593999997E+02  0.45594000000E+02  0.51100000000E-03 0. -1.
         11   -1    0    0    0    0 -0.00000000000E+00 -0.00000000000E+00 -0.45593999997E+02  0.45594000000E+02  0.51100000000E-03 0.  1.
    9900012    2    1    2    0    0  0.18128352427E+02  0.40427395532E+01 -0.23869691122E+01  0.72461587467E+02  0.70000022370E+02 0.  0.
         12    1    1    2    0    0 -0.18128352427E+02 -0.40427395532E+01  0.23869691122E+01  0.18726412533E+02  0.00000000000E+00 0. -1.
         11    1    3    3    0    0 -0.37344811469E+01 -0.11662944807E+02  0.15171314138E+01  0.12339867058E+02  0.51100000000E-03 0. -1.
        -11    1    3    3    0    0  0.27868997625E+02 -0.12632153388E+02 -0.55928946268E+01  0.31105189252E+02  0.51100000000E-03 0.  1.
        -12    1    3    3    0    0 -0.60061640510E+01  0.28337837748E+02  0.16887941007E+01  0.29016531157E+02  0.00000000000E+00 0.  1.
</event>
<event>
 7    1  0.1465498E-013  0.7246167E+02  0.7816164E-02  0.1226708E+00
        -11   -1    0    0    0    0  0.00000000000E+00  0.00000000000E+00  0.45593999997E+02  0.45594000000E+02  0.51100000000E-03 0. -1.
         11   -1    0    0    0    0 -0.00000000000E+00 -0.00000000000E+00 -0.45593999997E+02  0.45594000000E+02  0.51100000000E-03 0.  1.
    9900012    2    1    2    0    0  0.17806488423E+01  0.16762525256E+02 -0.81561238052E+01  0.72461673110E+02  0.70000133937E+02 0.  0.
         12    1    1    2    0    0 -0.17806488423E+01 -0.16762525256E+02  0.81561238052E+01  0.18726326890E+02  0.00000000000E+00 0. -1.
         11    1    3    3    0    0  0.17439367636E+02 -0.26054874058E+01 -0.28115490898E+02  0.33187361101E+02  0.51100000000E-03 0. -1.
        -11    1    3    3    0    0  0.41931394738E+01  0.40750659547E+00  0.85781217977E+01  0.95568119218E+01  0.51100000000E-03 0.  1.
        -12    1    3    3    0    0 -0.19851858268E+02  0.18960506066E+02  0.11381245295E+02  0.29717500087E+02  0.00000000000E+00 0.  1.
</event>
<event>
 7    1  0.1465498E-013  0.7246143E+02  0.7816164E-02  0.1226708E+00
        -11   -1    0    0    0    0  0.00000000000E+00  0.00000000000E+00  0.45593999997E+02  0.45594000000E+02  0.51100000000E-03 0. -1.
         11   -1    0    0    0    0 -0.00000000000E+00 -0.00000000000E+00 -0.45593999997E+02  0.45594000000E+02  0.51100000000E-03 0.  1.
    9900012    2    1    2    0    0  0.13684999234E+02  0.12028350236E+02  0.43271195412E+01  0.72461431255E+02  0.69999818875E+02 0.  0.
         12    1    1    2    0    0 -0.13684999234E+02 -0.12028350236E+02 -0.43271195412E+01  0.18726568745E+02  0.00000000000E+00 0. -1.
         11    1    3    3    0    0 -0.50498173568E+01  0.51401640932E+01  0.28484874013E+02  0.29382137261E+02  0.51100000000E-03 0. -1.
        -11    1    3    3    0    0 -0.27154239407E+01 -0.37771592698E+01  0.39822428958E+01  0.61236196868E+01  0.51100000000E-03 0.  1.
        -12    1    3    3    0    0  0.21450240532E+02  0.10665345413E+02 -0.28139997368E+02  0.36955674307E+02  0.00000000000E+00 0.  1.
</event>
<event>
 7    1  0.1465498E-013  0.7246162E+02  0.7816164E-02  0.1226708E+00
        -11   -1    0    0    0    0  0.00000000000E+00  0.00000000000E+00  0.45593999997E+02  0.45594000000E+02  0.51100000000E-03 0.  1.
         11   -1    0    0    0    0 -0.00000000000E+00 -0.00000000000E+00 -0.45593999997E+02  0.45594000000E+02  0.51100000000E-03 0. -1.
    9900012    2    1    2    0    0 -0.18544148621E+02 -0.25927421355E+01 -0.26348660917E+00  0.72461623280E+02  0.70000069024E+02 0.  0.
         12    1    1    2    0    0  0.18544148621E+02  0.25927421355E+01  0.26348660917E+00  0.18726376720E+02  0.00000000000E+00 0. -1.
         11    1    3    3    0    0 -0.55951472326E+01  0.40456632448E+01 -0.24676438122E+02  0.25624200715E+02  0.51100000000E-03 0. -1.
        -11    1    3    3    0    0 -0.25284809887E+02 -0.45633907870E+01  0.95493313542E+01  0.27410506673E+02  0.51100000000E-03 0.  1.
        -12    1    3    3    0    0  0.12335808499E+02 -0.20750145933E+01  0.14863620158E+02  0.19426915892E+02  0.00000000000E+00 0.  1.
</event>
<event>
 7    1  0.1465498E-013  0.7246156E+02  0.7816164E-02  0.1226708E+00
        -11   -1    0    0    0    0  0.00000000000E+00  0.00000000000E+00  0.45593999997E+02  0.45594000000E+02  0.51100000000E-03 0.  1.
         11   -1    0    0    0    0 -0.00000000000E+00 -0.00000000000E+00 -0.45593999997E+02  0.45594000000E+02  0.51100000000E-03 0. -1.
    9900012    2    1    2    0    0 -0.17023556514E+02 -0.36285104677E+01 -0.69073838689E+01  0.72461561029E+02  0.69999987930E+02 0.  0.
         12    1    1    2    0    0  0.17023556514E+02  0.36285104677E+01  0.69073838689E+01  0.18726438971E+02  0.00000000000E+00 0. -1.
         11    1    3    3    0    0 -0.20720308230E+02 -0.95774906003E+01 -0.22228650122E+02  0.31861769973E+02  0.51100000000E-03 0. -1.
        -11    1    3    3    0    0  0.11435440451E+01 -0.11219750364E+02 -0.62644492213E+01  0.12900923050E+02  0.51100000000E-03 0.  1.
        -12    1    3    3    0    0  0.25532076705E+01  0.17168730497E+02  0.21585715474E+02  0.27698868006E+02  0.00000000000E+00 0.  1.
</event>
<event>
 7    1  0.1465498E-013  0.7246157E+02  0.7816164E-02  0.1226708E+00
        -11   -1    0    0    0    0  0.00000000000E+00  0.00000000000E+00  0.45593999997E+02  0.45594000000E+02  0.51100000000E-03 0.  1.
         11   -1    0    0    0    0 -0.00000000000E+00 -0.00000000000E+00 -0.45593999997E+02  0.45594000000E+02  0.51100000000E-03 0. -1.
    9900012    2    1    2    0    0  0.35981318721E+01  0.97642283584E+01  0.15568961902E+02  0.72461567262E+02  0.69999996050E+02 0.  0.
         12    1    1    2    0    0 -0.35981318721E+01 -0.97642283584E+01 -0.15568961902E+02  0.18726432738E+02  0.00000000000E+00 0. -1.
         11    1    3    3    0    0  0.82123228689E+01 -0.13651608860E+02  0.13089653963E+01  0.15985057461E+02  0.51100000000E-03 0. -1.
        -11    1    3    3    0    0 -0.11849553390E+02 -0.81096966038E+01  0.18968533783E+02  0.23790425988E+02  0.51100000000E-03 0.  1.
         12    1    3    3    0    0  0.72353623934E+01  0.31525533822E+02 -0.47085372774E+01  0.32686083813E+02  0.00000000000E+00 0. -1.
</event>
<event>
 7    1  0.1465498E-013  0.7246165E+02  0.7816164E-02  0.1226708E+00
        -11   -1    0    0    0    0  0.00000000000E+00  0.00000000000E+00  0.45593999997E+02  0.45594000000E+02  0.51100000000E-03 0.  1.
         11   -1    0    0    0    0 -0.00000000000E+00 -0.00000000000E+00 -0.45593999997E+02  0.45594000000E+02  0.51100000000E-03 0. -1.
    9900012    2    1    2    0    0  0.12522785368E+02 -0.12903644024E+02 -0.52299030633E+01  0.72461653092E+02  0.70000107859E+02 0.  0.
         12    1    1    2    0    0 -0.12522785368E+02  0.12903644024E+02  0.52299030633E+01  0.18726346908E+02  0.00000000000E+00 0. -1.
         11    1    3    3    0    0 -0.11833353936E+02 -0.58499796902E+01  0.11040325617E+02  0.17208698897E+02  0.51100000000E-03 0. -1.
        -11    1    3    3    0    0 -0.11761548431E+02  0.70869835147E+01 -0.68155716657E+01  0.15330080699E+02  0.51100000000E-03 0.  1.
         12    1    3    3    0    0  0.36117687735E+02 -0.14140647849E+02 -0.94546570144E+01  0.39922873496E+02  0.00000000000E+00 0. -1.
</event>
<event>
 7    1  0.1465498E-013  0.7246157E+02  0.7816164E-02  0.1226708E+00
        -11   -1    0    0    0    0  0.00000000000E+00  0.00000000000E+00  0.45593999997E+02  0.45594000000E+02  0.51100000000E-03 0. -1.
         11   -1    0    0    0    0 -0.00000000000E+00 -0.00000000000E+00 -0.45593999997E+02  0.45594000000E+02  0.51100000000E-03 0.  1.
    9900012    2    1    2    0    0 -0.25799605575E+01  0.18536604965E+02 -0.64599088191E+00  0.72461568831E+02  0.69999998094E+02 0.  0.
         12    1    1    2    0    0  0.25799605575E+01 -0.18536604965E+02  0.64599088191E+00  0.18726431169E+02  0.00000000000E+00 0. -1.
         11    1    3    3    0    0  0.65047867402E+01 -0.62632561663E+01  0.10475604573E+02  0.13830362243E+02  0.51100000000E-03 0. -1.
        -11    1    3    3    0    0  0.20993271662E+02  0.50795616434E+01 -0.39797952014E+01  0.21962654022E+02  0.51100000000E-03 0.  1.
        -12    1    3    3    0    0 -0.30078018960E+02  0.19720299488E+02 -0.71418002537E+01  0.36668552566E+02  0.00000000000E+00 0.  1.
</event>
<event>
 7    1  0.1465498E-013  0.7246155E+02  0.7816164E-02  0.1226708E+00
        -11   -1    0    0    0    0  0.00000000000E+00  0.00000000000E+00  0.45593999997E+02  0.45594000000E+02  0.51100000000E-03 0.  1.
         11   -1    0    0    0    0 -0.00000000000E+00 -0.00000000000E+00 -0.45593999997E+02  0.45594000000E+02  0.51100000000E-03 0. -1.
    9900012    2    1    2    0    0  0.10566723044E+02  0.40784886120E+01 -0.14912748025E+02  0.72461554557E+02  0.69999979500E+02 0.  0.
         12    1    1    2    0    0 -0.10566723044E+02 -0.40784886120E+01  0.14912748025E+02  0.18726445443E+02  0.00000000000E+00 0. -1.
         11    1    3    3    0    0  0.10468223212E+02 -0.11233293646E+02  0.70384993830E+01  0.16891153222E+02  0.51100000000E-03 0. -1.
        -11    1    3    3    0    0 -0.16367126649E+02  0.23502434687E+02 -0.24174293034E+01  0.28741802930E+02  0.51100000000E-03 0.  1.
         12    1    3    3    0    0  0.16465626482E+02 -0.81906524284E+01 -0.19533818105E+02  0.26828598405E+02  0.00000000000E+00 0. -1.
</event>
<event>
 7    1  0.1465498E-013  0.7246159E+02  0.7816164E-02  0.1226708E+00
        -11   -1    0    0    0    0  0.00000000000E+00  0.00000000000E+00  0.45593999997E+02  0.45594000000E+02  0.51100000000E-03 0. -1.
         11   -1    0    0    0    0 -0.00000000000E+00 -0.00000000000E+00 -0.45593999997E+02  0.45594000000E+02  0.51100000000E-03 0.  1.
    9900012    2    1    2    0    0 -0.14114512173E+02  0.11431608292E+02 -0.45582144602E+01  0.72461589743E+02  0.70000025336E+02 0.  0.
         12    1    1    2    0    0  0.14114512173E+02 -0.11431608292E+02  0.45582144602E+01  0.18726410257E+02  0.00000000000E+00 0. -1.
         11    1    3    3    0    0  0.18133108219E+02  0.14697059072E+02  0.13982153180E+02  0.27208707556E+02  0.51100000000E-03 0. -1.
        -11    1    3    3    0    0 -0.11211534675E+01 -0.20794067962E+01  0.54475234926E+01  0.59377125381E+01  0.51100000000E-03 0.  1.
        -12    1    3    3    0    0 -0.31126466925E+02 -0.11860439831E+01 -0.23987891133E+02  0.39315169649E+02  0.00000000000E+00 0.  1.
</event>
<event>
 7    1  0.1465498E-013  0.7246157E+02  0.7816164E-02  0.1226708E+00
        -11   -1    0    0    0    0  0.00000000000E+00  0.00000000000E+00  0.45593999997E+02  0.45594000000E+02  0.51100000000E-03 0.  1.
         11   -1    0    0    0    0 -0.00000000000E+00 -0.00000000000E+00 -0.45593999997E+02  0.45594000000E+02  0.51100000000E-03 0. -1.
    9900012    2    1    2    0    0  0.17373904295E+02  0.63081719699E+01  0.30055752319E+01  0.72461573044E+02  0.70000003582E+02 0.  0.
         12    1    1    2    0    0 -0.17373904295E+02 -0.63081719699E+01 -0.30055752319E+01  0.18726426956E+02  0.00000000000E+00 0. -1.
         11    1    3    3    0    0  0.81192917353E+01 -0.33937171180E+01 -0.24691584016E+02  0.26212869657E+02  0.51100000000E-03 0. -1.
        -11    1    3    3    0    0 -0.60851124688E+01 -0.94268314994E+01  0.33866009859E+01  0.11720188240E+02  0.51100000000E-03 0.  1.
        -12    1    3    3    0    0  0.15339725029E+02  0.19128720587E+02  0.24310558262E+02  0.34528515147E+02  0.00000000000E+00 0.  1.
</event>
<event>
 7    1  0.1465498E-013  0.7246190E+02  0.7816164E-02  0.1226707E+00
        -11   -1    0    0    0    0  0.00000000000E+00  0.00000000000E+00  0.45593999997E+02  0.45594000000E+02  0.51100000000E-03 0.  1.
         11   -1    0    0    0    0 -0.00000000000E+00 -0.00000000000E+00 -0.45593999997E+02  0.45594000000E+02  0.51100000000E-03 0. -1.
    9900012    2    1    2    0    0  0.99983312205E+00 -0.14224301855E+01  0.18645205227E+02  0.72461904522E+02  0.70000435392E+02 0.  0.
         12    1    1    2    0    0 -0.99983312205E+00  0.14224301855E+01 -0.18645205227E+02  0.18726095478E+02  0.00000000000E+00 0. -1.
         11    1    3    3    0    0  0.86294656606E+01 -0.98893511216E+01 -0.11776170547E+02  0.17633636499E+02  0.51100000000E-03 0. -1.
        -11    1    3    3    0    0  0.85261686457E+01 -0.12378118083E+02  0.63413923889E+00  0.15043785823E+02  0.51100000000E-03 0.  1.
         12    1    3    3    0    0 -0.16155801184E+02  0.20845039019E+02  0.29787236534E+02  0.39784482200E+02  0.00000000000E+00 0. -1.
</event>
<event>
 7    1  0.1465498E-013  0.7246159E+02  0.7816164E-02  0.1226708E+00
        -11   -1    0    0    0    0  0.00000000000E+00  0.00000000000E+00  0.45593999997E+02  0.45594000000E+02  0.51100000000E-03 0.  1.
         11   -1    0    0    0    0 -0.00000000000E+00 -0.00000000000E+00 -0.45593999997E+02  0.45594000000E+02  0.51100000000E-03 0. -1.
    9900012    2    1    2    0    0 -0.14137125008E+02 -0.72528432215E+01  0.99104130418E+01  0.72461592845E+02  0.70000029376E+02 0.  0.
         12    1    1    2    0    0  0.14137125008E+02  0.72528432215E+01 -0.99104130418E+01  0.18726407155E+02  0.00000000000E+00 0. -1.
         11    1    3    3    0    0 -0.15142860480E+02 -0.26857736110E+02  0.57047342334E+00  0.30837795847E+02  0.51100000000E-03 0. -1.
        -11    1    3    3    0    0 -0.77430662044E+01 -0.32925616252E+01  0.14321973455E+02  0.16610688132E+02  0.51100000000E-03 0.  1.
        -12    1    3    3    0    0  0.87488016768E+01  0.22897454514E+02 -0.49820338368E+01  0.25013108866E+02  0.00000000000E+00 0.  1.
</event>
<event>
 7    1  0.1465498E-013  0.7246157E+02  0.7816164E-02  0.1226708E+00
        -11   -1    0    0    0    0  0.00000000000E+00  0.00000000000E+00  0.45593999997E+02  0.45594000000E+02  0.51100000000E-03 0. -1.
         11   -1    0    0    0    0 -0.00000000000E+00 -0.00000000000E+00 -0.45593999997E+02  0.45594000000E+02  0.51100000000E-03 0.  1.
    9900012    2    1    2    0    0 -0.61217871516E+01  0.15507637578E+02 -0.85273807951E+01  0.72461566159E+02  0.69999994613E+02 0.  0.
         12    1    1    2    0    0  0.61217871516E+01 -0.15507637578E+02  0.85273807951E+01  0.18726433841E+02  0.00000000000E+00 0. -1.
         11    1    3    3    0    0  0.17682112328E+02  0.68981691385E+01 -0.19821023386E+02  0.27442937200E+02  0.51100000000E-03 0. -1.
        -11    1    3    3    0    0  0.72052404077E+01  0.52227640437E+00  0.10769409503E+02  0.12967977610E+02  0.51100000000E-03 0.  1.
        -12    1    3    3    0    0 -0.31009139887E+02  0.80871920354E+01  0.52423308720E+00  0.32050651349E+02  0.00000000000E+00 0.  1.
</event>
<event>
 7    1  0.1465498E-013  0.7246154E+02  0.7816164E-02  0.1226708E+00
        -11   -1    0    0    0    0  0.00000000000E+00  0.00000000000E+00  0.45593999997E+02  0.45594000000E+02  0.51100000000E-03 0. -1.
         11   -1    0    0    0    0 -0.00000000000E+00 -0.00000000000E+00 -0.45593999997E+02  0.45594000000E+02  0.51100000000E-03 0.  1.
    9900012    2    1    2    0    0 -0.18700322931E+02 -0.89705529588E+00 -0.41660655409E+00  0.72461538857E+02  0.69999959047E+02 0.  0.
         12    1    1    2    0    0  0.18700322931E+02  0.89705529588E+00  0.41660655409E+00  0.18726461143E+02  0.00000000000E+00 0. -1.
         11    1    3    3    0    0 -0.15200243872E+02 -0.13431378461E+02  0.13904660321E+02  0.24592456568E+02  0.51100000000E-03 0. -1.
        -11    1    3    3    0    0 -0.20047752578E+02 -0.15894166258E+01 -0.16488321447E+02  0.26005833443E+02  0.51100000000E-03 0.  1.
        -12    1    3    3    0    0  0.16547673519E+02  0.14123739791E+02  0.21670545716E+01  0.21863248846E+02  0.00000000000E+00 0.  1.
</event>
<event>
 7    1  0.1465498E-013  0.7246158E+02  0.7816164E-02  0.1226708E+00
        -11   -1    0    0    0    0  0.00000000000E+00  0.00000000000E+00  0.45593999997E+02  0.45594000000E+02  0.51100000000E-03 0. -1.
         11   -1    0    0    0    0 -0.00000000000E+00 -0.00000000000E+00 -0.45593999997E+02  0.45594000000E+02  0.51100000000E-03 0.  1.
    9900012    2    1    2    0    0  0.11837707617E+02 -0.13358775264E+02 -0.56648524692E+01  0.72461581451E+02  0.70000014534E+02 0.  0.
         12    1    1    2    0    0 -0.11837707617E+02  0.13358775264E+02  0.56648524692E+01  0.18726418549E+02  0.00000000000E+00 0. -1.
         11    1    3    3    0    0  0.65108438402E+01 -0.91494397035E+01 -0.93715996701E+01  0.14626353443E+02  0.51100000000E-03 0. -1.
        -11    1    3    3    0    0 -0.10654143676E+01 -0.29505206657E+02 -0.57577146369E+01  0.30080618440E+02  0.51100000000E-03 0.  1.
         12    1    3    3    0    0  0.63922781441E+01  0.25295871096E+02  0.94644618378E+01  0.27754609568E+02  0.00000000000E+00 0. -1.
</event>
<event>
 7    1  0.1465498E-013  0.7246156E+02  0.7816164E-02  0.1226708E+00
        -11   -1    0    0    0    0  0.00000000000E+00  0.00000000000E+00  0.45593999997E+02  0.45594000000E+02  0.51100000000E-03 0.  1.
         11   -1    0    0    0    0 -0.00000000000E+00 -0.00000000000E+00 -0.45593999997E+02  0.45594000000E+02  0.51100000000E-03 0. -1.
    9900012    2    1    2    0    0  0.14434535341E-01  0.15942316899E+02  0.98245632220E+01  0.72461555624E+02  0.69999980889E+02 0.  0.
         12    1    1    2    0    0 -0.14434535341E-01 -0.15942316899E+02 -0.98245632220E+01  0.18726444376E+02  0.00000000000E+00 0. -1.
         11    1    3    3    0    0  0.88543574953E+01 -0.77134510422E+01  0.78843712374E+01  0.14144266814E+02  0.51100000000E-03 0. -1.
        -11    1    3    3    0    0  0.15535914472E+02  0.23675063415E+02  0.13463368495E+02  0.31354992548E+02  0.51100000000E-03 0.  1.
         12    1    3    3    0    0 -0.24375837432E+02 -0.19295473943E-01 -0.11523176510E+02  0.26962296262E+02  0.00000000000E+00 0. -1.
</event>
<event>
 7    1  0.1465498E-013  0.7246159E+02  0.7816164E-02  0.1226708E+00
        -11   -1    0    0    0    0  0.00000000000E+00  0.00000000000E+00  0.45593999997E+02  0.45594000000E+02  0.51100000000E-03 0. -1.
         11   -1    0    0    0    0 -0.00000000000E+00 -0.00000000000E+00 -0.45593999997E+02  0.45594000000E+02  0.51100000000E-03 0.  1.
    9900012    2    1    2    0    0 -0.10238078162E+02 -0.96458828175E+01 -0.12361927503E+02  0.72461586799E+02  0.70000021501E+02 0.  0.
         12    1    1    2    0    0  0.10238078162E+02  0.96458828175E+01  0.12361927503E+02  0.18726413201E+02  0.00000000000E+00 0. -1.
         11    1    3    3    0    0 -0.61377162132E+01 -0.26536418360E+02  0.29176084681E+01  0.27392800133E+02  0.51100000000E-03 0. -1.
        -11    1    3    3    0    0  0.39245852744E+01 -0.38802306097E+01 -0.21298988895E+02  0.22002397309E+02  0.51100000000E-03 0.  1.
        -12    1    3    3    0    0 -0.80249472227E+01  0.20770766152E+02  0.60194529236E+01  0.23066389357E+02  0.00000000000E+00 0.  1.
</event>
<event>
 7    1  0.1465498E-013  0.7246156E+02  0.7816164E-02  0.1226708E+00
        -11   -1    0    0    0    0  0.00000000000E+00  0.00000000000E+00  0.45593999997E+02  0.45594000000E+02  0.51100000000E-03 0. -1.
         11   -1    0    0    0    0 -0.00000000000E+00 -0.00000000000E+00 -0.45593999997E+02  0.45594000000E+02  0.51100000000E-03 0.  1.
    9900012    2    1    2    0    0 -0.15491857941E+02 -0.79004022978E+01 -0.69473441159E+01  0.72461558555E+02  0.69999984707E+02 0.  0.
         12    1    1    2    0    0  0.15491857941E+02  0.79004022978E+01  0.69473441159E+01  0.18726441445E+02  0.00000000000E+00 0. -1.
         11    1    3    3    0    0 -0.14440351728E+02  0.25465688634E+02  0.65862890992E+01  0.30006736910E+02  0.51100000000E-03 0. -1.
        -11    1    3    3    0    0 -0.11294016786E+02 -0.21270562258E+02 -0.10703739245E+02  0.26354537901E+02  0.51100000000E-03 0.  1.
        -12    1    3    3    0    0  0.10242510572E+02 -0.12095528674E+02 -0.28298939695E+01  0.16100283743E+02  0.00000000000E+00 0.  1.
</event>
<event>
 7    1  0.1465498E-013  0.7246158E+02  0.7816164E-02  0.1226708E+00
        -11   -1    0    0    0    0  0.00000000000E+00  0.00000000000E+00  0.45593999997E+02  0.45594000000E+02  0.51100000000E-03 0.  1.
         11   -1    0    0    0    0 -0.00000000000E+00 -0.00000000000E+00 -0.45593999997E+02  0.45594000000E+02  0.51100000000E-03 0. -1.
    9900012    2    1    2    0    0  0.25388925803E+01  0.85591110807E+01  0.16461302751E+02  0.72461578925E+02  0.70000011243E+02 0.  0.
         12    1    1    2    0    0 -0.25388925803E+01 -0.85591110807E+01 -0.16461302751E+02  0.18726421075E+02  0.00000000000E+00 0. -1.
         11    1    3    3    0    0  0.17318784971E+01  0.12012638168E+02 -0.14891742963E+02  0.19211113649E+02  0.51100000000E-03 0. -1.
        -11    1    3    3    0    0 -0.11994220935E+02  0.68722467885E+01 -0.38885947279E+01  0.14360023711E+02  0.51100000000E-03 0.  1.
        -12    1    3    3    0    0  0.12801235018E+02 -0.10325773875E+02  0.35241640442E+02  0.38890441566E+02  0.00000000000E+00 0.  1.
</event>
<event>
 7    1  0.1465498E-013  0.7246158E+02  0.7816164E-02  0.1226708E+00
        -11   -1    0    0    0    0  0.00000000000E+00  0.00000000000E+00  0.45593999997E+02  0.45594000000E+02  0.51100000000E-03 0.  1.
         11   -1    0    0    0    0 -0.00000000000E+00 -0.00000000000E+00 -0.45593999997E+02  0.45594000000E+02  0.51100000000E-03 0. -1.
    9900012    2    1    2    0    0 -0.84214809472E+01  0.40901211104E+01  0.16218148271E+02  0.72461581085E+02  0.70000014057E+02 0.  0.
         12    1    1    2    0    0  0.84214809472E+01 -0.40901211104E+01 -0.16218148271E+02  0.18726418915E+02  0.00000000000E+00 0. -1.
         11    1    3    3    0    0 -0.77713565263E+01  0.77591538452E+01 -0.17198981408E+02  0.20405965117E+02  0.51100000000E-03 0. -1.
        -11    1    3    3    0    0  0.19765307502E+01  0.80535093235E+01 -0.63940675294E+01  0.10471379377E+02  0.51100000000E-03 0.  1.
        -12    1    3    3    0    0 -0.26266551711E+01 -0.11722542058E+02  0.39811197208E+02  0.41584236591E+02  0.00000000000E+00 0.  1.
</event>
<event>
 7    1  0.1465498E-013  0.7246154E+02  0.7816164E-02  0.1226708E+00
        -11   -1    0    0    0    0  0.00000000000E+00  0.00000000000E+00  0.45593999997E+02  0.45594000000E+02  0.51100000000E-03 0.  1.
         11   -1    0    0    0    0 -0.00000000000E+00 -0.00000000000E+00 -0.45593999997E+02  0.45594000000E+02  0.51100000000E-03 0. -1.
    9900012    2    1    2    0    0 -0.91743639779E+01 -0.10931800761E+02  0.12124646669E+02  0.72461540668E+02  0.69999961406E+02 0.  0.
         12    1    1    2    0    0  0.91743639779E+01  0.10931800761E+02 -0.12124646669E+02  0.18726459332E+02  0.00000000000E+00 0. -1.
         11    1    3    3    0    0 -0.87831504313E+00 -0.34538624845E+02 -0.13402005065E+01  0.34575774484E+02  0.51100000000E-03 0. -1.
        -11    1    3    3    0    0  0.30763473097E+01  0.84605306031E+00  0.11981263878E+02  0.12398806512E+02  0.51100000000E-03 0.  1.
        -12    1    3    3    0    0 -0.11372396245E+02  0.22760771024E+02  0.14835832975E+01  0.25486959672E+02  0.00000000000E+00 0.  1.
</event>
<event>
 7    1  0.1465498E-013  0.7246157E+02  0.7816164E-02  0.1226708E+00
        -11   -1    0    0    0    0  0.00000000000E+00  0.00000000000E+00  0.45593999997E+02  0.45594000000E+02  0.51100000000E-03 0. -1.
         11   -1    0    0    0    0 -0.00000000000E+00 -0.00000000000E+00 -0.45593999997E+02  0.45594000000E+02  0.51100000000E-03 0.  1.
    9900012    2    1    2    0    0 -0.11888580561E+02 -0.12863318784E+02  0.66238729956E+01  0.72461574517E+02  0.70000005501E+02 0.  0.
         12    1    1    2    0    0  0.11888580561E+02  0.12863318784E+02 -0.66238729956E+01  0.18726425483E+02  0.00000000000E+00 0. -1.
         11    1    3    3    0    0 -0.14011781917E+02 -0.89380367998E+01  0.14225458411E+02  0.21876521698E+02  0.51100000000E-03 0. -1.
        -11    1    3    3    0    0  0.34587053521E+01 -0.25976539463E+02 -0.10643873152E+02  0.28284894929E+02  0.51100000000E-03 0.  1.
        -12    1    3    3    0    0 -0.13355039954E+01  0.22051257478E+02  0.30422877373E+01  0.22300157891E+02  0.00000000000E+00 0.  1.
</event>
<event>
 7    1  0.1465498E-013  0.7246164E+02  0.7816164E-02  0.1226708E+00
        -11   -1    0    0    0    0  0.00000000000E+00  0.00000000000E+00  0.45593999997E+02  0.45594000000E+02  0.51100000000E-03 0.  1.
         11   -1    0    0    0    0 -0.00000000000E+00 -0.00000000000E+00 -0.45593999997E+02  0.45594000000E+02  0.51100000000E-03 0. -1.
    9900012    2    1    2    0    0 -0.87339096503E+01  0.12793437822E+02  0.10522508947E+02  0.72461643610E+02  0.70000095508E+02 0.  0.
         12    1    1    2    0    0  0.87339096503E+01 -0.12793437822E+02 -0.10522508947E+02  0.18726356390E+02  0.00000000000E+00 0. -1.
         11    1    3    3    0    0 -0.50897632283E+01  0.26344113999E+02 -0.19081345284E+02  0.32924394759E+02  0.51100000000E-03 0. -1.
        -11    1    3    3    0    0  0.29057106210E+01  0.54060966283E+01  0.74729316985E+01  0.96702504310E+01  0.51100000000E-03 0.  1.
        -12    1    3    3    0    0 -0.65498570430E+01 -0.18956772805E+02  0.22130922533E+02  0.29866998420E+02  0.00000000000E+00 0.  1.
</event>
<event>
 7    1  0.1465498E-013  0.7246157E+02  0.7816164E-02  0.1226708E+00
        -11   -1    0    0    0    0  0.00000000000E+00  0.00000000000E+00  0.45593999997E+02  0.45594000000E+02  0.51100000000E-03 0.  1.
         11   -1    0    0    0    0 -0.00000000000E+00 -0.00000000000E+00 -0.45593999997E+02  0.45594000000E+02  0.51100000000E-03 0. -1.
    9900012    2    1    2    0    0  0.11251057066E+02  0.10030472053E+02 -0.11112261129E+02  0.72461574764E+02  0.70000005823E+02 0.  0.
         12    1    1    2    0    0 -0.11251057066E+02 -0.10030472053E+02  0.11112261129E+02  0.18726425236E+02  0.00000000000E+00 0. -1.
         11    1    3    3    0    0 -0.22482489685E+02 -0.38590305344E+01  0.35319355949E+01  0.23083089663E+02  0.51100000000E-03 0. -1.
        -11    1    3    3    0    0  0.85805705808E+01 -0.40458840483E+01 -0.15839203120E+02  0.18462820070E+02  0.51100000000E-03 0.  1.
        -12    1    3    3    0    0  0.25152976170E+02  0.17935386636E+02  0.11950063957E+01  0.30915665030E+02  0.00000000000E+00 0.  1.
</event>
<event>
 7    1  0.1465498E-013  0.7246155E+02  0.7816164E-02  0.1226708E+00
        -11   -1    0    0    0    0  0.00000000000E+00  0.00000000000E+00  0.45593999997E+02  0.45594000000E+02  0.51100000000E-03 0.  1.
         11   -1    0    0    0    0 -0.00000000000E+00 -0.00000000000E+00 -0.45593999997E+02  0.45594000000E+02  0.51100000000E-03 0. -1.
    9900012    2    1    2    0    0  0.58942275972E+01 -0.17279848996E+02  0.41647044172E+01  0.72461551774E+02  0.69999975874E+02 0.  0.
         12    1    1    2    0    0 -0.58942275972E+01  0.17279848996E+02 -0.41647044172E+01  0.18726448226E+02  0.00000000000E+00 0. -1.
         11    1    3    3    0    0  0.11433797328E+02  0.35141473811E+00  0.10711031404E+02  0.15671037223E+02  0.51100000000E-03 0. -1.
        -11    1    3    3    0    0 -0.22237116168E+02  0.11231509214E+01  0.12260600369E+02  0.25417968548E+02  0.51100000000E-03 0.  1.
        -12    1    3    3    0    0  0.16697546437E+02 -0.18754414655E+02 -0.18806927356E+02  0.31372546002E+02  0.00000000000E+00 0.  1.
</event>
<event>
 7    1  0.1465498E-013  0.7246155E+02  0.7816164E-02  0.1226708E+00
        -11   -1    0    0    0    0  0.00000000000E+00  0.00000000000E+00  0.45593999997E+02  0.45594000000E+02  0.51100000000E-03 0.  1.
         11   -1    0    0    0    0 -0.00000000000E+00 -0.00000000000E+00 -0.45593999997E+02  0.45594000000E+02  0.51100000000E-03 0. -1.
    9900012    2    1    2    0    0  0.63225733166E+01  0.75280974213E+01  0.15938400661E+02  0.72461553467E+02  0.69999978079E+02 0.  0.
         12    1    1    2    0    0 -0.63225733166E+01 -0.75280974213E+01 -0.15938400661E+02  0.18726446533E+02  0.00000000000E+00 0. -1.
         11    1    3    3    0    0  0.11224895855E+02  0.27038888339E+02  0.32958788409E+01  0.29461204781E+02  0.51100000000E-03 0. -1.
        -11    1    3    3    0    0  0.89602250161E-01  0.32914270101E+01  0.18616766684E+02  0.18905700790E+02  0.51100000000E-03 0.  1.
         12    1    3    3    0    0 -0.49919247885E+01 -0.22802217928E+02 -0.59742448636E+01  0.24094647896E+02  0.00000000000E+00 0. -1.
</event>
<event>
 7    1  0.1465498E-013  0.7246166E+02  0.7816164E-02  0.1226708E+00
        -11   -1    0    0    0    0  0.00000000000E+00  0.00000000000E+00  0.45593999997E+02  0.45594000000E+02  0.51100000000E-03 0.  1.
         11   -1    0    0    0    0 -0.00000000000E+00 -0.00000000000E+00 -0.45593999997E+02  0.45594000000E+02  0.51100000000E-03 0. -1.
    9900012    2    1    2    0    0 -0.12868954596E+02 -0.13464557473E+02  0.19420329446E+01  0.72461660467E+02  0.70000117467E+02 0.  0.
         12    1    1    2    0    0  0.12868954596E+02  0.13464557473E+02 -0.19420329446E+01  0.18726339533E+02  0.00000000000E+00 0. -1.
         11    1    3    3    0    0 -0.21311844480E+02  0.42533191583E+01  0.21553506909E+01  0.21838749412E+02  0.51100000000E-03 0. -1.
        -11    1    3    3    0    0 -0.11330440214E+02 -0.13863687163E+02  0.16575092594E+02  0.24399065392E+02  0.51100000000E-03 0.  1.
        -12    1    3    3    0    0  0.19773330099E+02 -0.38541894684E+01 -0.16788410341E+02  0.26223845664E+02  0.00000000000E+00 0.  1.
</event>
<event>
 7    1  0.1465498E-013  0.7246160E+02  0.7816164E-02  0.1226708E+00
        -11   -1    0    0    0    0  0.00000000000E+00  0.00000000000E+00  0.45593999997E+02  0.45594000000E+02  0.51100000000E-03 0. -1.
         11   -1    0    0    0    0 -0.00000000000E+00 -0.00000000000E+00 -0.45593999997E+02  0.45594000000E+02  0.51100000000E-03 0.  1.
    9900012    2    1    2    0    0 -0.37636308768E+01 -0.12706246635E+02 -0.13231192557E+02  0.72461599454E+02  0.70000037985E+02 0.  0.
         12    1    1    2    0    0  0.37636308768E+01  0.12706246635E+02  0.13231192557E+02  0.18726400546E+02  0.00000000000E+00 0. -1.
         11    1    3    3    0    0 -0.85985703707E+00 -0.10201765866E+01  0.97010496473E+01  0.97923684016E+01  0.51100000000E-03 0. -1.
        -11    1    3    3    0    0  0.10686880635E+02 -0.18632338977E+02  0.11959949696E+02  0.24584830088E+02  0.51100000000E-03 0.  1.
        -12    1    3    3    0    0 -0.13590654475E+02  0.69462689284E+01 -0.34892191901E+02  0.38084400963E+02  0.00000000000E+00 0.  1.
</event>
<event>
 7    1  0.1465498E-013  0.7246156E+02  0.7816164E-02  0.1226708E+00
        -11   -1    0    0    0    0  0.00000000000E+00  0.00000000000E+00  0.45593999997E+02  0.45594000000E+02  0.51100000000E-03 0.  1.
         11   -1    0    0    0    0 -0.00000000000E+00 -0.00000000000E+00 -0.45593999997E+02  0.45594000000E+02  0.51100000000E-03 0. -1.
    9900012    2    1    2    0    0 -0.60345688690E+01 -0.15483488239E+02  0.86327891380E+01  0.72461562064E+02  0.69999989278E+02 0.  0.
         12    1    1    2    0    0  0.60345688690E+01  0.15483488239E+02 -0.86327891380E+01  0.18726437936E+02  0.00000000000E+00 0. -1.
         11    1    3    3    0    0 -0.10208835932E+01 -0.60403590582E+01 -0.28233508346E+02  0.28890467886E+02  0.51100000000E-03 0. -1.
        -11    1    3    3    0    0 -0.28861378978E-01  0.36357970130E+01 -0.49929887653E+00  0.36700344043E+01  0.51100000000E-03 0.  1.
        -12    1    3    3    0    0 -0.49848238968E+01 -0.13078926193E+02  0.37365596361E+02  0.39901059774E+02  0.00000000000E+00 0.  1.
</event>
<event>
 7    1  0.1465498E-013  0.7246164E+02  0.7816164E-02  0.1226708E+00
        -11   -1    0    0    0    0  0.00000000000E+00  0.00000000000E+00  0.45593999997E+02  0.45594000000E+02  0.51100000000E-03 0.  1.
         11   -1    0    0    0    0 -0.00000000000E+00 -0.00000000000E+00 -0.45593999997E+02  0.45594000000E+02  0.51100000000E-03 0. -1.
    9900012    2    1    2    0    0 -0.52276523582E+01  0.16881770677E+02  0.61930582063E+01  0.72461641563E+02  0.70000092840E+02 0.  0.
         12    1    1    2    0    0  0.52276523582E+01 -0.16881770677E+02 -0.61930582063E+01  0.18726358437E+02  0.00000000000E+00 0. -1.
         11    1    3    3    0    0  0.69879086622E+01 -0.15145009914E+01 -0.47419416079E+01  0.85796614851E+01  0.51100000000E-03 0. -1.
        -11    1    3    3    0    0 -0.94900730700E-01 -0.12472534788E+02 -0.16609774803E+02  0.20771561074E+02  0.51100000000E-03 0.  1.
         12    1    3    3    0    0 -0.12120660290E+02  0.30868806457E+02  0.27544774617E+02  0.43110419003E+02  0.00000000000E+00 0. -1.
</event>
<event>
 7    1  0.1465498E-013  0.7246150E+02  0.7816164E-02  0.1226708E+00
        -11   -1    0    0    0    0  0.00000000000E+00  0.00000000000E+00  0.45593999997E+02  0.45594000000E+02  0.51100000000E-03 0.  1.
         11   -1    0    0    0    0 -0.00000000000E+00 -0.00000000000E+00 -0.45593999997E+02  0.45594000000E+02  0.51100000000E-03 0. -1.
    9900012    2    1    2    0    0  0.12264953184E+02  0.14131025250E+02  0.75277483725E+00  0.72461504834E+02  0.69999914726E+02 0.  0.
         12    1    1    2    0    0 -0.12264953184E+02 -0.14131025250E+02 -0.75277483725E+00  0.18726495166E+02  0.00000000000E+00 0. -1.
         11    1    3    3    0    0  0.13577045932E+02  0.16664640625E+01  0.96157101368E+01  0.16720501201E+02  0.51100000000E-03 0. -1.
        -11    1    3    3    0    0  0.54149944505E+01  0.56822526503E+01  0.22039640708E+02  0.23395638971E+02  0.51100000000E-03 0.  1.
         12    1    3    3    0    0 -0.67270871983E+01  0.67823085374E+01 -0.30902576007E+02  0.32345364662E+02  0.00000000000E+00 0. -1.
</event>
<event>
 7    1  0.1465498E-013  0.7246189E+02  0.7816164E-02  0.1226707E+00
        -11   -1    0    0    0    0  0.00000000000E+00  0.00000000000E+00  0.45593999997E+02  0.45594000000E+02  0.51100000000E-03 0.  1.
         11   -1    0    0    0    0 -0.00000000000E+00 -0.00000000000E+00 -0.45593999997E+02  0.45594000000E+02  0.51100000000E-03 0. -1.
    9900012    2    1    2    0    0  0.57458524273E+01 -0.55658255165E+01  0.16931451362E+02  0.72461887776E+02  0.70000413578E+02 0.  0.
         12    1    1    2    0    0 -0.57458524273E+01  0.55658255165E+01 -0.16931451362E+02  0.18726112224E+02  0.00000000000E+00 0. -1.
         11    1    3    3    0    0  0.20322373377E+01  0.21069220613E+02  0.35737652007E+01  0.21466575036E+02  0.51100000000E-03 0. -1.
        -11    1    3    3    0    0 -0.14564023275E+02 -0.20883954039E+02 -0.32131770137E+01  0.25662712582E+02  0.51100000000E-03 0.  1.
        -12    1    3    3    0    0  0.18277638365E+02 -0.57510920901E+01  0.16570863175E+02  0.25332600158E+02  0.00000000000E+00 0.  1.
</event>
<event>
 7    1  0.1465498E-013  0.7246158E+02  0.7816164E-02  0.1226708E+00
        -11   -1    0    0    0    0  0.00000000000E+00  0.00000000000E+00  0.45593999997E+02  0.45594000000E+02  0.51100000000E-03 0.  1.
         11   -1    0    0    0    0 -0.00000000000E+00 -0.00000000000E+00 -0.45593999997E+02  0.45594000000E+02  0.51100000000E-03 0. -1.
    9900012    2    1    2    0    0  0.14785405092E+02  0.21150425832E+01  0.11295894288E+02  0.72461579183E+02  0.70000011579E+02 0.  0.
         12    1    1    2    0    0 -0.14785405092E+02 -0.21150425832E+01 -0.11295894288E+02  0.18726420817E+02  0.00000000000E+00 0. -1.
         11    1    3    3    0    0  0.23175263032E+01 -0.21710702297E+01 -0.23534156389E+02  0.23747441785E+02  0.51100000000E-03 0. -1.
        -11    1    3    3    0    0  0.91989596302E+00  0.12789280861E+01 -0.59857998712E+01  0.61896418306E+01  0.51100000000E-03 0.  1.
        -12    1    3    3    0    0  0.11547982825E+02  0.30071847269E+01  0.40815850548E+02  0.42524495568E+02  0.00000000000E+00 0.  1.
</event>
<event>
 7    1  0.1465498E-013  0.7246157E+02  0.7816164E-02  0.1226708E+00
        -11   -1    0    0    0    0  0.00000000000E+00  0.00000000000E+00  0.45593999997E+02  0.45594000000E+02  0.51100000000E-03 0. -1.
         11   -1    0    0    0    0 -0.00000000000E+00 -0.00000000000E+00 -0.45593999997E+02  0.45594000000E+02  0.51100000000E-03 0.  1.
    9900012    2    1    2    0    0  0.94139515690E+01 -0.15892088574E+02 -0.30819177602E+01  0.72461570002E+02  0.69999999619E+02 0.  0.
         12    1    1    2    0    0 -0.94139515690E+01  0.15892088574E+02  0.30819177602E+01  0.18726429998E+02  0.00000000000E+00 0. -1.
         11    1    3    3    0    0  0.15618800275E+02 -0.17248088463E+02  0.70168964482E+01  0.24303915604E+02  0.51100000000E-03 0. -1.
        -11    1    3    3    0    0  0.91564746639E+01  0.20357305077E+02 -0.76721923419E+01  0.23603462328E+02  0.51100000000E-03 0.  1.
        -12    1    3    3    0    0 -0.15361323370E+02 -0.19001305188E+02 -0.24266218665E+01  0.24554192070E+02  0.00000000000E+00 0.  1.
</event>
<event>
 7    1  0.1465498E-013  0.7246158E+02  0.7816164E-02  0.1226708E+00
        -11   -1    0    0    0    0  0.00000000000E+00  0.00000000000E+00  0.45593999997E+02  0.45594000000E+02  0.51100000000E-03 0.  1.
         11   -1    0    0    0    0 -0.00000000000E+00 -0.00000000000E+00 -0.45593999997E+02  0.45594000000E+02  0.51100000000E-03 0. -1.
    9900012    2    1    2    0    0  0.30260714694E+01 -0.89144385960E+01  0.16188093273E+02  0.72461583155E+02  0.70000016754E+02 0.  0.
         12    1    1    2    0    0 -0.30260714694E+01  0.89144385960E+01 -0.16188093273E+02  0.18726416845E+02  0.00000000000E+00 0. -1.
         11    1    3    3    0    0 -0.88906614021E+01 -0.13798405485E+02  0.20851761905E+01  0.16546534806E+02  0.51100000000E-03 0. -1.
        -11    1    3    3    0    0 -0.15500516572E+02  0.33271736700E+01  0.22204736611E+02  0.27283446022E+02  0.51100000000E-03 0.  1.
         12    1    3    3    0    0  0.27417249443E+02  0.15567932186E+01 -0.81018195283E+01  0.28631602327E+02  0.00000000000E+00 0. -1.
</event>
<event>
 7    1  0.1465498E-013  0.7246161E+02  0.7816164E-02  0.1226708E+00
        -11   -1    0    0    0    0  0.00000000000E+00  0.00000000000E+00  0.45593999997E+02  0.45594000000E+02  0.51100000000E-03 0.  1.
         11   -1    0    0    0    0 -0.00000000000E+00 -0.00000000000E+00 -0.45593999997E+02  0.45594000000E+02  0.51100000000E-03 0. -1.
    9900012    2    1    2    0    0 -0.53545606599E+01 -0.14321274927E+02  0.10812368836E+02  0.72461613396E+02  0.70000056148E+02 0.  0.
         12    1    1    2    0    0  0.53545606599E+01  0.14321274927E+02 -0.10812368836E+02  0.18726386604E+02  0.00000000000E+00 0. -1.
         11    1    3    3    0    0  0.56307717744E+01  0.94606597341E+00  0.59070349936E+01  0.82154545996E+01  0.51100000000E-03 0. -1.
        -11    1    3    3    0    0  0.15127137951E+02 -0.22498483838E+02  0.19570526913E+02  0.33436770201E+02  0.51100000000E-03 0.  1.
         12    1    3    3    0    0 -0.26112470385E+02  0.72311429375E+01 -0.14665193071E+02  0.30809388595E+02  0.00000000000E+00 0. -1.
</event>
<event>
 7    1  0.1465498E-013  0.7246158E+02  0.7816164E-02  0.1226708E+00
        -11   -1    0    0    0    0  0.00000000000E+00  0.00000000000E+00  0.45593999997E+02  0.45594000000E+02  0.51100000000E-03 0. -1.
         11   -1    0    0    0    0 -0.00000000000E+00 -0.00000000000E+00 -0.45593999997E+02  0.45594000000E+02  0.51100000000E-03 0.  1.
    9900012    2    1    2    0    0 -0.77331661846E+01  0.15912791761E+02 -0.61367845510E+01  0.72461576810E+02  0.70000008488E+02 0.  0.
         12    1    1    2    0    0  0.77331661846E+01 -0.15912791761E+02  0.61367845510E+01  0.18726423190E+02  0.00000000000E+00 0. -1.
         11    1    3    3    0    0 -0.22508522783E+02  0.59133377287E+01 -0.11323773028E+02  0.25881054786E+02  0.51100000000E-03 0. -1.
        -11    1    3    3    0    0 -0.97747369077E+01 -0.99330744547E+01 -0.21938898166E+01  0.14107607966E+02  0.51100000000E-03 0.  1.
        -12    1    3    3    0    0  0.24550093506E+02  0.19932528487E+02  0.73808782938E+01  0.32472914058E+02  0.00000000000E+00 0.  1.
</event>
<event>
 7    1  0.1465498E-013  0.7246159E+02  0.7816164E-02  0.1226708E+00
        -11   -1    0    0    0    0  0.00000000000E+00  0.00000000000E+00  0.45593999997E+02  0.45594000000E+02  0.51100000000E-03 0.  1.
         11   -1    0    0    0    0 -0.00000000000E+00 -0.00000000000E+00 -0.45593999997E+02  0.45594000000E+02  0.51100000000E-03 0. -1.
    9900012    2    1    2    0    0 -0.13900000521E+02 -0.64019598813E+01 -0.10792739059E+02  0.72461592944E+02  0.70000029506E+02 0.  0.
         12    1    1    2    0    0  0.13900000521E+02  0.64019598813E+01  0.10792739059E+02  0.18726407056E+02  0.00000000000E+00 0. -1.
         11    1    3    3    0    0 -0.14325148376E+02 -0.93220916325E+01 -0.55362537233E+01  0.17965560775E+02  0.51100000000E-03 0. -1.
        -11    1    3    3    0    0 -0.18423434122E+02 -0.36798657570E+01  0.16470745000E+02  0.24984991054E+02  0.51100000000E-03 0.  1.
         12    1    3    3    0    0  0.18848581977E+02  0.65999975082E+01 -0.21727230337E+02  0.29511041116E+02  0.00000000000E+00 0. -1.
</event>
<event>
 7    1  0.1465498E-013  0.7246161E+02  0.7816164E-02  0.1226708E+00
        -11   -1    0    0    0    0  0.00000000000E+00  0.00000000000E+00  0.45593999997E+02  0.45594000000E+02  0.51100000000E-03 0.  1.
         11   -1    0    0    0    0 -0.00000000000E+00 -0.00000000000E+00 -0.45593999997E+02  0.45594000000E+02  0.51100000000E-03 0. -1.
    9900012    2    1    2    0    0  0.16909326462E+02 -0.79560647537E+01  0.12056047848E+01  0.72461607644E+02  0.70000048655E+02 0.  0.
         12    1    1    2    0    0 -0.16909326462E+02  0.79560647537E+01 -0.12056047848E+01  0.18726392356E+02  0.00000000000E+00 0. -1.
         11    1    3    3    0    0  0.46184481051E+01  0.92779013832E+01  0.41577430127E+01  0.11166751730E+02  0.51100000000E-03 0. -1.
        -11    1    3    3    0    0  0.12117230698E+02  0.19183500451E+02 -0.89406452153E+01  0.24387888521E+02  0.51100000000E-03 0.  1.
        -12    1    3    3    0    0  0.17364765893E+00 -0.36417466588E+02  0.59885069875E+01  0.36906967393E+02  0.00000000000E+00 0.  1.
</event>
<event>
 7    1  0.1465498E-013  0.7246156E+02  0.7816164E-02  0.1226708E+00
        -11   -1    0    0    0    0  0.00000000000E+00  0.00000000000E+00  0.45593999997E+02  0.45594000000E+02  0.51100000000E-03 0.  1.
         11   -1    0    0    0    0 -0.00000000000E+00 -0.00000000000E+00 -0.45593999997E+02  0.45594000000E+02  0.51100000000E-03 0. -1.
    9900012    2    1    2    0    0 -0.47223344379E+01  0.15026004411E+02  0.10129073723E+02  0.72461564526E+02  0.69999992485E+02 0.  0.
         12    1    1    2    0    0  0.47223344379E+01 -0.15026004411E+02 -0.10129073723E+02  0.18726435474E+02  0.00000000000E+00 0. -1.
         11    1    3    3    0    0 -0.31918250597E+01  0.19373538300E+02 -0.13822890357E+02  0.24012372468E+02  0.51100000000E-03 0. -1.
        -11    1    3    3    0    0  0.96920814826E+01  0.14495440370E+02  0.22268989911E+01  0.17578774541E+02  0.51100000000E-03 0.  1.
         12    1    3    3    0    0 -0.11222590861E+02 -0.18842974259E+02  0.21725065089E+02  0.30870417517E+02  0.00000000000E+00 0. -1.
</event>
<event>
 7    1  0.1465498E-013  0.7246158E+02  0.7816164E-02  0.1226708E+00
        -11   -1    0    0    0    0  0.00000000000E+00  0.00000000000E+00  0.45593999997E+02  0.45594000000E+02  0.51100000000E-03 0.  1.
         11   -1    0    0    0    0 -0.00000000000E+00 -0.00000000000E+00 -0.45593999997E+02  0.45594000000E+02  0.51100000000E-03 0. -1.
    9900012    2    1    2    0    0  0.13904930743E+01  0.16381314227E+02  0.89664811371E+01  0.72461582543E+02  0.70000015956E+02 0.  0.
         12    1    1    2    0    0 -0.13904930743E+01 -0.16381314227E+02 -0.89664811371E+01  0.18726417457E+02  0.00000000000E+00 0. -1.
         11    1    3    3    0    0 -0.22235342491E+01 -0.71577659490E+01 -0.34820147872E+01  0.82645111880E+01  0.51100000000E-03 0. -1.
        -11    1    3    3    0    0 -0.13152087290E+02  0.20237391032E+02 -0.17434005570E+02  0.29773712338E+02  0.51100000000E-03 0.  1.
        -12    1    3    3    0    0  0.16766114614E+02  0.33016891443E+01  0.29882501495E+02  0.34423359017E+02  0.00000000000E+00 0.  1.
</event>
<event>
 7    1  0.1465498E-013  0.7246160E+02  0.7816164E-02  0.1226708E+00
        -11   -1    0    0    0    0  0.00000000000E+00  0.00000000000E+00  0.45593999997E+02  0.45594000000E+02  0.51100000000E-03 0. -1.
         11   -1    0    0    0    0 -0.00000000000E+00 -0.00000000000E+00 -0.45593999997E+02  0.45594000000E+02  0.51100000000E-03 0.  1.
    9900012    2    1    2    0    0 -0.13649492620E+02 -0.82469605288E+01 -0.98161637362E+01  0.72461599459E+02  0.70000037992E+02 0.  0.
         12    1    1    2    0    0  0.13649492620E+02  0.82469605288E+01  0.98161637362E+01  0.18726400541E+02  0.00000000000E+00 0. -1.
         11    1    3    3    0    0  0.44320189480E+01  0.25981206253E+00 -0.11380431935E+02  0.12215749079E+02  0.51100000000E-03 0. -1.
        -11    1    3    3    0    0 -0.19385032161E+01  0.17286168293E+02 -0.17228269870E+02  0.24482293437E+02  0.51100000000E-03 0.  1.
         12    1    3    3    0    0 -0.16143008351E+02 -0.25792940884E+02  0.18792538070E+02  0.35763556942E+02  0.00000000000E+00 0. -1.
</event>
<event>
 7    1  0.1465498E-013  0.7246156E+02  0.7816164E-02  0.1226708E+00
        -11   -1    0    0    0    0  0.00000000000E+00  0.00000000000E+00  0.45593999997E+02  0.45594000000E+02  0.51100000000E-03 0.  1.
         11   -1    0    0    0    0 -0.00000000000E+00 -0.00000000000E+00 -0.45593999997E+02  0.45594000000E+02  0.51100000000E-03 0. -1.
    9900012    2    1    2    0    0  0.11654463024E+02  0.90179120325E+01 -0.11555530323E+02  0.72461560754E+02  0.69999987571E+02 0.  0.
         12    1    1    2    0    0 -0.11654463024E+02 -0.90179120325E+01  0.11555530323E+02  0.18726439246E+02  0.00000000000E+00 0. -1.
         11    1    3    3    0    0  0.89062138254E+01  0.44983231034E+01 -0.65118706126E+01  0.11914697419E+02  0.51100000000E-03 0. -1.
        -11    1    3    3    0    0  0.13700286824E+02 -0.13891486716E+02 -0.24697734674E+02  0.31474582770E+02  0.51100000000E-03 0.  1.
         12    1    3    3    0    0 -0.10952037626E+02  0.18411075645E+02  0.19654074964E+02  0.29072280565E+02  0.00000000000E+00 0. -1.
</event>
<event>
 7    1  0.1465498E-013  0.7246161E+02  0.7816164E-02  0.1226708E+00
        -11   -1    0    0    0    0  0.00000000000E+00  0.00000000000E+00  0.45593999997E+02  0.45594000000E+02  0.51100000000E-03 0.  1.
         11   -1    0    0    0    0 -0.00000000000E+00 -0.00000000000E+00 -0.45593999997E+02  0.45594000000E+02  0.51100000000E-03 0. -1.
    9900012    2    1    2    0    0  0.16740359021E+02 -0.83741109609E+01 -0.55869919787E+00  0.72461614889E+02  0.70000058092E+02 0.  0.
         12    1    1    2    0    0 -0.16740359021E+02  0.83741109609E+01  0.55869919787E+00  0.18726385111E+02  0.00000000000E+00 0. -1.
         11    1    3    3    0    0  0.68241423617E+01  0.11739778458E+02  0.10212715284E+01  0.13617426814E+02  0.51100000000E-03 0. -1.
        -11    1    3    3    0    0  0.24675651471E+02 -0.42817193315E+00  0.15271634345E+02  0.29022300435E+02  0.51100000000E-03 0.  1.
        -12    1    3    3    0    0 -0.14759434812E+02 -0.19685717486E+02 -0.16851605072E+02  0.29821887640E+02  0.00000000000E+00 0.  1.
</event>
<event>
 7    1  0.1465498E-013  0.7246159E+02  0.7816164E-02  0.1226708E+00
        -11   -1    0    0    0    0  0.00000000000E+00  0.00000000000E+00  0.45593999997E+02  0.45594000000E+02  0.51100000000E-03 0.  1.
         11   -1    0    0    0    0 -0.00000000000E+00 -0.00000000000E+00 -0.45593999997E+02  0.45594000000E+02  0.51100000000E-03 0. -1.
    9900012    2    1    2    0    0 -0.86971297380E+01 -0.12589582713E+02  0.10795410368E+02  0.72461587007E+02  0.70000021771E+02 0.  0.
         12    1    1    2    0    0  0.86971297380E+01  0.12589582713E+02 -0.10795410368E+02  0.18726412993E+02  0.00000000000E+00 0. -1.
         11    1    3    3    0    0  0.84038798736E+01 -0.20258517034E-01 -0.10294855849E+02  0.13289456894E+02  0.51100000000E-03 0. -1.
        -11    1    3    3    0    0 -0.35169109815E+02 -0.63271551306E+01  0.10151734679E+02  0.37147771057E+02  0.51100000000E-03 0.  1.
         12    1    3    3    0    0  0.18068100204E+02 -0.62421690656E+01  0.10938531537E+02  0.22024359056E+02  0.00000000000E+00 0. -1.
</event>
<event>
 7    1  0.1465498E-013  0.7246157E+02  0.7816164E-02  0.1226708E+00
        -11   -1    0    0    0    0  0.00000000000E+00  0.00000000000E+00  0.45593999997E+02  0.45594000000E+02  0.51100000000E-03 0.  1.
         11   -1    0    0    0    0 -0.00000000000E+00 -0.00000000000E+00 -0.45593999997E+02  0.45594000000E+02  0.51100000000E-03 0. -1.
    9900012    2    1    2    0    0  0.16151768612E+02  0.12806765990E+01  0.93893168682E+01  0.72461573937E+02  0.70000004746E+02 0.  0.
         12    1    1    2    0    0 -0.16151768612E+02 -0.12806765990E+01 -0.93893168682E+01  0.18726426063E+02  0.00000000000E+00 0. -1.
         11    1    3    3    0    0  0.13525551705E+02 -0.21757250210E+02  0.20752615798E+01  0.25702630147E+02  0.51100000000E-03 0. -1.
        -11    1    3    3    0    0 -0.10648726554E+02  0.16790377714E+01  0.16732892465E+02  0.19904879692E+02  0.51100000000E-03 0.  1.
         12    1    3    3    0    0  0.13274943461E+02  0.21358889037E+02 -0.94188371764E+01  0.26854064098E+02  0.00000000000E+00 0. -1.
</event>
<event>
 7    1  0.1465498E-013  0.7246159E+02  0.7816164E-02  0.1226708E+00
        -11   -1    0    0    0    0  0.00000000000E+00  0.00000000000E+00  0.45593999997E+02  0.45594000000E+02  0.51100000000E-03 0.  1.
         11   -1    0    0    0    0 -0.00000000000E+00 -0.00000000000E+00 -0.45593999997E+02  0.45594000000E+02  0.51100000000E-03 0. -1.
    9900012    2    1    2    0    0 -0.64120148150E+01 -0.89111147773E+01  0.15170913541E+02  0.72461587684E+02  0.70000022653E+02 0.  0.
         12    1    1    2    0    0  0.64120148150E+01  0.89111147773E+01 -0.15170913541E+02  0.18726412316E+02  0.00000000000E+00 0. -1.
         11    1    3    3    0    0 -0.16203132972E+00  0.11843558126E+02 -0.14527034532E+02  0.18743821803E+02  0.51100000000E-03 0. -1.
        -11    1    3    3    0    0 -0.11196453780E+02 -0.62877911877E+01 -0.65224026846E+01  0.14402730030E+02  0.51100000000E-03 0.  1.
        -12    1    3    3    0    0  0.49464702951E+01 -0.14466881715E+02  0.36220350758E+02  0.39315035851E+02  0.00000000000E+00 0.  1.
</event>
<event>
 7    1  0.1465498E-013  0.7246150E+02  0.7816164E-02  0.1226708E+00
        -11   -1    0    0    0    0  0.00000000000E+00  0.00000000000E+00  0.45593999997E+02  0.45594000000E+02  0.51100000000E-03 0. -1.
         11   -1    0    0    0    0 -0.00000000000E+00 -0.00000000000E+00 -0.45593999997E+02  0.45594000000E+02  0.51100000000E-03 0.  1.
    9900012    2    1    2    0    0  0.25760777923E+01 -0.84363911096E+01 -0.16518865800E+02  0.72461500085E+02  0.69999908539E+02 0.  0.
         12    1    1    2    0    0 -0.25760777923E+01  0.84363911096E+01  0.16518865800E+02  0.18726499915E+02  0.00000000000E+00 0. -1.
         11    1    3    3    0    0  0.14520596857E+02  0.15513718295E+02 -0.81766809181E+01  0.22767988482E+02  0.51100000000E-03 0. -1.
        -11    1    3    3    0    0  0.85823295954E+01  0.25289030286E+01  0.83710501853E+01  0.12252600266E+02  0.51100000000E-03 0.  1.
        -12    1    3    3    0    0 -0.20526848660E+02 -0.26479012433E+02 -0.16713235068E+02  0.37440911337E+02  0.00000000000E+00 0.  1.
</event>
<event>
 7    1  0.1465498E-013  0.7246152E+02  0.7816164E-02  0.1226708E+00
        -11   -1    0    0    0    0  0.00000000000E+00  0.00000000000E+00  0.45593999997E+02  0.45594000000E+02  0.51100000000E-03 0.  1.
         11   -1    0    0    0    0 -0.00000000000E+00 -0.00000000000E+00 -0.45593999997E+02  0.45594000000E+02  0.51100000000E-03 0. -1.
    9900012    2    1    2    0    0  0.61586627052E+00  0.13512766794E+02  0.12950162865E+02  0.72461524733E+02  0.69999940648E+02 0.  0.
         12    1    1    2    0    0 -0.61586627052E+00 -0.13512766794E+02 -0.12950162865E+02  0.18726475267E+02  0.00000000000E+00 0. -1.
         11    1    3    3    0    0 -0.24862850597E+02  0.11427381728E+02  0.46460749281E+01  0.27754862736E+02  0.51100000000E-03 0. -1.
        -11    1    3    3    0    0  0.71522883242E+00 -0.10547209729E+02  0.12740668102E+02  0.16555355910E+02  0.51100000000E-03 0.  1.
        -12    1    3    3    0    0  0.24763488035E+02  0.12632594794E+02 -0.44365801655E+01  0.28151306088E+02  0.00000000000E+00 0.  1.
</event>
<event>
 7    1  0.1465498E-013  0.7246159E+02  0.7816164E-02  0.1226708E+00
        -11   -1    0    0    0    0  0.00000000000E+00  0.00000000000E+00  0.45593999997E+02  0.45594000000E+02  0.51100000000E-03 0.  1.
         11   -1    0    0    0    0 -0.00000000000E+00 -0.00000000000E+00 -0.45593999997E+02  0.45594000000E+02  0.51100000000E-03 0. -1.
    9900012    2    1    2    0    0  0.46810091988E+01 -0.34431876804E+01  0.17801998875E+02  0.72461586770E+02  0.70000021462E+02 0.  0.
         12    1    1    2    0    0 -0.46810091988E+01  0.34431876804E+01 -0.17801998875E+02  0.18726413230E+02  0.00000000000E+00 0. -1.
         11    1    3    3    0    0  0.58483895478E+01  0.71619179950E+01  0.93477790107E+01  0.13148296558E+02  0.51100000000E-03 0. -1.
        -11    1    3    3    0    0 -0.17224399687E+02  0.26743590896E+01  0.26519872804E+02  0.31735402864E+02  0.51100000000E-03 0.  1.
         12    1    3    3    0    0  0.16057019338E+02 -0.13279464765E+02 -0.18065652940E+02  0.27577887349E+02  0.00000000000E+00 0. -1.
</event>
<event>
 7    1  0.1465498E-013  0.7246151E+02  0.7816164E-02  0.1226708E+00
        -11   -1    0    0    0    0  0.00000000000E+00  0.00000000000E+00  0.45593999997E+02  0.45594000000E+02  0.51100000000E-03 0.  1.
         11   -1    0    0    0    0 -0.00000000000E+00 -0.00000000000E+00 -0.45593999997E+02  0.45594000000E+02  0.51100000000E-03 0. -1.
    9900012    2    1    2    0    0 -0.10760437673E+02 -0.13923962208E+02  0.64045150707E+01  0.72461506581E+02  0.69999917002E+02 0.  0.
         12    1    1    2    0    0  0.10760437673E+02  0.13923962208E+02 -0.64045150707E+01  0.18726493419E+02  0.00000000000E+00 0. -1.
         11    1    3    3    0    0 -0.14311174418E+02  0.29903430096E+01  0.19069921228E+02  0.24029435292E+02  0.51100000000E-03 0. -1.
        -11    1    3    3    0    0  0.20583795451E+01  0.49650692011E+01  0.13358978945E+02  0.14399692957E+02  0.51100000000E-03 0.  1.
         12    1    3    3    0    0  0.14923572003E+01 -0.21879374418E+02 -0.26024385103E+02  0.34032378332E+02  0.00000000000E+00 0. -1.
</event>
<event>
 7    1  0.1465498E-013  0.7246157E+02  0.7816164E-02  0.1226708E+00
        -11   -1    0    0    0    0  0.00000000000E+00  0.00000000000E+00  0.45593999997E+02  0.45594000000E+02  0.51100000000E-03 0. -1.
         11   -1    0    0    0    0 -0.00000000000E+00 -0.00000000000E+00 -0.45593999997E+02  0.45594000000E+02  0.51100000000E-03 0.  1.
    9900012    2    1    2    0    0  0.14779599975E+02 -0.10277004081E+02  0.51600277965E+01  0.72461567473E+02  0.69999996325E+02 0.  0.
         12    1    1    2    0    0 -0.14779599975E+02  0.10277004081E+02 -0.51600277965E+01  0.18726432527E+02  0.00000000000E+00 0. -1.
         11    1    3    3    0    0  0.24253094553E+02  0.15248359058E+02  0.22590286182E+01  0.28737227770E+02  0.51100000000E-03 0.  1.
        -11    1    3    3    0    0  0.25944079416E+01  0.59250971383E+01 -0.60632638719E+01  0.88657147319E+01  0.51100000000E-03 0. -1.
        -12    1    3    3    0    0 -0.12067902519E+02 -0.31450460277E+02  0.89642630502E+01  0.34858624971E+02  0.00000000000E+00 0.  1.
</event>
<event>
 7    1  0.1465498E-013  0.7246143E+02  0.7816164E-02  0.1226708E+00
        -11   -1    0    0    0    0  0.00000000000E+00  0.00000000000E+00  0.45593999997E+02  0.45594000000E+02  0.51100000000E-03 0. -1.
         11   -1    0    0    0    0 -0.00000000000E+00 -0.00000000000E+00 -0.45593999997E+02  0.45594000000E+02  0.51100000000E-03 0.  1.
    9900012    2    1    2    0    0 -0.93647609224E+01  0.48373238798E+01 -0.15478570970E+02  0.72461425067E+02  0.69999810814E+02 0.  0.
         12    1    1    2    0    0  0.93647609224E+01 -0.48373238798E+01  0.15478570970E+02  0.18726574933E+02  0.00000000000E+00 0. -1.
         11    1    3    3    0    0 -0.21858137458E+02  0.12050812629E+01 -0.32459868537E+01  0.22130676105E+02  0.51100000000E-03 0. -1.
        -11    1    3    3    0    0 -0.56644781169E+01  0.13945810397E+02  0.11334734648E+02  0.18842721401E+02  0.51100000000E-03 0.  1.
         12    1    3    3    0    0  0.18157854652E+02 -0.10313567781E+02 -0.23567318764E+02  0.31488027561E+02  0.00000000000E+00 0. -1.
</event>
<event>
 7    1  0.1465498E-013  0.7246159E+02  0.7816164E-02  0.1226708E+00
        -11   -1    0    0    0    0  0.00000000000E+00  0.00000000000E+00  0.45593999997E+02  0.45594000000E+02  0.51100000000E-03 0. -1.
         11   -1    0    0    0    0 -0.00000000000E+00 -0.00000000000E+00 -0.45593999997E+02  0.45594000000E+02  0.51100000000E-03 0.  1.
    9900012    2    1    2    0    0 -0.16402997258E+02  0.90203870365E+01 -0.50267752660E+00  0.72461591213E+02  0.70000027251E+02 0.  0.
         12    1    1    2    0    0  0.16402997258E+02 -0.90203870365E+01  0.50267752660E+00  0.18726408787E+02  0.00000000000E+00 0. -1.
         11    1    3    3    0    0 -0.33959799258E+02  0.87356265119E+01 -0.59931729228E+01  0.35573828275E+02  0.51100000000E-03 0. -1.
        -11    1    3    3    0    0  0.47525215194E+01  0.12254678731E+02  0.12378288499E+02  0.18055072363E+02  0.51100000000E-03 0.  1.
        -12    1    3    3    0    0  0.12804280480E+02 -0.11969918207E+02 -0.68877931033E+01  0.18832690576E+02  0.00000000000E+00 0.  1.
</event>
<event>
 7    1  0.1465498E-013  0.7246160E+02  0.7816164E-02  0.1226708E+00
        -11   -1    0    0    0    0  0.00000000000E+00  0.00000000000E+00  0.45593999997E+02  0.45594000000E+02  0.51100000000E-03 0.  1.
         11   -1    0    0    0    0 -0.00000000000E+00 -0.00000000000E+00 -0.45593999997E+02  0.45594000000E+02  0.51100000000E-03 0. -1.
    9900012    2    1    2    0    0  0.88093937737E+01  0.21169265475E+01  0.16388749705E+02  0.72461603829E+02  0.70000043685E+02 0.  0.
         12    1    1    2    0    0 -0.88093937737E+01 -0.21169265475E+01 -0.16388749705E+02  0.18726396171E+02  0.00000000000E+00 0. -1.
         11    1    3    3    0    0 -0.23704000125E+02  0.19775731166E+01  0.88335893804E+01  0.25373661915E+02  0.51100000000E-03 0. -1.
        -11    1    3    3    0    0 -0.18208410504E+01 -0.99033110042E+01  0.49504234408E+01  0.11220415477E+02  0.51100000000E-03 0.  1.
        -12    1    3    3    0    0  0.34334234949E+02  0.10042664435E+02  0.26047368834E+01  0.35867526437E+02  0.00000000000E+00 0.  1.
</event>
<event>
 7    1  0.1465498E-013  0.7246163E+02  0.7816164E-02  0.1226708E+00
        -11   -1    0    0    0    0  0.00000000000E+00  0.00000000000E+00  0.45593999997E+02  0.45594000000E+02  0.51100000000E-03 0.  1.
         11   -1    0    0    0    0 -0.00000000000E+00 -0.00000000000E+00 -0.45593999997E+02  0.45594000000E+02  0.51100000000E-03 0. -1.
    9900012    2    1    2    0    0  0.85036871592E+01  0.93164671071E+01  0.13840795915E+02  0.72461631259E+02  0.70000079418E+02 0.  0.
         12    1    1    2    0    0 -0.85036871592E+01 -0.93164671071E+01 -0.13840795915E+02  0.18726368741E+02  0.00000000000E+00 0. -1.
         11    1    3    3    0    0 -0.12798404915E+02 -0.97320803448E+01  0.51685038733E+01  0.16888634899E+02  0.51100000000E-03 0. -1.
        -11    1    3    3    0    0  0.12707373673E+02 -0.14675166242E+02 -0.10441148650E+01  0.19440371036E+02  0.51100000000E-03 0.  1.
        -12    1    3    3    0    0  0.85947184009E+01  0.33723713694E+02  0.97164069065E+01  0.36132625325E+02  0.00000000000E+00 0.  1.
</event>
<event>
 7    1  0.1465498E-013  0.7246162E+02  0.7816164E-02  0.1226708E+00
        -11   -1    0    0    0    0  0.00000000000E+00  0.00000000000E+00  0.45593999997E+02  0.45594000000E+02  0.51100000000E-03 0.  1.
         11   -1    0    0    0    0 -0.00000000000E+00 -0.00000000000E+00 -0.45593999997E+02  0.45594000000E+02  0.51100000000E-03 0. -1.
    9900012    2    1    2    0    0  0.16799796471E+02 -0.78923316261E+01 -0.24809749449E+01  0.72461620301E+02  0.70000065143E+02 0.  0.
         12    1    1    2    0    0 -0.16799796471E+02  0.78923316261E+01  0.24809749449E+01  0.18726379699E+02  0.00000000000E+00 0. -1.
         11    1    3    3    0    0  0.29663012773E+02 -0.11557903198E+02  0.10157548418E+02  0.33416391834E+02  0.51100000000E-03 0. -1.
        -11    1    3    3    0    0  0.85180199763E+01  0.38880193895E+01  0.56263956720E+01  0.10923812870E+02  0.51100000000E-03 0.  1.
        -12    1    3    3    0    0 -0.21381236278E+02 -0.22244781721E+00 -0.18264919035E+02  0.28121415597E+02  0.00000000000E+00 0.  1.
</event>
<event>
 7    1  0.1465498E-013  0.7246157E+02  0.7816164E-02  0.1226708E+00
        -11   -1    0    0    0    0  0.00000000000E+00  0.00000000000E+00  0.45593999997E+02  0.45594000000E+02  0.51100000000E-03 0. -1.
         11   -1    0    0    0    0 -0.00000000000E+00 -0.00000000000E+00 -0.45593999997E+02  0.45594000000E+02  0.51100000000E-03 0.  1.
    9900012    2    1    2    0    0  0.17747344734E+02  0.10852974296E+01 -0.58764715039E+01  0.72461573941E+02  0.70000004751E+02 0.  0.
         12    1    1    2    0    0 -0.17747344734E+02 -0.10852974296E+01  0.58764715039E+01  0.18726426059E+02  0.00000000000E+00 0. -1.
         11    1    3    3    0    0 -0.14665953161E+02 -0.11325828168E+01 -0.56595479259E+00  0.14720503763E+02  0.51100000000E-03 0. -1.
        -11    1    3    3    0    0  0.12114643033E+02  0.82618609196E+01 -0.24896299956E+02  0.28893747999E+02  0.51100000000E-03 0.  1.
        -12    1    3    3    0    0  0.20298654862E+02 -0.60439806732E+01  0.19585783245E+02  0.28847322179E+02  0.00000000000E+00 0.  1.
</event>
<event>
 7    1  0.1465498E-013  0.7246150E+02  0.7816164E-02  0.1226708E+00
        -11   -1    0    0    0    0  0.00000000000E+00  0.00000000000E+00  0.45593999997E+02  0.45594000000E+02  0.51100000000E-03 0.  1.
         11   -1    0    0    0    0 -0.00000000000E+00 -0.00000000000E+00 -0.45593999997E+02  0.45594000000E+02  0.51100000000E-03 0. -1.
    9900012    2    1    2    0    0 -0.93016198332E+01 -0.13366810075E+01  0.16197989340E+02  0.72461502562E+02  0.69999911766E+02 0.  0.
         12    1    1    2    0    0  0.93016198332E+01  0.13366810075E+01 -0.16197989340E+02  0.18726497438E+02  0.00000000000E+00 0. -1.
         11    1    3    3    0    0  0.37096556475E+01 -0.10138993933E+02  0.10417430854E+02  0.15002786703E+02  0.51100000000E-03 0. -1.
        -11    1    3    3    0    0 -0.33637901848E+00 -0.42824628533E+01  0.28225938443E+02  0.28550941144E+02  0.51100000000E-03 0.  1.
         12    1    3    3    0    0 -0.12674896462E+02  0.13084775779E+02 -0.22445379958E+02  0.28907774715E+02  0.00000000000E+00 0. -1.
</event>
<event>
 7    1  0.1465498E-013  0.7246154E+02  0.7816164E-02  0.1226708E+00
        -11   -1    0    0    0    0  0.00000000000E+00  0.00000000000E+00  0.45593999997E+02  0.45594000000E+02  0.51100000000E-03 0.  1.
         11   -1    0    0    0    0 -0.00000000000E+00 -0.00000000000E+00 -0.45593999997E+02  0.45594000000E+02  0.51100000000E-03 0. -1.
    9900012    2    1    2    0    0  0.37460656390E+01 -0.17513180406E+02  0.54713534195E+01  0.72461542675E+02  0.69999964021E+02 0.  0.
         12    1    1    2    0    0 -0.37460656390E+01  0.17513180406E+02 -0.54713534195E+01  0.18726457325E+02  0.00000000000E+00 0. -1.
         11    1    3    3    0    0  0.11771130643E+01  0.15921862929E+02 -0.72461582902E+01  0.17532772871E+02  0.51100000000E-03 0. -1.
        -11    1    3    3    0    0  0.10222885813E+02 -0.26258115302E+02 -0.10004417480E+02  0.29901243836E+02  0.51100000000E-03 0.  1.
         12    1    3    3    0    0 -0.76539332383E+01 -0.71769280330E+01  0.22721929190E+02  0.25027525968E+02  0.00000000000E+00 0. -1.
</event>
<event>
 7    1  0.1465498E-013  0.7246162E+02  0.7816164E-02  0.1226708E+00
        -11   -1    0    0    0    0  0.00000000000E+00  0.00000000000E+00  0.45593999997E+02  0.45594000000E+02  0.51100000000E-03 0.  1.
         11   -1    0    0    0    0 -0.00000000000E+00 -0.00000000000E+00 -0.45593999997E+02  0.45594000000E+02  0.51100000000E-03 0. -1.
    9900012    2    1    2    0    0  0.16840342080E+02  0.38831263647E+01 -0.72112098791E+01  0.72461619152E+02  0.70000063647E+02 0.  0.
         12    1    1    2    0    0 -0.16840342080E+02 -0.38831263647E+01  0.72112098791E+01  0.18726380848E+02  0.00000000000E+00 0. -1.
         11    1    3    3    0    0  0.25598870399E+02  0.13787077027E+02  0.34309079708E+00  0.29077540649E+02  0.51100000000E-03 0. -1.
        -11    1    3    3    0    0  0.30714511421E+00 -0.15048609402E+02  0.13289627223E+02  0.20079073062E+02  0.51100000000E-03 0.  1.
         12    1    3    3    0    0 -0.90656734331E+01  0.51446587396E+01 -0.20843927899E+02  0.23305005441E+02  0.00000000000E+00 0. -1.
</event>
<event>
 7    1  0.1465498E-013  0.7246187E+02  0.7816164E-02  0.1226707E+00
        -11   -1    0    0    0    0  0.00000000000E+00  0.00000000000E+00  0.45593999997E+02  0.45594000000E+02  0.51100000000E-03 0.  1.
         11   -1    0    0    0    0 -0.00000000000E+00 -0.00000000000E+00 -0.45593999997E+02  0.45594000000E+02  0.51100000000E-03 0. -1.
    9900012    2    1    2    0    0  0.21304740973E+01  0.12433415894E+02  0.13839767436E+02  0.72461870839E+02  0.70000391514E+02 0.  0.
         12    1    1    2    0    0 -0.21304740973E+01 -0.12433415894E+02 -0.13839767436E+02  0.18726129161E+02  0.00000000000E+00 0. -1.
         11    1    3    3    0    0 -0.20720109660E+00  0.27523180864E+01 -0.83735993788E+01  0.88167655044E+01  0.51100000000E-03 0. -1.
        -11    1    3    3    0    0  0.30656734286E+00  0.33777416504E+02  0.20250303443E+02  0.39383786499E+02  0.51100000000E-03 0.  1.
         12    1    3    3    0    0  0.20311078510E+01 -0.24096318696E+02  0.19630633724E+01  0.24261318835E+02  0.00000000000E+00 0. -1.
</event>
<event>
 7    1  0.1465498E-013  0.7246160E+02  0.7816164E-02  0.1226708E+00
        -11   -1    0    0    0    0  0.00000000000E+00  0.00000000000E+00  0.45593999997E+02  0.45594000000E+02  0.51100000000E-03 0. -1.
         11   -1    0    0    0    0 -0.00000000000E+00 -0.00000000000E+00 -0.45593999997E+02  0.45594000000E+02  0.51100000000E-03 0.  1.
    9900012    2    1    2    0    0  0.29048951089E+01  0.16004319755E+02 -0.92790794336E+01  0.72461602013E+02  0.70000041320E+02 0.  0.
         12    1    1    2    0    0 -0.29048951089E+01 -0.16004319755E+02  0.92790794336E+01  0.18726397987E+02  0.00000000000E+00 0. -1.
         11    1    3    3    0    0  0.12436361398E+01 -0.89921452008E+01 -0.11637042835E+01  0.91520224039E+01  0.51100000000E-03 0. -1.
        -11    1    3    3    0    0 -0.43095567821E+01 -0.11166430930E+02  0.15593367274E+02  0.19657430213E+02  0.51100000000E-03 0.  1.
        -12    1    3    3    0    0  0.59708157511E+01  0.36162895886E+02 -0.23708742424E+02  0.43652149397E+02  0.00000000000E+00 0.  1.
</event>
<event>
 7    1  0.1465498E-013  0.7246155E+02  0.7816164E-02  0.1226708E+00
        -11   -1    0    0    0    0  0.00000000000E+00  0.00000000000E+00  0.45593999997E+02  0.45594000000E+02  0.51100000000E-03 0.  1.
         11   -1    0    0    0    0 -0.00000000000E+00 -0.00000000000E+00 -0.45593999997E+02  0.45594000000E+02  0.51100000000E-03 0. -1.
    9900012    2    1    2    0    0  0.17150248512E+01  0.71500450556E+01  0.17222528731E+02  0.72461549444E+02  0.69999972838E+02 0.  0.
         12    1    1    2    0    0 -0.17150248512E+01 -0.71500450556E+01 -0.17222528731E+02  0.18726450556E+02  0.00000000000E+00 0. -1.
         11    1    3    3    0    0 -0.72661791006E+01 -0.36460916483E+01  0.39095749840E+00  0.81390534496E+01  0.51100000000E-03 0. -1.
        -11    1    3    3    0    0 -0.73545170586E+01 -0.23193085866E+02  0.54903138421E+01  0.24942968939E+02  0.51100000000E-03 0.  1.
         12    1    3    3    0    0  0.16335721010E+02  0.33989222570E+02  0.11341257391E+02  0.39379527055E+02  0.00000000000E+00 0. -1.
</event>
<event>
 7    1  0.1465498E-013  0.7246150E+02  0.7816164E-02  0.1226708E+00
        -11   -1    0    0    0    0  0.00000000000E+00  0.00000000000E+00  0.45593999997E+02  0.45594000000E+02  0.51100000000E-03 0.  1.
         11   -1    0    0    0    0 -0.00000000000E+00 -0.00000000000E+00 -0.45593999997E+02  0.45594000000E+02  0.51100000000E-03 0. -1.
    9900012    2    1    2    0    0  0.32845773653E+01 -0.81688617659E+00  0.18418085950E+02  0.72461504291E+02  0.69999914018E+02 0.  0.
         12    1    1    2    0    0 -0.32845773653E+01  0.81688617659E+00 -0.18418085950E+02  0.18726495709E+02  0.00000000000E+00 0. -1.
         11    1    3    3    0    0  0.12179635076E+02  0.39371921318E+01 -0.10520300459E+02  0.16568696824E+02  0.51100000000E-03 0. -1.
        -11    1    3    3    0    0  0.15837535527E+02 -0.97897570515E+01  0.23658688734E+02  0.30106484809E+02  0.51100000000E-03 0.  1.
        -12    1    3    3    0    0 -0.24732593237E+02  0.50356787431E+01  0.52796976742E+01  0.25786322657E+02  0.00000000000E+00 0.  1.
</event>
<event>
 7    1  0.1465498E-013  0.7246154E+02  0.7816164E-02  0.1226708E+00
        -11   -1    0    0    0    0  0.00000000000E+00  0.00000000000E+00  0.45593999997E+02  0.45594000000E+02  0.51100000000E-03 0.  1.
         11   -1    0    0    0    0 -0.00000000000E+00 -0.00000000000E+00 -0.45593999997E+02  0.45594000000E+02  0.51100000000E-03 0. -1.
    9900012    2    1    2    0    0 -0.91068092894E+01  0.16310625312E+02  0.13076682802E+01  0.72461535576E+02  0.69999954773E+02 0.  0.
         12    1    1    2    0    0  0.91068092894E+01 -0.16310625312E+02 -0.13076682802E+01  0.18726464424E+02  0.00000000000E+00 0. -1.
         11    1    3    3    0    0  0.48806473746E+01  0.26125190430E+01 -0.14872391152E+02  0.15869278289E+02  0.51100000000E-03 0. -1.
        -11    1    3    3    0    0  0.68258019480E+01  0.22768508599E+02 -0.63537379833E+01  0.24604197664E+02  0.51100000000E-03 0.  1.
        -12    1    3    3    0    0 -0.20813258612E+02 -0.90704023303E+01  0.22533797416E+02  0.31988059623E+02  0.00000000000E+00 0.  1.
</event>
<event>
 7    1  0.1465498E-013  0.7246158E+02  0.7816164E-02  0.1226708E+00
        -11   -1    0    0    0    0  0.00000000000E+00  0.00000000000E+00  0.45593999997E+02  0.45594000000E+02  0.51100000000E-03 0.  1.
         11   -1    0    0    0    0 -0.00000000000E+00 -0.00000000000E+00 -0.45593999997E+02  0.45594000000E+02  0.51100000000E-03 0. -1.
    9900012    2    1    2    0    0 -0.36760477382E+00  0.12382365131E+01  0.18681825241E+02  0.72461575961E+02  0.70000007382E+02 0.  0.
         12    1    1    2    0    0  0.36760477382E+00 -0.12382365131E+01 -0.18681825241E+02  0.18726424039E+02  0.00000000000E+00 0. -1.
         11    1    3    3    0    0 -0.14078200808E+02 -0.31680932940E+01  0.22833264607E+02  0.27010933453E+02  0.51100000000E-03 0.  1.
        -11    1    3    3    0    0  0.23073815836E+01  0.22268516463E+02  0.40054817693E+01  0.22743234591E+02  0.51100000000E-03 0. -1.
         12    1    3    3    0    0  0.11403214451E+02 -0.17862186655E+02 -0.81569211348E+01  0.22707407917E+02  0.00000000000E+00 0. -1.
</event>
<event>
 7    1  0.1465498E-013  0.7246170E+02  0.7816164E-02  0.1226708E+00
        -11   -1    0    0    0    0  0.00000000000E+00  0.00000000000E+00  0.45593999997E+02  0.45594000000E+02  0.51100000000E-03 0.  1.
         11   -1    0    0    0    0 -0.00000000000E+00 -0.00000000000E+00 -0.45593999997E+02  0.45594000000E+02  0.51100000000E-03 0. -1.
    9900012    2    1    2    0    0 -0.13671651970E+02 -0.79295216798E+01  0.10044051984E+02  0.72461698659E+02  0.70000167218E+02 0.  0.
         12    1    1    2    0    0  0.13671651970E+02  0.79295216798E+01 -0.10044051984E+02  0.18726301341E+02  0.00000000000E+00 0. -1.
         11    1    3    3    0    0  0.28051791079E+01 -0.11481230126E+02 -0.21228622973E+00  0.11820860406E+02  0.51100000000E-03 0. -1.
        -11    1    3    3    0    0 -0.18267854001E+02 -0.24208332514E+02 -0.16718144063E+01  0.30373554560E+02  0.51100000000E-03 0.  1.
         12    1    3    3    0    0  0.17910229226E+01  0.27760040960E+02  0.11928152620E+02  0.30267283693E+02  0.00000000000E+00 0. -1.
</event>
<event>
 7    1  0.1465498E-013  0.7246159E+02  0.7816164E-02  0.1226708E+00
        -11   -1    0    0    0    0  0.00000000000E+00  0.00000000000E+00  0.45593999997E+02  0.45594000000E+02  0.51100000000E-03 0.  1.
         11   -1    0    0    0    0 -0.00000000000E+00 -0.00000000000E+00 -0.45593999997E+02  0.45594000000E+02  0.51100000000E-03 0. -1.
    9900012    2    1    2    0    0 -0.14840775323E+02  0.11256952883E+02  0.19263897033E+01  0.72461586097E+02  0.70000020585E+02 0.  0.
         12    1    1    2    0    0  0.14840775323E+02 -0.11256952883E+02 -0.19263897033E+01  0.18726413903E+02  0.00000000000E+00 0. -1.
         11    1    3    3    0    0  0.83997070605E+01  0.12195390767E+02 -0.12904192609E+01  0.14864313533E+02  0.51100000000E-03 0. -1.
        -11    1    3    3    0    0 -0.62175440924E+01  0.55158426216E+01 -0.23692473445E+02  0.25108079827E+02  0.51100000000E-03 0.  1.
        -12    1    3    3    0    0 -0.17022938291E+02 -0.64542805062E+01  0.26909282409E+02  0.32489192737E+02  0.00000000000E+00 0.  1.
</event>
<event>
 7    1  0.1465498E-013  0.7246167E+02  0.7816164E-02  0.1226708E+00
        -11   -1    0    0    0    0  0.00000000000E+00  0.00000000000E+00  0.45593999997E+02  0.45594000000E+02  0.51100000000E-03 0.  1.
         11   -1    0    0    0    0 -0.00000000000E+00 -0.00000000000E+00 -0.45593999997E+02  0.45594000000E+02  0.51100000000E-03 0. -1.
    9900012    2    1    2    0    0  0.94428570768E+01  0.12674815997E+02  0.10042756298E+02  0.72461669223E+02  0.70000128872E+02 0.  0.
         12    1    1    2    0    0 -0.94428570768E+01 -0.12674815997E+02 -0.10042756298E+02  0.18726330777E+02  0.00000000000E+00 0. -1.
         11    1    3    3    0    0 -0.37581748851E+01  0.12651875556E+02  0.20010474553E+02  0.23971085200E+02  0.51100000000E-03 0. -1.
        -11    1    3    3    0    0  0.22354116809E+02 -0.94294731135E+01  0.85937290752E+01  0.25738564085E+02  0.51100000000E-03 0.  1.
         12    1    3    3    0    0 -0.91530848468E+01  0.94524135540E+01 -0.18561447331E+02  0.22752019937E+02  0.00000000000E+00 0. -1.
</event>
<event>
 7    1  0.1465498E-013  0.7246156E+02  0.7816164E-02  0.1226708E+00
        -11   -1    0    0    0    0  0.00000000000E+00  0.00000000000E+00  0.45593999997E+02  0.45594000000E+02  0.51100000000E-03 0. -1.
         11   -1    0    0    0    0 -0.00000000000E+00 -0.00000000000E+00 -0.45593999997E+02  0.45594000000E+02  0.51100000000E-03 0.  1.
    9900012    2    1    2    0    0 -0.14866752413E+02 -0.10485612765E+02  0.44397377234E+01  0.72461556840E+02  0.69999982473E+02 0.  0.
         12    1    1    2    0    0  0.14866752413E+02  0.10485612765E+02 -0.44397377234E+01  0.18726443160E+02  0.00000000000E+00 0. -1.
         11    1    3    3    0    0 -0.88016408439E+01 -0.81869779441E+01 -0.30987558919E+01  0.12413612598E+02  0.51100000000E-03 0. -1.
        -11    1    3    3    0    0  0.99747414130E+01  0.23274771235E+01 -0.23037355884E+02  0.25211750879E+02  0.51100000000E-03 0.  1.
         12    1    3    3    0    0 -0.16039852982E+02 -0.46261119441E+01  0.30575849499E+02  0.34836193363E+02  0.00000000000E+00 0. -1.
</event>
<event>
 7    1  0.1465498E-013  0.7246158E+02  0.7816164E-02  0.1226708E+00
        -11   -1    0    0    0    0  0.00000000000E+00  0.00000000000E+00  0.45593999997E+02  0.45594000000E+02  0.51100000000E-03 0.  1.
         11   -1    0    0    0    0 -0.00000000000E+00 -0.00000000000E+00 -0.45593999997E+02  0.45594000000E+02  0.51100000000E-03 0. -1.
    9900012    2    1    2    0    0  0.67347440336E+01 -0.13913272590E+02  0.10570844407E+02  0.72461583289E+02  0.70000016928E+02 0.  0.
         12    1    1    2    0    0 -0.67347440336E+01  0.13913272590E+02 -0.10570844407E+02  0.18726416711E+02  0.00000000000E+00 0. -1.
         11    1    3    3    0    0 -0.12602930601E+02  0.66165935723E+01  0.21537220745E+02  0.25815984349E+02  0.51100000000E-03 0. -1.
        -11    1    3    3    0    0  0.15344699049E+01 -0.54093829715E+01  0.12394675988E+02  0.13610437727E+02  0.51100000000E-03 0.  1.
        -12    1    3    3    0    0  0.17803204729E+02 -0.15120483191E+02 -0.23361052326E+02  0.33035161212E+02  0.00000000000E+00 0.  1.
</event>
<event>
 7    1  0.1465498E-013  0.7246154E+02  0.7816164E-02  0.1226708E+00
        -11   -1    0    0    0    0  0.00000000000E+00  0.00000000000E+00  0.45593999997E+02  0.45594000000E+02  0.51100000000E-03 0.  1.
         11   -1    0    0    0    0 -0.00000000000E+00 -0.00000000000E+00 -0.45593999997E+02  0.45594000000E+02  0.51100000000E-03 0. -1.
    9900012    2    1    2    0    0  0.13720008845E+02 -0.64120401136E+01  0.11014867808E+02  0.72461542408E+02  0.69999963673E+02 0.  0.
         12    1    1    2    0    0 -0.13720008845E+02  0.64120401136E+01 -0.11014867808E+02  0.18726457592E+02  0.00000000000E+00 0. -1.
         11    1    3    3    0    0  0.26835740520E+02 -0.22487452699E+02  0.73250976509E+01  0.35770093011E+02  0.51100000000E-03 0. -1.
        -11    1    3    3    0    0  0.51750071286E+01  0.17352698442E+02  0.76253810219E+00  0.18123970498E+02  0.51100000000E-03 0.  1.
        -12    1    3    3    0    0 -0.18290738803E+02 -0.12772858565E+01  0.29272320546E+01  0.18567478898E+02  0.00000000000E+00 0.  1.
</event>
<event>
 7    1  0.1465498E-013  0.7246154E+02  0.7816164E-02  0.1226708E+00
        -11   -1    0    0    0    0  0.00000000000E+00  0.00000000000E+00  0.45593999997E+02  0.45594000000E+02  0.51100000000E-03 0. -1.
         11   -1    0    0    0    0 -0.00000000000E+00 -0.00000000000E+00 -0.45593999997E+02  0.45594000000E+02  0.51100000000E-03 0.  1.
    9900012    2    1    2    0    0 -0.39898154297E+01  0.16914692145E+02 -0.69753069994E+01  0.72461538902E+02  0.69999959105E+02 0.  0.
         12    1    1    2    0    0  0.39898154297E+01 -0.16914692145E+02  0.69753069994E+01  0.18726461098E+02  0.00000000000E+00 0. -1.
         11    1    3    3    0    0 -0.40733817782E+01 -0.38800157625E+01 -0.94591798791E+01  0.11005591564E+02  0.51100000000E-03 0. -1.
        -11    1    3    3    0    0  0.28930503306E+02  0.10358627623E+02  0.12597517579E+01  0.30754872176E+02  0.51100000000E-03 0.  1.
         12    1    3    3    0    0 -0.28846936958E+02  0.10436080285E+02  0.12241211219E+01  0.30701075162E+02  0.00000000000E+00 0. -1.
</event>
<event>
 7    1  0.1465498E-013  0.7246156E+02  0.7816164E-02  0.1226708E+00
        -11   -1    0    0    0    0  0.00000000000E+00  0.00000000000E+00  0.45593999997E+02  0.45594000000E+02  0.51100000000E-03 0.  1.
         11   -1    0    0    0    0 -0.00000000000E+00 -0.00000000000E+00 -0.45593999997E+02  0.45594000000E+02  0.51100000000E-03 0. -1.
    9900012    2    1    2    0    0  0.91733881441E+01  0.15588463833E+02 -0.48505795584E+01  0.72461564760E+02  0.69999992791E+02 0.  0.
         12    1    1    2    0    0 -0.91733881441E+01 -0.15588463833E+02  0.48505795584E+01  0.18726435240E+02  0.00000000000E+00 0. -1.
         11    1    3    3    0    0  0.15492636085E+01  0.15685353386E+01 -0.18961753788E+02  0.19089489983E+02  0.51100000000E-03 0. -1.
        -11    1    3    3    0    0 -0.12786253398E+02  0.18208943401E+02 -0.73770724061E+01  0.23440885079E+02  0.51100000000E-03 0.  1.
         12    1    3    3    0    0  0.20410377933E+02 -0.41890149065E+01  0.21488246636E+02  0.29931189698E+02  0.00000000000E+00 0. -1.
</event>
<event>
 7    1  0.1465498E-013  0.7246156E+02  0.7816164E-02  0.1226708E+00
        -11   -1    0    0    0    0  0.00000000000E+00  0.00000000000E+00  0.45593999997E+02  0.45594000000E+02  0.51100000000E-03 0.  1.
         11   -1    0    0    0    0 -0.00000000000E+00 -0.00000000000E+00 -0.45593999997E+02  0.45594000000E+02  0.51100000000E-03 0. -1.
    9900012    2    1    2    0    0 -0.14968112208E+02  0.72476706696E+00  0.11229870312E+02  0.72461557262E+02  0.69999983023E+02 0.  0.
         12    1    1    2    0    0  0.14968112208E+02 -0.72476706696E+00 -0.11229870312E+02  0.18726442738E+02  0.00000000000E+00 0. -1.
         11    1    3    3    0    0 -0.87347074838E+01  0.58225737545E+01 -0.12729202780E+01  0.10574393895E+02  0.51100000000E-03 0. -1.
        -11    1    3    3    0    0  0.25859490058E+02 -0.19285343950E+01 -0.30020737524E+01  0.26104499958E+02  0.51100000000E-03 0.  1.
         12    1    3    3    0    0 -0.32092894782E+02 -0.31692722925E+01  0.15504864343E+02  0.35782663409E+02  0.00000000000E+00 0. -1.
</event>
<event>
 7    1  0.1465498E-013  0.7246193E+02  0.7816164E-02  0.1226707E+00
        -11   -1    0    0    0    0  0.00000000000E+00  0.00000000000E+00  0.45593999997E+02  0.45594000000E+02  0.51100000000E-03 0.  1.
         11   -1    0    0    0    0 -0.00000000000E+00 -0.00000000000E+00 -0.45593999997E+02  0.45594000000E+02  0.51100000000E-03 0. -1.
    9900012    2    1    2    0    0 -0.17904207365E+02  0.35893710554E+01  0.41498709538E+01  0.72461931142E+02  0.70000470070E+02 0.  0.
         12    1    1    2    0    0  0.17904207365E+02 -0.35893710554E+01 -0.41498709538E+01  0.18726068858E+02  0.00000000000E+00 0. -1.
         11    1    3    3    0    0 -0.40074478443E+02  0.76927714159E+01 -0.72050015290E+01  0.41437357563E+02  0.51100000000E-03 0. -1.
        -11    1    3    3    0    0 -0.36945317022E+00 -0.59841039753E+01  0.74480183114E+00  0.60415830758E+01  0.51100000000E-03 0.  1.
         12    1    3    3    0    0  0.22539724248E+02  0.18807036149E+01  0.10610070652E+02  0.24982990504E+02  0.00000000000E+00 0. -1.
</event>
<event>
 7    1  0.1465498E-013  0.7246145E+02  0.7816164E-02  0.1226708E+00
        -11   -1    0    0    0    0  0.00000000000E+00  0.00000000000E+00  0.45593999997E+02  0.45594000000E+02  0.51100000000E-03 0. -1.
         11   -1    0    0    0    0 -0.00000000000E+00 -0.00000000000E+00 -0.45593999997E+02  0.45594000000E+02  0.51100000000E-03 0.  1.
    9900012    2    1    2    0    0 -0.15069168751E+02 -0.57648476188E+01 -0.95063392053E+01  0.72461446660E+02  0.69999838943E+02 0.  0.
         12    1    1    2    0    0  0.15069168751E+02  0.57648476188E+01  0.95063392053E+01  0.18726553340E+02  0.00000000000E+00 0. -1.
         11    1    3    3    0    0 -0.28009773651E+02  0.19917414757E+02 -0.62576133285E+01  0.34934346357E+02  0.51100000000E-03 0. -1.
        -11    1    3    3    0    0  0.85686514625E+00  0.93763473411E+00 -0.78333305772E+01  0.79356439541E+01  0.51100000000E-03 0.  1.
         12    1    3    3    0    0  0.12083739753E+02 -0.26619897110E+02  0.45846047004E+01  0.29591456348E+02  0.00000000000E+00 0. -1.
</event>
<event>
 7    1  0.1465498E-013  0.7246159E+02  0.7816164E-02  0.1226708E+00
        -11   -1    0    0    0    0  0.00000000000E+00  0.00000000000E+00  0.45593999997E+02  0.45594000000E+02  0.51100000000E-03 0. -1.
         11   -1    0    0    0    0 -0.00000000000E+00 -0.00000000000E+00 -0.45593999997E+02  0.45594000000E+02  0.51100000000E-03 0.  1.
    9900012    2    1    2    0    0  0.73369460010E+01 -0.44423526346E+01 -0.16646721199E+02  0.72461585495E+02  0.70000019802E+02 0.  0.
         12    1    1    2    0    0 -0.73369460010E+01  0.44423526346E+01  0.16646721199E+02  0.18726414505E+02  0.00000000000E+00 0. -1.
         11    1    3    3    0    0 -0.12635095025E+02 -0.92469374843E+01 -0.73851386738E+01  0.17311607453E+02  0.51100000000E-03 0. -1.
        -11    1    3    3    0    0 -0.92178529168E+01  0.18037308949E+02  0.36775855482E+01  0.20587325281E+02  0.51100000000E-03 0.  1.
         12    1    3    3    0    0  0.29189893942E+02 -0.13232724099E+02 -0.12939168073E+02  0.34562652761E+02  0.00000000000E+00 0. -1.
</event>
<event>
 7    1  0.1465498E-013  0.7246148E+02  0.7816164E-02  0.1226708E+00
        -11   -1    0    0    0    0  0.00000000000E+00  0.00000000000E+00  0.45593999997E+02  0.45594000000E+02  0.51100000000E-03 0. -1.
         11   -1    0    0    0    0 -0.00000000000E+00 -0.00000000000E+00 -0.45593999997E+02  0.45594000000E+02  0.51100000000E-03 0.  1.
    9900012    2    1    2    0    0  0.94635768692E+01  0.16074090741E+02  0.16573929156E+01  0.72461477856E+02  0.69999879582E+02 0.  0.
         12    1    1    2    0    0 -0.94635768692E+01 -0.16074090741E+02 -0.16573929156E+01  0.18726522144E+02  0.00000000000E+00 0. -1.
         11    1    3    3    0    0 -0.91950656607E+00 -0.99646889936E+01 -0.11082536998E+02  0.14931950497E+02  0.51100000000E-03 0. -1.
        -11    1    3    3    0    0 -0.99676347182E+01  0.22363419860E+02 -0.10306540634E+02  0.26565034723E+02  0.51100000000E-03 0.  1.
         12    1    3    3    0    0  0.20350718153E+02  0.36753598749E+01  0.23046470547E+02  0.30964492637E+02  0.00000000000E+00 0. -1.
</event>
<event>
 7    1  0.1465498E-013  0.7246158E+02  0.7816164E-02  0.1226708E+00
        -11   -1    0    0    0    0  0.00000000000E+00  0.00000000000E+00  0.45593999997E+02  0.45594000000E+02  0.51100000000E-03 0.  1.
         11   -1    0    0    0    0 -0.00000000000E+00 -0.00000000000E+00 -0.45593999997E+02  0.45594000000E+02  0.51100000000E-03 0. -1.
    9900012    2    1    2    0    0 -0.15542709048E+02  0.28272793105E+01  0.10055319551E+02  0.72461581119E+02  0.70000014101E+02 0.  0.
         12    1    1    2    0    0  0.15542709048E+02 -0.28272793105E+01 -0.10055319551E+02  0.18726418881E+02  0.00000000000E+00 0. -1.
         11    1    3    3    0    0  0.29260821194E+01  0.71793706573E+00 -0.21995081531E+02  0.22200473013E+02  0.51100000000E-03 0. -1.
        -11    1    3    3    0    0  0.88979049716E+01  0.35740952585E+01  0.23992891139E+01  0.98845059721E+01  0.51100000000E-03 0.  1.
        -12    1    3    3    0    0 -0.27366696139E+02 -0.14647530137E+01  0.29651111967E+02  0.40376602134E+02  0.00000000000E+00 0.  1.
</event>
<event>
 7    1  0.1465498E-013  0.7246153E+02  0.7816164E-02  0.1226708E+00
        -11   -1    0    0    0    0  0.00000000000E+00  0.00000000000E+00  0.45593999997E+02  0.45594000000E+02  0.51100000000E-03 0. -1.
         11   -1    0    0    0    0 -0.00000000000E+00 -0.00000000000E+00 -0.45593999997E+02  0.45594000000E+02  0.51100000000E-03 0.  1.
    9900012    2    1    2    0    0  0.43332683807E+01  0.13744917443E+02  0.11957446747E+02  0.72461534688E+02  0.69999953616E+02 0.  0.
         12    1    1    2    0    0 -0.43332683807E+01 -0.13744917443E+02 -0.11957446747E+02  0.18726465312E+02  0.00000000000E+00 0. -1.
         11    1    3    3    0    0 -0.65300645483E+01  0.18592892806E+02 -0.15281450913E+02  0.24937123896E+02  0.51100000000E-03 0.  1.
        -11    1    3    3    0    0  0.16702203665E+02 -0.72248059867E+01 -0.13508188419E+01  0.18247907843E+02  0.51100000000E-03 0. -1.
         12    1    3    3    0    0 -0.58388707365E+01  0.23768306231E+01  0.28589716502E+02  0.29276502950E+02  0.00000000000E+00 0. -1.
</event>
<event>
 7    1  0.1465498E-013  0.7246159E+02  0.7816164E-02  0.1226708E+00
        -11   -1    0    0    0    0  0.00000000000E+00  0.00000000000E+00  0.45593999997E+02  0.45594000000E+02  0.51100000000E-03 0. -1.
         11   -1    0    0    0    0 -0.00000000000E+00 -0.00000000000E+00 -0.45593999997E+02  0.45594000000E+02  0.51100000000E-03 0.  1.
    9900012    2    1    2    0    0 -0.17409560168E+01 -0.20299852380E+01 -0.18534477351E+02  0.72461585005E+02  0.70000019163E+02 0.  0.
         12    1    1    2    0    0  0.17409560168E+01  0.20299852380E+01  0.18534477351E+02  0.18726414995E+02  0.00000000000E+00 0. -1.
         11    1    3    3    0    0  0.29224070336E+02 -0.59427747947E+00 -0.91700434957E+01  0.30634770289E+02  0.51100000000E-03 0. -1.
        -11    1    3    3    0    0  0.21879529061E+01  0.60295259286E+01  0.52037428082E+00  0.64353018963E+01  0.51100000000E-03 0.  1.
         12    1    3    3    0    0 -0.33152979259E+02 -0.74652336871E+01 -0.98848081357E+01  0.35391512819E+02  0.00000000000E+00 0. -1.
</event>
<event>
 7    1  0.1465498E-013  0.7246156E+02  0.7816164E-02  0.1226708E+00
        -11   -1    0    0    0    0  0.00000000000E+00  0.00000000000E+00  0.45593999997E+02  0.45594000000E+02  0.51100000000E-03 0.  1.
         11   -1    0    0    0    0 -0.00000000000E+00 -0.00000000000E+00 -0.45593999997E+02  0.45594000000E+02  0.51100000000E-03 0. -1.
    9900012    2    1    2    0    0 -0.13135189202E+02 -0.12770538978E+02 -0.38806613222E+01  0.72461564316E+02  0.69999992212E+02 0.  0.
         12    1    1    2    0    0  0.13135189202E+02  0.12770538978E+02  0.38806613222E+01  0.18726435684E+02  0.00000000000E+00 0. -1.
         11    1    3    3    0    0  0.35489007132E+01 -0.17631601959E+02 -0.25075114225E+02  0.30858215074E+02  0.51100000000E-03 0. -1.
        -11    1    3    3    0    0  0.35883776542E+01  0.66339873909E+00 -0.62432721695E+01  0.72315281732E+01  0.51100000000E-03 0.  1.
        -12    1    3    3    0    0 -0.20272467569E+02  0.41976642420E+01  0.27437725072E+02  0.34371821068E+02  0.00000000000E+00 0.  1.
</event>
<event>
 7    1  0.1465498E-013  0.7246155E+02  0.7816164E-02  0.1226708E+00
        -11   -1    0    0    0    0  0.00000000000E+00  0.00000000000E+00  0.45593999997E+02  0.45594000000E+02  0.51100000000E-03 0.  1.
         11   -1    0    0    0    0 -0.00000000000E+00 -0.00000000000E+00 -0.45593999997E+02  0.45594000000E+02  0.51100000000E-03 0. -1.
    9900012    2    1    2    0    0  0.15858828657E+01 -0.13668168876E+02  0.12702204691E+02  0.72461551621E+02  0.69999975674E+02 0.  0.
         12    1    1    2    0    0 -0.15858828657E+01  0.13668168876E+02 -0.12702204691E+02  0.18726448379E+02  0.00000000000E+00 0. -1.
         11    1    3    3    0    0 -0.28122917472E+02 -0.20842552767E+02 -0.40473939719E+01  0.35237648775E+02  0.51100000000E-03 0. -1.
        -11    1    3    3    0    0  0.53112862171E+01  0.26035844402E+01 -0.18598994587E+01  0.62006160561E+01  0.51100000000E-03 0.  1.
        -12    1    3    3    0    0  0.24397514121E+02  0.45707994505E+01  0.18609498122E+02  0.31023286790E+02  0.00000000000E+00 0.  1.
</event>
<event>
 7    1  0.1465498E-013  0.7246162E+02  0.7816164E-02  0.1226708E+00
        -11   -1    0    0    0    0  0.00000000000E+00  0.00000000000E+00  0.45593999997E+02  0.45594000000E+02  0.51100000000E-03 0.  1.
         11   -1    0    0    0    0 -0.00000000000E+00 -0.00000000000E+00 -0.45593999997E+02  0.45594000000E+02  0.51100000000E-03 0. -1.
    9900012    2    1    2    0    0  0.16544870305E+02 -0.78518204260E+01 -0.39106968356E+01  0.72461618418E+02  0.70000062690E+02 0.  0.
         12    1    1    2    0    0 -0.16544870305E+02  0.78518204260E+01  0.39106968356E+01  0.18726381582E+02  0.00000000000E+00 0. -1.
         11    1    3    3    0    0  0.32697553661E+01 -0.28584641789E+01  0.34246787689E+01  0.55308717710E+01  0.51100000000E-03 0. -1.
        -11    1    3    3    0    0  0.16812157012E+02 -0.33341380793E+02  0.36958923368E+00  0.37342106168E+02  0.51100000000E-03 0.  1.
         12    1    3    3    0    0 -0.35370420728E+01  0.28348024546E+02 -0.77049648381E+01  0.29588640480E+02  0.00000000000E+00 0. -1.
</event>
<event>
 7    1  0.1465498E-013  0.7246164E+02  0.7816164E-02  0.1226708E+00
        -11   -1    0    0    0    0  0.00000000000E+00  0.00000000000E+00  0.45593999997E+02  0.45594000000E+02  0.51100000000E-03 0.  1.
         11   -1    0    0    0    0 -0.00000000000E+00 -0.00000000000E+00 -0.45593999997E+02  0.45594000000E+02  0.51100000000E-03 0. -1.
    9900012    2    1    2    0    0 -0.12367539989E+02 -0.13940080795E+02  0.18424393507E+01  0.72461642086E+02  0.70000093522E+02 0.  0.
         12    1    1    2    0    0  0.12367539989E+02  0.13940080795E+02 -0.18424393507E+01  0.18726357914E+02  0.00000000000E+00 0. -1.
         11    1    3    3    0    0  0.73468328674E+01  0.19038542500E+01  0.28577141085E+01  0.81096944686E+01  0.51100000000E-03 0. -1.
        -11    1    3    3    0    0  0.14873960654E+02 -0.14034262159E+02  0.15807379350E+02  0.25847020371E+02  0.51100000000E-03 0.  1.
         12    1    3    3    0    0 -0.34588333510E+02 -0.18096728861E+01 -0.16822654108E+02  0.38504927246E+02  0.00000000000E+00 0. -1.
</event>
<event>
 7    1  0.1465498E-013  0.7246156E+02  0.7816164E-02  0.1226708E+00
        -11   -1    0    0    0    0  0.00000000000E+00  0.00000000000E+00  0.45593999997E+02  0.45594000000E+02  0.51100000000E-03 0. -1.
         11   -1    0    0    0    0 -0.00000000000E+00 -0.00000000000E+00 -0.45593999997E+02  0.45594000000E+02  0.51100000000E-03 0.  1.
    9900012    2    1    2    0    0  0.98608025030E+01 -0.46270377720E+01 -0.15232678075E+02  0.72461564518E+02  0.69999992475E+02 0.  0.
         12    1    1    2    0    0 -0.98608025030E+01  0.46270377720E+01  0.15232678075E+02  0.18726435482E+02  0.00000000000E+00 0. -1.
         11    1    3    3    0    0 -0.23565292980E+01  0.58016278851E+01  0.17438523239E+01  0.65002413523E+01  0.51100000000E-03 0. -1.
        -11    1    3    3    0    0 -0.58959538566E+01  0.18553754035E+01 -0.36265526065E+02  0.36788491011E+02  0.51100000000E-03 0.  1.
         12    1    3    3    0    0  0.18113285658E+02 -0.12284041061E+02  0.19288995667E+02  0.29172832155E+02  0.00000000000E+00 0. -1.
</event>
<event>
 7    1  0.1465498E-013  0.7246160E+02  0.7816164E-02  0.1226708E+00
        -11   -1    0    0    0    0  0.00000000000E+00  0.00000000000E+00  0.45593999997E+02  0.45594000000E+02  0.51100000000E-03 0. -1.
         11   -1    0    0    0    0 -0.00000000000E+00 -0.00000000000E+00 -0.45593999997E+02  0.45594000000E+02  0.51100000000E-03 0.  1.
    9900012    2    1    2    0    0  0.27266946445E+01  0.16900762308E+02  0.75899541810E+01  0.72461600593E+02  0.70000039470E+02 0.  0.
         12    1    1    2    0    0 -0.27266946445E+01 -0.16900762308E+02 -0.75899541810E+01  0.18726399407E+02  0.00000000000E+00 0. -1.
         11    1    3    3    0    0 -0.85706377015E+01 -0.20664234418E+01 -0.13518366005E+02  0.16139149797E+02  0.51100000000E-03 0. -1.
        -11    1    3    3    0    0  0.19927967730E+02  0.39848031669E+01 -0.85054414095E+01  0.22030548971E+02  0.51100000000E-03 0.  1.
         12    1    3    3    0    0 -0.86306353839E+01  0.14982382583E+02  0.29613761595E+02  0.34291901826E+02  0.00000000000E+00 0. -1.
</event>
<event>
 7    1  0.1465498E-013  0.7246123E+02  0.7816164E-02  0.1226709E+00
        -11   -1    0    0    0    0  0.00000000000E+00  0.00000000000E+00  0.45593999997E+02  0.45594000000E+02  0.51100000000E-03 0. -1.
         11   -1    0    0    0    0 -0.00000000000E+00 -0.00000000000E+00 -0.45593999997E+02  0.45594000000E+02  0.51100000000E-03 0.  1.
    9900012    2    1    2    0    0  0.44767328508E+00  0.17037519246E+02 -0.77598013454E+01  0.72461227978E+02  0.69999554068E+02 0.  0.
         12    1    1    2    0    0 -0.44767328508E+00 -0.17037519246E+02  0.77598013454E+01  0.18726772022E+02  0.00000000000E+00 0. -1.
         11    1    3    3    0    0 -0.74744304214E+01  0.56787683226E+01  0.12412261885E+01  0.94686938116E+01  0.51100000000E-03 0. -1.
        -11    1    3    3    0    0 -0.48872115352E+01  0.34840524012E+02 -0.87050535207E+01  0.36242584167E+02  0.51100000000E-03 0.  1.
         12    1    3    3    0    0  0.12809315242E+02 -0.23481773089E+02 -0.29597401316E+00  0.26749949999E+02  0.00000000000E+00 0. -1.
</event>
<event>
 7    1  0.1465498E-013  0.7246153E+02  0.7816164E-02  0.1226708E+00
        -11   -1    0    0    0    0  0.00000000000E+00  0.00000000000E+00  0.45593999997E+02  0.45594000000E+02  0.51100000000E-03 0.  1.
         11   -1    0    0    0    0 -0.00000000000E+00 -0.00000000000E+00 -0.45593999997E+02  0.45594000000E+02  0.51100000000E-03 0. -1.
    9900012    2    1    2    0    0  0.16171570970E+02 -0.72753081442E+01 -0.60192047389E+01  0.72461530981E+02  0.69999948787E+02 0.  0.
         12    1    1    2    0    0 -0.16171570970E+02  0.72753081442E+01  0.60192047389E+01  0.18726469019E+02  0.00000000000E+00 0. -1.
         11    1    3    3    0    0  0.14823857529E+02 -0.10331419626E+02 -0.14983987829E+02  0.23473493030E+02  0.51100000000E-03 0. -1.
        -11    1    3    3    0    0  0.12461840948E+02  0.97308338558E+01 -0.14966233046E+02  0.21770960916E+02  0.51100000000E-03 0.  1.
        -12    1    3    3    0    0 -0.11114127507E+02 -0.66747223740E+01  0.23931016136E+02  0.27217077035E+02  0.00000000000E+00 0.  1.
</event>
<event>
 7    1  0.1465498E-013  0.7246158E+02  0.7816164E-02  0.1226708E+00
        -11   -1    0    0    0    0  0.00000000000E+00  0.00000000000E+00  0.45593999997E+02  0.45594000000E+02  0.51100000000E-03 0.  1.
         11   -1    0    0    0    0 -0.00000000000E+00 -0.00000000000E+00 -0.45593999997E+02  0.45594000000E+02  0.51100000000E-03 0. -1.
    9900012    2    1    2    0    0 -0.24861502041E+01 -0.18022655906E+02 -0.44364149293E+01  0.72461578928E+02  0.70000011247E+02 0.  0.
         12    1    1    2    0    0  0.24861502041E+01  0.18022655906E+02  0.44364149293E+01  0.18726421072E+02  0.00000000000E+00 0. -1.
         11    1    3    3    0    0  0.10464378894E+02 -0.15885116399E+02 -0.63164502701E+01  0.20043395245E+02  0.51100000000E-03 0. -1.
        -11    1    3    3    0    0 -0.13281666000E+02 -0.24328862486E+02  0.89470865796E+01  0.29126389411E+02  0.51100000000E-03 0.  1.
         12    1    3    3    0    0  0.33113690175E+00  0.22191322979E+02 -0.70670512388E+01  0.23291794272E+02  0.00000000000E+00 0. -1.
</event>
<event>
 7    1  0.1503194E-013  0.7246162E+02  0.7816164E-02  0.1226708E+00
        -11   -1    0    0    0    0  0.00000000000E+00  0.00000000000E+00  0.45593999997E+02  0.45594000000E+02  0.51100000000E-03 0.  1.
         11   -1    0    0    0    0 -0.00000000000E+00 -0.00000000000E+00 -0.45593999997E+02  0.45594000000E+02  0.51100000000E-03 0. -1.
    9900012    2    1    2    0    0  0.22585359597E+01 -0.16947229931E+02 -0.76398651853E+01  0.72461624828E+02  0.70000071041E+02 0.  0.
         12    1    1    2    0    0 -0.22585359597E+01  0.16947229931E+02  0.76398651853E+01  0.18726375172E+02  0.00000000000E+00 0. -1.
         11    1    3    3    0    0 -0.18686429042E-03  0.19435436214E+02  0.84686349779E+01  0.21200329231E+02  0.51100000000E-03 0. -1.
        -11    1    3    3    0    0 -0.62062958100E+01 -0.44208300743E+01  0.74549874755E+01  0.10660144687E+02  0.51100000000E-03 0.  1.
        -12    1    3    3    0    0  0.84650186340E+01 -0.31961836071E+02 -0.23563487639E+02  0.40601150910E+02  0.00000000000E+00 0.  1.
</event>
<event>
 7    1  0.1492852E-013  0.7246157E+02  0.7816164E-02  0.1226708E+00
        -11   -1    0    0    0    0  0.00000000000E+00  0.00000000000E+00  0.45593999997E+02  0.45594000000E+02  0.51100000000E-03 0. -1.
         11   -1    0    0    0    0 -0.00000000000E+00 -0.00000000000E+00 -0.45593999997E+02  0.45594000000E+02  0.51100000000E-03 0.  1.
    9900012    2    1    2    0    0 -0.10026337985E+02 -0.97884745297E+01 -0.12423258305E+02  0.72461573915E+02  0.70000004717E+02 0.  0.
         12    1    1    2    0    0  0.10026337985E+02  0.97884745297E+01  0.12423258305E+02  0.18726426085E+02  0.00000000000E+00 0. -1.
         11    1    3    3    0    0 -0.10310002159E+02  0.22731092390E+02  0.85872338289E+01  0.26395819572E+02  0.51100000000E-03 0. -1.
        -11    1    3    3    0    0 -0.93392434170E+01 -0.59252226182E+01 -0.39417881726E+00  0.11067299033E+02  0.51100000000E-03 0.  1.
        -12    1    3    3    0    0  0.96229075915E+01 -0.26594344302E+02 -0.20616313317E+02  0.34998455311E+02  0.00000000000E+00 0.  1.
</event>
<event>
 7    1  0.1465498E-013  0.7246168E+02  0.7816164E-02  0.1226708E+00
        -11   -1    0    0    0    0  0.00000000000E+00  0.00000000000E+00  0.45593999997E+02  0.45594000000E+02  0.51100000000E-03 0.  1.
         11   -1    0    0    0    0 -0.00000000000E+00 -0.00000000000E+00 -0.45593999997E+02  0.45594000000E+02  0.51100000000E-03 0. -1.
    9900012    2    1    2    0    0  0.12343666149E+02  0.26692887671E+01  0.13826923440E+02  0.72461681399E+02  0.70000144735E+02 0.  0.
         12    1    1    2    0    0 -0.12343666149E+02 -0.26692887671E+01 -0.13826923440E+02  0.18726318601E+02  0.00000000000E+00 0. -1.
         11    1    3    3    0    0  0.77373033976E+01 -0.18324511250E+02 -0.15368891551E+02  0.25136754050E+02  0.51100000000E-03 0. -1.
        -11    1    3    3    0    0  0.10653284700E+02  0.24647650619E+00 -0.41807420930E+00  0.10664333635E+02  0.51100000000E-03 0.  1.
        -12    1    3    3    0    0 -0.60469219486E+01  0.20747323511E+02  0.29613889200E+02  0.36660593714E+02  0.00000000000E+00 0.  1.
</event>
<event>
 7    1  0.1465498E-013  0.7246157E+02  0.7816164E-02  0.1226708E+00
        -11   -1    0    0    0    0  0.00000000000E+00  0.00000000000E+00  0.45593999997E+02  0.45594000000E+02  0.51100000000E-03 0.  1.
         11   -1    0    0    0    0 -0.00000000000E+00 -0.00000000000E+00 -0.45593999997E+02  0.45594000000E+02  0.51100000000E-03 0. -1.
    9900012    2    1    2    0    0  0.88972126290E+00  0.53888270245E+01  0.17912235100E+02  0.72461568762E+02  0.69999998004E+02 0.  0.
         12    1    1    2    0    0 -0.88972126290E+00 -0.53888270245E+01 -0.17912235100E+02  0.18726431238E+02  0.00000000000E+00 0. -1.
         11    1    3    3    0    0 -0.65291618241E+01  0.15261327590E+02  0.16123918972E+02  0.23141279939E+02  0.51100000000E-03 0. -1.
        -11    1    3    3    0    0  0.10083659932E+02 -0.28276934156E+02  0.50417436746E+01  0.30441491134E+02  0.51100000000E-03 0.  1.
         12    1    3    3    0    0 -0.26647768452E+01  0.18404433591E+02 -0.32534275463E+01  0.18878797690E+02  0.00000000000E+00 0. -1.
</event>
<event>
 7    1  0.1465498E-013  0.7246161E+02  0.7816164E-02  0.1226708E+00
        -11   -1    0    0    0    0  0.00000000000E+00  0.00000000000E+00  0.45593999997E+02  0.45594000000E+02  0.51100000000E-03 0.  1.
         11   -1    0    0    0    0 -0.00000000000E+00 -0.00000000000E+00 -0.45593999997E+02  0.45594000000E+02  0.51100000000E-03 0. -1.
    9900012    2    1    2    0    0  0.80303332439E+01  0.83186601418E+01  0.14730631373E+02  0.72461605280E+02  0.70000045575E+02 0.  0.
         12    1    1    2    0    0 -0.80303332439E+01 -0.83186601418E+01 -0.14730631373E+02  0.18726394720E+02  0.00000000000E+00 0. -1.
         11    1    3    3    0    0  0.10939316044E+01  0.19782623253E+02 -0.10825857243E+02  0.22577600723E+02  0.51100000000E-03 0. -1.
        -11    1    3    3    0    0 -0.14035732119E+02 -0.79912066485E+01  0.23516400123E+02  0.28528621327E+02  0.51100000000E-03 0.  1.
         12    1    3    3    0    0  0.20972133759E+02 -0.34727564624E+01  0.20400884935E+01  0.21355383230E+02  0.00000000000E+00 0. -1.
</event>
<event>
 7    1  0.1465498E-013  0.7246133E+02  0.7816164E-02  0.1226709E+00
        -11   -1    0    0    0    0  0.00000000000E+00  0.00000000000E+00  0.45593999997E+02  0.45594000000E+02  0.51100000000E-03 0. -1.
         11   -1    0    0    0    0 -0.00000000000E+00 -0.00000000000E+00 -0.45593999997E+02  0.45594000000E+02  0.51100000000E-03 0.  1.
    9900012    2    1    2    0    0  0.13852762096E+02  0.57069104614E+01  0.11234789908E+02  0.72461325202E+02  0.69999680721E+02 0.  0.
         12    1    1    2    0    0 -0.13852762096E+02 -0.57069104614E+01 -0.11234789908E+02  0.18726674798E+02  0.00000000000E+00 0. -1.
         11    1    3    3    0    0 -0.46935754454E+01 -0.12968012914E+02  0.49133277450E+01  0.14640348329E+02  0.51100000000E-03 0. -1.
        -11    1    3    3    0    0  0.13080081381E+02 -0.16853880247E+02  0.46521442469E+01  0.21835389959E+02  0.51100000000E-03 0.  1.
         12    1    3    3    0    0  0.54662561607E+01  0.35528803623E+02  0.16693179163E+01  0.35985586914E+02  0.00000000000E+00 0. -1.
</event>
<event>
 7    1  0.1465498E-013  0.7246157E+02  0.7816164E-02  0.1226708E+00
        -11   -1    0    0    0    0  0.00000000000E+00  0.00000000000E+00  0.45593999997E+02  0.45594000000E+02  0.51100000000E-03 0. -1.
         11   -1    0    0    0    0 -0.00000000000E+00 -0.00000000000E+00 -0.45593999997E+02  0.45594000000E+02  0.51100000000E-03 0.  1.
    9900012    2    1    2    0    0  0.14264146420E+02 -0.93997344227E+00  0.12096684662E+02  0.72461569401E+02  0.69999998837E+02 0.  0.
         12    1    1    2    0    0 -0.14264146420E+02  0.93997344227E+00 -0.12096684662E+02  0.18726430599E+02  0.00000000000E+00 0. -1.
         11    1    3    3    0    0  0.69113085364E+01  0.32504136035E+01  0.18838219598E+01  0.78663943275E+01  0.51100000000E-03 0. -1.
        -11    1    3    3    0    0  0.28861681844E+02  0.38693620170E+01 -0.13043806909E+02  0.31907828824E+02  0.51100000000E-03 0.  1.
         12    1    3    3    0    0 -0.21508843961E+02 -0.80597490628E+01  0.23256669611E+02  0.32687346250E+02  0.00000000000E+00 0. -1.
</event>
<event>
 7    1  0.1465498E-013  0.7246157E+02  0.7816164E-02  0.1226708E+00
        -11   -1    0    0    0    0  0.00000000000E+00  0.00000000000E+00  0.45593999997E+02  0.45594000000E+02  0.51100000000E-03 0. -1.
         11   -1    0    0    0    0 -0.00000000000E+00 -0.00000000000E+00 -0.45593999997E+02  0.45594000000E+02  0.51100000000E-03 0.  1.
    9900012    2    1    2    0    0  0.42488229394E+01  0.10386999069E+02 -0.14991230138E+02  0.72461568758E+02  0.69999997998E+02 0.  0.
         12    1    1    2    0    0 -0.42488229394E+01 -0.10386999069E+02  0.14991230138E+02  0.18726431242E+02  0.00000000000E+00 0. -1.
         11    1    3    3    0    0  0.13476874363E+02  0.10394265614E+02  0.14895655568E+02  0.22617414868E+02  0.51100000000E-03 0. -1.
        -11    1    3    3    0    0 -0.11695852060E+02  0.33401252241E+01  0.61072402575E+01  0.13610575879E+02  0.51100000000E-03 0.  1.
         12    1    3    3    0    0  0.24678006364E+01 -0.33473917689E+01 -0.35994125963E+02  0.36233578011E+02  0.00000000000E+00 0. -1.
</event>
<event>
 7    1  0.1465498E-013  0.7246155E+02  0.7816164E-02  0.1226708E+00
        -11   -1    0    0    0    0  0.00000000000E+00  0.00000000000E+00  0.45593999997E+02  0.45594000000E+02  0.51100000000E-03 0.  1.
         11   -1    0    0    0    0 -0.00000000000E+00 -0.00000000000E+00 -0.45593999997E+02  0.45594000000E+02  0.51100000000E-03 0. -1.
    9900012    2    1    2    0    0 -0.12729533236E+02 -0.11041696731E+02  0.81682187098E+01  0.72461551325E+02  0.69999975288E+02 0.  0.
         12    1    1    2    0    0  0.12729533236E+02  0.11041696731E+02 -0.81682187098E+01  0.18726448675E+02  0.00000000000E+00 0. -1.
         11    1    3    3    0    0  0.82955569410E+01 -0.12527338853E+02  0.42127231438E+01  0.15604407078E+02  0.51100000000E-03 0. -1.
        -11    1    3    3    0    0 -0.62090595109E+01  0.81055625780E+01  0.26889361538E+02  0.28762655108E+02  0.51100000000E-03 0.  1.
         12    1    3    3    0    0 -0.14816030666E+02 -0.66199204565E+01 -0.22933865972E+02  0.28094489138E+02  0.00000000000E+00 0. -1.
</event>
<event>
 7    1  0.1465498E-013  0.7246158E+02  0.7816164E-02  0.1226708E+00
        -11   -1    0    0    0    0  0.00000000000E+00  0.00000000000E+00  0.45593999997E+02  0.45594000000E+02  0.51100000000E-03 0.  1.
         11   -1    0    0    0    0 -0.00000000000E+00 -0.00000000000E+00 -0.45593999997E+02  0.45594000000E+02  0.51100000000E-03 0. -1.
    9900012    2    1    2    0    0 -0.26780238330E+01  0.45197611235E+01  0.17974395095E+02  0.72461576655E+02  0.70000008285E+02 0.  0.
         12    1    1    2    0    0  0.26780238330E+01 -0.45197611235E+01 -0.17974395095E+02  0.18726423345E+02  0.00000000000E+00 0. -1.
         11    1    3    3    0    0  0.21786843892E+02 -0.12295361197E+02  0.14888606730E+02  0.29112077981E+02  0.51100000000E-03 0. -1.
        -11    1    3    3    0    0  0.11602998636E+01 -0.32257478937E+01  0.95812585459E+01  0.10176063130E+02  0.51100000000E-03 0.  1.
        -12    1    3    3    0    0 -0.25625167589E+02  0.20040870214E+02 -0.64954701809E+01  0.33173435543E+02  0.00000000000E+00 0.  1.
</event>
<event>
 7    1  0.1465498E-013  0.7246156E+02  0.7816164E-02  0.1226708E+00
        -11   -1    0    0    0    0  0.00000000000E+00  0.00000000000E+00  0.45593999997E+02  0.45594000000E+02  0.51100000000E-03 0.  1.
         11   -1    0    0    0    0 -0.00000000000E+00 -0.00000000000E+00 -0.45593999997E+02  0.45594000000E+02  0.51100000000E-03 0. -1.
    9900012    2    1    2    0    0 -0.14207826310E+02 -0.10981150624E+02  0.53133392856E+01  0.72461559552E+02  0.69999986006E+02 0.  0.
         12    1    1    2    0    0  0.14207826310E+02  0.10981150624E+02 -0.53133392856E+01  0.18726440448E+02  0.00000000000E+00 0. -1.
         11    1    3    3    0    0 -0.24812953213E+02  0.49227316912E+01  0.17666579025E+02  0.30854885337E+02  0.51100000000E-03 0. -1.
        -11    1    3    3    0    0  0.88602526229E+01  0.96780472248E+01  0.53623145833E-01  0.13121415714E+02  0.51100000000E-03 0.  1.
         12    1    3    3    0    0  0.17448742801E+01 -0.25581929540E+02 -0.12406862885E+02  0.28485258502E+02  0.00000000000E+00 0. -1.
</event>
<event>
 7    1  0.1465498E-013  0.7246155E+02  0.7816164E-02  0.1226708E+00
        -11   -1    0    0    0    0  0.00000000000E+00  0.00000000000E+00  0.45593999997E+02  0.45594000000E+02  0.51100000000E-03 0. -1.
         11   -1    0    0    0    0 -0.00000000000E+00 -0.00000000000E+00 -0.45593999997E+02  0.45594000000E+02  0.51100000000E-03 0.  1.
    9900012    2    1    2    0    0 -0.22958296859E+01  0.17991905413E+02 -0.46583833729E+01  0.72461547319E+02  0.69999970071E+02 0.  0.
         12    1    1    2    0    0  0.22958296859E+01 -0.17991905413E+02  0.46583833729E+01  0.18726452681E+02  0.00000000000E+00 0. -1.
         11    1    3    3    0    0 -0.10936186375E+01  0.18297506467E+01  0.42411665093E+01  0.47467339060E+01  0.51100000000E-03 0. -1.
        -11    1    3    3    0    0 -0.20328328646E+02  0.25238546747E+02 -0.25154243797E+02  0.41023909720E+02  0.51100000000E-03 0.  1.
         12    1    3    3    0    0  0.19126117597E+02 -0.90763919807E+01  0.16254693914E+02  0.26690903694E+02  0.00000000000E+00 0. -1.
</event>
<event>
 7    1  0.1678839E-013  0.7246157E+02  0.7816164E-02  0.1226708E+00
        -11   -1    0    0    0    0  0.00000000000E+00  0.00000000000E+00  0.45593999997E+02  0.45594000000E+02  0.51100000000E-03 0. -1.
         11   -1    0    0    0    0 -0.00000000000E+00 -0.00000000000E+00 -0.45593999997E+02  0.45594000000E+02  0.51100000000E-03 0.  1.
    9900012    2    1    2    0    0  0.33912204723E+01 -0.18106710952E+02 -0.33653935619E+01  0.72461568636E+02  0.69999997840E+02 0.  0.
         12    1    1    2    0    0 -0.33912204723E+01  0.18106710952E+02  0.33653935619E+01  0.18726431364E+02  0.00000000000E+00 0. -1.
         11    1    3    3    0    0  0.61525028619E+01  0.12766260508E+02  0.16940985568E+02  0.22086821661E+02  0.51100000000E-03 0. -1.
        -11    1    3    3    0    0  0.12903739613E+02 -0.15885170446E+02  0.29451564795E+00  0.20467825381E+02  0.51100000000E-03 0.  1.
        -12    1    3    3    0    0 -0.15665022002E+02 -0.14987801014E+02 -0.20600894778E+02  0.29906921594E+02  0.00000000000E+00 0.  1.
</event>
<event>
 7    1  0.1470613E-013  0.7246165E+02  0.7816164E-02  0.1226708E+00
        -11   -1    0    0    0    0  0.00000000000E+00  0.00000000000E+00  0.45593999997E+02  0.45594000000E+02  0.51100000000E-03 0.  1.
         11   -1    0    0    0    0 -0.00000000000E+00 -0.00000000000E+00 -0.45593999997E+02  0.45594000000E+02  0.51100000000E-03 0. -1.
    9900012    2    1    2    0    0  0.17347766690E+02  0.56767874376E+01  0.41839495033E+01  0.72461645358E+02  0.70000097784E+02 0.  0.
         12    1    1    2    0    0 -0.17347766690E+02 -0.56767874376E+01 -0.41839495033E+01  0.18726354642E+02  0.00000000000E+00 0. -1.
         11    1    3    3    0    0  0.24498505471E+02 -0.22036692372E+02 -0.75303925128E+01  0.33800878579E+02  0.51100000000E-03 0. -1.
        -11    1    3    3    0    0  0.46064682543E+01  0.25260420867E+00 -0.28549350054E+01  0.54253122316E+01  0.51100000000E-03 0.  1.
        -12    1    3    3    0    0 -0.11757207035E+02  0.27460875601E+02  0.14569277021E+02  0.33235454548E+02  0.00000000000E+00 0.  1.
</event>
<event>
 7    1  0.1465498E-013  0.7246156E+02  0.7816164E-02  0.1226708E+00
        -11   -1    0    0    0    0  0.00000000000E+00  0.00000000000E+00  0.45593999997E+02  0.45594000000E+02  0.51100000000E-03 0. -1.
         11   -1    0    0    0    0 -0.00000000000E+00 -0.00000000000E+00 -0.45593999997E+02  0.45594000000E+02  0.51100000000E-03 0.  1.
    9900012    2    1    2    0    0 -0.43933253803E+01  0.17701954534E+02 -0.42448639548E+01  0.72461564882E+02  0.69999992950E+02 0.  0.
         12    1    1    2    0    0  0.43933253803E+01 -0.17701954534E+02  0.42448639548E+01  0.18726435118E+02  0.00000000000E+00 0. -1.
         11    1    3    3    0    0 -0.13138812668E+02  0.86405349696E+00 -0.78616417020E+01  0.15335592498E+02  0.51100000000E-03 0. -1.
        -11    1    3    3    0    0 -0.72126995792E+01 -0.17546205852E+02  0.30529493079E+01  0.19214912822E+02  0.51100000000E-03 0.  1.
         12    1    3    3    0    0  0.15958186867E+02  0.34384106889E+02  0.56382843933E+00  0.37911059562E+02  0.00000000000E+00 0. -1.
</event>
<event>
 7    1  0.1465498E-013  0.7246151E+02  0.7816164E-02  0.1226708E+00
        -11   -1    0    0    0    0  0.00000000000E+00  0.00000000000E+00  0.45593999997E+02  0.45594000000E+02  0.51100000000E-03 0.  1.
         11   -1    0    0    0    0 -0.00000000000E+00 -0.00000000000E+00 -0.45593999997E+02  0.45594000000E+02  0.51100000000E-03 0. -1.
    9900012    2    1    2    0    0 -0.12314498170E+02  0.14022591782E+02 -0.15497296604E+01  0.72461505200E+02  0.69999915203E+02 0.  0.
         12    1    1    2    0    0  0.12314498170E+02 -0.14022591782E+02  0.15497296604E+01  0.18726494800E+02  0.00000000000E+00 0. -1.
         11    1    3    3    0    0 -0.36561331924E+01  0.52402775319E+01 -0.33883573532E+01  0.72324812026E+01  0.51100000000E-03 0. -1.
        -11    1    3    3    0    0 -0.32282619088E+02  0.12755583407E+02  0.15093107558E+02  0.37850684264E+02  0.51100000000E-03 0.  1.
         12    1    3    3    0    0  0.23624254110E+02 -0.39732691571E+01 -0.13254479865E+02  0.27378339733E+02  0.00000000000E+00 0. -1.
</event>
<event>
 7    1  0.1465498E-013  0.7246157E+02  0.7816164E-02  0.1226708E+00
        -11   -1    0    0    0    0  0.00000000000E+00  0.00000000000E+00  0.45593999997E+02  0.45594000000E+02  0.51100000000E-03 0. -1.
         11   -1    0    0    0    0 -0.00000000000E+00 -0.00000000000E+00 -0.45593999997E+02  0.45594000000E+02  0.51100000000E-03 0.  1.
    9900012    2    1    2    0    0  0.15801836688E+02 -0.79644076329E+01 -0.61277623706E+01  0.72461566722E+02  0.69999995346E+02 0.  0.
         12    1    1    2    0    0 -0.15801836688E+02  0.79644076329E+01  0.61277623706E+01  0.18726433278E+02  0.00000000000E+00 0. -1.
         11    1    3    3    0    0  0.33338875815E+02  0.33549314362E+01 -0.69764989656E+01  0.34225834448E+02  0.51100000000E-03 0. -1.
        -11    1    3    3    0    0 -0.33772743387E+01  0.10618241051E+02 -0.36821964696E+01  0.11735058418E+02  0.51100000000E-03 0.  1.
        -12    1    3    3    0    0 -0.14159764789E+02 -0.21937580120E+02  0.45309330646E+01  0.26500673856E+02  0.00000000000E+00 0.  1.
</event>
<event>
 7    1  0.1465498E-013  0.7246158E+02  0.7816164E-02  0.1226708E+00
        -11   -1    0    0    0    0  0.00000000000E+00  0.00000000000E+00  0.45593999997E+02  0.45594000000E+02  0.51100000000E-03 0. -1.
         11   -1    0    0    0    0 -0.00000000000E+00 -0.00000000000E+00 -0.45593999997E+02  0.45594000000E+02  0.51100000000E-03 0.  1.
    9900012    2    1    2    0    0  0.69235317466E+01 -0.42078325976E+01 -0.16883059964E+02  0.72461578538E+02  0.70000010739E+02 0.  0.
         12    1    1    2    0    0 -0.69235317466E+01  0.42078325976E+01  0.16883059964E+02  0.18726421462E+02  0.00000000000E+00 0. -1.
         11    1    3    3    0    0  0.97757838360E+01 -0.66380598870E+01  0.15354959011E+01  0.11915852324E+02  0.51100000000E-03 0. -1.
        -11    1    3    3    0    0  0.50146607906E+01 -0.25991671332E+02 -0.14249050420E+01  0.26509322060E+02  0.51100000000E-03 0.  1.
         12    1    3    3    0    0 -0.78669128801E+01  0.28421898621E+02 -0.16993650823E+02  0.34036404155E+02  0.00000000000E+00 0. -1.
</event>
<event>
 7    1  0.1465498E-013  0.7246155E+02  0.7816164E-02  0.1226708E+00
        -11   -1    0    0    0    0  0.00000000000E+00  0.00000000000E+00  0.45593999997E+02  0.45594000000E+02  0.51100000000E-03 0.  1.
         11   -1    0    0    0    0 -0.00000000000E+00 -0.00000000000E+00 -0.45593999997E+02  0.45594000000E+02  0.51100000000E-03 0. -1.
    9900012    2    1    2    0    0 -0.18550442882E+01 -0.96736947870E+01  0.15926656217E+02  0.72461549765E+02  0.69999973256E+02 0.  0.
         12    1    1    2    0    0  0.18550442882E+01  0.96736947870E+01 -0.15926656217E+02  0.18726450235E+02  0.00000000000E+00 0. -1.
         11    1    3    3    0    0  0.11707340886E+02 -0.21159467997E+02  0.66710570094E+01  0.25085611781E+02  0.51100000000E-03 0. -1.
        -11    1    3    3    0    0 -0.27190914276E+02 -0.20245110948E+01  0.50379015506E+01  0.27727692234E+02  0.51100000000E-03 0.  1.
         12    1    3    3    0    0  0.13628529102E+02  0.13510284305E+02  0.42176976575E+01  0.19648245749E+02  0.00000000000E+00 0. -1.
</event>
<event>
 7    1  0.1465498E-013  0.7246173E+02  0.7816164E-02  0.1226708E+00
        -11   -1    0    0    0    0  0.00000000000E+00  0.00000000000E+00  0.45593999997E+02  0.45594000000E+02  0.51100000000E-03 0.  1.
         11   -1    0    0    0    0 -0.00000000000E+00 -0.00000000000E+00 -0.45593999997E+02  0.45594000000E+02  0.51100000000E-03 0. -1.
    9900012    2    1    2    0    0  0.13918977853E+02 -0.60341028787E+01  0.10978388332E+02  0.72461725614E+02  0.70000202332E+02 0.  0.
         12    1    1    2    0    0 -0.13918977853E+02  0.60341028787E+01 -0.10978388332E+02  0.18726274386E+02  0.00000000000E+00 0. -1.
         11    1    3    3    0    0  0.10622740906E+02 -0.25671846492E+02 -0.58919773210E+01  0.28400734563E+02  0.51100000000E-03 0. -1.
        -11    1    3    3    0    0 -0.92792133891E+01 -0.35053117045E+01 -0.37561666941E+01  0.10606592278E+02  0.51100000000E-03 0.  1.
        -12    1    3    3    0    0  0.12575450335E+02  0.23143055318E+02  0.20626532347E+02  0.33454398773E+02  0.00000000000E+00 0.  1.
</event>
<event>
 7    1  0.1465498E-013  0.7246157E+02  0.7816164E-02  0.1226708E+00
        -11   -1    0    0    0    0  0.00000000000E+00  0.00000000000E+00  0.45593999997E+02  0.45594000000E+02  0.51100000000E-03 0. -1.
         11   -1    0    0    0    0 -0.00000000000E+00 -0.00000000000E+00 -0.45593999997E+02  0.45594000000E+02  0.51100000000E-03 0.  1.
    9900012    2    1    2    0    0  0.11886861931E+02  0.14437000755E+02  0.97715585102E+00  0.72461566519E+02  0.69999995082E+02 0.  0.
         12    1    1    2    0    0 -0.11886861931E+02 -0.14437000755E+02 -0.97715585102E+00  0.18726433481E+02  0.00000000000E+00 0. -1.
         11    1    3    3    0    0  0.20303976806E+02 -0.11514286539E+00 -0.86368497552E+01  0.22064902129E+02  0.51100000000E-03 0. -1.
        -11    1    3    3    0    0 -0.13068233458E+01  0.21862034500E+02  0.24174715015E+02  0.32620134673E+02  0.51100000000E-03 0.  1.
         12    1    3    3    0    0 -0.71102915289E+01 -0.73098908801E+01 -0.14560709408E+02  0.17776529717E+02  0.00000000000E+00 0. -1.
</event>
<event>
 7    1  0.1465498E-013  0.7246158E+02  0.7816164E-02  0.1226708E+00
        -11   -1    0    0    0    0  0.00000000000E+00  0.00000000000E+00  0.45593999997E+02  0.45594000000E+02  0.51100000000E-03 0.  1.
         11   -1    0    0    0    0 -0.00000000000E+00 -0.00000000000E+00 -0.45593999997E+02  0.45594000000E+02  0.51100000000E-03 0. -1.
    9900012    2    1    2    0    0  0.18614032374E+02  0.17686195650E+01  0.10337580276E+01  0.72461578237E+02  0.70000010347E+02 0.  0.
         12    1    1    2    0    0 -0.18614032374E+02 -0.17686195650E+01 -0.10337580276E+01  0.18726421763E+02  0.00000000000E+00 0. -1.
         11    1    3    3    0    0  0.32160474356E+02  0.12314022223E+02  0.69297360759E+00  0.34444324159E+02  0.51100000000E-03 0. -1.
        -11    1    3    3    0    0 -0.66932858925E+01  0.30619660778E+01  0.15104134359E+02  0.16802100681E+02  0.51100000000E-03 0.  1.
         12    1    3    3    0    0 -0.68531560894E+01 -0.13607368735E+02 -0.14763349939E+02  0.21215153398E+02  0.00000000000E+00 0. -1.
</event>
<event>
 7    1  0.1465498E-013  0.7246157E+02  0.7816164E-02  0.1226708E+00
        -11   -1    0    0    0    0  0.00000000000E+00  0.00000000000E+00  0.45593999997E+02  0.45594000000E+02  0.51100000000E-03 0. -1.
         11   -1    0    0    0    0 -0.00000000000E+00 -0.00000000000E+00 -0.45593999997E+02  0.45594000000E+02  0.51100000000E-03 0.  1.
    9900012    2    1    2    0    0  0.19642675217E+01 -0.73614863585E+01 -0.17106413351E+02  0.72461569320E+02  0.69999998730E+02 0.  0.
         12    1    1    2    0    0 -0.19642675217E+01  0.73614863585E+01  0.17106413351E+02  0.18726430680E+02  0.00000000000E+00 0. -1.
         11    1    3    3    0    0 -0.72796315678E+01  0.87596326372E+01  0.28893092477E+01  0.11750417350E+02  0.51100000000E-03 0. -1.
        -11    1    3    3    0    0  0.97608354888E+00 -0.34569608061E+02 -0.37693132506E+01  0.34788191434E+02  0.51100000000E-03 0.  1.
        -12    1    3    3    0    0  0.82678155405E+01  0.18448489066E+02 -0.16226409348E+02  0.25922960536E+02  0.00000000000E+00 0.  1.
</event>
<event>
 7    1  0.1465498E-013  0.7246177E+02  0.7816164E-02  0.1226707E+00
        -11   -1    0    0    0    0  0.00000000000E+00  0.00000000000E+00  0.45593999997E+02  0.45594000000E+02  0.51100000000E-03 0.  1.
         11   -1    0    0    0    0 -0.00000000000E+00 -0.00000000000E+00 -0.45593999997E+02  0.45594000000E+02  0.51100000000E-03 0. -1.
    9900012    2    1    2    0    0 -0.14169563987E+02  0.44719119517E+01  0.11397240776E+02  0.72461771405E+02  0.70000261983E+02 0.  0.
         12    1    1    2    0    0  0.14169563987E+02 -0.44719119517E+01 -0.11397240776E+02  0.18726228595E+02  0.00000000000E+00 0. -1.
         11    1    3    3    0    0  0.27774998865E+01  0.18428095758E+01 -0.80525933346E+01  0.87152000795E+01  0.51100000000E-03 0. -1.
        -11    1    3    3    0    0 -0.37677225044E+02  0.46833015870E+01  0.19989511491E+02  0.42907891707E+02  0.51100000000E-03 0.  1.
         12    1    3    3    0    0  0.20730161171E+02 -0.20541992112E+01 -0.53967738047E+00  0.20838679618E+02  0.00000000000E+00 0. -1.
</event>
<event>
 7    1  0.1465498E-013  0.7246155E+02  0.7816164E-02  0.1226708E+00
        -11   -1    0    0    0    0  0.00000000000E+00  0.00000000000E+00  0.45593999997E+02  0.45594000000E+02  0.51100000000E-03 0. -1.
         11   -1    0    0    0    0 -0.00000000000E+00 -0.00000000000E+00 -0.45593999997E+02  0.45594000000E+02  0.51100000000E-03 0.  1.
    9900012    2    1    2    0    0 -0.17048607069E+02  0.55439810014E+01  0.54119528650E+01  0.72461549131E+02  0.69999972431E+02 0.  0.
         12    1    1    2    0    0  0.17048607069E+02 -0.55439810014E+01 -0.54119528650E+01  0.18726450869E+02  0.00000000000E+00 0. -1.
         11    1    3    3    0    0  0.75797859165E+01 -0.15931269974E+02  0.15645148478E+02  0.23580271175E+02  0.51100000000E-03 0. -1.
        -11    1    3    3    0    0 -0.12809355331E+02  0.91840632069E+01 -0.22786867505E+02  0.27706821037E+02  0.51100000000E-03 0.  1.
         12    1    3    3    0    0 -0.11819037654E+02  0.12291187769E+02  0.12553671892E+02  0.21174456919E+02  0.00000000000E+00 0. -1.
</event>
<event>
 7    1  0.1465498E-013  0.7246156E+02  0.7816164E-02  0.1226708E+00
        -11   -1    0    0    0    0  0.00000000000E+00  0.00000000000E+00  0.45593999997E+02  0.45594000000E+02  0.51100000000E-03 0.  1.
         11   -1    0    0    0    0 -0.00000000000E+00 -0.00000000000E+00 -0.45593999997E+02  0.45594000000E+02  0.51100000000E-03 0. -1.
    9900012    2    1    2    0    0  0.17947219782E+02  0.78537587810E+00  0.52877253628E+01  0.72461560064E+02  0.69999986673E+02 0.  0.
         12    1    1    2    0    0 -0.17947219782E+02 -0.78537587810E+00 -0.52877253628E+01  0.18726439936E+02  0.00000000000E+00 0. -1.
         11    1    3    3    0    0 -0.28910868018E+01 -0.18133665190E+02  0.65712819444E+00  0.18374439144E+02  0.51100000000E-03 0. -1.
        -11    1    3    3    0    0 -0.25891135608E+01 -0.16674865222E+01  0.19355100819E+02  0.19598570058E+02  0.51100000000E-03 0.  1.
        -12    1    3    3    0    0  0.23427420144E+02  0.20586527590E+02 -0.14724503651E+02  0.34488550863E+02  0.00000000000E+00 0.  1.
</event>
<event>
 7    1  0.1465498E-013  0.7246153E+02  0.7816164E-02  0.1226708E+00
        -11   -1    0    0    0    0  0.00000000000E+00  0.00000000000E+00  0.45593999997E+02  0.45594000000E+02  0.51100000000E-03 0. -1.
         11   -1    0    0    0    0 -0.00000000000E+00 -0.00000000000E+00 -0.45593999997E+02  0.45594000000E+02  0.51100000000E-03 0.  1.
    9900012    2    1    2    0    0 -0.49100576883E+01  0.12165862327E+02 -0.13362772879E+02  0.72461532856E+02  0.69999951230E+02 0.  0.
         12    1    1    2    0    0  0.49100576883E+01 -0.12165862327E+02  0.13362772879E+02  0.18726467144E+02  0.00000000000E+00 0. -1.
         11    1    3    3    0    0 -0.77868259598E+01  0.15863704065E+02  0.10319047874E+01  0.17701881057E+02  0.51100000000E-03 0. -1.
        -11    1    3    3    0    0  0.41022222792E+01  0.19956926397E+02 -0.21900680073E+02  0.29912320652E+02  0.51100000000E-03 0.  1.
         12    1    3    3    0    0 -0.12254540076E+01 -0.23654768135E+02  0.75060024068E+01  0.24847331148E+02  0.00000000000E+00 0. -1.
</event>
<event>
 7    1  0.1465498E-013  0.7246158E+02  0.7816164E-02  0.1226708E+00
        -11   -1    0    0    0    0  0.00000000000E+00  0.00000000000E+00  0.45593999997E+02  0.45594000000E+02  0.51100000000E-03 0. -1.
         11   -1    0    0    0    0 -0.00000000000E+00 -0.00000000000E+00 -0.45593999997E+02  0.45594000000E+02  0.51100000000E-03 0.  1.
    9900012    2    1    2    0    0 -0.74182923636E+01  0.11387194623E+02 -0.12883303989E+02  0.72461580571E+02  0.70000013387E+02 0.  0.
         12    1    1    2    0    0  0.74182923636E+01 -0.11387194623E+02  0.12883303989E+02  0.18726419429E+02  0.00000000000E+00 0. -1.
         11    1    3    3    0    0  0.53283460832E+01  0.17060492747E+02  0.23049010763E+02  0.29166909027E+02  0.51100000000E-03 0. -1.
        -11    1    3    3    0    0 -0.75915025186E+01 -0.37167112446E+01 -0.17008153371E+01  0.86219270490E+01  0.51100000000E-03 0.  1.
        -12    1    3    3    0    0 -0.51551359281E+01 -0.19565868794E+01 -0.34231499415E+02  0.34672744495E+02  0.00000000000E+00 0.  1.
</event>
<event>
 7    1  0.1549531E-013  0.7246157E+02  0.7816164E-02  0.1226708E+00
        -11   -1    0    0    0    0  0.00000000000E+00  0.00000000000E+00  0.45593999997E+02  0.45594000000E+02  0.51100000000E-03 0. -1.
         11   -1    0    0    0    0 -0.00000000000E+00 -0.00000000000E+00 -0.45593999997E+02  0.45594000000E+02  0.51100000000E-03 0.  1.
    9900012    2    1    2    0    0 -0.11453212254E+02  0.11332832685E+02 -0.95430594750E+01  0.72461570768E+02  0.70000000618E+02 0.  0.
         12    1    1    2    0    0  0.11453212254E+02 -0.11332832685E+02  0.95430594750E+01  0.18726429232E+02  0.00000000000E+00 0. -1.
         11    1    3    3    0    0  0.57016107293E+01 -0.13365376351E+02  0.97975205183E+01  0.17525212081E+02  0.51100000000E-03 0. -1.
        -11    1    3    3    0    0  0.93369402865E+01 -0.50192228908E+01  0.16860514633E+00  0.10601862115E+02  0.51100000000E-03 0.  1.
        -12    1    3    3    0    0 -0.26491763270E+02  0.29717431928E+02 -0.19509185140E+02  0.44334496573E+02  0.00000000000E+00 0.  1.
</event>
<event>
 7    1  0.1465498E-013  0.7246157E+02  0.7816164E-02  0.1226708E+00
        -11   -1    0    0    0    0  0.00000000000E+00  0.00000000000E+00  0.45593999997E+02  0.45594000000E+02  0.51100000000E-03 0. -1.
         11   -1    0    0    0    0 -0.00000000000E+00 -0.00000000000E+00 -0.45593999997E+02  0.45594000000E+02  0.51100000000E-03 0.  1.
    9900012    2    1    2    0    0  0.15732699144E+02 -0.48098092182E+01 -0.89457961818E+01  0.72461565305E+02  0.69999993501E+02 0.  0.
         12    1    1    2    0    0 -0.15732699144E+02  0.48098092182E+01  0.89457961818E+01  0.18726434695E+02  0.00000000000E+00 0. -1.
         11    1    3    3    0    0 -0.16225875601E+02 -0.23326014328E+02 -0.14597816391E+02  0.31944924904E+02  0.51100000000E-03 0. -1.
        -11    1    3    3    0    0 -0.55375226472E+00 -0.33163173580E+00 -0.20550326760E+01  0.21540150277E+01  0.51100000000E-03 0.  1.
        -12    1    3    3    0    0  0.32512327010E+02  0.18847836846E+02  0.77070528857E+01  0.38362625373E+02  0.00000000000E+00 0.  1.
</event>
<event>
 7    1  0.1465498E-013  0.7246152E+02  0.7816164E-02  0.1226708E+00
        -11   -1    0    0    0    0  0.00000000000E+00  0.00000000000E+00  0.45593999997E+02  0.45594000000E+02  0.51100000000E-03 0.  1.
         11   -1    0    0    0    0 -0.00000000000E+00 -0.00000000000E+00 -0.45593999997E+02  0.45594000000E+02  0.51100000000E-03 0. -1.
    9900012    2    1    2    0    0 -0.66008049994E+01 -0.62981298456E+01  0.16353718133E+02  0.72461517069E+02  0.69999930664E+02 0.  0.
         12    1    1    2    0    0  0.66008049994E+01  0.62981298456E+01 -0.16353718133E+02  0.18726482931E+02  0.00000000000E+00 0. -1.
         11    1    3    3    0    0  0.51561549190E+01  0.17406540977E+01  0.14904015642E+02  0.15866489617E+02  0.51100000000E-03 0. -1.
        -11    1    3    3    0    0 -0.74596164234E+01  0.22885006071E+02  0.65849257233E+01  0.24954571267E+02  0.51100000000E-03 0.  1.
         12    1    3    3    0    0 -0.42973434951E+01 -0.30923790015E+02 -0.51352232328E+01  0.31640456186E+02  0.00000000000E+00 0. -1.
</event>
<event>
 7    1  0.1465498E-013  0.7246158E+02  0.7816164E-02  0.1226708E+00
        -11   -1    0    0    0    0  0.00000000000E+00  0.00000000000E+00  0.45593999997E+02  0.45594000000E+02  0.51100000000E-03 0. -1.
         11   -1    0    0    0    0 -0.00000000000E+00 -0.00000000000E+00 -0.45593999997E+02  0.45594000000E+02  0.51100000000E-03 0.  1.
    9900012    2    1    2    0    0 -0.86474839695E+00 -0.81204128752E+01 -0.16852000207E+02  0.72461579999E+02  0.70000012642E+02 0.  0.
         12    1    1    2    0    0  0.86474839695E+00  0.81204128752E+01  0.16852000207E+02  0.18726420001E+02  0.00000000000E+00 0. -1.
         11    1    3    3    0    0 -0.10847977271E+02 -0.52681363600E+01 -0.27332356658E+02  0.29874564303E+02  0.51100000000E-03 0. -1.
        -11    1    3    3    0    0  0.52623036348E+01  0.15053054209E+02 -0.67286366062E+01  0.17307825727E+02  0.51100000000E-03 0.  1.
         12    1    3    3    0    0  0.47209252390E+01 -0.17905330724E+02  0.17208993057E+02  0.25279189969E+02  0.00000000000E+00 0. -1.
</event>
<event>
 7    1  0.1465498E-013  0.7246160E+02  0.7816164E-02  0.1226708E+00
        -11   -1    0    0    0    0  0.00000000000E+00  0.00000000000E+00  0.45593999997E+02  0.45594000000E+02  0.51100000000E-03 0. -1.
         11   -1    0    0    0    0 -0.00000000000E+00 -0.00000000000E+00 -0.45593999997E+02  0.45594000000E+02  0.51100000000E-03 0.  1.
    9900012    2    1    2    0    0  0.82290806508E+01  0.42685312704E+01 -0.16270831301E+02  0.72461599417E+02  0.70000037938E+02 0.  0.
         12    1    1    2    0    0 -0.82290806508E+01 -0.42685312704E+01  0.16270831301E+02  0.18726400583E+02  0.00000000000E+00 0. -1.
         11    1    3    3    0    0 -0.64313483200E+01  0.56768905316E+01 -0.25986530023E+01  0.89633880318E+01  0.51100000000E-03 0. -1.
        -11    1    3    3    0    0 -0.22720860743E+02 -0.71550641305E+01 -0.19392955006E+01  0.23899651105E+02  0.51100000000E-03 0.  1.
        -12    1    3    3    0    0  0.37381289714E+02  0.57467048692E+01 -0.11732882798E+02  0.39598560281E+02  0.00000000000E+00 0.  1.
</event>
<event>
 7    1  0.1465498E-013  0.7246155E+02  0.7816164E-02  0.1226708E+00
        -11   -1    0    0    0    0  0.00000000000E+00  0.00000000000E+00  0.45593999997E+02  0.45594000000E+02  0.51100000000E-03 0.  1.
         11   -1    0    0    0    0 -0.00000000000E+00 -0.00000000000E+00 -0.45593999997E+02  0.45594000000E+02  0.51100000000E-03 0. -1.
    9900012    2    1    2    0    0  0.12988443208E+02 -0.87734313454E+00  0.13461445872E+02  0.72461550445E+02  0.69999974143E+02 0.  0.
         12    1    1    2    0    0 -0.12988443208E+02  0.87734313454E+00 -0.13461445872E+02  0.18726449555E+02  0.00000000000E+00 0. -1.
         11    1    3    3    0    0  0.30422525096E+02  0.12321973649E+02  0.27237230316E+02  0.42652406536E+02  0.51100000000E-03 0. -1.
        -11    1    3    3    0    0  0.26021174109E+01 -0.16883494018E+01 -0.44908472423E+00  0.31342010263E+01  0.51100000000E-03 0.  1.
        -12    1    3    3    0    0 -0.20036199298E+02 -0.11510967381E+02 -0.13326699719E+02  0.26674942882E+02  0.00000000000E+00 0.  1.
</event>
<event>
 7    1  0.1465498E-013  0.7246160E+02  0.7816164E-02  0.1226708E+00
        -11   -1    0    0    0    0  0.00000000000E+00  0.00000000000E+00  0.45593999997E+02  0.45594000000E+02  0.51100000000E-03 0.  1.
         11   -1    0    0    0    0 -0.00000000000E+00 -0.00000000000E+00 -0.45593999997E+02  0.45594000000E+02  0.51100000000E-03 0. -1.
    9900012    2    1    2    0    0  0.18596292601E+02 -0.15259857727E+00  0.21983203027E+01  0.72461601601E+02  0.70000040783E+02 0.  0.
         12    1    1    2    0    0 -0.18596292601E+02  0.15259857727E+00 -0.21983203027E+01  0.18726398399E+02  0.00000000000E+00 0. -1.
         11    1    3    3    0    0 -0.16208239243E+01 -0.10981936898E+02 -0.46678086569E+01  0.12042360489E+02  0.51100000000E-03 0. -1.
        -11    1    3    3    0    0  0.10271887990E+02 -0.22769486938E+02  0.33678398937E+01  0.25205228904E+02  0.51100000000E-03 0.  1.
         12    1    3    3    0    0  0.99452285352E+01  0.33598825259E+02  0.34982890659E+01  0.35214012208E+02  0.00000000000E+00 0. -1.
</event>
<event>
 7    1  0.1522052E-013  0.7246161E+02  0.7816164E-02  0.1226708E+00
        -11   -1    0    0    0    0  0.00000000000E+00  0.00000000000E+00  0.45593999997E+02  0.45594000000E+02  0.51100000000E-03 0.  1.
         11   -1    0    0    0    0 -0.00000000000E+00 -0.00000000000E+00 -0.45593999997E+02  0.45594000000E+02  0.51100000000E-03 0. -1.
    9900012    2    1    2    0    0  0.27617352233E+01 -0.17528889205E+02 -0.59823601088E+01  0.72461607644E+02  0.70000048654E+02 0.  0.
         12    1    1    2    0    0 -0.27617352233E+01  0.17528889205E+02  0.59823601088E+01  0.18726392356E+02  0.00000000000E+00 0. -1.
         11    1    3    3    0    0  0.10627089909E+02  0.19042575918E+02 -0.63945218037E+01  0.22725418519E+02  0.51100000000E-03 0.  1.
        -11    1    3    3    0    0 -0.87323369294E+01 -0.11157844253E+01 -0.94590934252E+01  0.12921808380E+02  0.51100000000E-03 0. -1.
        -12    1    3    3    0    0  0.86698224414E+00 -0.35455680698E+02  0.98712551200E+01  0.36814380744E+02  0.00000000000E+00 0.  1.
</event>
<event>
 7    1  0.1465498E-013  0.7246162E+02  0.7816164E-02  0.1226708E+00
        -11   -1    0    0    0    0  0.00000000000E+00  0.00000000000E+00  0.45593999997E+02  0.45594000000E+02  0.51100000000E-03 0. -1.
         11   -1    0    0    0    0 -0.00000000000E+00 -0.00000000000E+00 -0.45593999997E+02  0.45594000000E+02  0.51100000000E-03 0.  1.
    9900012    2    1    2    0    0  0.12939062865E+02 -0.11386467811E+02 -0.73216409553E+01  0.72461616918E+02  0.70000060737E+02 0.  0.
         12    1    1    2    0    0 -0.12939062865E+02  0.11386467811E+02  0.73216409553E+01  0.18726383082E+02  0.00000000000E+00 0. -1.
         11    1    3    3    0    0 -0.14141456652E+02 -0.12415044598E+02 -0.80535519350E+01  0.20468850179E+02  0.51100000000E-03 0. -1.
        -11    1    3    3    0    0  0.23342482844E+02  0.20981419230E+02 -0.22877506829E+01  0.31469433768E+02  0.51100000000E-03 0.  1.
         12    1    3    3    0    0  0.37380366734E+01 -0.19952842443E+02  0.30196616625E+01  0.20523332972E+02  0.00000000000E+00 0. -1.
</event>
<event>
 7    1  0.1465498E-013  0.7246156E+02  0.7816164E-02  0.1226708E+00
        -11   -1    0    0    0    0  0.00000000000E+00  0.00000000000E+00  0.45593999997E+02  0.45594000000E+02  0.51100000000E-03 0.  1.
         11   -1    0    0    0    0 -0.00000000000E+00 -0.00000000000E+00 -0.45593999997E+02  0.45594000000E+02  0.51100000000E-03 0. -1.
    9900012    2    1    2    0    0 -0.27172049661E+01 -0.53048610049E+01  0.17752597219E+02  0.72461562509E+02  0.69999989858E+02 0.  0.
         12    1    1    2    0    0  0.27172049661E+01  0.53048610049E+01 -0.17752597219E+02  0.18726437491E+02  0.00000000000E+00 0. -1.
         11    1    3    3    0    0  0.10122982858E+02 -0.12404244200E+02 -0.10498331084E+02  0.19145626443E+02  0.51100000000E-03 0. -1.
        -11    1    3    3    0    0 -0.15531673863E+02 -0.10659623314E+02 -0.11386914694E+01  0.18872124435E+02  0.51100000000E-03 0.  1.
        -12    1    3    3    0    0  0.26914860395E+01  0.17759006509E+02  0.29389619771E+02  0.34443811630E+02  0.00000000000E+00 0.  1.
</event>
<event>
 7    1  0.1465498E-013  0.7246194E+02  0.7816164E-02  0.1226707E+00
        -11   -1    0    0    0    0  0.00000000000E+00  0.00000000000E+00  0.45593999997E+02  0.45594000000E+02  0.51100000000E-03 0.  1.
         11   -1    0    0    0    0 -0.00000000000E+00 -0.00000000000E+00 -0.45593999997E+02  0.45594000000E+02  0.51100000000E-03 0. -1.
    9900012    2    1    2    0    0  0.12321045427E+02  0.14013508671E+02 -0.15744582552E+01  0.72461935157E+02  0.70000475300E+02 0.  0.
         12    1    1    2    0    0 -0.12321045427E+02 -0.14013508671E+02  0.15744582552E+01  0.18726064843E+02  0.00000000000E+00 0. -1.
         11    1    3    3    0    0  0.65152924355E+01 -0.61655796667E+01 -0.31068496519E+02  0.32337515124E+02  0.51100000000E-03 0. -1.
        -11    1    3    3    0    0 -0.35196830051E+01 -0.11974242541E+01  0.57107951167E+01  0.68143359490E+01  0.51100000000E-03 0.  1.
        -12    1    3    3    0    0  0.93254359968E+01  0.21376512592E+02  0.23783243147E+02  0.33310084085E+02  0.00000000000E+00 0.  1.
</event>
<event>
 7    1  0.1465498E-013  0.7246201E+02  0.7816164E-02  0.1226707E+00
        -11   -1    0    0    0    0  0.00000000000E+00  0.00000000000E+00  0.45593999997E+02  0.45594000000E+02  0.51100000000E-03 0. -1.
         11   -1    0    0    0    0 -0.00000000000E+00 -0.00000000000E+00 -0.45593999997E+02  0.45594000000E+02  0.51100000000E-03 0.  1.
    9900012    2    1    2    0    0  0.10772326539E+02 -0.37789899413E+01  0.14843820562E+02  0.72462007559E+02  0.70000569616E+02 0.  0.
         12    1    1    2    0    0 -0.10772326539E+02  0.37789899413E+01 -0.14843820562E+02  0.18725992441E+02  0.00000000000E+00 0. -1.
         11    1    3    3    0    0  0.20647302042E+02  0.88134323515E+01  0.36916215042E+02  0.43206418559E+02  0.51100000000E-03 0. -1.
        -11    1    3    3    0    0  0.15995576449E+01  0.53080906551E+00 -0.12433276497E+01  0.20943272975E+01  0.51100000000E-03 0.  1.
        -12    1    3    3    0    0 -0.11474533148E+02 -0.13123231358E+02 -0.20829066830E+02  0.27161261702E+02  0.00000000000E+00 0.  1.
</event>
<event>
 7    1  0.1465498E-013  0.7246155E+02  0.7816164E-02  0.1226708E+00
        -11   -1    0    0    0    0  0.00000000000E+00  0.00000000000E+00  0.45593999997E+02  0.45594000000E+02  0.51100000000E-03 0. -1.
         11   -1    0    0    0    0 -0.00000000000E+00 -0.00000000000E+00 -0.45593999997E+02  0.45594000000E+02  0.51100000000E-03 0.  1.
    9900012    2    1    2    0    0  0.12161508661E+02  0.14239170849E+02  0.15430786234E+00  0.72461545710E+02  0.69999967974E+02 0.  0.
         12    1    1    2    0    0 -0.12161508661E+02 -0.14239170849E+02 -0.15430786234E+00  0.18726454290E+02  0.00000000000E+00 0. -1.
         11    1    3    3    0    0  0.94681673810E+01  0.21725584474E+02  0.12701084414E+02  0.26888004013E+02  0.51100000000E-03 0. -1.
        -11    1    3    3    0    0  0.18113296606E+02 -0.44389862127E+00 -0.20059846948E+02  0.27031204556E+02  0.51100000000E-03 0.  1.
        -12    1    3    3    0    0 -0.15419955326E+02 -0.70425150040E+01  0.75130703967E+01  0.18542337140E+02  0.00000000000E+00 0.  1.
</event>
<event>
 7    1  0.1465498E-013  0.7246165E+02  0.7816164E-02  0.1226708E+00
        -11   -1    0    0    0    0  0.00000000000E+00  0.00000000000E+00  0.45593999997E+02  0.45594000000E+02  0.51100000000E-03 0. -1.
         11   -1    0    0    0    0 -0.00000000000E+00 -0.00000000000E+00 -0.45593999997E+02  0.45594000000E+02  0.51100000000E-03 0.  1.
    9900012    2    1    2    0    0  0.12746149401E+02  0.51570748126E+01 -0.12712847648E+02  0.72461648500E+02  0.70000101877E+02 0.  0.
         12    1    1    2    0    0 -0.12746149401E+02 -0.51570748126E+01  0.12712847648E+02  0.18726351500E+02  0.00000000000E+00 0. -1.
         11    1    3    3    0    0 -0.37988035215E+01 -0.23034229704E+02 -0.80580604065E+01  0.24696942808E+02  0.51100000000E-03 0. -1.
        -11    1    3    3    0    0 -0.19717006400E+01  0.28170038263E+02  0.14265767407E+01  0.28274967385E+02  0.51100000000E-03 0.  1.
        -12    1    3    3    0    0  0.18516653563E+02  0.21266254172E-01 -0.60813639818E+01  0.19489738308E+02  0.00000000000E+00 0.  1.
</event>
<event>
 7    1  0.1465498E-013  0.7246157E+02  0.7816164E-02  0.1226708E+00
        -11   -1    0    0    0    0  0.00000000000E+00  0.00000000000E+00  0.45593999997E+02  0.45594000000E+02  0.51100000000E-03 0.  1.
         11   -1    0    0    0    0 -0.00000000000E+00 -0.00000000000E+00 -0.45593999997E+02  0.45594000000E+02  0.51100000000E-03 0. -1.
    9900012    2    1    2    0    0  0.44941301209E+01  0.14369426951E+01  0.18122286625E+02  0.72461567281E+02  0.69999996075E+02 0.  0.
         12    1    1    2    0    0 -0.44941301209E+01 -0.14369426951E+01 -0.18122286625E+02  0.18726432719E+02  0.00000000000E+00 0. -1.
         11    1    3    3    0    0  0.54774261897E+01 -0.82427504929E+00 -0.84621987416E+01  0.10113873384E+02  0.51100000000E-03 0. -1.
        -11    1    3    3    0    0  0.18112616417E+02  0.15400080144E+02 -0.38575009560E+01  0.24085465655E+02  0.51100000000E-03 0.  1.
        -12    1    3    3    0    0 -0.19095912486E+02 -0.13138862400E+02  0.30441986323E+02  0.38262228243E+02  0.00000000000E+00 0.  1.
</event>
<event>
 7    1  0.1465498E-013  0.7246177E+02  0.7816164E-02  0.1226707E+00
        -11   -1    0    0    0    0  0.00000000000E+00  0.00000000000E+00  0.45593999997E+02  0.45594000000E+02  0.51100000000E-03 0.  1.
         11   -1    0    0    0    0 -0.00000000000E+00 -0.00000000000E+00 -0.45593999997E+02  0.45594000000E+02  0.51100000000E-03 0. -1.
    9900012    2    1    2    0    0 -0.10407096264E+02  0.13567439706E+01  0.15508807563E+02  0.72461774569E+02  0.70000266105E+02 0.  0.
         12    1    1    2    0    0  0.10407096264E+02 -0.13567439706E+01 -0.15508807563E+02  0.18726225431E+02  0.00000000000E+00 0. -1.
         11    1    3    3    0    0 -0.17150139860E+02 -0.83098489487E+01  0.48370285781E+01  0.19661580111E+02  0.51100000000E-03 0. -1.
        -11    1    3    3    0    0 -0.32895246567E+01  0.30936068766E+01  0.29844905479E+02  0.30184594735E+02  0.51100000000E-03 0.  1.
         12    1    3    3    0    0  0.10032568252E+02  0.65729860427E+01 -0.19173126494E+02  0.22615599723E+02  0.00000000000E+00 0. -1.
</event>
<event>
 7    1  0.1465498E-013  0.7246163E+02  0.7816164E-02  0.1226708E+00
        -11   -1    0    0    0    0  0.00000000000E+00  0.00000000000E+00  0.45593999997E+02  0.45594000000E+02  0.51100000000E-03 0.  1.
         11   -1    0    0    0    0 -0.00000000000E+00 -0.00000000000E+00 -0.45593999997E+02  0.45594000000E+02  0.51100000000E-03 0. -1.
    9900012    2    1    2    0    0  0.30614626015E+01 -0.12248854200E+02  0.13830040191E+02  0.72461628377E+02  0.70000075663E+02 0.  0.
         12    1    1    2    0    0 -0.30614626015E+01  0.12248854200E+02 -0.13830040191E+02  0.18726371623E+02  0.00000000000E+00 0. -1.
         11    1    3    3    0    0 -0.17795769088E+01  0.49618944685E+01 -0.47383306723E+01  0.70879523497E+01  0.51100000000E-03 0. -1.
        -11    1    3    3    0    0 -0.13586349035E+02  0.15598217783E+02 -0.45900651421E+01  0.21188722859E+02  0.51100000000E-03 0.  1.
        -12    1    3    3    0    0  0.18427388545E+02 -0.32808966452E+02  0.23158436006E+02  0.44184953168E+02  0.00000000000E+00 0.  1.
</event>
<event>
 7    1  0.1465498E-013  0.7246158E+02  0.7816164E-02  0.1226708E+00
        -11   -1    0    0    0    0  0.00000000000E+00  0.00000000000E+00  0.45593999997E+02  0.45594000000E+02  0.51100000000E-03 0.  1.
         11   -1    0    0    0    0 -0.00000000000E+00 -0.00000000000E+00 -0.45593999997E+02  0.45594000000E+02  0.51100000000E-03 0. -1.
    9900012    2    1    2    0    0 -0.21990910121E+01 -0.17822756673E+00  0.18595996513E+02  0.72461578755E+02  0.70000011022E+02 0.  0.
         12    1    1    2    0    0  0.21990910121E+01  0.17822756673E+00 -0.18595996513E+02  0.18726421245E+02  0.00000000000E+00 0. -1.
         11    1    3    3    0    0 -0.36596339241E+00 -0.20749803370E+01  0.11025168635E+02  0.11224696713E+02  0.51100000000E-03 0. -1.
        -11    1    3    3    0    0  0.19731814531E+02 -0.65031500861E+01  0.24823690948E+02  0.32370528235E+02  0.51100000000E-03 0.  1.
         12    1    3    3    0    0 -0.21564942150E+02  0.83999028564E+01 -0.17252863070E+02  0.28866353806E+02  0.00000000000E+00 0. -1.
</event>
<event>
 7    1  0.1465498E-013  0.7246154E+02  0.7816164E-02  0.1226708E+00
        -11   -1    0    0    0    0  0.00000000000E+00  0.00000000000E+00  0.45593999997E+02  0.45594000000E+02  0.51100000000E-03 0.  1.
         11   -1    0    0    0    0 -0.00000000000E+00 -0.00000000000E+00 -0.45593999997E+02  0.45594000000E+02  0.51100000000E-03 0. -1.
    9900012    2    1    2    0    0  0.13813501723E+02 -0.91437088659E+01  0.87327035705E+01  0.72461538687E+02  0.69999958825E+02 0.  0.
         12    1    1    2    0    0 -0.13813501723E+02  0.91437088659E+01 -0.87327035705E+01  0.18726461313E+02  0.00000000000E+00 0. -1.
         11    1    3    3    0    0 -0.49960226888E+01 -0.17254098162E+02  0.82596464088E+01  0.19770834711E+02  0.51100000000E-03 0. -1.
        -11    1    3    3    0    0 -0.39702159502E+00 -0.33336186037E+01  0.21642337644E+02  0.21901173897E+02  0.51100000000E-03 0.  1.
        -12    1    3    3    0    0  0.19206546007E+02  0.11444007900E+02 -0.21169280482E+02  0.30789530078E+02  0.00000000000E+00 0.  1.
</event>
<event>
 7    1  0.1465498E-013  0.7246157E+02  0.7816164E-02  0.1226708E+00
        -11   -1    0    0    0    0  0.00000000000E+00  0.00000000000E+00  0.45593999997E+02  0.45594000000E+02  0.51100000000E-03 0. -1.
         11   -1    0    0    0    0 -0.00000000000E+00 -0.00000000000E+00 -0.45593999997E+02  0.45594000000E+02  0.51100000000E-03 0.  1.
    9900012    2    1    2    0    0 -0.30570199949E+01 -0.85450351925E+01 -0.16380361782E+02  0.72461568151E+02  0.69999997208E+02 0.  0.
         12    1    1    2    0    0  0.30570199949E+01  0.85450351925E+01  0.16380361782E+02  0.18726431849E+02  0.00000000000E+00 0. -1.
         11    1    3    3    0    0 -0.20269622556E+01 -0.14591699930E+01 -0.43882933378E+01  0.50492446697E+01  0.51100000000E-03 0. -1.
        -11    1    3    3    0    0  0.14171332941E+02 -0.22995073631E+02 -0.28978009739E+02  0.39614708598E+02  0.51100000000E-03 0.  1.
         12    1    3    3    0    0 -0.15201390680E+02  0.15909208432E+02  0.16985941295E+02  0.27797614883E+02  0.00000000000E+00 0. -1.
</event>
<event>
 7    1  0.1465498E-013  0.7246157E+02  0.7816164E-02  0.1226708E+00
        -11   -1    0    0    0    0  0.00000000000E+00  0.00000000000E+00  0.45593999997E+02  0.45594000000E+02  0.51100000000E-03 0. -1.
         11   -1    0    0    0    0 -0.00000000000E+00 -0.00000000000E+00 -0.45593999997E+02  0.45594000000E+02  0.51100000000E-03 0.  1.
    9900012    2    1    2    0    0 -0.21193814269E+01  0.92413495217E+01 -0.16148836570E+02  0.72461568381E+02  0.69999997507E+02 0.  0.
         12    1    1    2    0    0  0.21193814269E+01 -0.92413495217E+01  0.16148836570E+02  0.18726431619E+02  0.00000000000E+00 0. -1.
         11    1    3    3    0    0 -0.20376453168E+01 -0.49243169185E+01  0.95458603069E+01  0.10932719004E+02  0.51100000000E-03 0. -1.
        -11    1    3    3    0    0  0.14758440419E+02 -0.12825940056E+02 -0.23611185551E+02  0.30656229144E+02  0.51100000000E-03 0.  1.
        -12    1    3    3    0    0 -0.14840176529E+02  0.26991606496E+02 -0.20835113262E+01  0.30872620234E+02  0.00000000000E+00 0.  1.
</event>
<event>
 7    1  0.1465498E-013  0.7246146E+02  0.7816164E-02  0.1226708E+00
        -11   -1    0    0    0    0  0.00000000000E+00  0.00000000000E+00  0.45593999997E+02  0.45594000000E+02  0.51100000000E-03 0. -1.
         11   -1    0    0    0    0 -0.00000000000E+00 -0.00000000000E+00 -0.45593999997E+02  0.45594000000E+02  0.51100000000E-03 0.  1.
    9900012    2    1    2    0    0 -0.13104211750E+02  0.19346739862E+01 -0.13237066954E+02  0.72461460796E+02  0.69999857357E+02 0.  0.
         12    1    1    2    0    0  0.13104211750E+02 -0.19346739862E+01  0.13237066954E+02  0.18726539204E+02  0.00000000000E+00 0. -1.
         11    1    3    3    0    0 -0.24356876106E+01 -0.16868553923E+02 -0.80196806908E+01  0.18836028356E+02  0.51100000000E-03 0. -1.
        -11    1    3    3    0    0  0.12542834640E+02 -0.78805617433E+01 -0.10092587866E+02  0.17924460502E+02  0.51100000000E-03 0.  1.
         12    1    3    3    0    0 -0.23211358779E+02  0.26683789653E+02  0.48752016022E+01  0.35700971937E+02  0.00000000000E+00 0. -1.
</event>
<event>
 7    1  0.1480538E-013  0.7246146E+02  0.7816164E-02  0.1226708E+00
        -11   -1    0    0    0    0  0.00000000000E+00  0.00000000000E+00  0.45593999997E+02  0.45594000000E+02  0.51100000000E-03 0.  1.
         11   -1    0    0    0    0 -0.00000000000E+00 -0.00000000000E+00 -0.45593999997E+02  0.45594000000E+02  0.51100000000E-03 0. -1.
    9900012    2    1    2    0    0  0.75509976551E+01 -0.66175298726E+01  0.15807403324E+02  0.72461460890E+02  0.69999857480E+02 0.  0.
         12    1    1    2    0    0 -0.75509976551E+01  0.66175298726E+01 -0.15807403324E+02  0.18726539110E+02  0.00000000000E+00 0. -1.
         11    1    3    3    0    0 -0.24849863905E+02  0.19845300200E+01 -0.57375992197E+01  0.25580737686E+02  0.51100000000E-03 0. -1.
        -11    1    3    3    0    0  0.17793563703E+02  0.79370213692E+01  0.85936209630E+01  0.21294542470E+02  0.51100000000E-03 0.  1.
        -12    1    3    3    0    0  0.14607297857E+02 -0.16539081262E+02  0.12951381581E+02  0.25586180733E+02  0.00000000000E+00 0.  1.
</event>
<event>
 7    1  0.1465498E-013  0.7246153E+02  0.7816164E-02  0.1226708E+00
        -11   -1    0    0    0    0  0.00000000000E+00  0.00000000000E+00  0.45593999997E+02  0.45594000000E+02  0.51100000000E-03 0.  1.
         11   -1    0    0    0    0 -0.00000000000E+00 -0.00000000000E+00 -0.45593999997E+02  0.45594000000E+02  0.51100000000E-03 0. -1.
    9900012    2    1    2    0    0  0.12002141791E+02  0.81288676840E+01  0.11855415937E+02  0.72461527176E+02  0.69999943830E+02 0.  0.
         12    1    1    2    0    0 -0.12002141791E+02 -0.81288676840E+01 -0.11855415937E+02  0.18726472824E+02  0.00000000000E+00 0. -1.
         11    1    3    3    0    0 -0.12021183417E+02  0.75443828758E+01 -0.73850165435E+01  0.15998907254E+02  0.51100000000E-03 0. -1.
        -11    1    3    3    0    0 -0.92846085542E+01 -0.10323229213E+01  0.21087770869E+02  0.23064338861E+02  0.51100000000E-03 0.  1.
        -12    1    3    3    0    0  0.33307933762E+02  0.16168077296E+01 -0.18473383884E+01  0.33398281061E+02  0.00000000000E+00 0.  1.
</event>
<event>
 7    1  0.1465498E-013  0.7246159E+02  0.7816164E-02  0.1226708E+00
        -11   -1    0    0    0    0  0.00000000000E+00  0.00000000000E+00  0.45593999997E+02  0.45594000000E+02  0.51100000000E-03 0.  1.
         11   -1    0    0    0    0 -0.00000000000E+00 -0.00000000000E+00 -0.45593999997E+02  0.45594000000E+02  0.51100000000E-03 0. -1.
    9900012    2    1    2    0    0 -0.15426477578E+02  0.91834421741E+01  0.53260252264E+01  0.72461591766E+02  0.70000027971E+02 0.  0.
         12    1    1    2    0    0  0.15426477578E+02 -0.91834421741E+01 -0.53260252264E+01  0.18726408234E+02  0.00000000000E+00 0. -1.
         11    1    3    3    0    0  0.11581529712E+02 -0.15911036917E+02  0.11449370665E+02  0.22767982237E+02  0.51100000000E-03 0. -1.
        -11    1    3    3    0    0  0.75793369812E+01  0.67474967679E+01 -0.17574306765E+01  0.10298719559E+02  0.51100000000E-03 0.  1.
        -12    1    3    3    0    0 -0.34587344271E+02  0.18346982323E+02 -0.43659147624E+01  0.39394889971E+02  0.00000000000E+00 0.  1.
</event>
<event>
 7    1  0.2059574E-013  0.7246157E+02  0.7816164E-02  0.1226708E+00
        -11   -1    0    0    0    0  0.00000000000E+00  0.00000000000E+00  0.45593999997E+02  0.45594000000E+02  0.51100000000E-03 0. -1.
         11   -1    0    0    0    0 -0.00000000000E+00 -0.00000000000E+00 -0.45593999997E+02  0.45594000000E+02  0.51100000000E-03 0.  1.
    9900012    2    1    2    0    0  0.10231445622E+02 -0.35064343668E+00 -0.15680358998E+02  0.72461572454E+02  0.70000002814E+02 0.  0.
         12    1    1    2    0    0 -0.10231445622E+02  0.35064343668E+00  0.15680358998E+02  0.18726427546E+02  0.00000000000E+00 0. -1.
         11    1    3    3    0    0 -0.11898043314E+02  0.53479600736E+01  0.10212719532E+02  0.16566947581E+02  0.51100000000E-03 0. -1.
        -11    1    3    3    0    0  0.43310031484E+01  0.85290168450E+00  0.12399917363E+02  0.13162179927E+02  0.51100000000E-03 0.  1.
        -12    1    3    3    0    0  0.17798485787E+02 -0.65515051948E+01 -0.38292995893E+02  0.42732444946E+02  0.00000000000E+00 0.  1.
</event>
<event>
 7    1  0.2109073E-013  0.7246156E+02  0.7816164E-02  0.1226708E+00
        -11   -1    0    0    0    0  0.00000000000E+00  0.00000000000E+00  0.45593999997E+02  0.45594000000E+02  0.51100000000E-03 0. -1.
         11   -1    0    0    0    0 -0.00000000000E+00 -0.00000000000E+00 -0.45593999997E+02  0.45594000000E+02  0.51100000000E-03 0.  1.
    9900012    2    1    2    0    0 -0.12195183966E+02 -0.46908889972E+01 -0.13414645426E+02  0.72461557106E+02  0.69999982820E+02 0.  0.
         12    1    1    2    0    0  0.12195183966E+02  0.46908889972E+01  0.13414645426E+02  0.18726442894E+02  0.00000000000E+00 0. -1.
         11    1    3    3    0    0 -0.11024704331E+02  0.14694135300E+02  0.73378796312E+01  0.19781460905E+02  0.51100000000E-03 0. -1.
        -11    1    3    3    0    0  0.10592487265E+01  0.88850787047E+01  0.82117462117E+01  0.12144933411E+02  0.51100000000E-03 0.  1.
        -12    1    3    3    0    0 -0.22297283619E+01 -0.28270103002E+02 -0.28964271269E+02  0.40535162790E+02  0.00000000000E+00 0.  1.
</event>
<event>
 7    1  0.1465498E-013  0.7246177E+02  0.7816164E-02  0.1226707E+00
        -11   -1    0    0    0    0  0.00000000000E+00  0.00000000000E+00  0.45593999997E+02  0.45594000000E+02  0.51100000000E-03 0.  1.
         11   -1    0    0    0    0 -0.00000000000E+00 -0.00000000000E+00 -0.45593999997E+02  0.45594000000E+02  0.51100000000E-03 0. -1.
    9900012    2    1    2    0    0  0.10651358391E+02  0.15399827040E+02 -0.25576917596E+00  0.72461774371E+02  0.70000265847E+02 0.  0.
         12    1    1    2    0    0 -0.10651358391E+02 -0.15399827040E+02  0.25576917596E+00  0.18726225629E+02  0.00000000000E+00 0. -1.
         11    1    3    3    0    0 -0.14104612660E+02 -0.96547803076E+01 -0.21660883911E+02  0.27592549232E+02  0.51100000000E-03 0. -1.
        -11    1    3    3    0    0  0.19016393559E+01 -0.21030856906E+01  0.50419970377E+01  0.57845428559E+01  0.51100000000E-03 0.  1.
        -12    1    3    3    0    0  0.22854331695E+02  0.27157693038E+02  0.16363117697E+02  0.39084682283E+02  0.00000000000E+00 0.  1.
</event>
<event>
 7    1  0.2783895E-013  0.7246171E+02  0.7816164E-02  0.1226708E+00
        -11   -1    0    0    0    0  0.00000000000E+00  0.00000000000E+00  0.45593999997E+02  0.45594000000E+02  0.51100000000E-03 0. -1.
         11   -1    0    0    0    0 -0.00000000000E+00 -0.00000000000E+00 -0.45593999997E+02  0.45594000000E+02  0.51100000000E-03 0.  1.
    9900012    2    1    2    0    0 -0.71043026574E+01 -0.11314481163E+02 -0.13121945324E+02  0.72461707005E+02  0.70000178091E+02 0.  0.
         12    1    1    2    0    0  0.71043026574E+01  0.11314481163E+02  0.13121945324E+02  0.18726292995E+02  0.00000000000E+00 0. -1.
         11    1    3    3    0    0  0.67803681866E+01 -0.18799211241E+02  0.17732352455E+02  0.26717411175E+02  0.51100000000E-03 0. -1.
        -11    1    3    3    0    0 -0.95698369307E+01 -0.10970451988E+02 -0.10619554194E+02  0.18019642817E+02  0.51100000000E-03 0.  1.
        -12    1    3    3    0    0 -0.43148339133E+01  0.18455182066E+02 -0.20234743585E+02  0.27724653014E+02  0.00000000000E+00 0.  1.
</event>
<event>
 7    1  0.1465498E-013  0.7246159E+02  0.7816164E-02  0.1226708E+00
        -11   -1    0    0    0    0  0.00000000000E+00  0.00000000000E+00  0.45593999997E+02  0.45594000000E+02  0.51100000000E-03 0. -1.
         11   -1    0    0    0    0 -0.00000000000E+00 -0.00000000000E+00 -0.45593999997E+02  0.45594000000E+02  0.51100000000E-03 0.  1.
    9900012    2    1    2    0    0  0.92858052440E+01 -0.33205530138E+01 -0.15919369380E+02  0.72461586227E+02  0.70000020755E+02 0.  0.
         12    1    1    2    0    0 -0.92858052440E+01  0.33205530138E+01  0.15919369380E+02  0.18726413773E+02  0.00000000000E+00 0. -1.
         11    1    3    3    0    0 -0.11133080608E+02  0.22722492128E+01  0.35939780364E+00  0.11368278997E+02  0.51100000000E-03 0. -1.
        -11    1    3    3    0    0  0.51329830639E+01 -0.18566655353E+02  0.14673184084E+02  0.24215089047E+02  0.51100000000E-03 0.  1.
         12    1    3    3    0    0  0.15285902788E+02  0.12973853126E+02 -0.30951951268E+02  0.36878218182E+02  0.00000000000E+00 0. -1.
</event>
<event>
 7    1  0.1465498E-013  0.7246164E+02  0.7816164E-02  0.1226708E+00
        -11   -1    0    0    0    0  0.00000000000E+00  0.00000000000E+00  0.45593999997E+02  0.45594000000E+02  0.51100000000E-03 0.  1.
         11   -1    0    0    0    0 -0.00000000000E+00 -0.00000000000E+00 -0.45593999997E+02  0.45594000000E+02  0.51100000000E-03 0. -1.
    9900012    2    1    2    0    0  0.10784479050E+02 -0.22582557174E+01  0.15141729135E+02  0.72461637073E+02  0.70000086992E+02 0.  0.
         12    1    1    2    0    0 -0.10784479050E+02  0.22582557174E+01 -0.15141729135E+02  0.18726362927E+02  0.00000000000E+00 0. -1.
         11    1    3    3    0    0  0.23713525450E+02  0.74184269818E+01  0.81319336967E+01  0.26143693198E+02  0.51100000000E-03 0. -1.
        -11    1    3    3    0    0  0.11775864766E+02 -0.16380512965E+02  0.25617743497E+01  0.20336048880E+02  0.51100000000E-03 0.  1.
        -12    1    3    3    0    0 -0.24704911165E+02  0.67038302660E+01  0.44480210882E+01  0.25981894995E+02  0.00000000000E+00 0.  1.
</event>
<event>
 7    1  0.1465498E-013  0.7246155E+02  0.7816164E-02  0.1226708E+00
        -11   -1    0    0    0    0  0.00000000000E+00  0.00000000000E+00  0.45593999997E+02  0.45594000000E+02  0.51100000000E-03 0.  1.
         11   -1    0    0    0    0 -0.00000000000E+00 -0.00000000000E+00 -0.45593999997E+02  0.45594000000E+02  0.51100000000E-03 0. -1.
    9900012    2    1    2    0    0 -0.13368032155E+02  0.72460496387E+01  0.10930256269E+02  0.72461547555E+02  0.69999970378E+02 0.  0.
         12    1    1    2    0    0  0.13368032155E+02 -0.72460496387E+01 -0.10930256269E+02  0.18726452445E+02  0.00000000000E+00 0. -1.
         11    1    3    3    0    0  0.16142176312E+02 -0.95789552002E+01  0.66329761436E+01  0.19907853013E+02  0.51100000000E-03 0. -1.
        -11    1    3    3    0    0 -0.20671260170E+02  0.91761704231E+01 -0.16977239054E+02  0.28279493397E+02  0.51100000000E-03 0.  1.
         12    1    3    3    0    0 -0.88389482962E+01  0.76488344158E+01  0.21274519179E+02  0.24274201145E+02  0.00000000000E+00 0. -1.
</event>
<event>
 7    1  0.1465498E-013  0.7246157E+02  0.7816164E-02  0.1226708E+00
        -11   -1    0    0    0    0  0.00000000000E+00  0.00000000000E+00  0.45593999997E+02  0.45594000000E+02  0.51100000000E-03 0. -1.
         11   -1    0    0    0    0 -0.00000000000E+00 -0.00000000000E+00 -0.45593999997E+02  0.45594000000E+02  0.51100000000E-03 0.  1.
    9900012    2    1    2    0    0  0.98388906987E+01  0.16852934309E+01 -0.15844084956E+02  0.72461574495E+02  0.70000005472E+02 0.  0.
         12    1    1    2    0    0 -0.98388906987E+01 -0.16852934309E+01  0.15844084956E+02  0.18726425505E+02  0.00000000000E+00 0. -1.
         11    1    3    3    0    0 -0.15766541200E+01 -0.12979399883E+02  0.62266216937E+01  0.14481763619E+02  0.51100000000E-03 0. -1.
        -11    1    3    3    0    0  0.21468470198E+02  0.25248304999E+02 -0.20530700339E+01  0.33205228727E+02  0.51100000000E-03 0.  1.
         12    1    3    3    0    0 -0.10052925379E+02 -0.10583611686E+02 -0.20017636615E+02  0.24774582149E+02  0.00000000000E+00 0. -1.
</event>
<event>
 7    1  0.1465498E-013  0.7246146E+02  0.7816164E-02  0.1226708E+00
        -11   -1    0    0    0    0  0.00000000000E+00  0.00000000000E+00  0.45593999997E+02  0.45594000000E+02  0.51100000000E-03 0. -1.
         11   -1    0    0    0    0 -0.00000000000E+00 -0.00000000000E+00 -0.45593999997E+02  0.45594000000E+02  0.51100000000E-03 0.  1.
    9900012    2    1    2    0    0 -0.17304237654E+02 -0.46135951060E+01 -0.54737100402E+01  0.72461457281E+02  0.69999852779E+02 0.  0.
         12    1    1    2    0    0  0.17304237654E+02  0.46135951060E+01  0.54737100402E+01  0.18726542719E+02  0.00000000000E+00 0. -1.
         11    1    3    3    0    0 -0.25486708727E+01  0.89295068098E+00 -0.15398981176E+00  0.27049579034E+01  0.51100000000E-03 0. -1.
        -11    1    3    3    0    0 -0.28278436414E+02  0.56319577679E+01 -0.28605545268E+02  0.40616082217E+02  0.51100000000E-03 0.  1.
         12    1    3    3    0    0  0.13522869632E+02 -0.11138503555E+02  0.23285825040E+02  0.29140417161E+02  0.00000000000E+00 0. -1.
</event>
<event>
 7    1  0.1465498E-013  0.7246158E+02  0.7816164E-02  0.1226708E+00
        -11   -1    0    0    0    0  0.00000000000E+00  0.00000000000E+00  0.45593999997E+02  0.45594000000E+02  0.51100000000E-03 0. -1.
         11   -1    0    0    0    0 -0.00000000000E+00 -0.00000000000E+00 -0.45593999997E+02  0.45594000000E+02  0.51100000000E-03 0.  1.
    9900012    2    1    2    0    0  0.57759359652E+01 -0.16062635810E+02 -0.77012472902E+01  0.72461577083E+02  0.70000008844E+02 0.  0.
         12    1    1    2    0    0 -0.57759359652E+01  0.16062635810E+02  0.77012472902E+01  0.18726422917E+02  0.00000000000E+00 0. -1.
         11    1    3    3    0    0  0.12972237048E+02 -0.25720300471E+02 -0.18518772591E+01  0.28865935633E+02  0.51100000000E-03 0. -1.
        -11    1    3    3    0    0  0.82546202244E+01 -0.12469031242E+02  0.28858917660E+01  0.15229703435E+02  0.51100000000E-03 0.  1.
        -12    1    3    3    0    0 -0.15450921307E+02  0.22126695903E+02 -0.87352617971E+01  0.28365938015E+02  0.00000000000E+00 0.  1.
</event>
<event>
 7    1  0.1465498E-013  0.7246156E+02  0.7816164E-02  0.1226708E+00
        -11   -1    0    0    0    0  0.00000000000E+00  0.00000000000E+00  0.45593999997E+02  0.45594000000E+02  0.51100000000E-03 0.  1.
         11   -1    0    0    0    0 -0.00000000000E+00 -0.00000000000E+00 -0.45593999997E+02  0.45594000000E+02  0.51100000000E-03 0. -1.
    9900012    2    1    2    0    0  0.64565641645E+01  0.10277440579E+02  0.14260664454E+02  0.72461559966E+02  0.69999986546E+02 0.  0.
         12    1    1    2    0    0 -0.64565641645E+01 -0.10277440579E+02 -0.14260664454E+02  0.18726440034E+02  0.00000000000E+00 0. -1.
         11    1    3    3    0    0  0.94213450248E+01  0.27636763548E+02 -0.40654729307E+01  0.29480171503E+02  0.51100000000E-03 0. -1.
        -11    1    3    3    0    0  0.14426567365E+02 -0.40044763812E+00  0.49921365014E+01  0.15271137199E+02  0.51100000000E-03 0.  1.
         12    1    3    3    0    0 -0.17391348225E+02 -0.16958875330E+02  0.13334000883E+02  0.27710251264E+02  0.00000000000E+00 0. -1.
</event>
<event>
 7    1  0.1465498E-013  0.7246180E+02  0.7816164E-02  0.1226707E+00
        -11   -1    0    0    0    0  0.00000000000E+00  0.00000000000E+00  0.45593999997E+02  0.45594000000E+02  0.51100000000E-03 0. -1.
         11   -1    0    0    0    0 -0.00000000000E+00 -0.00000000000E+00 -0.45593999997E+02  0.45594000000E+02  0.51100000000E-03 0.  1.
    9900012    2    1    2    0    0 -0.11584165752E+01 -0.40284198664E+01 -0.18251040735E+02  0.72461799545E+02  0.70000298641E+02 0.  0.
         12    1    1    2    0    0  0.11584165752E+01  0.40284198664E+01  0.18251040735E+02  0.18726200455E+02  0.00000000000E+00 0. -1.
         11    1    3    3    0    0  0.52256188144E+01 -0.87631644913E+00 -0.32521345365E+01  0.62170251581E+01  0.51100000000E-03 0. -1.
        -11    1    3    3    0    0  0.17104305482E+02 -0.13924384219E+02 -0.29329032001E+02  0.36696564693E+02  0.51100000000E-03 0.  1.
         12    1    3    3    0    0 -0.23488340871E+02  0.10772280801E+02  0.14330125803E+02  0.29548209693E+02  0.00000000000E+00 0. -1.
</event>
<event>
 7    1  0.1465498E-013  0.7246158E+02  0.7816164E-02  0.1226708E+00
        -11   -1    0    0    0    0  0.00000000000E+00  0.00000000000E+00  0.45593999997E+02  0.45594000000E+02  0.51100000000E-03 0.  1.
         11   -1    0    0    0    0 -0.00000000000E+00 -0.00000000000E+00 -0.45593999997E+02  0.45594000000E+02  0.51100000000E-03 0. -1.
    9900012    2    1    2    0    0  0.16053410674E+02 -0.88220041281E+01  0.38909147565E+01  0.72461575655E+02  0.70000006984E+02 0.  0.
         12    1    1    2    0    0 -0.16053410674E+02  0.88220041281E+01 -0.38909147565E+01  0.18726424345E+02  0.00000000000E+00 0. -1.
         11    1    3    3    0    0 -0.14283107427E+02  0.76735471515E+01 -0.78753814084E+01  0.18025318756E+02  0.51100000000E-03 0. -1.
        -11    1    3    3    0    0  0.36855690998E+01 -0.38807621159E+01  0.22446623852E+02  0.23075845744E+02  0.51100000000E-03 0.  1.
         12    1    3    3    0    0  0.26650949001E+02 -0.12614789164E+02 -0.10680327687E+02  0.31360411155E+02  0.00000000000E+00 0. -1.
</event>
<event>
 7    1  0.1465498E-013  0.7246151E+02  0.7816164E-02  0.1226708E+00
        -11   -1    0    0    0    0  0.00000000000E+00  0.00000000000E+00  0.45593999997E+02  0.45594000000E+02  0.51100000000E-03 0.  1.
         11   -1    0    0    0    0 -0.00000000000E+00 -0.00000000000E+00 -0.45593999997E+02  0.45594000000E+02  0.51100000000E-03 0. -1.
    9900012    2    1    2    0    0  0.16579600192E+02 -0.43889945131E+01  0.75189728534E+01  0.72461511591E+02  0.69999923528E+02 0.  0.
         12    1    1    2    0    0 -0.16579600192E+02  0.43889945131E+01 -0.75189728534E+01  0.18726488409E+02  0.00000000000E+00 0. -1.
         11    1    3    3    0    0  0.14942163013E+02 -0.32509395001E+01  0.81415183789E+01  0.17324005452E+02  0.51100000000E-03 0.  1.
        -11    1    3    3    0    0  0.27958423407E+02  0.37138081579E+01 -0.24534957725E+01  0.28310518402E+02  0.51100000000E-03 0. -1.
        -12    1    3    3    0    0 -0.26320986228E+02 -0.48518631710E+01  0.18309502470E+01  0.26826987737E+02  0.00000000000E+00 0.  1.
</event>
<event>
 7    1  0.1465498E-013  0.7246159E+02  0.7816164E-02  0.1226708E+00
        -11   -1    0    0    0    0  0.00000000000E+00  0.00000000000E+00  0.45593999997E+02  0.45594000000E+02  0.51100000000E-03 0. -1.
         11   -1    0    0    0    0 -0.00000000000E+00 -0.00000000000E+00 -0.45593999997E+02  0.45594000000E+02  0.51100000000E-03 0.  1.
    9900012    2    1    2    0    0 -0.66280161473E+01 -0.12695180313E+02 -0.12065670388E+02  0.72461585417E+02  0.70000019699E+02 0.  0.
         12    1    1    2    0    0  0.66280161473E+01  0.12695180313E+02  0.12065670388E+02  0.18726414583E+02  0.00000000000E+00 0. -1.
         11    1    3    3    0    0 -0.13136249760E+02  0.25364363887E+02 -0.23321122990E+01  0.28659217735E+02  0.51100000000E-03 0. -1.
        -11    1    3    3    0    0  0.62887194671E+01 -0.49562885621E+01 -0.69130887209E+01  0.10578449072E+02  0.51100000000E-03 0.  1.
        -12    1    3    3    0    0  0.21951414591E+00 -0.33103255638E+02 -0.28204693682E+01  0.33223918609E+02  0.00000000000E+00 0.  1.
</event>
<event>
 7    1  0.1465498E-013  0.7246155E+02  0.7816164E-02  0.1226708E+00
        -11   -1    0    0    0    0  0.00000000000E+00  0.00000000000E+00  0.45593999997E+02  0.45594000000E+02  0.51100000000E-03 0.  1.
         11   -1    0    0    0    0 -0.00000000000E+00 -0.00000000000E+00 -0.45593999997E+02  0.45594000000E+02  0.51100000000E-03 0. -1.
    9900012    2    1    2    0    0 -0.18156225734E+02  0.36469724948E+01  0.27804769033E+01  0.72461548304E+02  0.69999971354E+02 0.  0.
         12    1    1    2    0    0  0.18156225734E+02 -0.36469724948E+01 -0.27804769033E+01  0.18726451696E+02  0.00000000000E+00 0. -1.
         11    1    3    3    0    0 -0.32553143327E+02  0.10289139682E+02  0.50898659463E+01  0.34517825417E+02  0.51100000000E-03 0. -1.
        -11    1    3    3    0    0  0.19088617167E+01  0.11574031084E+02  0.73448095708E+01  0.13840093080E+02  0.51100000000E-03 0.  1.
         12    1    3    3    0    0  0.12488055876E+02 -0.18216198271E+02 -0.96541986137E+01  0.24103629807E+02  0.00000000000E+00 0. -1.
</event>
<event>
 7    1  0.1465498E-013  0.7246158E+02  0.7816164E-02  0.1226708E+00
        -11   -1    0    0    0    0  0.00000000000E+00  0.00000000000E+00  0.45593999997E+02  0.45594000000E+02  0.51100000000E-03 0.  1.
         11   -1    0    0    0    0 -0.00000000000E+00 -0.00000000000E+00 -0.45593999997E+02  0.45594000000E+02  0.51100000000E-03 0. -1.
    9900012    2    1    2    0    0 -0.94022912054E+00  0.10029179973E+01  0.18675890804E+02  0.72461580891E+02  0.70000013805E+02 0.  0.
         12    1    1    2    0    0  0.94022912054E+00 -0.10029179973E+01 -0.18675890804E+02  0.18726419109E+02  0.00000000000E+00 0. -1.
         11    1    3    3    0    0 -0.26825012476E+01 -0.45616663315E+01  0.14157470619E+02  0.15114184968E+02  0.51100000000E-03 0. -1.
        -11    1    3    3    0    0  0.63628919442E+01  0.85446453173E+01  0.29710226437E+02  0.31562555548E+02  0.51100000000E-03 0.  1.
         12    1    3    3    0    0 -0.46206198171E+01 -0.29800609886E+01 -0.25191806252E+02  0.25784840376E+02  0.00000000000E+00 0. -1.
</event>
<event>
 7    1  0.1465498E-013  0.7246165E+02  0.7816164E-02  0.1226708E+00
        -11   -1    0    0    0    0  0.00000000000E+00  0.00000000000E+00  0.45593999997E+02  0.45594000000E+02  0.51100000000E-03 0. -1.
         11   -1    0    0    0    0 -0.00000000000E+00 -0.00000000000E+00 -0.45593999997E+02  0.45594000000E+02  0.51100000000E-03 0.  1.
    9900012    2    1    2    0    0 -0.57524893583E+01  0.13886146461E+02 -0.11169599006E+02  0.72461651201E+02  0.70000105396E+02 0.  0.
         12    1    1    2    0    0  0.57524893583E+01 -0.13886146461E+02  0.11169599006E+02  0.18726348799E+02  0.00000000000E+00 0. -1.
         11    1    3    3    0    0  0.25952648005E+02  0.24029989815E+01  0.10351061646E+02  0.28043873128E+02  0.51100000000E-03 0. -1.
        -11    1    3    3    0    0 -0.49109566622E+01 -0.29245755789E+01 -0.10695472586E+02  0.12126985271E+02  0.51100000000E-03 0.  1.
        -12    1    3    3    0    0 -0.26794180701E+02  0.14407723059E+02 -0.10825188066E+02  0.32290792803E+02  0.00000000000E+00 0.  1.
</event>
<event>
 7    1  0.1465498E-013  0.7246205E+02  0.7816164E-02  0.1226707E+00
        -11   -1    0    0    0    0  0.00000000000E+00  0.00000000000E+00  0.45593999997E+02  0.45594000000E+02  0.51100000000E-03 0.  1.
         11   -1    0    0    0    0 -0.00000000000E+00 -0.00000000000E+00 -0.45593999997E+02  0.45594000000E+02  0.51100000000E-03 0. -1.
    9900012    2    1    2    0    0  0.12072242851E+02  0.51948494719E+01  0.13339254384E+02  0.72462049663E+02  0.70000624464E+02 0.  0.
         12    1    1    2    0    0 -0.12072242851E+02 -0.51948494719E+01 -0.13339254384E+02  0.18725950337E+02  0.00000000000E+00 0. -1.
         11    1    3    3    0    0  0.16131996014E+02 -0.91593053058E+01  0.13408540776E+02  0.22889367293E+02  0.51100000000E-03 0. -1.
        -11    1    3    3    0    0 -0.30190175185E+01  0.30884650539E+02  0.65848582590E+01  0.31722806689E+02  0.51100000000E-03 0.  1.
         12    1    3    3    0    0 -0.10407356440E+01 -0.16530495761E+02 -0.66541446512E+01  0.17849875681E+02  0.00000000000E+00 0. -1.
</event>
<event>
 7    1  0.1465498E-013  0.7246155E+02  0.7816164E-02  0.1226708E+00
        -11   -1    0    0    0    0  0.00000000000E+00  0.00000000000E+00  0.45593999997E+02  0.45594000000E+02  0.51100000000E-03 0.  1.
         11   -1    0    0    0    0 -0.00000000000E+00 -0.00000000000E+00 -0.45593999997E+02  0.45594000000E+02  0.51100000000E-03 0. -1.
    9900012    2    1    2    0    0  0.17364892081E+02  0.56165894017E+01  0.41945792773E+01  0.72461546817E+02  0.69999969416E+02 0.  0.
         12    1    1    2    0    0 -0.17364892081E+02 -0.56165894017E+01 -0.41945792773E+01  0.18726453183E+02  0.00000000000E+00 0. -1.
         11    1    3    3    0    0  0.51341295145E+01 -0.50120870914E+01 -0.61092801304E+01  0.94235665677E+01  0.51100000000E-03 0. -1.
        -11    1    3    3    0    0  0.27694401752E+02 -0.13279804329E+02 -0.43411207050E+01  0.31019000962E+02  0.51100000000E-03 0.  1.
        -12    1    3    3    0    0 -0.15463639186E+02  0.23908480822E+02  0.14644980113E+02  0.32018979287E+02  0.00000000000E+00 0.  1.
</event>
<event>
 7    1  0.1465498E-013  0.7246164E+02  0.7816164E-02  0.1226708E+00
        -11   -1    0    0    0    0  0.00000000000E+00  0.00000000000E+00  0.45593999997E+02  0.45594000000E+02  0.51100000000E-03 0. -1.
         11   -1    0    0    0    0 -0.00000000000E+00 -0.00000000000E+00 -0.45593999997E+02  0.45594000000E+02  0.51100000000E-03 0.  1.
    9900012    2    1    2    0    0 -0.54815746616E+01 -0.11781291933E+02 -0.13484439292E+02  0.72461638810E+02  0.70000089255E+02 0.  0.
         12    1    1    2    0    0  0.54815746616E+01  0.11781291933E+02  0.13484439292E+02  0.18726361190E+02  0.00000000000E+00 0. -1.
         11    1    3    3    0    0  0.19746291286E+02  0.54403502095E+01 -0.10404202991E+02  0.22973046600E+02  0.51100000000E-03 0. -1.
        -11    1    3    3    0    0 -0.91848666629E+01 -0.16896794521E+02 -0.18893600501E+02  0.26959814184E+02  0.51100000000E-03 0.  1.
         12    1    3    3    0    0 -0.16042999285E+02 -0.32484762142E+00  0.15813364200E+02  0.22528778026E+02  0.00000000000E+00 0. -1.
</event>
<event>
 7    1  0.1465498E-013  0.7246176E+02  0.7816164E-02  0.1226708E+00
        -11   -1    0    0    0    0  0.00000000000E+00  0.00000000000E+00  0.45593999997E+02  0.45594000000E+02  0.51100000000E-03 0.  1.
         11   -1    0    0    0    0 -0.00000000000E+00 -0.00000000000E+00 -0.45593999997E+02  0.45594000000E+02  0.51100000000E-03 0. -1.
    9900012    2    1    2    0    0  0.84283387607E+01 -0.21015344133E+00  0.16720971374E+02  0.72461763261E+02  0.70000251374E+02 0.  0.
         12    1    1    2    0    0 -0.84283387607E+01  0.21015344133E+00 -0.16720971374E+02  0.18726236739E+02  0.00000000000E+00 0. -1.
         11    1    3    3    0    0 -0.85746839710E+01  0.56144603668E+01 -0.61740654165E+01  0.11965218529E+02  0.51100000000E-03 0. -1.
        -11    1    3    3    0    0 -0.74788060544E+01 -0.23831752391E+02  0.14849944829E+02  0.29058661767E+02  0.51100000000E-03 0.  1.
         12    1    3    3    0    0  0.24481828786E+02  0.18007138583E+02  0.80450919617E+01  0.31437882965E+02  0.00000000000E+00 0. -1.
</event>
<event>
 7    1  0.1465498E-013  0.7246154E+02  0.7816164E-02  0.1226708E+00
        -11   -1    0    0    0    0  0.00000000000E+00  0.00000000000E+00  0.45593999997E+02  0.45594000000E+02  0.51100000000E-03 0. -1.
         11   -1    0    0    0    0 -0.00000000000E+00 -0.00000000000E+00 -0.45593999997E+02  0.45594000000E+02  0.51100000000E-03 0.  1.
    9900012    2    1    2    0    0  0.34488881084E+01 -0.18158397831E+02  0.30096537855E+01  0.72461541262E+02  0.69999962179E+02 0.  0.
         12    1    1    2    0    0 -0.34488881084E+01  0.18158397831E+02 -0.30096537855E+01  0.18726458738E+02  0.00000000000E+00 0. -1.
         11    1    3    3    0    0  0.19424200178E+02 -0.24617369627E+02  0.98312989643E+01  0.32862879964E+02  0.51100000000E-03 0. -1.
        -11    1    3    3    0    0  0.43153427627E+01 -0.93061821208E+01 -0.92187359344E+01  0.13791747580E+02  0.51100000000E-03 0.  1.
         12    1    3    3    0    0 -0.20290654832E+02  0.15765153917E+02  0.23970907556E+01  0.25806913718E+02  0.00000000000E+00 0. -1.
</event>
<event>
 7    1  0.1465498E-013  0.7246157E+02  0.7816164E-02  0.1226708E+00
        -11   -1    0    0    0    0  0.00000000000E+00  0.00000000000E+00  0.45593999997E+02  0.45594000000E+02  0.51100000000E-03 0. -1.
         11   -1    0    0    0    0 -0.00000000000E+00 -0.00000000000E+00 -0.45593999997E+02  0.45594000000E+02  0.51100000000E-03 0.  1.
    9900012    2    1    2    0    0  0.15133132676E+02 -0.10817756784E+02 -0.21548772698E+01  0.72461573152E+02  0.70000003723E+02 0.  0.
         12    1    1    2    0    0 -0.15133132676E+02  0.10817756784E+02  0.21548772698E+01  0.18726426848E+02  0.00000000000E+00 0. -1.
         11    1    3    3    0    0 -0.18696850605E+01  0.11188747659E+02 -0.25956039439E+02  0.28326661999E+02  0.51100000000E-03 0. -1.
        -11    1    3    3    0    0  0.67989634656E+01 -0.36130666840E+01 -0.44656593631E+01  0.89006892361E+01  0.51100000000E-03 0.  1.
         12    1    3    3    0    0  0.10203854271E+02 -0.18393437760E+02  0.28266821532E+02  0.35234221917E+02  0.00000000000E+00 0. -1.
</event>
<event>
 7    1  0.1755717E-013  0.7246149E+02  0.7816164E-02  0.1226708E+00
        -11   -1    0    0    0    0  0.00000000000E+00  0.00000000000E+00  0.45593999997E+02  0.45594000000E+02  0.51100000000E-03 0. -1.
         11   -1    0    0    0    0 -0.00000000000E+00 -0.00000000000E+00 -0.45593999997E+02  0.45594000000E+02  0.51100000000E-03 0.  1.
    9900012    2    1    2    0    0 -0.16503247861E+02 -0.45054268089E+01 -0.76174859949E+01  0.72461490620E+02  0.69999896209E+02 0.  0.
         12    1    1    2    0    0  0.16503247861E+02  0.45054268089E+01  0.76174859949E+01  0.18726509380E+02  0.00000000000E+00 0. -1.
         11    1    3    3    0    0  0.10490738178E+02 -0.13975928598E+02  0.15117996317E+02  0.23107054780E+02  0.51100000000E-03 0. -1.
        -11    1    3    3    0    0 -0.90647607217E+01 -0.67562984010E+01  0.51677890134E+01  0.12430748110E+02  0.51100000000E-03 0.  1.
        -12    1    3    3    0    0 -0.17929225317E+02  0.16226800190E+02 -0.27903271325E+02  0.36923687730E+02  0.00000000000E+00 0.  1.
</event>
<event>
 7    1  0.1465498E-013  0.7246157E+02  0.7816164E-02  0.1226708E+00
        -11   -1    0    0    0    0  0.00000000000E+00  0.00000000000E+00  0.45593999997E+02  0.45594000000E+02  0.51100000000E-03 0. -1.
         11   -1    0    0    0    0 -0.00000000000E+00 -0.00000000000E+00 -0.45593999997E+02  0.45594000000E+02  0.51100000000E-03 0.  1.
    9900012    2    1    2    0    0  0.93073302313E+01  0.15214934998E+02  0.57060191033E+01  0.72461566890E+02  0.69999995565E+02 0.  0.
         12    1    1    2    0    0 -0.93073302313E+01 -0.15214934998E+02 -0.57060191033E+01  0.18726433110E+02  0.00000000000E+00 0. -1.
         11    1    3    3    0    0 -0.16165776251E+02 -0.95051553490E+01  0.74575051863E+01  0.20181543149E+02  0.51100000000E-03 0. -1.
        -11    1    3    3    0    0  0.67929570548E+01  0.27349690698E+02 -0.12208198704E+02  0.30711397928E+02  0.51100000000E-03 0.  1.
         12    1    3    3    0    0  0.18680149427E+02 -0.26296003512E+01  0.10456712621E+02  0.21568625813E+02  0.00000000000E+00 0. -1.
</event>
<event>
 7    1  0.1465498E-013  0.7246158E+02  0.7816164E-02  0.1226708E+00
        -11   -1    0    0    0    0  0.00000000000E+00  0.00000000000E+00  0.45593999997E+02  0.45594000000E+02  0.51100000000E-03 0.  1.
         11   -1    0    0    0    0 -0.00000000000E+00 -0.00000000000E+00 -0.45593999997E+02  0.45594000000E+02  0.51100000000E-03 0. -1.
    9900012    2    1    2    0    0  0.15693093627E+02  0.85240085192E+01  0.56344387600E+01  0.72461579922E+02  0.70000012541E+02 0.  0.
         12    1    1    2    0    0 -0.15693093627E+02 -0.85240085192E+01 -0.56344387600E+01  0.18726420078E+02  0.00000000000E+00 0. -1.
         11    1    3    3    0    0  0.71501293567E+01 -0.11459728160E+02  0.13514602244E+02  0.19107438169E+02  0.51100000000E-03 0. -1.
        -11    1    3    3    0    0  0.13698006541E+01  0.16286687540E+02  0.19131720561E+02  0.25162576910E+02  0.51100000000E-03 0.  1.
        -12    1    3    3    0    0  0.71731636160E+01  0.36970491392E+01 -0.27011884045E+02  0.28191564842E+02  0.00000000000E+00 0.  1.
</event>
<event>
 7    1  0.1465498E-013  0.7246157E+02  0.7816164E-02  0.1226708E+00
        -11   -1    0    0    0    0  0.00000000000E+00  0.00000000000E+00  0.45593999997E+02  0.45594000000E+02  0.51100000000E-03 0. -1.
         11   -1    0    0    0    0 -0.00000000000E+00 -0.00000000000E+00 -0.45593999997E+02  0.45594000000E+02  0.51100000000E-03 0.  1.
    9900012    2    1    2    0    0 -0.17607916411E+02  0.38673857373E+01  0.50679099573E+01  0.72461572041E+02  0.70000002275E+02 0.  0.
         12    1    1    2    0    0  0.17607916411E+02 -0.38673857373E+01 -0.50679099573E+01  0.18726427959E+02  0.00000000000E+00 0. -1.
         11    1    3    3    0    0 -0.18592961489E+01  0.27291395181E+02  0.25309031165E+01  0.27471488929E+02  0.51100000000E-03 0. -1.
        -11    1    3    3    0    0  0.92787798846E+00 -0.10951805310E+02  0.16566224445E+02  0.19880714015E+02  0.51100000000E-03 0.  1.
        -12    1    3    3    0    0 -0.16676498250E+02 -0.12472204134E+02 -0.14029217605E+02  0.25109369097E+02  0.00000000000E+00 0.  1.
</event>
<event>
 7    1  0.1465498E-013  0.7246151E+02  0.7816164E-02  0.1226708E+00
        -11   -1    0    0    0    0  0.00000000000E+00  0.00000000000E+00  0.45593999997E+02  0.45594000000E+02  0.51100000000E-03 0.  1.
         11   -1    0    0    0    0 -0.00000000000E+00 -0.00000000000E+00 -0.45593999997E+02  0.45594000000E+02  0.51100000000E-03 0. -1.
    9900012    2    1    2    0    0  0.61732885629E+01 -0.16952947178E+02  0.50169216329E+01  0.72461510409E+02  0.69999921989E+02 0.  0.
         12    1    1    2    0    0 -0.61732885629E+01  0.16952947178E+02 -0.50169216329E+01  0.18726489591E+02  0.00000000000E+00 0. -1.
         11    1    3    3    0    0  0.10968213629E+01 -0.16926894787E+02 -0.28465832383E+02  0.33136481372E+02  0.51100000000E-03 0. -1.
        -11    1    3    3    0    0  0.59317812359E-01  0.40035056853E+00 -0.27320455007E+01  0.27618602535E+01  0.51100000000E-03 0.  1.
        -12    1    3    3    0    0  0.50171493876E+01 -0.42640296026E+00  0.36214799517E+02  0.36563168784E+02  0.00000000000E+00 0.  1.
</event>
<event>
 7    1  0.1465498E-013  0.7246158E+02  0.7816164E-02  0.1226708E+00
        -11   -1    0    0    0    0  0.00000000000E+00  0.00000000000E+00  0.45593999997E+02  0.45594000000E+02  0.51100000000E-03 0. -1.
         11   -1    0    0    0    0 -0.00000000000E+00 -0.00000000000E+00 -0.45593999997E+02  0.45594000000E+02  0.51100000000E-03 0.  1.
    9900012    2    1    2    0    0  0.33838973752E+01  0.17893269375E+02 -0.43656620533E+01  0.72461578678E+02  0.70000010921E+02 0.  0.
         12    1    1    2    0    0 -0.33838973752E+01 -0.17893269375E+02  0.43656620533E+01  0.18726421322E+02  0.00000000000E+00 0. -1.
         11    1    3    3    0    0  0.11196626265E+02  0.78241488037E+01  0.12190053702E+02  0.18307898671E+02  0.51100000000E-03 0. -1.
        -11    1    3    3    0    0  0.18617412584E+02  0.28755288587E+01  0.47777120041E+01  0.19434589005E+02  0.51100000000E-03 0.  1.
        -12    1    3    3    0    0 -0.26430141473E+02  0.71935917128E+01 -0.21333427760E+02  0.34719091002E+02  0.00000000000E+00 0.  1.
</event>
<event>
 7    1  0.1465498E-013  0.7246156E+02  0.7816164E-02  0.1226708E+00
        -11   -1    0    0    0    0  0.00000000000E+00  0.00000000000E+00  0.45593999997E+02  0.45594000000E+02  0.51100000000E-03 0.  1.
         11   -1    0    0    0    0 -0.00000000000E+00 -0.00000000000E+00 -0.45593999997E+02  0.45594000000E+02  0.51100000000E-03 0. -1.
    9900012    2    1    2    0    0  0.16441307128E+01  0.11786132292E+01  0.18616857216E+02  0.72461556997E+02  0.69999982678E+02 0.  0.
         12    1    1    2    0    0 -0.16441307128E+01 -0.11786132292E+01 -0.18616857216E+02  0.18726443003E+02  0.00000000000E+00 0. -1.
         11    1    3    3    0    0 -0.25141343956E+02  0.23689700073E+01  0.19098797694E+02  0.31661700340E+02  0.51100000000E-03 0.  1.
        -11    1    3    3    0    0  0.11439835472E+02 -0.11397557396E+02  0.10579039033E+02  0.19305186281E+02  0.51100000000E-03 0. -1.
        -12    1    3    3    0    0  0.15345639197E+02  0.10207200617E+02 -0.11060979512E+02  0.21494670376E+02  0.00000000000E+00 0.  1.
</event>
<event>
 7    1  0.1465498E-013  0.7246156E+02  0.7816164E-02  0.1226708E+00
        -11   -1    0    0    0    0  0.00000000000E+00  0.00000000000E+00  0.45593999997E+02  0.45594000000E+02  0.51100000000E-03 0. -1.
         11   -1    0    0    0    0 -0.00000000000E+00 -0.00000000000E+00 -0.45593999997E+02  0.45594000000E+02  0.51100000000E-03 0.  1.
    9900012    2    1    2    0    0  0.12108207320E+01 -0.92402802272E+01 -0.16242866554E+02  0.72461559350E+02  0.69999985743E+02 0.  0.
         12    1    1    2    0    0 -0.12108207320E+01  0.92402802272E+01  0.16242866554E+02  0.18726440650E+02  0.00000000000E+00 0. -1.
         11    1    3    3    0    0 -0.30584666654E+01  0.95587918190E+01 -0.24875892216E+02  0.26824144594E+02  0.51100000000E-03 0. -1.
        -11    1    3    3    0    0 -0.10078032206E+02  0.19702189040E+01 -0.99448147880E+01  0.14295028405E+02  0.51100000000E-03 0.  1.
        -12    1    3    3    0    0  0.14347319603E+02 -0.20769290950E+02  0.18577840450E+02  0.31342386351E+02  0.00000000000E+00 0.  1.
</event>
<event>
 7    1  0.1465498E-013  0.7246160E+02  0.7816164E-02  0.1226708E+00
        -11   -1    0    0    0    0  0.00000000000E+00  0.00000000000E+00  0.45593999997E+02  0.45594000000E+02  0.51100000000E-03 0. -1.
         11   -1    0    0    0    0 -0.00000000000E+00 -0.00000000000E+00 -0.45593999997E+02  0.45594000000E+02  0.51100000000E-03 0.  1.
    9900012    2    1    2    0    0 -0.16779123352E+02 -0.64203859010E+01  0.52837260355E+01  0.72461598947E+02  0.70000037325E+02 0.  0.
         12    1    1    2    0    0  0.16779123352E+02  0.64203859010E+01 -0.52837260355E+01  0.18726401053E+02  0.00000000000E+00 0. -1.
         11    1    3    3    0    0 -0.26106670940E+01  0.82177594579E+01 -0.93233436051E+01  0.12699286965E+02  0.51100000000E-03 0. -1.
        -11    1    3    3    0    0 -0.20747446952E+01 -0.12250957025E+02 -0.19709282379E+02  0.23299062765E+02  0.51100000000E-03 0.  1.
         12    1    3    3    0    0 -0.12093711563E+02 -0.23871883337E+01  0.34316352019E+02  0.36463249217E+02  0.00000000000E+00 0. -1.
</event>
<event>
 7    1  0.1465498E-013  0.7246161E+02  0.7816164E-02  0.1226708E+00
        -11   -1    0    0    0    0  0.00000000000E+00  0.00000000000E+00  0.45593999997E+02  0.45594000000E+02  0.51100000000E-03 0. -1.
         11   -1    0    0    0    0 -0.00000000000E+00 -0.00000000000E+00 -0.45593999997E+02  0.45594000000E+02  0.51100000000E-03 0.  1.
    9900012    2    1    2    0    0  0.48445520636E+01  0.15124750087E+02 -0.99221879918E+01  0.72461613150E+02  0.70000055828E+02 0.  0.
         12    1    1    2    0    0 -0.48445520636E+01 -0.15124750087E+02  0.99221879918E+01  0.18726386850E+02  0.00000000000E+00 0. -1.
         11    1    3    3    0    0 -0.13501246838E+02 -0.18267401115E+01  0.94819664831E+01  0.16599046185E+02  0.51100000000E-03 0. -1.
        -11    1    3    3    0    0 -0.67236291734E+01  0.67912120090E+01  0.11394504693E+02  0.14871532782E+02  0.51100000000E-03 0.  1.
        -12    1    3    3    0    0  0.25069428075E+02  0.10160278190E+02 -0.30798659168E+02  0.40991034184E+02  0.00000000000E+00 0.  1.
</event>
<event>
 7    1  0.1465498E-013  0.7246157E+02  0.7816164E-02  0.1226708E+00
        -11   -1    0    0    0    0  0.00000000000E+00  0.00000000000E+00  0.45593999997E+02  0.45594000000E+02  0.51100000000E-03 0. -1.
         11   -1    0    0    0    0 -0.00000000000E+00 -0.00000000000E+00 -0.45593999997E+02  0.45594000000E+02  0.51100000000E-03 0.  1.
    9900012    2    1    2    0    0 -0.11873623866E+02  0.10804677313E+02  0.96413239071E+01  0.72461571557E+02  0.70000001645E+02 0.  0.
         12    1    1    2    0    0  0.11873623866E+02 -0.10804677313E+02 -0.96413239071E+01  0.18726428443E+02  0.00000000000E+00 0. -1.
         11    1    3    3    0    0 -0.11179775743E+02  0.14529659129E+02 -0.21192133353E+01  0.18455065578E+02  0.51100000000E-03 0. -1.
        -11    1    3    3    0    0 -0.22523065675E+02  0.61155321050E+01  0.17752987926E+02  0.29323314971E+02  0.51100000000E-03 0.  1.
         12    1    3    3    0    0  0.21829217552E+02 -0.98405139207E+01 -0.59924506833E+01  0.24683191008E+02  0.00000000000E+00 0. -1.
</event>
<event>
 7    1  0.1465498E-013  0.7246154E+02  0.7816164E-02  0.1226708E+00
        -11   -1    0    0    0    0  0.00000000000E+00  0.00000000000E+00  0.45593999997E+02  0.45594000000E+02  0.51100000000E-03 0. -1.
         11   -1    0    0    0    0 -0.00000000000E+00 -0.00000000000E+00 -0.45593999997E+02  0.45594000000E+02  0.51100000000E-03 0.  1.
    9900012    2    1    2    0    0 -0.25637901621E+01 -0.92537049779E+01 -0.16077200643E+02  0.72461535936E+02  0.69999955243E+02 0.  0.
         12    1    1    2    0    0  0.25637901621E+01  0.92537049779E+01  0.16077200643E+02  0.18726464064E+02  0.00000000000E+00 0. -1.
         11    1    3    3    0    0 -0.14381654155E+02 -0.38956500595E+01 -0.24140843105E+01  0.15094232969E+02  0.51100000000E-03 0. -1.
        -11    1    3    3    0    0 -0.63842885081E+00  0.14878164172E+02 -0.26471281036E+02  0.30372620573E+02  0.51100000000E-03 0.  1.
         12    1    3    3    0    0  0.12456292843E+02 -0.20236219091E+02  0.12808164703E+02  0.26994682394E+02  0.00000000000E+00 0. -1.
</event>
<event>
 7    1  0.1465498E-013  0.7246158E+02  0.7816164E-02  0.1226708E+00
        -11   -1    0    0    0    0  0.00000000000E+00  0.00000000000E+00  0.45593999997E+02  0.45594000000E+02  0.51100000000E-03 0.  1.
         11   -1    0    0    0    0 -0.00000000000E+00 -0.00000000000E+00 -0.45593999997E+02  0.45594000000E+02  0.51100000000E-03 0. -1.
    9900012    2    1    2    0    0  0.38562865421E+01  0.71213916651E+00  0.18311220777E+02  0.72461577639E+02  0.70000009568E+02 0.  0.
         12    1    1    2    0    0 -0.38562865421E+01 -0.71213916651E+00 -0.18311220777E+02  0.18726422361E+02  0.00000000000E+00 0. -1.
         11    1    3    3    0    0 -0.31356959026E+01 -0.17295200993E+02  0.17114903832E+02  0.24533171414E+02  0.51100000000E-03 0. -1.
        -11    1    3    3    0    0  0.11528063951E+02  0.41995335983E+01  0.20423960679E+02  0.23825837047E+02  0.51100000000E-03 0.  1.
        -12    1    3    3    0    0 -0.45360815059E+01  0.13807806561E+02 -0.19227643734E+02  0.24102569179E+02  0.00000000000E+00 0.  1.
</event>
<event>
 7    1  0.1465498E-013  0.7246167E+02  0.7816164E-02  0.1226708E+00
        -11   -1    0    0    0    0  0.00000000000E+00  0.00000000000E+00  0.45593999997E+02  0.45594000000E+02  0.51100000000E-03 0. -1.
         11   -1    0    0    0    0 -0.00000000000E+00 -0.00000000000E+00 -0.45593999997E+02  0.45594000000E+02  0.51100000000E-03 0.  1.
    9900012    2    1    2    0    0 -0.73947417588E+01 -0.53867178891E+01 -0.16339420975E+02  0.72461665252E+02  0.70000123700E+02 0.  0.
         12    1    1    2    0    0  0.73947417588E+01  0.53867178891E+01  0.16339420975E+02  0.18726334748E+02  0.00000000000E+00 0. -1.
         11    1    3    3    0    0  0.11854235786E+02 -0.66399632163E+00 -0.32974488609E+01  0.12322214347E+02  0.51100000000E-03 0. -1.
        -11    1    3    3    0    0 -0.19677947064E+02  0.21750530388E+02 -0.16146078843E+02  0.33481383410E+02  0.51100000000E-03 0.  1.
         12    1    3    3    0    0  0.42896951993E+00 -0.26473251955E+02  0.31041067287E+01  0.26658067494E+02  0.00000000000E+00 0. -1.
</event>
<event>
 7    1  0.1465498E-013  0.7246164E+02  0.7816164E-02  0.1226708E+00
        -11   -1    0    0    0    0  0.00000000000E+00  0.00000000000E+00  0.45593999997E+02  0.45594000000E+02  0.51100000000E-03 0.  1.
         11   -1    0    0    0    0 -0.00000000000E+00 -0.00000000000E+00 -0.45593999997E+02  0.45594000000E+02  0.51100000000E-03 0. -1.
    9900012    2    1    2    0    0 -0.10381464118E+02  0.13673440849E+02 -0.74792236689E+01  0.72461639740E+02  0.70000090466E+02 0.  0.
         12    1    1    2    0    0  0.10381464118E+02 -0.13673440849E+02  0.74792236689E+01  0.18726360260E+02  0.00000000000E+00 0. -1.
         11    1    3    3    0    0  0.26579277645E+02 -0.61592387638E+01 -0.11234999054E+02  0.29506260798E+02  0.51100000000E-03 0. -1.
        -11    1    3    3    0    0 -0.52809762038E+01  0.39436105717E+01  0.36082292022E+01  0.75139930957E+01  0.51100000000E-03 0.  1.
        -12    1    3    3    0    0 -0.31679765559E+02  0.15889069041E+02  0.14754618317E+00  0.35441385847E+02  0.00000000000E+00 0.  1.
</event>
<event>
 7    1  0.1465498E-013  0.7246160E+02  0.7816164E-02  0.1226708E+00
        -11   -1    0    0    0    0  0.00000000000E+00  0.00000000000E+00  0.45593999997E+02  0.45594000000E+02  0.51100000000E-03 0. -1.
         11   -1    0    0    0    0 -0.00000000000E+00 -0.00000000000E+00 -0.45593999997E+02  0.45594000000E+02  0.51100000000E-03 0.  1.
    9900012    2    1    2    0    0  0.62054883354E+01  0.13181699082E+02 -0.11764899951E+02  0.72461597595E+02  0.70000035564E+02 0.  0.
         12    1    1    2    0    0 -0.62054883354E+01 -0.13181699082E+02  0.11764899951E+02  0.18726402405E+02  0.00000000000E+00 0. -1.
         11    1    3    3    0    0 -0.69997538917E+01  0.13862243690E+02  0.19980764519E+02  0.25305914441E+02  0.51100000000E-03 0. -1.
        -11    1    3    3    0    0 -0.69033396677E+01  0.45552119950E+01  0.10440591063E+01  0.83364329641E+01  0.51100000000E-03 0.  1.
        -12    1    3    3    0    0  0.20108581895E+02 -0.52357566033E+01 -0.32789723577E+02  0.38819250190E+02  0.00000000000E+00 0.  1.
</event>
<event>
 7    1  0.1465498E-013  0.7246155E+02  0.7816164E-02  0.1226708E+00
        -11   -1    0    0    0    0  0.00000000000E+00  0.00000000000E+00  0.45593999997E+02  0.45594000000E+02  0.51100000000E-03 0. -1.
         11   -1    0    0    0    0 -0.00000000000E+00 -0.00000000000E+00 -0.45593999997E+02  0.45594000000E+02  0.51100000000E-03 0.  1.
    9900012    2    1    2    0    0 -0.17170970090E+02  0.12941864152E+01 -0.73595431348E+01  0.72461547921E+02  0.69999970855E+02 0.  0.
         12    1    1    2    0    0  0.17170970090E+02 -0.12941864152E+01  0.73595431348E+01  0.18726452079E+02  0.00000000000E+00 0. -1.
         11    1    3    3    0    0  0.16227056878E+02  0.18898367360E+02 -0.62028638190E+01  0.25669849700E+02  0.51100000000E-03 0. -1.
        -11    1    3    3    0    0  0.35655333675E+01 -0.21269885410E+01 -0.50412785356E+01  0.65308190897E+01  0.51100000000E-03 0.  1.
        -12    1    3    3    0    0 -0.36963560335E+02 -0.15477192404E+02  0.38845992198E+01  0.40260879132E+02  0.00000000000E+00 0.  1.
</event>
<event>
 7    1  0.1465498E-013  0.7246149E+02  0.7816164E-02  0.1226708E+00
        -11   -1    0    0    0    0  0.00000000000E+00  0.00000000000E+00  0.45593999997E+02  0.45594000000E+02  0.51100000000E-03 0.  1.
         11   -1    0    0    0    0 -0.00000000000E+00 -0.00000000000E+00 -0.45593999997E+02  0.45594000000E+02  0.51100000000E-03 0. -1.
    9900012    2    1    2    0    0  0.43955570554E+01 -0.16465825997E+02  0.77613107480E+01  0.72461486920E+02  0.69999891390E+02 0.  0.
         12    1    1    2    0    0 -0.43955570554E+01  0.16465825997E+02 -0.77613107480E+01  0.18726513080E+02  0.00000000000E+00 0. -1.
         11    1    3    3    0    0 -0.27954166116E+02 -0.20907923293E+02  0.10617021030E+02  0.36486953771E+02  0.51100000000E-03 0. -1.
        -11    1    3    3    0    0  0.21556464065E+01 -0.36669878230E+01 -0.19960052867E+01  0.46986858258E+01  0.51100000000E-03 0.  1.
        -12    1    3    3    0    0  0.30194076765E+02  0.81090851187E+01 -0.85970499548E+00  0.31275847324E+02  0.00000000000E+00 0.  1.
</event>
<event>
 7    1  0.1465498E-013  0.7246162E+02  0.7816164E-02  0.1226708E+00
        -11   -1    0    0    0    0  0.00000000000E+00  0.00000000000E+00  0.45593999997E+02  0.45594000000E+02  0.51100000000E-03 0.  1.
         11   -1    0    0    0    0 -0.00000000000E+00 -0.00000000000E+00 -0.45593999997E+02  0.45594000000E+02  0.51100000000E-03 0. -1.
    9900012    2    1    2    0    0 -0.14205400261E+02  0.71113579025E+01  0.99152629721E+01  0.72461621610E+02  0.70000066849E+02 0.  0.
         12    1    1    2    0    0  0.14205400261E+02 -0.71113579025E+01 -0.99152629721E+01  0.18726378390E+02  0.00000000000E+00 0. -1.
         11    1    3    3    0    0 -0.12336192807E+02 -0.17373395057E+02  0.28146625787E+01  0.21492762374E+02  0.51100000000E-03 0. -1.
        -11    1    3    3    0    0 -0.30733973701E+01  0.17967378567E+01 -0.17280077182E+02  0.17642990280E+02  0.51100000000E-03 0.  1.
        -12    1    3    3    0    0  0.12041899160E+01  0.22688015103E+02  0.24380677576E+02  0.33325868957E+02  0.00000000000E+00 0.  1.
</event>
<event>
 7    1  0.1465498E-013  0.7246158E+02  0.7816164E-02  0.1226708E+00
        -11   -1    0    0    0    0  0.00000000000E+00  0.00000000000E+00  0.45593999997E+02  0.45594000000E+02  0.51100000000E-03 0.  1.
         11   -1    0    0    0    0 -0.00000000000E+00 -0.00000000000E+00 -0.45593999997E+02  0.45594000000E+02  0.51100000000E-03 0. -1.
    9900012    2    1    2    0    0 -0.22220731920E+01 -0.18155214779E+02  0.40161479066E+01  0.72461578106E+02  0.70000010176E+02 0.  0.
         12    1    1    2    0    0  0.22220731920E+01  0.18155214779E+02 -0.40161479066E+01  0.18726421894E+02  0.00000000000E+00 0. -1.
         11    1    3    3    0    0 -0.18668162784E+02  0.61215416435E+01  0.15765314310E+02  0.25189654808E+02  0.51100000000E-03 0. -1.
        -11    1    3    3    0    0 -0.24112732159E+01 -0.33585773240E+00  0.97025977692E+01  0.10003371565E+02  0.51100000000E-03 0.  1.
        -12    1    3    3    0    0  0.18857362808E+02 -0.23940898690E+02 -0.21451764172E+02  0.37268551733E+02  0.00000000000E+00 0.  1.
</event>
<event>
 7    1  0.1465498E-013  0.7246214E+02  0.7816164E-02  0.1226706E+00
        -11   -1    0    0    0    0  0.00000000000E+00  0.00000000000E+00  0.45593999997E+02  0.45594000000E+02  0.51100000000E-03 0.  1.
         11   -1    0    0    0    0 -0.00000000000E+00 -0.00000000000E+00 -0.45593999997E+02  0.45594000000E+02  0.51100000000E-03 0. -1.
    9900012    2    1    2    0    0  0.98862631517E+01  0.10258297175E+02  0.12152646974E+02  0.72462143851E+02  0.70000747160E+02 0.  0.
         12    1    1    2    0    0 -0.98862631517E+01 -0.10258297175E+02 -0.12152646974E+02  0.18725856149E+02  0.00000000000E+00 0. -1.
         11    1    3    3    0    0 -0.15176077138E+02 -0.75225377806E+01 -0.14794048731E+02  0.22489236761E+02  0.51100000000E-03 0. -1.
        -11    1    3    3    0    0  0.19764320797E+01 -0.75498826452E+01  0.46123987263E+01  0.90653865882E+01  0.51100000000E-03 0.  1.
        -12    1    3    3    0    0  0.23085908210E+02  0.25330717601E+02  0.22334296979E+02  0.40907520502E+02  0.00000000000E+00 0.  1.
</event>
<event>
 7    1  0.1465498E-013  0.7246160E+02  0.7816164E-02  0.1226708E+00
        -11   -1    0    0    0    0  0.00000000000E+00  0.00000000000E+00  0.45593999997E+02  0.45594000000E+02  0.51100000000E-03 0. -1.
         11   -1    0    0    0    0 -0.00000000000E+00 -0.00000000000E+00 -0.45593999997E+02  0.45594000000E+02  0.51100000000E-03 0.  1.
    9900012    2    1    2    0    0  0.15920883001E+02 -0.98000838898E+01 -0.10778432576E+01  0.72461604034E+02  0.70000043952E+02 0.  0.
         12    1    1    2    0    0 -0.15920883001E+02  0.98000838898E+01  0.10778432576E+01  0.18726395966E+02  0.00000000000E+00 0. -1.
         11    1    3    3    0    0  0.97891351213E+01  0.93522096227E+01  0.68873745077E+01  0.15189697796E+02  0.51100000000E-03 0. -1.
        -11    1    3    3    0    0 -0.18408606188E+01 -0.11132492399E+02  0.22284042028E+02  0.24977983990E+02  0.51100000000E-03 0.  1.
        -12    1    3    3    0    0  0.79726084989E+01 -0.80198011137E+01 -0.30249259793E+02  0.32293922249E+02  0.00000000000E+00 0.  1.
</event>
<event>
 7    1  0.1465498E-013  0.7246160E+02  0.7816164E-02  0.1226708E+00
        -11   -1    0    0    0    0  0.00000000000E+00  0.00000000000E+00  0.45593999997E+02  0.45594000000E+02  0.51100000000E-03 0. -1.
         11   -1    0    0    0    0 -0.00000000000E+00 -0.00000000000E+00 -0.45593999997E+02  0.45594000000E+02  0.51100000000E-03 0.  1.
    9900012    2    1    2    0    0 -0.13123016554E+02 -0.84836524626E+01  0.10319506579E+02  0.72461597820E+02  0.70000035857E+02 0.  0.
         12    1    1    2    0    0  0.13123016554E+02  0.84836524626E+01 -0.10319506579E+02  0.18726402180E+02  0.00000000000E+00 0. -1.
         11    1    3    3    0    0 -0.23794223684E+02  0.12629062767E+02  0.23216925912E+02  0.35562395254E+02  0.51100000000E-03 0. -1.
        -11    1    3    3    0    0  0.11726990381E+01  0.28899512111E+01  0.47123430757E+01  0.56509484656E+01  0.51100000000E-03 0.  1.
        -12    1    3    3    0    0  0.94985080923E+01 -0.24002666441E+02 -0.17609762409E+02  0.31248254101E+02  0.00000000000E+00 0.  1.
</event>
<event>
 7    1  0.1465498E-013  0.7246158E+02  0.7816164E-02  0.1226708E+00
        -11   -1    0    0    0    0  0.00000000000E+00  0.00000000000E+00  0.45593999997E+02  0.45594000000E+02  0.51100000000E-03 0.  1.
         11   -1    0    0    0    0 -0.00000000000E+00 -0.00000000000E+00 -0.45593999997E+02  0.45594000000E+02  0.51100000000E-03 0. -1.
    9900012    2    1    2    0    0  0.83382453768E+01  0.41710261437E+01  0.16240538841E+02  0.72461577574E+02  0.70000009483E+02 0.  0.
         12    1    1    2    0    0 -0.83382453768E+01 -0.41710261437E+01 -0.16240538841E+02  0.18726422426E+02  0.00000000000E+00 0. -1.
         11    1    3    3    0    0 -0.44083465020E+01 -0.12205530903E+02 -0.24362115503E+01  0.13203924813E+02  0.51100000000E-03 0. -1.
        -11    1    3    3    0    0  0.16751109485E+02 -0.84668329995E+00 -0.14167900488E+02  0.21955544769E+02  0.51100000000E-03 0.  1.
         12    1    3    3    0    0 -0.40045176063E+01  0.17223240346E+02  0.32844650879E+02  0.37302107992E+02  0.00000000000E+00 0. -1.
</event>
<event>
 7    1  0.1465498E-013  0.7246156E+02  0.7816164E-02  0.1226708E+00
        -11   -1    0    0    0    0  0.00000000000E+00  0.00000000000E+00  0.45593999997E+02  0.45594000000E+02  0.51100000000E-03 0. -1.
         11   -1    0    0    0    0 -0.00000000000E+00 -0.00000000000E+00 -0.45593999997E+02  0.45594000000E+02  0.51100000000E-03 0.  1.
    9900012    2    1    2    0    0 -0.97708555768E+01 -0.12539731869E+02 -0.98977206556E+01  0.72461564989E+02  0.69999993088E+02 0.  0.
         12    1    1    2    0    0  0.97708555768E+01  0.12539731869E+02  0.98977206556E+01  0.18726435011E+02  0.00000000000E+00 0. -1.
         11    1    3    3    0    0  0.10292234576E+01 -0.16645321928E+02 -0.46458698427E+01  0.17312138801E+02  0.51100000000E-03 0. -1.
        -11    1    3    3    0    0  0.19308078143E+02 -0.17164828165E+01 -0.13222610693E+02  0.23464561122E+02  0.51100000000E-03 0.  1.
         12    1    3    3    0    0 -0.30108157178E+02  0.58220728746E+01  0.79707598802E+01  0.31684865066E+02  0.00000000000E+00 0. -1.
</event>
<event>
 7    1  0.1465498E-013  0.7246209E+02  0.7816164E-02  0.1226707E+00
        -11   -1    0    0    0    0  0.00000000000E+00  0.00000000000E+00  0.45593999997E+02  0.45594000000E+02  0.51100000000E-03 0.  1.
         11   -1    0    0    0    0 -0.00000000000E+00 -0.00000000000E+00 -0.45593999997E+02  0.45594000000E+02  0.51100000000E-03 0. -1.
    9900012    2    1    2    0    0 -0.16270254804E+02  0.88688056474E+01  0.26986708244E+01  0.72462089362E+02  0.70000676178E+02 0.  0.
         12    1    1    2    0    0  0.16270254804E+02 -0.88688056474E+01 -0.26986708244E+01  0.18725910638E+02  0.00000000000E+00 0. -1.
         11    1    3    3    0    0  0.11512560436E+02  0.10831968213E+01 -0.24711911878E+02  0.27283528952E+02  0.51100000000E-03 0. -1.
        -11    1    3    3    0    0  0.21473008645E+01 -0.10572440244E+00 -0.16588119290E+01  0.27154623784E+01  0.51100000000E-03 0.  1.
        -12    1    3    3    0    0 -0.29930116104E+02  0.78913332285E+01  0.29069394632E+02  0.42463098031E+02  0.00000000000E+00 0.  1.
</event>
<event>
 7    1  0.1465498E-013  0.7246163E+02  0.7816164E-02  0.1226708E+00
        -11   -1    0    0    0    0  0.00000000000E+00  0.00000000000E+00  0.45593999997E+02  0.45594000000E+02  0.51100000000E-03 0.  1.
         11   -1    0    0    0    0 -0.00000000000E+00 -0.00000000000E+00 -0.45593999997E+02  0.45594000000E+02  0.51100000000E-03 0. -1.
    9900012    2    1    2    0    0  0.17978226711E+02  0.52091652157E+01  0.56995327270E+00  0.72461631301E+02  0.70000079472E+02 0.  0.
         12    1    1    2    0    0 -0.17978226711E+02 -0.52091652157E+01 -0.56995327270E+00  0.18726368699E+02  0.00000000000E+00 0. -1.
         11    1    3    3    0    0  0.10493530713E+02  0.88578452228E+01 -0.83739691271E+01  0.16084121612E+02  0.51100000000E-03 0. -1.
        -11    1    3    3    0    0  0.12044329136E+02  0.24003407361E+02 -0.32910909240E+00  0.26857731519E+02  0.51100000000E-03 0.  1.
         12    1    3    3    0    0 -0.45596331378E+01 -0.27652087368E+02  0.92730314922E+01  0.29519778170E+02  0.00000000000E+00 0. -1.
</event>
<event>
 7    1  0.1465498E-013  0.7246156E+02  0.7816164E-02  0.1226708E+00
        -11   -1    0    0    0    0  0.00000000000E+00  0.00000000000E+00  0.45593999997E+02  0.45594000000E+02  0.51100000000E-03 0. -1.
         11   -1    0    0    0    0 -0.00000000000E+00 -0.00000000000E+00 -0.45593999997E+02  0.45594000000E+02  0.51100000000E-03 0.  1.
    9900012    2    1    2    0    0 -0.11858140456E+01  0.14718715102E+02  0.11516640127E+02  0.72461555355E+02  0.69999980539E+02 0.  0.
         12    1    1    2    0    0  0.11858140456E+01 -0.14718715102E+02 -0.11516640127E+02  0.18726444645E+02  0.00000000000E+00 0. -1.
         11    1    3    3    0    0 -0.30412538244E+01 -0.82981496760E+00  0.16841643154E+01  0.35741051198E+01  0.51100000000E-03 0. -1.
        -11    1    3    3    0    0  0.21277404334E+02  0.17355277113E+02 -0.19488527960E+02  0.33671000894E+02  0.51100000000E-03 0.  1.
         12    1    3    3    0    0 -0.19421964555E+02 -0.18067470433E+01  0.29321003772E+02  0.35216449342E+02  0.00000000000E+00 0. -1.
</event>
<event>
 7    1  0.1465498E-013  0.7246155E+02  0.7816164E-02  0.1226708E+00
        -11   -1    0    0    0    0  0.00000000000E+00  0.00000000000E+00  0.45593999997E+02  0.45594000000E+02  0.51100000000E-03 0.  1.
         11   -1    0    0    0    0 -0.00000000000E+00 -0.00000000000E+00 -0.45593999997E+02  0.45594000000E+02  0.51100000000E-03 0. -1.
    9900012    2    1    2    0    0 -0.17887183199E+02 -0.18887782085E+00 -0.55401266246E+01  0.72461548103E+02  0.69999971091E+02 0.  0.
         12    1    1    2    0    0  0.17887183199E+02  0.18887782085E+00  0.55401266246E+01  0.18726451897E+02  0.00000000000E+00 0. -1.
         11    1    3    3    0    0 -0.15438269346E+02 -0.13948447237E+02 -0.25622953014E+02  0.33006591193E+02  0.51100000000E-03 0. -1.
        -11    1    3    3    0    0 -0.11660749567E+02 -0.42242798313E+01  0.24604085808E+01  0.12644019582E+02  0.51100000000E-03 0.  1.
        -12    1    3    3    0    0  0.92118357134E+01  0.17983849248E+02  0.17622417809E+02  0.26810937328E+02  0.00000000000E+00 0.  1.
</event>
<event>
 7    1  0.1465498E-013  0.7246142E+02  0.7816164E-02  0.1226708E+00
        -11   -1    0    0    0    0  0.00000000000E+00  0.00000000000E+00  0.45593999997E+02  0.45594000000E+02  0.51100000000E-03 0.  1.
         11   -1    0    0    0    0 -0.00000000000E+00 -0.00000000000E+00 -0.45593999997E+02  0.45594000000E+02  0.51100000000E-03 0. -1.
    9900012    2    1    2    0    0  0.98314248867E+01 -0.15897649031E+02 -0.11369143619E+01  0.72461421715E+02  0.69999806447E+02 0.  0.
         12    1    1    2    0    0 -0.98314248867E+01  0.15897649031E+02  0.11369143619E+01  0.18726578285E+02  0.00000000000E+00 0. -1.
         11    1    3    3    0    0  0.11258482829E+02  0.12697347255E+02 -0.40857603698E+01  0.17454784473E+02  0.51100000000E-03 0. -1.
        -11    1    3    3    0    0  0.69940806451E+01  0.99678277401E+01  0.89085658473E+01  0.15087653881E+02  0.51100000000E-03 0.  1.
         12    1    3    3    0    0 -0.84211385877E+01 -0.38562824026E+02 -0.59597198394E+01  0.39918983360E+02  0.00000000000E+00 0. -1.
</event>
<event>
 7    1  0.1465498E-013  0.7246167E+02  0.7816164E-02  0.1226708E+00
        -11   -1    0    0    0    0  0.00000000000E+00  0.00000000000E+00  0.45593999997E+02  0.45594000000E+02  0.51100000000E-03 0. -1.
         11   -1    0    0    0    0 -0.00000000000E+00 -0.00000000000E+00 -0.45593999997E+02  0.45594000000E+02  0.51100000000E-03 0.  1.
    9900012    2    1    2    0    0 -0.51391604508E+01 -0.16102970211E+02 -0.80597146063E+01  0.72461665087E+02  0.70000123484E+02 0.  0.
         12    1    1    2    0    0  0.51391604508E+01  0.16102970211E+02  0.80597146063E+01  0.18726334913E+02  0.00000000000E+00 0. -1.
         11    1    3    3    0    0 -0.14464154075E+02 -0.10239390241E+00 -0.28909661518E+02  0.32326316941E+02  0.51100000000E-03 0. -1.
        -11    1    3    3    0    0 -0.96705202880E+01 -0.92442924967E+01  0.43029178660E+01  0.14053149427E+02  0.51100000000E-03 0.  1.
         12    1    3    3    0    0  0.18995513912E+02 -0.67562838120E+01  0.16547029046E+02  0.26082198718E+02  0.00000000000E+00 0. -1.
</event>
<event>
 7    1  0.1465498E-013  0.7246157E+02  0.7816164E-02  0.1226708E+00
        -11   -1    0    0    0    0  0.00000000000E+00  0.00000000000E+00  0.45593999997E+02  0.45594000000E+02  0.51100000000E-03 0.  1.
         11   -1    0    0    0    0 -0.00000000000E+00 -0.00000000000E+00 -0.45593999997E+02  0.45594000000E+02  0.51100000000E-03 0. -1.
    9900012    2    1    2    0    0  0.60201200124E+01 -0.11645508580E+02  0.13372337487E+02  0.72461571485E+02  0.70000001551E+02 0.  0.
         12    1    1    2    0    0 -0.60201200124E+01  0.11645508580E+02 -0.13372337487E+02  0.18726428515E+02  0.00000000000E+00 0. -1.
         11    1    3    3    0    0  0.14139854355E+02  0.19120966083E+02  0.78429660538E+01  0.25041144980E+02  0.51100000000E-03 0.  1.
        -11    1    3    3    0    0  0.53881600807E+01 -0.80514608199E+01 -0.12213181338E+02  0.15589101612E+02  0.51100000000E-03 0. -1.
        -12    1    3    3    0    0 -0.13507894423E+02 -0.22715013843E+02  0.17742552772E+02  0.31831324894E+02  0.00000000000E+00 0.  1.
</event>
<event>
 7    1  0.1465498E-013  0.7246156E+02  0.7816164E-02  0.1226708E+00
        -11   -1    0    0    0    0  0.00000000000E+00  0.00000000000E+00  0.45593999997E+02  0.45594000000E+02  0.51100000000E-03 0.  1.
         11   -1    0    0    0    0 -0.00000000000E+00 -0.00000000000E+00 -0.45593999997E+02  0.45594000000E+02  0.51100000000E-03 0. -1.
    9900012    2    1    2    0    0  0.14969113073E+02 -0.65179111308E+01  0.91718143473E+01  0.72461556394E+02  0.69999981892E+02 0.  0.
         12    1    1    2    0    0 -0.14969113073E+02  0.65179111308E+01 -0.91718143473E+01  0.18726443606E+02  0.00000000000E+00 0. -1.
         11    1    3    3    0    0  0.16367816362E+01 -0.13823910011E+02 -0.20286484472E+02  0.24603272031E+02  0.51100000000E-03 0. -1.
        -11    1    3    3    0    0  0.19666844081E+02  0.98679545540E+01  0.51369899523E+01  0.22595352381E+02  0.51100000000E-03 0.  1.
         12    1    3    3    0    0 -0.63345126436E+01 -0.25619556733E+01  0.24321308867E+02  0.25262931982E+02  0.00000000000E+00 0. -1.
</event>
<event>
 7    1  0.1465498E-013  0.7246150E+02  0.7816164E-02  0.1226708E+00
        -11   -1    0    0    0    0  0.00000000000E+00  0.00000000000E+00  0.45593999997E+02  0.45594000000E+02  0.51100000000E-03 0. -1.
         11   -1    0    0    0    0 -0.00000000000E+00 -0.00000000000E+00 -0.45593999997E+02  0.45594000000E+02  0.51100000000E-03 0.  1.
    9900012    2    1    2    0    0  0.43215173469E+01 -0.32149716814E+01 -0.17935162788E+02  0.72461504885E+02  0.69999914791E+02 0.  0.
         12    1    1    2    0    0 -0.43215173469E+01  0.32149716814E+01  0.17935162788E+02  0.18726495115E+02  0.00000000000E+00 0. -1.
         11    1    3    3    0    0  0.11898955682E+02 -0.18735405183E+02  0.85024504152E+01  0.23767461307E+02  0.51100000000E-03 0. -1.
        -11    1    3    3    0    0  0.14221082019E+02  0.31436323964E+01 -0.41309643084E+01  0.15138905668E+02  0.51100000000E-03 0.  1.
        -12    1    3    3    0    0 -0.21798520354E+02  0.12376801105E+02 -0.22306648894E+02  0.33555137909E+02  0.00000000000E+00 0.  1.
</event>
<event>
 7    1  0.1465498E-013  0.7246144E+02  0.7816164E-02  0.1226708E+00
        -11   -1    0    0    0    0  0.00000000000E+00  0.00000000000E+00  0.45593999997E+02  0.45594000000E+02  0.51100000000E-03 0.  1.
         11   -1    0    0    0    0 -0.00000000000E+00 -0.00000000000E+00 -0.45593999997E+02  0.45594000000E+02  0.51100000000E-03 0. -1.
    9900012    2    1    2    0    0 -0.26918091979E+01  0.74078185887E+01  0.16987126716E+02  0.72461438995E+02  0.69999828958E+02 0.  0.
         12    1    1    2    0    0  0.26918091979E+01 -0.74078185887E+01 -0.16987126716E+02  0.18726561005E+02  0.00000000000E+00 0. -1.
         11    1    3    3    0    0  0.23781490957E+01  0.22960048639E+02 -0.83503958824E+01  0.24546864123E+02  0.51100000000E-03 0. -1.
        -11    1    3    3    0    0 -0.82175038985E+01  0.10036831883E+02  0.19732328265E+01  0.13120937947E+02  0.51100000000E-03 0.  1.
         12    1    3    3    0    0  0.31475456049E+01 -0.25589061933E+02  0.23364289772E+02  0.34793636925E+02  0.00000000000E+00 0. -1.
</event>
<event>
 7    1  0.1465498E-013  0.7246158E+02  0.7816164E-02  0.1226708E+00
        -11   -1    0    0    0    0  0.00000000000E+00  0.00000000000E+00  0.45593999997E+02  0.45594000000E+02  0.51100000000E-03 0.  1.
         11   -1    0    0    0    0 -0.00000000000E+00 -0.00000000000E+00 -0.45593999997E+02  0.45594000000E+02  0.51100000000E-03 0. -1.
    9900012    2    1    2    0    0  0.51512677461E+01  0.55365440385E+01  0.17131549434E+02  0.72461578417E+02  0.70000010581E+02 0.  0.
         12    1    1    2    0    0 -0.51512677461E+01 -0.55365440385E+01 -0.17131549434E+02  0.18726421583E+02  0.00000000000E+00 0. -1.
         11    1    3    3    0    0 -0.64316423609E+01 -0.72189151884E+01 -0.60311514653E+01  0.11395330106E+02  0.51100000000E-03 0. -1.
        -11    1    3    3    0    0  0.18745005515E+02 -0.81373709255E+01 -0.87718086528E+01  0.22238180335E+02  0.51100000000E-03 0.  1.
        -12    1    3    3    0    0 -0.71620954076E+01  0.20892830152E+02  0.31934509552E+02  0.38828067976E+02  0.00000000000E+00 0.  1.
</event>
<event>
 7    1  0.1465498E-013  0.7246157E+02  0.7816164E-02  0.1226708E+00
        -11   -1    0    0    0    0  0.00000000000E+00  0.00000000000E+00  0.45593999997E+02  0.45594000000E+02  0.51100000000E-03 0. -1.
         11   -1    0    0    0    0 -0.00000000000E+00 -0.00000000000E+00 -0.45593999997E+02  0.45594000000E+02  0.51100000000E-03 0.  1.
    9900012    2    1    2    0    0  0.16965690967E+02  0.78448781067E+01  0.11411884932E+01  0.72461572319E+02  0.70000002638E+02 0.  0.
         12    1    1    2    0    0 -0.16965690967E+02 -0.78448781067E+01 -0.11411884932E+01  0.18726427681E+02  0.00000000000E+00 0. -1.
         11    1    3    3    0    0 -0.15836340999E+02 -0.52865319920E+01 -0.60836201645E+01  0.17769286741E+02  0.51100000000E-03 0. -1.
        -11    1    3    3    0    0  0.17033469533E+02 -0.28380903124E+01 -0.15171555022E+02  0.22986298593E+02  0.51100000000E-03 0.  1.
         12    1    3    3    0    0  0.15768562433E+02  0.15969500411E+02  0.22396363680E+02  0.31705986985E+02  0.00000000000E+00 0. -1.
</event>
<event>
 7    1  0.1465498E-013  0.7246163E+02  0.7816164E-02  0.1226708E+00
        -11   -1    0    0    0    0  0.00000000000E+00  0.00000000000E+00  0.45593999997E+02  0.45594000000E+02  0.51100000000E-03 0.  1.
         11   -1    0    0    0    0 -0.00000000000E+00 -0.00000000000E+00 -0.45593999997E+02  0.45594000000E+02  0.51100000000E-03 0. -1.
    9900012    2    1    2    0    0  0.98145222324E+01 -0.30121058957E+01  0.15661395702E+02  0.72461629719E+02  0.70000077411E+02 0.  0.
         12    1    1    2    0    0 -0.98145222324E+01  0.30121058957E+01 -0.15661395702E+02  0.18726370281E+02  0.00000000000E+00 0. -1.
         11    1    3    3    0    0  0.17677783176E+02 -0.14363934904E+02  0.36128296491E+01  0.23062505985E+02  0.51100000000E-03 0. -1.
        -11    1    3    3    0    0 -0.48910340884E+01 -0.17873380003E+02  0.45226343330E+01  0.19074437050E+02  0.51100000000E-03 0.  1.
        -12    1    3    3    0    0 -0.29722268552E+01  0.29225209012E+02  0.75259317200E+01  0.30324686684E+02  0.00000000000E+00 0.  1.
</event>
<event>
 7    1  0.1465498E-013  0.7246157E+02  0.7816164E-02  0.1226708E+00
        -11   -1    0    0    0    0  0.00000000000E+00  0.00000000000E+00  0.45593999997E+02  0.45594000000E+02  0.51100000000E-03 0.  1.
         11   -1    0    0    0    0 -0.00000000000E+00 -0.00000000000E+00 -0.45593999997E+02  0.45594000000E+02  0.51100000000E-03 0. -1.
    9900012    2    1    2    0    0 -0.85332489360E+01  0.16417074894E+02  0.28883264014E+01  0.72461571753E+02  0.70000001900E+02 0.  0.
         12    1    1    2    0    0  0.85332489360E+01 -0.16417074894E+02 -0.28883264014E+01  0.18726428247E+02  0.00000000000E+00 0. -1.
         11    1    3    3    0    0 -0.60503985386E+01 -0.14527243722E+00  0.22202554369E+02  0.23012645379E+02  0.51100000000E-03 0. -1.
        -11    1    3    3    0    0 -0.88930950365E+01  0.77575365051E+01  0.11675737322E+02  0.16600884140E+02  0.51100000000E-03 0.  1.
         12    1    3    3    0    0  0.64102446391E+01  0.88048108266E+01 -0.30989965289E+02  0.32848042235E+02  0.00000000000E+00 0. -1.
</event>
<event>
 7    1  0.1465498E-013  0.7246151E+02  0.7816164E-02  0.1226708E+00
        -11   -1    0    0    0    0  0.00000000000E+00  0.00000000000E+00  0.45593999997E+02  0.45594000000E+02  0.51100000000E-03 0. -1.
         11   -1    0    0    0    0 -0.00000000000E+00 -0.00000000000E+00 -0.45593999997E+02  0.45594000000E+02  0.51100000000E-03 0.  1.
    9900012    2    1    2    0    0  0.10697937532E+02  0.10012289091E+02 -0.11661466280E+02  0.72461505505E+02  0.69999915599E+02 0.  0.
         12    1    1    2    0    0 -0.10697937532E+02 -0.10012289091E+02  0.11661466280E+02  0.18726494495E+02  0.00000000000E+00 0. -1.
         11    1    3    3    0    0  0.24386151389E+01 -0.74632667965E+00 -0.86028559274E+01  0.89729024110E+01  0.51100000000E-03 0.  1.
        -11    1    3    3    0    0  0.39954281044E+01  0.31254006100E+01  0.29419787611E+02  0.29853902225E+02  0.51100000000E-03 0. -1.
         12    1    3    3    0    0  0.42638942890E+01  0.76332151603E+01 -0.32478397964E+02  0.33634700868E+02  0.00000000000E+00 0. -1.
</event>
<event>
 7    1  0.1465498E-013  0.7246154E+02  0.7816164E-02  0.1226708E+00
        -11   -1    0    0    0    0  0.00000000000E+00  0.00000000000E+00  0.45593999997E+02  0.45594000000E+02  0.51100000000E-03 0. -1.
         11   -1    0    0    0    0 -0.00000000000E+00 -0.00000000000E+00 -0.45593999997E+02  0.45594000000E+02  0.51100000000E-03 0.  1.
    9900012    2    1    2    0    0  0.82832783644E+01  0.81352013118E+01 -0.14693060021E+02  0.72461542417E+02  0.69999963684E+02 0.  0.
         12    1    1    2    0    0 -0.82832783644E+01 -0.81352013118E+01  0.14693060021E+02  0.18726457583E+02  0.00000000000E+00 0. -1.
         11    1    3    3    0    0 -0.81584263237E+01 -0.26190524629E+01 -0.85652024182E+01  0.12115364155E+02  0.51100000000E-03 0. -1.
        -11    1    3    3    0    0 -0.22490992427E+01  0.26753306721E+02 -0.18698667996E+02  0.32717549618E+02  0.51100000000E-03 0.  1.
         12    1    3    3    0    0  0.18690803931E+02 -0.15999052947E+02  0.12570810393E+02  0.27628628643E+02  0.00000000000E+00 0. -1.
</event>
<event>
 7    1  0.1465498E-013  0.7246159E+02  0.7816164E-02  0.1226708E+00
        -11   -1    0    0    0    0  0.00000000000E+00  0.00000000000E+00  0.45593999997E+02  0.45594000000E+02  0.51100000000E-03 0.  1.
         11   -1    0    0    0    0 -0.00000000000E+00 -0.00000000000E+00 -0.45593999997E+02  0.45594000000E+02  0.51100000000E-03 0. -1.
    9900012    2    1    2    0    0  0.76975351118E+01  0.87926354425E+01  0.14632703920E+02  0.72461587934E+02  0.70000022980E+02 0.  0.
         12    1    1    2    0    0 -0.76975351118E+01 -0.87926354425E+01 -0.14632703920E+02  0.18726412066E+02  0.00000000000E+00 0. -1.
         11    1    3    3    0    0 -0.35123599582E+01 -0.11660343786E+02 -0.40215556297E+01  0.12824710509E+02  0.51100000000E-03 0. -1.
        -11    1    3    3    0    0 -0.87562466130E+01 -0.10754416295E+02  0.17818702272E+02  0.22579536654E+02  0.51100000000E-03 0.  1.
         12    1    3    3    0    0  0.19966141683E+02  0.31207395524E+02  0.83555727812E+00  0.37057340772E+02  0.00000000000E+00 0. -1.
</event>
<event>
 7    1  0.1465498E-013  0.7246152E+02  0.7816164E-02  0.1226708E+00
        -11   -1    0    0    0    0  0.00000000000E+00  0.00000000000E+00  0.45593999997E+02  0.45594000000E+02  0.51100000000E-03 0.  1.
         11   -1    0    0    0    0 -0.00000000000E+00 -0.00000000000E+00 -0.45593999997E+02  0.45594000000E+02  0.51100000000E-03 0. -1.
    9900012    2    1    2    0    0 -0.44580672658E+00 -0.36988985571E+01  0.18352120905E+02  0.72461523132E+02  0.69999938562E+02 0.  0.
         12    1    1    2    0    0  0.44580672658E+00  0.36988985571E+01 -0.18352120905E+02  0.18726476868E+02  0.00000000000E+00 0. -1.
         11    1    3    3    0    0  0.13918844345E+01 -0.14005839379E+02 -0.71621775459E+01  0.15792329355E+02  0.51100000000E-03 0. -1.
        -11    1    3    3    0    0  0.55616849200E+01 -0.17166300155E+02  0.21284618007E+02  0.27904285766E+02  0.51100000000E-03 0.  1.
        -12    1    3    3    0    0 -0.73993760811E+01  0.27473240977E+02  0.42296804444E+01  0.28764908011E+02  0.00000000000E+00 0.  1.
</event>
<event>
 7    1  0.1612677E-013  0.7246155E+02  0.7816164E-02  0.1226708E+00
        -11   -1    0    0    0    0  0.00000000000E+00  0.00000000000E+00  0.45593999997E+02  0.45594000000E+02  0.51100000000E-03 0.  1.
         11   -1    0    0    0    0 -0.00000000000E+00 -0.00000000000E+00 -0.45593999997E+02  0.45594000000E+02  0.51100000000E-03 0. -1.
    9900012    2    1    2    0    0  0.17575814569E+02  0.34673715900E+01 -0.54541622451E+01  0.72461553212E+02  0.69999977747E+02 0.  0.
         12    1    1    2    0    0 -0.17575814569E+02 -0.34673715900E+01  0.54541622451E+01  0.18726446788E+02  0.00000000000E+00 0. -1.
         11    1    3    3    0    0 -0.35099360545E+01  0.90363357690E+01 -0.23928426247E+02  0.25817525020E+02  0.51100000000E-03 0. -1.
        -11    1    3    3    0    0  0.18895135009E+01 -0.29541283028E+01 -0.10903380378E+02  0.11453420416E+02  0.51100000000E-03 0.  1.
        -12    1    3    3    0    0  0.19196237123E+02 -0.26148358762E+01  0.29377644380E+02  0.35190607776E+02  0.00000000000E+00 0.  1.
</event>
<event>
 7    1  0.1465498E-013  0.7246155E+02  0.7816164E-02  0.1226708E+00
        -11   -1    0    0    0    0  0.00000000000E+00  0.00000000000E+00  0.45593999997E+02  0.45594000000E+02  0.51100000000E-03 0. -1.
         11   -1    0    0    0    0 -0.00000000000E+00 -0.00000000000E+00 -0.45593999997E+02  0.45594000000E+02  0.51100000000E-03 0.  1.
    9900012    2    1    2    0    0  0.76634107312E+01  0.12642796405E+02 -0.11493983106E+02  0.72461553124E+02  0.69999977632E+02 0.  0.
         12    1    1    2    0    0 -0.76634107312E+01 -0.12642796405E+02  0.11493983106E+02  0.18726446876E+02  0.00000000000E+00 0. -1.
         11    1    3    3    0    0  0.22287673067E+02  0.52736854125E+00 -0.15247611007E+02  0.27009408175E+02  0.51100000000E-03 0. -1.
        -11    1    3    3    0    0  0.10292055712E+02  0.14009583298E+01 -0.10536488087E+02  0.14795495142E+02  0.51100000000E-03 0.  1.
         12    1    3    3    0    0 -0.24916318047E+02  0.10714469534E+02  0.14290115988E+02  0.30656649807E+02  0.00000000000E+00 0. -1.
</event>
<event>
 7    1  0.1465498E-013  0.7246153E+02  0.7816164E-02  0.1226708E+00
        -11   -1    0    0    0    0  0.00000000000E+00  0.00000000000E+00  0.45593999997E+02  0.45594000000E+02  0.51100000000E-03 0.  1.
         11   -1    0    0    0    0 -0.00000000000E+00 -0.00000000000E+00 -0.45593999997E+02  0.45594000000E+02  0.51100000000E-03 0. -1.
    9900012    2    1    2    0    0  0.17122998561E+02 -0.67901326850E+01 -0.33730702408E+01  0.72461532516E+02  0.69999950786E+02 0.  0.
         12    1    1    2    0    0 -0.17122998561E+02  0.67901326850E+01  0.33730702408E+01  0.18726467484E+02  0.00000000000E+00 0. -1.
         11    1    3    3    0    0 -0.20098724154E+02 -0.12204243753E+02  0.61238239987E+01  0.24298220076E+02  0.51100000000E-03 0. -1.
        -11    1    3    3    0    0 -0.35881896084E+01  0.31433273667E+01  0.27356496306E+01  0.54990354393E+01  0.51100000000E-03 0.  1.
         12    1    3    3    0    0  0.40809912323E+02  0.22707837016E+01 -0.12232543870E+02  0.42664277001E+02  0.00000000000E+00 0. -1.
</event>
<event>
 7    1  0.1465498E-013  0.7246162E+02  0.7816164E-02  0.1226708E+00
        -11   -1    0    0    0    0  0.00000000000E+00  0.00000000000E+00  0.45593999997E+02  0.45594000000E+02  0.51100000000E-03 0.  1.
         11   -1    0    0    0    0 -0.00000000000E+00 -0.00000000000E+00 -0.45593999997E+02  0.45594000000E+02  0.51100000000E-03 0. -1.
    9900012    2    1    2    0    0 -0.11087283101E+02 -0.15076194144E+02  0.67665360104E+00  0.72461619236E+02  0.70000063755E+02 0.  0.
         12    1    1    2    0    0  0.11087283101E+02  0.15076194144E+02 -0.67665360104E+00  0.18726380764E+02  0.00000000000E+00 0. -1.
         11    1    3    3    0    0 -0.31240766961E+01  0.79218181166E+01  0.23232820328E+01  0.88268169314E+01  0.51100000000E-03 0. -1.
        -11    1    3    3    0    0  0.61705758038E+01  0.96341830882E+01  0.19246234409E+02  0.22389976077E+02  0.51100000000E-03 0.  1.
         12    1    3    3    0    0 -0.14133782209E+02 -0.32632195349E+02 -0.20892862841E+02  0.41244826227E+02  0.00000000000E+00 0. -1.
</event>
<event>
 7    1  0.1465498E-013  0.7246155E+02  0.7816164E-02  0.1226708E+00
        -11   -1    0    0    0    0  0.00000000000E+00  0.00000000000E+00  0.45593999997E+02  0.45594000000E+02  0.51100000000E-03 0.  1.
         11   -1    0    0    0    0 -0.00000000000E+00 -0.00000000000E+00 -0.45593999997E+02  0.45594000000E+02  0.51100000000E-03 0. -1.
    9900012    2    1    2    0    0  0.22181093434E+00 -0.18190749338E+02 -0.44415642230E+01  0.72461546670E+02  0.69999969225E+02 0.  0.
         12    1    1    2    0    0 -0.22181093434E+00  0.18190749338E+02  0.44415642230E+01  0.18726453330E+02  0.00000000000E+00 0. -1.
         11    1    3    3    0    0  0.11528857694E+02  0.98434480687E+01  0.12617959448E+02  0.19723613526E+02  0.51100000000E-03 0. -1.
        -11    1    3    3    0    0 -0.57520385023E+01 -0.22925037073E+02  0.92394910753E+01  0.25377381017E+02  0.51100000000E-03 0.  1.
         12    1    3    3    0    0 -0.55550082576E+01 -0.51091603342E+01 -0.26299014746E+02  0.27360552127E+02  0.00000000000E+00 0. -1.
</event>
<event>
 7    1  0.1465498E-013  0.7246156E+02  0.7816164E-02  0.1226708E+00
        -11   -1    0    0    0    0  0.00000000000E+00  0.00000000000E+00  0.45593999997E+02  0.45594000000E+02  0.51100000000E-03 0. -1.
         11   -1    0    0    0    0 -0.00000000000E+00 -0.00000000000E+00 -0.45593999997E+02  0.45594000000E+02  0.51100000000E-03 0.  1.
    9900012    2    1    2    0    0  0.49229813755E+01  0.10003069902E+02  0.15046010479E+02  0.72461559216E+02  0.69999985568E+02 0.  0.
         12    1    1    2    0    0 -0.49229813755E+01 -0.10003069902E+02 -0.15046010479E+02  0.18726440784E+02  0.00000000000E+00 0. -1.
         11    1    3    3    0    0 -0.40655701982E+01  0.69200755766E+01 -0.30599705247E+01  0.85895126110E+01  0.51100000000E-03 0. -1.
        -11    1    3    3    0    0 -0.16757000590E+02 -0.33428632212E+01 -0.14092160470E+02  0.22148606960E+02  0.51100000000E-03 0.  1.
         12    1    3    3    0    0  0.25745552163E+02  0.64258575470E+01  0.32198141474E+02  0.41723439645E+02  0.00000000000E+00 0. -1.
</event>
<event>
 7    1  0.1465498E-013  0.7246160E+02  0.7816164E-02  0.1226708E+00
        -11   -1    0    0    0    0  0.00000000000E+00  0.00000000000E+00  0.45593999997E+02  0.45594000000E+02  0.51100000000E-03 0. -1.
         11   -1    0    0    0    0 -0.00000000000E+00 -0.00000000000E+00 -0.45593999997E+02  0.45594000000E+02  0.51100000000E-03 0.  1.
    9900012    2    1    2    0    0  0.19921625353E+00  0.17998763264E+02 -0.51655610340E+01  0.72461596529E+02  0.70000034175E+02 0.  0.
         12    1    1    2    0    0 -0.19921625353E+00 -0.17998763264E+02  0.51655610340E+01  0.18726403471E+02  0.00000000000E+00 0. -1.
         11    1    3    3    0    0  0.10900300236E+02 -0.17757348908E+02 -0.60084045555E+01  0.21685038876E+02  0.51100000000E-03 0. -1.
        -11    1    3    3    0    0 -0.12851193472E+02  0.67647564034E+00 -0.71666790308E+01  0.14729972218E+02  0.51100000000E-03 0.  1.
         12    1    3    3    0    0  0.21501094894E+01  0.35079636532E+02  0.80095225524E+01  0.36046585435E+02  0.00000000000E+00 0. -1.
</event>
<event>
 7    1  0.1465498E-013  0.7246162E+02  0.7816164E-02  0.1226708E+00
        -11   -1    0    0    0    0  0.00000000000E+00  0.00000000000E+00  0.45593999997E+02  0.45594000000E+02  0.51100000000E-03 0.  1.
         11   -1    0    0    0    0 -0.00000000000E+00 -0.00000000000E+00 -0.45593999997E+02  0.45594000000E+02  0.51100000000E-03 0. -1.
    9900012    2    1    2    0    0 -0.23155188975E+01  0.25729644927E+01  0.18403679082E+02  0.72461623474E+02  0.70000069277E+02 0.  0.
         12    1    1    2    0    0  0.23155188975E+01 -0.25729644927E+01 -0.18403679082E+02  0.18726376526E+02  0.00000000000E+00 0. -1.
         11    1    3    3    0    0  0.88500106098E+00  0.66931519267E+01 -0.13585162676E+02  0.15170305033E+02  0.51100000000E-03 0. -1.
        -11    1    3    3    0    0  0.12849484332E+02  0.46962954655E+01 -0.61381733295E+01  0.14994719430E+02  0.51100000000E-03 0.  1.
        -12    1    3    3    0    0 -0.16050004291E+02 -0.88164828995E+01  0.38127015087E+02  0.42296599011E+02  0.00000000000E+00 0.  1.
</event>
<event>
 7    1  0.1465498E-013  0.7246161E+02  0.7816164E-02  0.1226708E+00
        -11   -1    0    0    0    0  0.00000000000E+00  0.00000000000E+00  0.45593999997E+02  0.45594000000E+02  0.51100000000E-03 0. -1.
         11   -1    0    0    0    0 -0.00000000000E+00 -0.00000000000E+00 -0.45593999997E+02  0.45594000000E+02  0.51100000000E-03 0.  1.
    9900012    2    1    2    0    0  0.70539340421E+01 -0.15103353832E+02 -0.85327939086E+01  0.72461605410E+02  0.70000045745E+02 0.  0.
         12    1    1    2    0    0 -0.70539340421E+01  0.15103353832E+02  0.85327939086E+01  0.18726394590E+02  0.00000000000E+00 0. -1.
         11    1    3    3    0    0  0.28747251169E+02 -0.48118556447E+01 -0.11320291762E+02  0.31268313200E+02  0.51100000000E-03 0. -1.
        -11    1    3    3    0    0  0.14827277182E+01 -0.16813396864E+02  0.28465755271E+01  0.17117002895E+02  0.51100000000E-03 0.  1.
        -12    1    3    3    0    0 -0.23176044846E+02  0.65218986771E+01 -0.59077673244E-01  0.24076289316E+02  0.00000000000E+00 0.  1.
</event>
<event>
 7    1  0.1465498E-013  0.7246160E+02  0.7816164E-02  0.1226708E+00
        -11   -1    0    0    0    0  0.00000000000E+00  0.00000000000E+00  0.45593999997E+02  0.45594000000E+02  0.51100000000E-03 0.  1.
         11   -1    0    0    0    0 -0.00000000000E+00 -0.00000000000E+00 -0.45593999997E+02  0.45594000000E+02  0.51100000000E-03 0. -1.
    9900012    2    1    2    0    0  0.86196269349E+01 -0.65081220292E+01  0.15297859558E+02  0.72461598106E+02  0.70000036230E+02 0.  0.
         12    1    1    2    0    0 -0.86196269349E+01  0.65081220292E+01 -0.15297859558E+02  0.18726401894E+02  0.00000000000E+00 0. -1.
         11    1    3    3    0    0  0.64552442498E+01 -0.12953900350E+01  0.90360104196E+01  0.11180236949E+02  0.51100000000E-03 0. -1.
        -11    1    3    3    0    0  0.25501238057E+02 -0.55038620662E+01 -0.14670852152E+02  0.29930578732E+02  0.51100000000E-03 0.  1.
         12    1    3    3    0    0 -0.23336855372E+02  0.29113007204E+00  0.20932701291E+02  0.31350782425E+02  0.00000000000E+00 0. -1.
</event>
<event>
 7    1  0.1465498E-013  0.7246147E+02  0.7816164E-02  0.1226708E+00
        -11   -1    0    0    0    0  0.00000000000E+00  0.00000000000E+00  0.45593999997E+02  0.45594000000E+02  0.51100000000E-03 0. -1.
         11   -1    0    0    0    0 -0.00000000000E+00 -0.00000000000E+00 -0.45593999997E+02  0.45594000000E+02  0.51100000000E-03 0.  1.
    9900012    2    1    2    0    0  0.70582594698E+01  0.13804927658E+02 -0.10501799059E+02  0.72461472349E+02  0.69999872408E+02 0.  0.
         12    1    1    2    0    0 -0.70582594698E+01 -0.13804927658E+02  0.10501799059E+02  0.18726527651E+02  0.00000000000E+00 0. -1.
         11    1    3    3    0    0  0.15186875650E+02 -0.44558742202E+01  0.58373908900E+01  0.16869236490E+02  0.51100000000E-03 0. -1.
        -11    1    3    3    0    0  0.16387652346E+02  0.22773727511E+02 -0.65543666152E+01  0.28812454532E+02  0.51100000000E-03 0.  1.
         12    1    3    3    0    0 -0.24516268527E+02 -0.45129256335E+01 -0.97848233340E+01  0.26779781327E+02  0.00000000000E+00 0. -1.
</event>
<event>
 7    1  0.1465498E-013  0.7246156E+02  0.7816164E-02  0.1226708E+00
        -11   -1    0    0    0    0  0.00000000000E+00  0.00000000000E+00  0.45593999997E+02  0.45594000000E+02  0.51100000000E-03 0.  1.
         11   -1    0    0    0    0 -0.00000000000E+00 -0.00000000000E+00 -0.45593999997E+02  0.45594000000E+02  0.51100000000E-03 0. -1.
    9900012    2    1    2    0    0 -0.17377834737E+02  0.98542477075E+00 -0.69079284651E+01  0.72461556723E+02  0.69999982320E+02 0.  0.
         12    1    1    2    0    0  0.17377834737E+02 -0.98542477075E+00  0.69079284651E+01  0.18726443277E+02  0.00000000000E+00 0. -1.
         11    1    3    3    0    0 -0.68860209511E+01 -0.42644689296E+01 -0.18045693998E+02  0.19780041757E+02  0.51100000000E-03 0. -1.
        -11    1    3    3    0    0 -0.15843796946E+02 -0.19589074156E+02  0.67720416117E+00  0.25203498441E+02  0.51100000000E-03 0.  1.
         12    1    3    3    0    0  0.53519831597E+01  0.24838967856E+02  0.10460561371E+02  0.27478016524E+02  0.00000000000E+00 0. -1.
</event>
<event>
 7    1  0.1465498E-013  0.7246149E+02  0.7816164E-02  0.1226708E+00
        -11   -1    0    0    0    0  0.00000000000E+00  0.00000000000E+00  0.45593999997E+02  0.45594000000E+02  0.51100000000E-03 0.  1.
         11   -1    0    0    0    0 -0.00000000000E+00 -0.00000000000E+00 -0.45593999997E+02  0.45594000000E+02  0.51100000000E-03 0. -1.
    9900012    2    1    2    0    0  0.14036382725E+02  0.67818150832E+01 -0.10376364563E+02  0.72461494790E+02  0.69999901642E+02 0.  0.
         12    1    1    2    0    0 -0.14036382725E+02 -0.67818150832E+01  0.10376364563E+02  0.18726505210E+02  0.00000000000E+00 0. -1.
         11    1    3    3    0    0 -0.19441065763E+01 -0.11946207596E+02 -0.18180464439E+02  0.21840803872E+02  0.51100000000E-03 0. -1.
        -11    1    3    3    0    0 -0.71681538806E+00  0.75784775490E+01 -0.17048795570E+02  0.18671062554E+02  0.51100000000E-03 0.  1.
        -12    1    3    3    0    0  0.16697304690E+02  0.11149545130E+02  0.24852895446E+02  0.31949628363E+02  0.00000000000E+00 0.  1.
</event>
<event>
 7    1  0.1465498E-013  0.7246158E+02  0.7816164E-02  0.1226708E+00
        -11   -1    0    0    0    0  0.00000000000E+00  0.00000000000E+00  0.45593999997E+02  0.45594000000E+02  0.51100000000E-03 0. -1.
         11   -1    0    0    0    0 -0.00000000000E+00 -0.00000000000E+00 -0.45593999997E+02  0.45594000000E+02  0.51100000000E-03 0.  1.
    9900012    2    1    2    0    0 -0.16840283763E+02 -0.13025346692E+00  0.81894349448E+01  0.72461575678E+02  0.70000007013E+02 0.  0.
         12    1    1    2    0    0  0.16840283763E+02  0.13025346692E+00 -0.81894349448E+01  0.18726424322E+02  0.00000000000E+00 0. -1.
         11    1    3    3    0    0  0.96127939718E+01  0.14246815489E-01  0.21228496560E+02  0.23303542164E+02  0.51100000000E-03 0. -1.
        -11    1    3    3    0    0 -0.34355420562E+01 -0.96302075897E+00  0.13531814083E+02  0.13994297083E+02  0.51100000000E-03 0.  1.
        -12    1    3    3    0    0 -0.23017535678E+02  0.81852047657E+00 -0.26570875698E+02  0.35163736432E+02  0.00000000000E+00 0.  1.
</event>
<event>
 7    1  0.1465498E-013  0.7246157E+02  0.7816164E-02  0.1226708E+00
        -11   -1    0    0    0    0  0.00000000000E+00  0.00000000000E+00  0.45593999997E+02  0.45594000000E+02  0.51100000000E-03 0.  1.
         11   -1    0    0    0    0 -0.00000000000E+00 -0.00000000000E+00 -0.45593999997E+02  0.45594000000E+02  0.51100000000E-03 0. -1.
    9900012    2    1    2    0    0  0.14682947555E+02 -0.29248688794E+01  0.11248798899E+02  0.72461567250E+02  0.69999996034E+02 0.  0.
         12    1    1    2    0    0 -0.14682947555E+02  0.29248688794E+01 -0.11248798899E+02  0.18726432750E+02  0.00000000000E+00 0. -1.
         11    1    3    3    0    0 -0.35651716472E+01  0.37702135400E+01 -0.97177455793E+01  0.11016330533E+02  0.51100000000E-03 0. -1.
        -11    1    3    3    0    0  0.32064010784E+02  0.65588444536E+00 -0.36473515246E+01  0.32277455683E+02  0.51100000000E-03 0.  1.
        -12    1    3    3    0    0 -0.13815891581E+02 -0.73509668648E+01  0.24613896003E+02  0.29167781034E+02  0.00000000000E+00 0.  1.
</event>
<event>
 7    1  0.1465498E-013  0.7246150E+02  0.7816164E-02  0.1226708E+00
        -11   -1    0    0    0    0  0.00000000000E+00  0.00000000000E+00  0.45593999997E+02  0.45594000000E+02  0.51100000000E-03 0. -1.
         11   -1    0    0    0    0 -0.00000000000E+00 -0.00000000000E+00 -0.45593999997E+02  0.45594000000E+02  0.51100000000E-03 0.  1.
    9900012    2    1    2    0    0  0.91147270918E+01 -0.15434191620E+02 -0.54211735288E+01  0.72461504242E+02  0.69999913955E+02 0.  0.
         12    1    1    2    0    0 -0.91147270918E+01  0.15434191620E+02  0.54211735288E+01  0.18726495758E+02  0.00000000000E+00 0. -1.
         11    1    3    3    0    0 -0.86747632009E+01 -0.14991049688E+02  0.21879430130E+02  0.27905063169E+02  0.51100000000E-03 0. -1.
        -11    1    3    3    0    0  0.23846102980E+01  0.55813427940E+01  0.52624078937E+01  0.80330996980E+01  0.51100000000E-03 0.  1.
        -12    1    3    3    0    0  0.15404879995E+02 -0.60244847259E+01 -0.32563011553E+02  0.36523341376E+02  0.00000000000E+00 0.  1.
</event>
<event>
 7    1  0.1465498E-013  0.7246163E+02  0.7816164E-02  0.1226708E+00
        -11   -1    0    0    0    0  0.00000000000E+00  0.00000000000E+00  0.45593999997E+02  0.45594000000E+02  0.51100000000E-03 0.  1.
         11   -1    0    0    0    0 -0.00000000000E+00 -0.00000000000E+00 -0.45593999997E+02  0.45594000000E+02  0.51100000000E-03 0. -1.
    9900012    2    1    2    0    0 -0.13516790831E+02 -0.12175053057E+02  0.44431171843E+01  0.72461632450E+02  0.70000080969E+02 0.  0.
         12    1    1    2    0    0  0.13516790831E+02  0.12175053057E+02 -0.44431171843E+01  0.18726367550E+02  0.00000000000E+00 0. -1.
         11    1    3    3    0    0 -0.69466553304E+01 -0.16944684414E+02  0.67744394814E+01  0.19526171687E+02  0.51100000000E-03 0. -1.
        -11    1    3    3    0    0 -0.98040028262E+01 -0.36662026423E+01  0.23416078387E+02  0.25649020264E+02  0.51100000000E-03 0.  1.
        -12    1    3    3    0    0  0.32338673253E+01  0.84358339999E+01 -0.25747400684E+02  0.27286440499E+02  0.00000000000E+00 0.  1.
</event>
<event>
 7    1  0.1465498E-013  0.7246156E+02  0.7816164E-02  0.1226708E+00
        -11   -1    0    0    0    0  0.00000000000E+00  0.00000000000E+00  0.45593999997E+02  0.45594000000E+02  0.51100000000E-03 0.  1.
         11   -1    0    0    0    0 -0.00000000000E+00 -0.00000000000E+00 -0.45593999997E+02  0.45594000000E+02  0.51100000000E-03 0. -1.
    9900012    2    1    2    0    0 -0.12877527745E+02 -0.67732409601E+01 -0.11788636900E+02  0.72461562168E+02  0.69999989414E+02 0.  0.
         12    1    1    2    0    0  0.12877527745E+02  0.67732409601E+01  0.11788636900E+02  0.18726437832E+02  0.00000000000E+00 0. -1.
         11    1    3    3    0    0  0.85869579676E+01 -0.74056299113E+01  0.78290083112E+01  0.13779425711E+02  0.51100000000E-03 0. -1.
        -11    1    3    3    0    0 -0.21625600298E+02 -0.22106501759E+02 -0.42006704316E+01  0.31209127521E+02  0.51100000000E-03 0.  1.
         12    1    3    3    0    0  0.16111458500E+00  0.22738890711E+02 -0.15416974779E+02  0.27473008936E+02  0.00000000000E+00 0. -1.
</event>
<event>
 7    1  0.1465498E-013  0.7246152E+02  0.7816164E-02  0.1226708E+00
        -11   -1    0    0    0    0  0.00000000000E+00  0.00000000000E+00  0.45593999997E+02  0.45594000000E+02  0.51100000000E-03 0.  1.
         11   -1    0    0    0    0 -0.00000000000E+00 -0.00000000000E+00 -0.45593999997E+02  0.45594000000E+02  0.51100000000E-03 0. -1.
    9900012    2    1    2    0    0  0.50288397576E+01  0.19825057429E+01  0.17929346272E+02  0.72461520991E+02  0.69999935774E+02 0.  0.
         12    1    1    2    0    0 -0.50288397576E+01 -0.19825057429E+01 -0.17929346272E+02  0.18726479009E+02  0.00000000000E+00 0. -1.
         11    1    3    3    0    0 -0.71240232913E+01 -0.12226122742E+02 -0.57564653138E+01  0.15276343749E+02  0.51100000000E-03 0. -1.
        -11    1    3    3    0    0  0.18011694354E+02  0.26478684751E+02  0.26447565209E+01  0.32133107801E+02  0.51100000000E-03 0.  1.
         12    1    3    3    0    0 -0.58588313052E+01 -0.12270056266E+02  0.21041055065E+02  0.25052069441E+02  0.00000000000E+00 0. -1.
</event>
<event>
 7    1  0.1465498E-013  0.7246156E+02  0.7816164E-02  0.1226708E+00
        -11   -1    0    0    0    0  0.00000000000E+00  0.00000000000E+00  0.45593999997E+02  0.45594000000E+02  0.51100000000E-03 0. -1.
         11   -1    0    0    0    0 -0.00000000000E+00 -0.00000000000E+00 -0.45593999997E+02  0.45594000000E+02  0.51100000000E-03 0.  1.
    9900012    2    1    2    0    0  0.12049621817E+02  0.34737220306E+01  0.13907528692E+02  0.72461561871E+02  0.69999989027E+02 0.  0.
         12    1    1    2    0    0 -0.12049621817E+02 -0.34737220306E+01 -0.13907528692E+02  0.18726438129E+02  0.00000000000E+00 0. -1.
         11    1    3    3    0    0  0.24329989478E+02  0.27756403594E+02  0.13960989758E+02  0.39462330947E+02  0.51100000000E-03 0.  1.
        -11    1    3    3    0    0 -0.69632053819E+01 -0.13809558002E+02  0.92452219620E+01  0.18018441963E+02  0.51100000000E-03 0. -1.
        -12    1    3    3    0    0 -0.53171622795E+01 -0.10473123561E+02 -0.92986830281E+01  0.14980788961E+02  0.00000000000E+00 0.  1.
</event>
<event>
 7    1  0.1465498E-013  0.7246157E+02  0.7816164E-02  0.1226708E+00
        -11   -1    0    0    0    0  0.00000000000E+00  0.00000000000E+00  0.45593999997E+02  0.45594000000E+02  0.51100000000E-03 0.  1.
         11   -1    0    0    0    0 -0.00000000000E+00 -0.00000000000E+00 -0.45593999997E+02  0.45594000000E+02  0.51100000000E-03 0. -1.
    9900012    2    1    2    0    0 -0.17411843759E+02 -0.52113976080E+01  0.45109185303E+01  0.72461565366E+02  0.69999993580E+02 0.  0.
         12    1    1    2    0    0  0.17411843759E+02  0.52113976080E+01 -0.45109185303E+01  0.18726434634E+02  0.00000000000E+00 0. -1.
         11    1    3    3    0    0 -0.14982284972E+02 -0.15969414283E+01  0.99282927085E+01  0.18044114865E+02  0.51100000000E-03 0. -1.
        -11    1    3    3    0    0  0.14214582102E+02  0.42436252361E+01  0.18832547716E+02  0.23973476035E+02  0.51100000000E-03 0.  1.
         12    1    3    3    0    0 -0.16644140889E+02 -0.78580814158E+01 -0.24249921894E+02  0.30443974466E+02  0.00000000000E+00 0. -1.
</event>
<event>
 7    1  0.1465498E-013  0.7246156E+02  0.7816164E-02  0.1226708E+00
        -11   -1    0    0    0    0  0.00000000000E+00  0.00000000000E+00  0.45593999997E+02  0.45594000000E+02  0.51100000000E-03 0. -1.
         11   -1    0    0    0    0 -0.00000000000E+00 -0.00000000000E+00 -0.45593999997E+02  0.45594000000E+02  0.51100000000E-03 0.  1.
    9900012    2    1    2    0    0  0.16015059212E+02  0.91182736328E+01  0.33248420570E+01  0.72461558525E+02  0.69999984669E+02 0.  0.
         12    1    1    2    0    0 -0.16015059212E+02 -0.91182736328E+01 -0.33248420570E+01  0.18726441475E+02  0.00000000000E+00 0. -1.
         11    1    3    3    0    0 -0.95533554943E+01  0.30293344665E+01  0.48387628756E+01  0.11129110249E+02  0.51100000000E-03 0. -1.
        -11    1    3    3    0    0  0.26275431402E+02  0.22810810010E+02 -0.16824000468E+02  0.38649428724E+02  0.51100000000E-03 0.  1.
         12    1    3    3    0    0 -0.70701669610E+00 -0.16721870844E+02  0.15310079649E+02  0.22683019552E+02  0.00000000000E+00 0. -1.
</event>
<event>
 7    1  0.1465498E-013  0.7246157E+02  0.7816164E-02  0.1226708E+00
        -11   -1    0    0    0    0  0.00000000000E+00  0.00000000000E+00  0.45593999997E+02  0.45594000000E+02  0.51100000000E-03 0.  1.
         11   -1    0    0    0    0 -0.00000000000E+00 -0.00000000000E+00 -0.45593999997E+02  0.45594000000E+02  0.51100000000E-03 0. -1.
    9900012    2    1    2    0    0 -0.16075005572E+02  0.96052201024E+01  0.11387130162E+00  0.72461574179E+02  0.70000005060E+02 0.  0.
         12    1    1    2    0    0  0.16075005572E+02 -0.96052201024E+01 -0.11387130162E+00  0.18726425821E+02  0.00000000000E+00 0. -1.
         11    1    3    3    0    0 -0.18676542957E+01  0.26892316423E+01 -0.22912784502E+01  0.39962553211E+01  0.51100000000E-03 0. -1.
        -11    1    3    3    0    0 -0.41075188154E+02  0.62066782283E+01  0.18390294758E+01  0.41582159229E+02  0.51100000000E-03 0.  1.
         12    1    3    3    0    0  0.26867836877E+02  0.70931023181E+00  0.56612027593E+00  0.26883159629E+02  0.00000000000E+00 0. -1.
</event>
<event>
 7    1  0.1465498E-013  0.7246158E+02  0.7816164E-02  0.1226708E+00
        -11   -1    0    0    0    0  0.00000000000E+00  0.00000000000E+00  0.45593999997E+02  0.45594000000E+02  0.51100000000E-03 0.  1.
         11   -1    0    0    0    0 -0.00000000000E+00 -0.00000000000E+00 -0.45593999997E+02  0.45594000000E+02  0.51100000000E-03 0. -1.
    9900012    2    1    2    0    0  0.61127624681E+01 -0.84853520250E+01  0.15534215473E+02  0.72461577108E+02  0.70000008876E+02 0.  0.
         12    1    1    2    0    0 -0.61127624681E+01  0.84853520250E+01 -0.15534215473E+02  0.18726422892E+02  0.00000000000E+00 0. -1.
         11    1    3    3    0    0  0.74210224944E+01 -0.53359778628E+01  0.14940802163E+02  0.17514902345E+02  0.51100000000E-03 0. -1.
        -11    1    3    3    0    0  0.48546690867E+01 -0.26503770342E+02  0.10394309660E+02  0.28880085316E+02  0.51100000000E-03 0.  1.
         12    1    3    3    0    0 -0.61629291130E+01  0.23354396180E+02 -0.98008963494E+01  0.26066589448E+02  0.00000000000E+00 0. -1.
</event>
<event>
 7    1  0.1465498E-013  0.7246157E+02  0.7816164E-02  0.1226708E+00
        -11   -1    0    0    0    0  0.00000000000E+00  0.00000000000E+00  0.45593999997E+02  0.45594000000E+02  0.51100000000E-03 0.  1.
         11   -1    0    0    0    0 -0.00000000000E+00 -0.00000000000E+00 -0.45593999997E+02  0.45594000000E+02  0.51100000000E-03 0. -1.
    9900012    2    1    2    0    0 -0.81577051116E+01  0.58970882625E+01  0.15790989770E+02  0.72461570533E+02  0.70000000311E+02 0.  0.
         12    1    1    2    0    0  0.81577051116E+01 -0.58970882625E+01 -0.15790989770E+02  0.18726429467E+02  0.00000000000E+00 0. -1.
         11    1    3    3    0    0  0.29002165467E+02 -0.48701726281E+01  0.47537278187E+01  0.29789966627E+02  0.51100000000E-03 0. -1.
        -11    1    3    3    0    0 -0.74093704279E+00 -0.22082230024E+01 -0.37913433700E+00  0.23598685633E+01  0.51100000000E-03 0.  1.
        -12    1    3    3    0    0 -0.36418933536E+02  0.12975483893E+02  0.11416396288E+02  0.40311735343E+02  0.00000000000E+00 0.  1.
</event>
<event>
 7    1  0.1465498E-013  0.7246171E+02  0.7816164E-02  0.1226708E+00
        -11   -1    0    0    0    0  0.00000000000E+00  0.00000000000E+00  0.45593999997E+02  0.45594000000E+02  0.51100000000E-03 0. -1.
         11   -1    0    0    0    0 -0.00000000000E+00 -0.00000000000E+00 -0.45593999997E+02  0.45594000000E+02  0.51100000000E-03 0.  1.
    9900012    2    1    2    0    0  0.16838001349E+02  0.42334982165E+01 -0.70166403368E+01  0.72461707302E+02  0.70000178478E+02 0.  0.
         12    1    1    2    0    0 -0.16838001349E+02 -0.42334982165E+01  0.70166403368E+01  0.18726292698E+02  0.00000000000E+00 0. -1.
         11    1    3    3    0    0  0.11522785118E+02 -0.32963820919E+01 -0.28361551119E+01  0.12316025652E+02  0.51100000000E-03 0. -1.
        -11    1    3    3    0    0 -0.34159641988E+01 -0.16262928990E+02 -0.23144075885E+02  0.28492102758E+02  0.51100000000E-03 0.  1.
         12    1    3    3    0    0  0.87311804298E+01  0.23792809298E+02  0.18963590660E+02  0.31653578893E+02  0.00000000000E+00 0. -1.
</event>
<event>
 7    1  0.1465498E-013  0.7246157E+02  0.7816164E-02  0.1226708E+00
        -11   -1    0    0    0    0  0.00000000000E+00  0.00000000000E+00  0.45593999997E+02  0.45594000000E+02  0.51100000000E-03 0. -1.
         11   -1    0    0    0    0 -0.00000000000E+00 -0.00000000000E+00 -0.45593999997E+02  0.45594000000E+02  0.51100000000E-03 0.  1.
    9900012    2    1    2    0    0 -0.11981399037E+01  0.45721075447E+01 -0.18120144532E+02  0.72461565622E+02  0.69999993914E+02 0.  0.
         12    1    1    2    0    0  0.11981399037E+01 -0.45721075447E+01  0.18120144532E+02  0.18726434378E+02  0.00000000000E+00 0. -1.
         11    1    3    3    0    0 -0.12204608937E+02  0.73206513714E+01 -0.15252616862E+02  0.20861129816E+02  0.51100000000E-03 0. -1.
        -11    1    3    3    0    0  0.27232892626E+02 -0.11896519460E+02 -0.10431775368E+02  0.31495706908E+02  0.51100000000E-03 0.  1.
         12    1    3    3    0    0 -0.16226423593E+02  0.91479756336E+01  0.75642476979E+01  0.20104728898E+02  0.00000000000E+00 0. -1.
</event>
<event>
 7    1  0.1465498E-013  0.7246190E+02  0.7816164E-02  0.1226707E+00
        -11   -1    0    0    0    0  0.00000000000E+00  0.00000000000E+00  0.45593999997E+02  0.45594000000E+02  0.51100000000E-03 0.  1.
         11   -1    0    0    0    0 -0.00000000000E+00 -0.00000000000E+00 -0.45593999997E+02  0.45594000000E+02  0.51100000000E-03 0. -1.
    9900012    2    1    2    0    0  0.47169660181E+01  0.18122130223E+02  0.73125315984E-01  0.72461902715E+02  0.70000433038E+02 0.  0.
         12    1    1    2    0    0 -0.47169660181E+01 -0.18122130223E+02 -0.73125315984E-01  0.18726097285E+02  0.00000000000E+00 0. -1.
         11    1    3    3    0    0 -0.14869143079E+02  0.16650217179E+02 -0.10043551103E+02  0.24478440862E+02  0.51100000000E-03 0. -1.
        -11    1    3    3    0    0  0.15835461111E+02  0.21183549639E+02  0.88051487238E+01  0.27875351984E+02  0.51100000000E-03 0.  1.
        -12    1    3    3    0    0  0.37506479861E+01 -0.19711636596E+02  0.13115276951E+01  0.20108109869E+02  0.00000000000E+00 0.  1.
</event>
<event>
 7    1  0.1465498E-013  0.7246135E+02  0.7816164E-02  0.1226709E+00
        -11   -1    0    0    0    0  0.00000000000E+00  0.00000000000E+00  0.45593999997E+02  0.45594000000E+02  0.51100000000E-03 0.  1.
         11   -1    0    0    0    0 -0.00000000000E+00 -0.00000000000E+00 -0.45593999997E+02  0.45594000000E+02  0.51100000000E-03 0. -1.
    9900012    2    1    2    0    0  0.95904182165E+01 -0.15828763611E+02  0.28568105724E+01  0.72461354661E+02  0.69999719097E+02 0.  0.
         12    1    1    2    0    0 -0.95904182165E+01  0.15828763611E+02 -0.28568105724E+01  0.18726645339E+02  0.00000000000E+00 0. -1.
         11    1    3    3    0    0 -0.10187264885E+02  0.21402107328E+01 -0.17059168205E+02  0.19984396111E+02  0.51100000000E-03 0. -1.
        -11    1    3    3    0    0 -0.10294635141E+01  0.73076100604E+01  0.18261372798E+02  0.19696159439E+02  0.51100000000E-03 0.  1.
        -12    1    3    3    0    0  0.20807146615E+02 -0.25276584404E+02  0.16546059790E+01  0.32780799111E+02  0.00000000000E+00 0.  1.
</event>
<event>
 7    1  0.1465498E-013  0.7246144E+02  0.7816164E-02  0.1226708E+00
        -11   -1    0    0    0    0  0.00000000000E+00  0.00000000000E+00  0.45593999997E+02  0.45594000000E+02  0.51100000000E-03 0. -1.
         11   -1    0    0    0    0 -0.00000000000E+00 -0.00000000000E+00 -0.45593999997E+02  0.45594000000E+02  0.51100000000E-03 0.  1.
    9900012    2    1    2    0    0  0.13643575772E+02 -0.58173002884E+01 -0.11432231365E+02  0.72461439812E+02  0.69999830023E+02 0.  0.
         12    1    1    2    0    0 -0.13643575772E+02  0.58173002884E+01  0.11432231365E+02  0.18726560188E+02  0.00000000000E+00 0. -1.
         11    1    3    3    0    0 -0.26408144470E+00 -0.19695082245E+02 -0.10185047713E+02  0.22174336536E+02  0.51100000000E-03 0. -1.
        -11    1    3    3    0    0 -0.37073043083E+01  0.21728270037E+02 -0.14946109446E+02  0.26631710645E+02  0.51100000000E-03 0.  1.
         12    1    3    3    0    0  0.17614961525E+02 -0.78504880810E+01  0.13698925794E+02  0.23655392631E+02  0.00000000000E+00 0. -1.
</event>
<event>
 7    1  0.1465498E-013  0.7246158E+02  0.7816164E-02  0.1226708E+00
        -11   -1    0    0    0    0  0.00000000000E+00  0.00000000000E+00  0.45593999997E+02  0.45594000000E+02  0.51100000000E-03 0. -1.
         11   -1    0    0    0    0 -0.00000000000E+00 -0.00000000000E+00 -0.45593999997E+02  0.45594000000E+02  0.51100000000E-03 0.  1.
    9900012    2    1    2    0    0 -0.65654748667E+01  0.11326790637E+02 -0.13389437014E+02  0.72461583634E+02  0.70000017378E+02 0.  0.
         12    1    1    2    0    0  0.65654748667E+01 -0.11326790637E+02  0.13389437014E+02  0.18726416366E+02  0.00000000000E+00 0. -1.
         11    1    3    3    0    0  0.22774012361E+02  0.13910874830E+01 -0.71612425711E+01  0.23913890499E+02  0.51100000000E-03 0. -1.
        -11    1    3    3    0    0  0.42972924268E+01 -0.86702360082E+01 -0.56755206662E+00  0.96933910604E+01  0.51100000000E-03 0.  1.
        -12    1    3    3    0    0 -0.33636779654E+02  0.18605939162E+02 -0.56606423760E+01  0.38854302075E+02  0.00000000000E+00 0.  1.
</event>
<event>
 7    1  0.1465498E-013  0.7246155E+02  0.7816164E-02  0.1226708E+00
        -11   -1    0    0    0    0  0.00000000000E+00  0.00000000000E+00  0.45593999997E+02  0.45594000000E+02  0.51100000000E-03 0.  1.
         11   -1    0    0    0    0 -0.00000000000E+00 -0.00000000000E+00 -0.45593999997E+02  0.45594000000E+02  0.51100000000E-03 0. -1.
    9900012    2    1    2    0    0 -0.50249165938E+01 -0.17087332076E+02  0.57838898792E+01  0.72461545813E+02  0.69999968109E+02 0.  0.
         12    1    1    2    0    0  0.50249165938E+01  0.17087332076E+02 -0.57838898792E+01  0.18726454187E+02  0.00000000000E+00 0. -1.
         11    1    3    3    0    0 -0.70284032288E+01 -0.67074139805E+01 -0.13439207279E+02  0.16583128378E+02  0.51100000000E-03 0. -1.
        -11    1    3    3    0    0 -0.21226304435E+02 -0.17969385038E+02  0.12769291863E+02  0.30602444568E+02  0.51100000000E-03 0.  1.
        -12    1    3    3    0    0  0.23229791070E+02  0.75894669425E+01  0.64538052944E+01  0.25275972867E+02  0.00000000000E+00 0.  1.
</event>
<event>
 7    1  0.1465498E-013  0.7246156E+02  0.7816164E-02  0.1226708E+00
        -11   -1    0    0    0    0  0.00000000000E+00  0.00000000000E+00  0.45593999997E+02  0.45594000000E+02  0.51100000000E-03 0. -1.
         11   -1    0    0    0    0 -0.00000000000E+00 -0.00000000000E+00 -0.45593999997E+02  0.45594000000E+02  0.51100000000E-03 0.  1.
    9900012    2    1    2    0    0 -0.16354823597E+02 -0.11873689860E+01 -0.90437435713E+01  0.72461564199E+02  0.69999992060E+02 0.  0.
         12    1    1    2    0    0  0.16354823597E+02  0.11873689860E+01  0.90437435713E+01  0.18726435801E+02  0.00000000000E+00 0. -1.
         11    1    3    3    0    0 -0.74340382100E+01  0.33076609263E+02 -0.17684909465E+01  0.33947821210E+02  0.51100000000E-03 0. -1.
        -11    1    3    3    0    0 -0.42668121449E+01 -0.12063334652E+01 -0.70671962543E+00  0.44900310912E+01  0.51100000000E-03 0.  1.
        -12    1    3    3    0    0 -0.46539732424E+01 -0.33057644783E+02 -0.65685329994E+01  0.34023711898E+02  0.00000000000E+00 0.  1.
</event>
<event>
 7    1  0.1465498E-013  0.7246158E+02  0.7816164E-02  0.1226708E+00
        -11   -1    0    0    0    0  0.00000000000E+00  0.00000000000E+00  0.45593999997E+02  0.45594000000E+02  0.51100000000E-03 0.  1.
         11   -1    0    0    0    0 -0.00000000000E+00 -0.00000000000E+00 -0.45593999997E+02  0.45594000000E+02  0.51100000000E-03 0. -1.
    9900012    2    1    2    0    0  0.97436405816E+01  0.90608121367E+01  0.13177327495E+02  0.72461579940E+02  0.70000012565E+02 0.  0.
         12    1    1    2    0    0 -0.97436405816E+01 -0.90608121367E+01 -0.13177327495E+02  0.18726420060E+02  0.00000000000E+00 0. -1.
         11    1    3    3    0    0  0.14939923369E+02  0.44138869815E-02  0.26342525705E+02  0.30284154116E+02  0.51100000000E-03 0. -1.
        -11    1    3    3    0    0 -0.29156979117E+01  0.70098154725E+01  0.13418686595E+02  0.15417521120E+02  0.51100000000E-03 0.  1.
         12    1    3    3    0    0 -0.22805848758E+01  0.20465827773E+01 -0.26583884805E+02  0.26759904704E+02  0.00000000000E+00 0. -1.
</event>
<event>
 7    1  0.1465498E-013  0.7246159E+02  0.7816164E-02  0.1226708E+00
        -11   -1    0    0    0    0  0.00000000000E+00  0.00000000000E+00  0.45593999997E+02  0.45594000000E+02  0.51100000000E-03 0.  1.
         11   -1    0    0    0    0 -0.00000000000E+00 -0.00000000000E+00 -0.45593999997E+02  0.45594000000E+02  0.51100000000E-03 0. -1.
    9900012    2    1    2    0    0 -0.11551017739E+02 -0.11620505250E+02  0.90673248845E+01  0.72461587273E+02  0.70000022118E+02 0.  0.
         12    1    1    2    0    0  0.11551017739E+02  0.11620505250E+02 -0.90673248845E+01  0.18726412727E+02  0.00000000000E+00 0. -1.
         11    1    3    3    0    0  0.24708144241E+02 -0.13508106010E+01  0.10882069536E+02  0.27032138628E+02  0.51100000000E-03 0. -1.
        -11    1    3    3    0    0  0.14753486600E+01  0.44835241914E+01 -0.13554381113E+01  0.49107897102E+01  0.51100000000E-03 0.  1.
        -12    1    3    3    0    0 -0.37734510640E+02 -0.14753218840E+02 -0.45930653977E+00  0.40518658935E+02  0.00000000000E+00 0.  1.
</event>
<event>
 7    1  0.1465498E-013  0.7246102E+02  0.7816164E-02  0.1226709E+00
        -11   -1    0    0    0    0  0.00000000000E+00  0.00000000000E+00  0.45593999997E+02  0.45594000000E+02  0.51100000000E-03 0. -1.
         11   -1    0    0    0    0 -0.00000000000E+00 -0.00000000000E+00 -0.45593999997E+02  0.45594000000E+02  0.51100000000E-03 0.  1.
    9900012    2    1    2    0    0 -0.13086858935E+02 -0.35142266874E+00 -0.13390685024E+02  0.72461018928E+02  0.69999281739E+02 0.  0.
         12    1    1    2    0    0  0.13086858935E+02  0.35142266874E+00  0.13390685024E+02  0.18726981072E+02  0.00000000000E+00 0. -1.
         11    1    3    3    0    0 -0.93407399220E+01 -0.21443791620E+02 -0.50203068180E+01  0.23922564707E+02  0.51100000000E-03 0. -1.
        -11    1    3    3    0    0  0.13620530609E+01 -0.11456095912E+02 -0.10395446382E+02  0.15529411702E+02  0.51100000000E-03 0.  1.
         12    1    3    3    0    0 -0.51081720736E+01  0.32548464863E+02  0.20250681758E+01  0.33009042519E+02  0.00000000000E+00 0. -1.
</event>
<event>
 7    1  0.1465498E-013  0.7246162E+02  0.7816164E-02  0.1226708E+00
        -11   -1    0    0    0    0  0.00000000000E+00  0.00000000000E+00  0.45593999997E+02  0.45594000000E+02  0.51100000000E-03 0.  1.
         11   -1    0    0    0    0 -0.00000000000E+00 -0.00000000000E+00 -0.45593999997E+02  0.45594000000E+02  0.51100000000E-03 0. -1.
    9900012    2    1    2    0    0  0.39668459856E+01  0.16745095985E+02  0.73853393066E+01  0.72461619056E+02  0.70000063520E+02 0.  0.
         12    1    1    2    0    0 -0.39668459856E+01 -0.16745095985E+02 -0.73853393066E+01  0.18726380944E+02  0.00000000000E+00 0. -1.
         11    1    3    3    0    0 -0.82942699129E+01 -0.17260314418E+02  0.18798865021E+02  0.26834878303E+02  0.51100000000E-03 0. -1.
        -11    1    3    3    0    0 -0.32727868955E+01  0.33614764687E+01  0.55860136043E+01  0.72948068077E+01  0.51100000000E-03 0.  1.
         12    1    3    3    0    0  0.15533902794E+02  0.30643933934E+02 -0.16999539318E+02  0.38331933945E+02  0.00000000000E+00 0. -1.
</event>
<event>
 7    1  0.1465498E-013  0.7246157E+02  0.7816164E-02  0.1226708E+00
        -11   -1    0    0    0    0  0.00000000000E+00  0.00000000000E+00  0.45593999997E+02  0.45594000000E+02  0.51100000000E-03 0. -1.
         11   -1    0    0    0    0 -0.00000000000E+00 -0.00000000000E+00 -0.45593999997E+02  0.45594000000E+02  0.51100000000E-03 0.  1.
    9900012    2    1    2    0    0 -0.19963564900E+01 -0.82969287988E+00 -0.18601218294E+02  0.72461570775E+02  0.70000000626E+02 0.  0.
         12    1    1    2    0    0  0.19963564900E+01  0.82969287988E+00  0.18601218294E+02  0.18726429225E+02  0.00000000000E+00 0. -1.
         11    1    3    3    0    0 -0.72009754242E+01  0.28781836836E+01 -0.26663233295E+02  0.27768075165E+02  0.51100000000E-03 0.  1.
        -11    1    3    3    0    0 -0.13754787900E+02  0.11592443887E+02  0.93950548497E+01  0.20293989291E+02  0.51100000000E-03 0. -1.
        -12    1    3    3    0    0  0.18959406834E+02 -0.15300320450E+02 -0.13330398482E+01  0.24399506319E+02  0.00000000000E+00 0.  1.
</event>
<event>
 7    1  0.1465498E-013  0.7246159E+02  0.7816164E-02  0.1226708E+00
        -11   -1    0    0    0    0  0.00000000000E+00  0.00000000000E+00  0.45593999997E+02  0.45594000000E+02  0.51100000000E-03 0. -1.
         11   -1    0    0    0    0 -0.00000000000E+00 -0.00000000000E+00 -0.45593999997E+02  0.45594000000E+02  0.51100000000E-03 0.  1.
    9900012    2    1    2    0    0  0.36984881315E+01 -0.10643672985E+02 -0.14956994859E+02  0.72461593930E+02  0.70000030790E+02 0.  0.
         12    1    1    2    0    0 -0.36984881315E+01  0.10643672985E+02  0.14956994859E+02  0.18726406070E+02  0.00000000000E+00 0. -1.
         11    1    3    3    0    0 -0.94606071497E+01 -0.57706058954E+01  0.21269804855E+02  0.23983485545E+02  0.51100000000E-03 0. -1.
        -11    1    3    3    0    0 -0.12277698253E+01  0.80948899664E+01 -0.96127517840E+00  0.82437074512E+01  0.51100000000E-03 0.  1.
         12    1    3    3    0    0  0.14386865106E+02 -0.12967957056E+02 -0.35265524536E+02  0.40234400935E+02  0.00000000000E+00 0. -1.
</event>
<event>
 7    1  0.1465498E-013  0.7246155E+02  0.7816164E-02  0.1226708E+00
        -11   -1    0    0    0    0  0.00000000000E+00  0.00000000000E+00  0.45593999997E+02  0.45594000000E+02  0.51100000000E-03 0. -1.
         11   -1    0    0    0    0 -0.00000000000E+00 -0.00000000000E+00 -0.45593999997E+02  0.45594000000E+02  0.51100000000E-03 0.  1.
    9900012    2    1    2    0    0 -0.21284294999E+01  0.74432947596E+01 -0.17051302235E+02  0.72461554611E+02  0.69999979569E+02 0.  0.
         12    1    1    2    0    0  0.21284294999E+01 -0.74432947596E+01  0.17051302235E+02  0.18726445389E+02  0.00000000000E+00 0. -1.
         11    1    3    3    0    0  0.14518152979E+02  0.57072112725E+01 -0.36917185042E+01  0.16030527508E+02  0.51100000000E-03 0. -1.
        -11    1    3    3    0    0 -0.14092217887E+02  0.17589251494E+02 -0.27134911485E+02  0.35274293681E+02  0.51100000000E-03 0.  1.
         12    1    3    3    0    0 -0.25543645914E+01 -0.15853168007E+02  0.13775327755E+02  0.21156733422E+02  0.00000000000E+00 0. -1.
</event>
<event>
 7    1  0.1465498E-013  0.7246153E+02  0.7816164E-02  0.1226708E+00
        -11   -1    0    0    0    0  0.00000000000E+00  0.00000000000E+00  0.45593999997E+02  0.45594000000E+02  0.51100000000E-03 0. -1.
         11   -1    0    0    0    0 -0.00000000000E+00 -0.00000000000E+00 -0.45593999997E+02  0.45594000000E+02  0.51100000000E-03 0.  1.
    9900012    2    1    2    0    0  0.83175785683E+01 -0.15864917549E+02 -0.54592245926E+01  0.72461525285E+02  0.69999941367E+02 0.  0.
         12    1    1    2    0    0 -0.83175785683E+01  0.15864917549E+02  0.54592245926E+01  0.18726474715E+02  0.00000000000E+00 0. -1.
         11    1    3    3    0    0  0.85229696550E+01 -0.13428389775E+02 -0.24280132906E+02  0.29025635529E+02  0.51100000000E-03 0. -1.
        -11    1    3    3    0    0  0.53179317092E+01  0.15521087199E+02 -0.59563348545E+00  0.16417652847E+02  0.51100000000E-03 0.  1.
         12    1    3    3    0    0 -0.55233227960E+01 -0.17957614974E+02  0.19416541799E+02  0.27018236909E+02  0.00000000000E+00 0. -1.
</event>
<event>
 7    1  0.1465498E-013  0.7246162E+02  0.7816164E-02  0.1226708E+00
        -11   -1    0    0    0    0  0.00000000000E+00  0.00000000000E+00  0.45593999997E+02  0.45594000000E+02  0.51100000000E-03 0.  1.
         11   -1    0    0    0    0 -0.00000000000E+00 -0.00000000000E+00 -0.45593999997E+02  0.45594000000E+02  0.51100000000E-03 0. -1.
    9900012    2    1    2    0    0 -0.39698936284E-01 -0.14103239212E+02  0.12319677489E+02  0.72461617922E+02  0.70000062044E+02 0.  0.
         12    1    1    2    0    0  0.39698936284E-01  0.14103239212E+02 -0.12319677489E+02  0.18726382078E+02  0.00000000000E+00 0. -1.
         11    1    3    3    0    0  0.43723340136E+01 -0.40931778642E+01  0.16065006754E+02  0.17145140770E+02  0.51100000000E-03 0. -1.
        -11    1    3    3    0    0  0.23774511715E+02 -0.11537866975E+02 -0.56529680234E+01  0.27024171205E+02  0.51100000000E-03 0.  1.
         12    1    3    3    0    0 -0.28186544665E+02  0.15278056268E+01  0.19076387584E+01  0.28292305947E+02  0.00000000000E+00 0. -1.
</event>
<event>
 7    1  0.1465498E-013  0.7246155E+02  0.7816164E-02  0.1226708E+00
        -11   -1    0    0    0    0  0.00000000000E+00  0.00000000000E+00  0.45593999997E+02  0.45594000000E+02  0.51100000000E-03 0.  1.
         11   -1    0    0    0    0 -0.00000000000E+00 -0.00000000000E+00 -0.45593999997E+02  0.45594000000E+02  0.51100000000E-03 0. -1.
    9900012    2    1    2    0    0 -0.48243315072E+00  0.59388721592E+01  0.17753226234E+02  0.72461548495E+02  0.69999971602E+02 0.  0.
         12    1    1    2    0    0  0.48243315072E+00 -0.59388721592E+01 -0.17753226234E+02  0.18726451505E+02  0.00000000000E+00 0. -1.
         11    1    3    3    0    0 -0.21507925239E+00  0.97315323560E+00 -0.67401738687E+01  0.68134594991E+01  0.51100000000E-03 0. -1.
        -11    1    3    3    0    0  0.29181451114E+02 -0.38429554825E+01  0.69004317131E+01  0.30231462982E+02  0.51100000000E-03 0.  1.
         12    1    3    3    0    0 -0.29448805012E+02  0.88086744061E+01  0.17592968390E+02  0.35416626014E+02  0.00000000000E+00 0. -1.
</event>
<event>
 7    1  0.1465498E-013  0.7246178E+02  0.7816164E-02  0.1226707E+00
        -11   -1    0    0    0    0  0.00000000000E+00  0.00000000000E+00  0.45593999997E+02  0.45594000000E+02  0.51100000000E-03 0.  1.
         11   -1    0    0    0    0 -0.00000000000E+00 -0.00000000000E+00 -0.45593999997E+02  0.45594000000E+02  0.51100000000E-03 0. -1.
    9900012    2    1    2    0    0  0.67361733932E+01  0.48190016280E+01  0.16795014187E+02  0.72461780141E+02  0.70000273364E+02 0.  0.
         12    1    1    2    0    0 -0.67361733932E+01 -0.48190016280E+01 -0.16795014187E+02  0.18726219859E+02  0.00000000000E+00 0. -1.
         11    1    3    3    0    0  0.63182220499E+01  0.21339901282E+02 -0.69458863357E+01  0.23314301488E+02  0.51100000000E-03 0. -1.
        -11    1    3    3    0    0 -0.15000037357E+02  0.52997683260E+01  0.12177406078E+02  0.20034417488E+02  0.51100000000E-03 0.  1.
        -12    1    3    3    0    0  0.15417988700E+02 -0.21820667980E+02  0.11563494445E+02  0.29113061166E+02  0.00000000000E+00 0.  1.
</event>
<event>
 7    1  0.2741248E-013  0.7246148E+02  0.7816164E-02  0.1226708E+00
        -11   -1    0    0    0    0  0.00000000000E+00  0.00000000000E+00  0.45593999997E+02  0.45594000000E+02  0.51100000000E-03 0. -1.
         11   -1    0    0    0    0 -0.00000000000E+00 -0.00000000000E+00 -0.45593999997E+02  0.45594000000E+02  0.51100000000E-03 0.  1.
    9900012    2    1    2    0    0  0.71157034202E+01 -0.44495175708E+01 -0.16740702986E+02  0.72461479281E+02  0.69999881438E+02 0.  0.
         12    1    1    2    0    0 -0.71157034202E+01  0.44495175708E+01  0.16740702986E+02  0.18726520719E+02  0.00000000000E+00 0. -1.
         11    1    3    3    0    0 -0.17599078085E+02  0.46673027328E+01  0.89481467513E+01  0.20287449194E+02  0.51100000000E-03 0. -1.
        -11    1    3    3    0    0  0.10710016597E+02 -0.16979496962E+02  0.19894100027E+01  0.20173386553E+02  0.51100000000E-03 0.  1.
        -12    1    3    3    0    0  0.14004764909E+02  0.78626766582E+01 -0.27678259740E+02  0.32000643534E+02  0.00000000000E+00 0.  1.
</event>
<event>
 7    1  0.1465498E-013  0.7246152E+02  0.7816164E-02  0.1226708E+00
        -11   -1    0    0    0    0  0.00000000000E+00  0.00000000000E+00  0.45593999997E+02  0.45594000000E+02  0.51100000000E-03 0.  1.
         11   -1    0    0    0    0 -0.00000000000E+00 -0.00000000000E+00 -0.45593999997E+02  0.45594000000E+02  0.51100000000E-03 0. -1.
    9900012    2    1    2    0    0  0.28853265628E+01  0.16073199851E+02 -0.91655974788E+01  0.72461520353E+02  0.69999934942E+02 0.  0.
         12    1    1    2    0    0 -0.28853265628E+01 -0.16073199851E+02  0.91655974788E+01  0.18726479647E+02  0.00000000000E+00 0. -1.
         11    1    3    3    0    0 -0.73519585849E+01 -0.14405105225E+01  0.47509879050E+00  0.75068025631E+01  0.51100000000E-03 0. -1.
        -11    1    3    3    0    0 -0.23271371494E+02  0.19215451998E+02 -0.51385310758E+00  0.30183677244E+02  0.51100000000E-03 0.  1.
         12    1    3    3    0    0  0.33508656642E+02 -0.17017416239E+01 -0.91268431617E+01  0.34771040545E+02  0.00000000000E+00 0. -1.
</event>
<event>
 7    1  0.1465498E-013  0.7246157E+02  0.7816164E-02  0.1226708E+00
        -11   -1    0    0    0    0  0.00000000000E+00  0.00000000000E+00  0.45593999997E+02  0.45594000000E+02  0.51100000000E-03 0.  1.
         11   -1    0    0    0    0 -0.00000000000E+00 -0.00000000000E+00 -0.45593999997E+02  0.45594000000E+02  0.51100000000E-03 0. -1.
    9900012    2    1    2    0    0  0.56877794817E-01 -0.13060536530E+02  0.13420069593E+02  0.72461571686E+02  0.70000001812E+02 0.  0.
         12    1    1    2    0    0 -0.56877794817E-01  0.13060536530E+02 -0.13420069593E+02  0.18726428314E+02  0.00000000000E+00 0. -1.
         11    1    3    3    0    0  0.15465688449E+02  0.88229514202E+01 -0.12709444561E+02  0.21876059341E+02  0.51100000000E-03 0. -1.
        -11    1    3    3    0    0  0.45602873600E+01 -0.22726735551E+02  0.16106635724E+02  0.28226307661E+02  0.51100000000E-03 0.  1.
        -12    1    3    3    0    0 -0.19969098014E+02  0.84324760099E+00  0.10022878431E+02  0.22359204683E+02  0.00000000000E+00 0.  1.
</event>
<event>
 7    1  0.1465498E-013  0.7246156E+02  0.7816164E-02  0.1226708E+00
        -11   -1    0    0    0    0  0.00000000000E+00  0.00000000000E+00  0.45593999997E+02  0.45594000000E+02  0.51100000000E-03 0. -1.
         11   -1    0    0    0    0 -0.00000000000E+00 -0.00000000000E+00 -0.45593999997E+02  0.45594000000E+02  0.51100000000E-03 0.  1.
    9900012    2    1    2    0    0 -0.14631570998E+01 -0.17920436955E+02 -0.52341811954E+01  0.72461560346E+02  0.69999987040E+02 0.  0.
         12    1    1    2    0    0  0.14631570998E+01  0.17920436955E+02  0.52341811954E+01  0.18726439654E+02  0.00000000000E+00 0. -1.
         11    1    3    3    0    0 -0.18093450265E+02 -0.94830394001E+01  0.78026594523E+00  0.20442842120E+02  0.51100000000E-03 0. -1.
        -11    1    3    3    0    0  0.94196631778E-01 -0.26330335280E+02  0.19068355363E+01  0.26399459293E+02  0.51100000000E-03 0.  1.
         12    1    3    3    0    0  0.16536096533E+02  0.17892937725E+02 -0.79212826769E+01  0.25619258932E+02  0.00000000000E+00 0. -1.
</event>
<event>
 7    1  0.1465498E-013  0.7246158E+02  0.7816164E-02  0.1226708E+00
        -11   -1    0    0    0    0  0.00000000000E+00  0.00000000000E+00  0.45593999997E+02  0.45594000000E+02  0.51100000000E-03 0. -1.
         11   -1    0    0    0    0 -0.00000000000E+00 -0.00000000000E+00 -0.45593999997E+02  0.45594000000E+02  0.51100000000E-03 0.  1.
    9900012    2    1    2    0    0 -0.14049269108E+02 -0.32539023614E+01  0.11946079085E+02  0.72461584204E+02  0.70000018121E+02 0.  0.
         12    1    1    2    0    0  0.14049269108E+02  0.32539023614E+01 -0.11946079085E+02  0.18726415796E+02  0.00000000000E+00 0. -1.
         11    1    3    3    0    0 -0.21132636634E+02 -0.31001892791E+01  0.33338549744E+02  0.39593666210E+02  0.51100000000E-03 0. -1.
        -11    1    3    3    0    0 -0.72664685383E+01  0.55173733038E+01 -0.10870740630E+02  0.14192109614E+02  0.51100000000E-03 0.  1.
        -12    1    3    3    0    0  0.14349836064E+02 -0.56710863862E+01 -0.10521730029E+02  0.18675808381E+02  0.00000000000E+00 0.  1.
</event>
<event>
 7    1  0.1465498E-013  0.7246160E+02  0.7816164E-02  0.1226708E+00
        -11   -1    0    0    0    0  0.00000000000E+00  0.00000000000E+00  0.45593999997E+02  0.45594000000E+02  0.51100000000E-03 0. -1.
         11   -1    0    0    0    0 -0.00000000000E+00 -0.00000000000E+00 -0.45593999997E+02  0.45594000000E+02  0.51100000000E-03 0.  1.
    9900012    2    1    2    0    0  0.15188774836E+02 -0.10362966870E+02  0.35479456280E+01  0.72461604684E+02  0.70000044799E+02 0.  0.
         12    1    1    2    0    0 -0.15188774836E+02  0.10362966870E+02 -0.35479456280E+01  0.18726395316E+02  0.00000000000E+00 0. -1.
         11    1    3    3    0    0 -0.34053078129E+00 -0.28801404008E+02 -0.14127483380E+02  0.32081499668E+02  0.51100000000E-03 0. -1.
        -11    1    3    3    0    0 -0.60202987257E+01  0.69719440348E+01 -0.15076370174E+01  0.93340757447E+01  0.51100000000E-03 0.  1.
        -12    1    3    3    0    0  0.21549604343E+02  0.11466493103E+02  0.19183066025E+02  0.31046029271E+02  0.00000000000E+00 0.  1.
</event>
<event>
 7    1  0.1465498E-013  0.7246157E+02  0.7816164E-02  0.1226708E+00
        -11   -1    0    0    0    0  0.00000000000E+00  0.00000000000E+00  0.45593999997E+02  0.45594000000E+02  0.51100000000E-03 0.  1.
         11   -1    0    0    0    0 -0.00000000000E+00 -0.00000000000E+00 -0.45593999997E+02  0.45594000000E+02  0.51100000000E-03 0. -1.
    9900012    2    1    2    0    0 -0.74834640246E+01  0.31609555291E+01  0.16872621314E+02  0.72461568848E+02  0.69999998116E+02 0.  0.
         12    1    1    2    0    0  0.74834640246E+01 -0.31609555291E+01 -0.16872621314E+02  0.18726431152E+02  0.00000000000E+00 0. -1.
         11    1    3    3    0    0  0.40879852031E+01  0.39124201532E+01  0.10957346874E+02  0.12332157364E+02  0.51100000000E-03 0. -1.
        -11    1    3    3    0    0 -0.94250409555E+01 -0.99884910478E+01  0.30678724320E+02  0.33612281633E+02  0.51100000000E-03 0.  1.
         12    1    3    3    0    0 -0.21464082722E+01  0.92370264236E+01 -0.24763449879E+02  0.26517129851E+02  0.00000000000E+00 0. -1.
</event>
<event>
 7    1  0.1718364E-013  0.7246159E+02  0.7816164E-02  0.1226708E+00
        -11   -1    0    0    0    0  0.00000000000E+00  0.00000000000E+00  0.45593999997E+02  0.45594000000E+02  0.51100000000E-03 0.  1.
         11   -1    0    0    0    0 -0.00000000000E+00 -0.00000000000E+00 -0.45593999997E+02  0.45594000000E+02  0.51100000000E-03 0. -1.
    9900012    2    1    2    0    0 -0.17774177866E+02  0.18972094427E+01  0.55819130064E+01  0.72461586694E+02  0.70000021364E+02 0.  0.
         12    1    1    2    0    0  0.17774177866E+02 -0.18972094427E+01 -0.55819130064E+01  0.18726413306E+02  0.00000000000E+00 0. -1.
         11    1    3    3    0    0  0.15550844055E+02  0.10415987414E+02 -0.65778446333E+01  0.19839092341E+02  0.51100000000E-03 0. -1.
        -11    1    3    3    0    0 -0.13618608693E+02  0.13771459696E+02 -0.23689866474E+01  0.19512347447E+02  0.51100000000E-03 0.  1.
        -12    1    3    3    0    0 -0.19706413228E+02 -0.22290237667E+02  0.14528744287E+02  0.33110146906E+02  0.00000000000E+00 0.  1.
</event>
<event>
 7    1  0.1465498E-013  0.7246156E+02  0.7816164E-02  0.1226708E+00
        -11   -1    0    0    0    0  0.00000000000E+00  0.00000000000E+00  0.45593999997E+02  0.45594000000E+02  0.51100000000E-03 0.  1.
         11   -1    0    0    0    0 -0.00000000000E+00 -0.00000000000E+00 -0.45593999997E+02  0.45594000000E+02  0.51100000000E-03 0. -1.
    9900012    2    1    2    0    0 -0.94697845305E+01 -0.12355956153E+02  0.10408312389E+02  0.72461563118E+02  0.69999990652E+02 0.  0.
         12    1    1    2    0    0  0.94697845305E+01  0.12355956153E+02 -0.10408312389E+02  0.18726436882E+02  0.00000000000E+00 0. -1.
         11    1    3    3    0    0 -0.86805930170E+01  0.71199207285E+01 -0.49131445283E+01  0.12254997174E+02  0.51100000000E-03 0. -1.
        -11    1    3    3    0    0 -0.14544265286E+02  0.11171554739E+02  0.19007134022E+02  0.26412315915E+02  0.51100000000E-03 0.  1.
         12    1    3    3    0    0  0.13755073772E+02 -0.30647431620E+02 -0.36856771046E+01  0.33794250030E+02  0.00000000000E+00 0. -1.
</event>
<event>
 7    1  0.1465498E-013  0.7246148E+02  0.7816164E-02  0.1226708E+00
        -11   -1    0    0    0    0  0.00000000000E+00  0.00000000000E+00  0.45593999997E+02  0.45594000000E+02  0.51100000000E-03 0.  1.
         11   -1    0    0    0    0 -0.00000000000E+00 -0.00000000000E+00 -0.45593999997E+02  0.45594000000E+02  0.51100000000E-03 0. -1.
    9900012    2    1    2    0    0 -0.18227365344E+02 -0.30913858173E+01  0.29814359530E+01  0.72461482064E+02  0.69999885064E+02 0.  0.
         12    1    1    2    0    0  0.18227365344E+02  0.30913858173E+01 -0.29814359530E+01  0.18726517936E+02  0.00000000000E+00 0. -1.
         11    1    3    3    0    0  0.14928883178E+02  0.69649750611E+01 -0.15588839207E+02  0.22680263196E+02  0.51100000000E-03 0. -1.
        -11    1    3    3    0    0 -0.36340161426E+01 -0.11227747864E+02 -0.41503694334E+01  0.12509754679E+02  0.51100000000E-03 0.  1.
        -12    1    3    3    0    0 -0.29522232380E+02  0.11713869859E+01  0.22720644593E+02  0.37271464190E+02  0.00000000000E+00 0.  1.
</event>
<event>
 7    1  0.1465498E-013  0.7246163E+02  0.7816164E-02  0.1226708E+00
        -11   -1    0    0    0    0  0.00000000000E+00  0.00000000000E+00  0.45593999997E+02  0.45594000000E+02  0.51100000000E-03 0.  1.
         11   -1    0    0    0    0 -0.00000000000E+00 -0.00000000000E+00 -0.45593999997E+02  0.45594000000E+02  0.51100000000E-03 0. -1.
    9900012    2    1    2    0    0  0.13179827947E+02  0.56268355016E+01  0.12054367389E+02  0.72461630474E+02  0.70000078395E+02 0.  0.
         12    1    1    2    0    0 -0.13179827947E+02 -0.56268355016E+01 -0.12054367389E+02  0.18726369526E+02  0.00000000000E+00 0. -1.
         11    1    3    3    0    0  0.34642764509E+02 -0.56287172074E+01 -0.10311112448E+02  0.36580358533E+02  0.51100000000E-03 0. -1.
        -11    1    3    3    0    0 -0.77025221275E+01 -0.16800940219E+01  0.20553397393E+01  0.81471458040E+01  0.51100000000E-03 0.  1.
        -12    1    3    3    0    0 -0.13760414435E+02  0.12935646731E+02  0.20310140098E+02  0.27734126136E+02  0.00000000000E+00 0.  1.
</event>
<event>
 7    1  0.1465498E-013  0.7246163E+02  0.7816164E-02  0.1226708E+00
        -11   -1    0    0    0    0  0.00000000000E+00  0.00000000000E+00  0.45593999997E+02  0.45594000000E+02  0.51100000000E-03 0. -1.
         11   -1    0    0    0    0 -0.00000000000E+00 -0.00000000000E+00 -0.45593999997E+02  0.45594000000E+02  0.51100000000E-03 0.  1.
    9900012    2    1    2    0    0 -0.87059724115E+01  0.13050093929E+02 -0.10226332196E+02  0.72461634166E+02  0.70000083204E+02 0.  0.
         12    1    1    2    0    0  0.87059724115E+01 -0.13050093929E+02  0.10226332196E+02  0.18726365834E+02  0.00000000000E+00 0. -1.
         11    1    3    3    0    0 -0.57653856673E+01  0.59826001547E+01  0.60525227777E+01  0.10279309740E+02  0.51100000000E-03 0. -1.
        -11    1    3    3    0    0 -0.29575738411E+02  0.11161892692E+02 -0.15537921230E+02  0.35224127348E+02  0.51100000000E-03 0.  1.
        -12    1    3    3    0    0  0.26635151667E+02 -0.40943989178E+01 -0.74093374338E+00  0.26958197077E+02  0.00000000000E+00 0.  1.
</event>
<event>
 7    1  0.1465498E-013  0.7246159E+02  0.7816164E-02  0.1226708E+00
        -11   -1    0    0    0    0  0.00000000000E+00  0.00000000000E+00  0.45593999997E+02  0.45594000000E+02  0.51100000000E-03 0.  1.
         11   -1    0    0    0    0 -0.00000000000E+00 -0.00000000000E+00 -0.45593999997E+02  0.45594000000E+02  0.51100000000E-03 0. -1.
    9900012    2    1    2    0    0 -0.12731111102E+02 -0.12926033539E+02 -0.46384098683E+01  0.72461591400E+02  0.70000027494E+02 0.  0.
         12    1    1    2    0    0  0.12731111102E+02  0.12926033539E+02  0.46384098683E+01  0.18726408600E+02  0.00000000000E+00 0. -1.
         11    1    3    3    0    0  0.47576876486E+01 -0.18905370447E+02 -0.18378764639E+02  0.26792305116E+02  0.51100000000E-03 0. -1.
        -11    1    3    3    0    0 -0.41679450454E+01 -0.16401060579E+02  0.91014989063E+01  0.19214677635E+02  0.51100000000E-03 0.  1.
        -12    1    3    3    0    0 -0.13320853705E+02  0.22380397486E+02  0.46388558643E+01  0.26454608649E+02  0.00000000000E+00 0.  1.
</event>
<event>
 7    1  0.1465498E-013  0.7246153E+02  0.7816164E-02  0.1226708E+00
        -11   -1    0    0    0    0  0.00000000000E+00  0.00000000000E+00  0.45593999997E+02  0.45594000000E+02  0.51100000000E-03 0. -1.
         11   -1    0    0    0    0 -0.00000000000E+00 -0.00000000000E+00 -0.45593999997E+02  0.45594000000E+02  0.51100000000E-03 0.  1.
    9900012    2    1    2    0    0  0.11493754825E+02  0.64272194956E+01  0.13314099692E+02  0.72461526733E+02  0.69999943253E+02 0.  0.
         12    1    1    2    0    0 -0.11493754825E+02 -0.64272194956E+01 -0.13314099692E+02  0.18726473267E+02  0.00000000000E+00 0. -1.
         11    1    3    3    0    0  0.27018662356E+02  0.51601964343E+00  0.86937400689E+01  0.28387594270E+02  0.51100000000E-03 0. -1.
        -11    1    3    3    0    0 -0.88216551215E+01  0.13017727089E+02 -0.15266673600E+02  0.21916982929E+02  0.51100000000E-03 0.  1.
        -12    1    3    3    0    0 -0.67032524096E+01 -0.71065272367E+01  0.19887033223E+02  0.22156949534E+02  0.00000000000E+00 0.  1.
</event>
<event>
 7    1  0.1465498E-013  0.7246160E+02  0.7816164E-02  0.1226708E+00
        -11   -1    0    0    0    0  0.00000000000E+00  0.00000000000E+00  0.45593999997E+02  0.45594000000E+02  0.51100000000E-03 0. -1.
         11   -1    0    0    0    0 -0.00000000000E+00 -0.00000000000E+00 -0.45593999997E+02  0.45594000000E+02  0.51100000000E-03 0.  1.
    9900012    2    1    2    0    0 -0.15669121042E+02 -0.25170570142E+01  0.99408755977E+01  0.72461603180E+02  0.70000042839E+02 0.  0.
         12    1    1    2    0    0  0.15669121042E+02  0.25170570142E+01 -0.99408755977E+01  0.18726396820E+02  0.00000000000E+00 0. -1.
         11    1    3    3    0    0 -0.15592885229E+01  0.28963194980E+01  0.30299350051E+02  0.30477379499E+02  0.51100000000E-03 0. -1.
        -11    1    3    3    0    0 -0.83720295966E+01 -0.42989076228E-02  0.85816837555E+01  0.11989003061E+02  0.51100000000E-03 0.  1.
        -12    1    3    3    0    0 -0.57378029220E+01 -0.54090776046E+01 -0.28940158209E+02  0.29995220620E+02  0.00000000000E+00 0.  1.
</event>
<event>
 7    1  0.1465498E-013  0.7246223E+02  0.7816164E-02  0.1226706E+00
        -11   -1    0    0    0    0  0.00000000000E+00  0.00000000000E+00  0.45593999997E+02  0.45594000000E+02  0.51100000000E-03 0.  1.
         11   -1    0    0    0    0 -0.00000000000E+00 -0.00000000000E+00 -0.45593999997E+02  0.45594000000E+02  0.51100000000E-03 0. -1.
    9900012    2    1    2    0    0  0.12253712891E+02  0.90852837600E+00  0.14130655465E+02  0.72462233600E+02  0.70000864073E+02 0.  0.
         12    1    1    2    0    0 -0.12253712891E+02 -0.90852837600E+00 -0.14130655465E+02  0.18725766400E+02  0.00000000000E+00 0. -1.
         11    1    3    3    0    0  0.44013038203E+01 -0.15232263834E+02 -0.16677699853E+02  0.23011714614E+02  0.51100000000E-03 0. -1.
        -11    1    3    3    0    0  0.84513289184E+01 -0.86052371432E+01  0.34264820291E+01  0.12538574326E+02  0.51100000000E-03 0.  1.
        -12    1    3    3    0    0 -0.59891984823E+00  0.24746029353E+02  0.27381873289E+02  0.36911944659E+02  0.00000000000E+00 0.  1.
</event>
<event>
 7    1  0.1465498E-013  0.7246156E+02  0.7816164E-02  0.1226708E+00
        -11   -1    0    0    0    0  0.00000000000E+00  0.00000000000E+00  0.45593999997E+02  0.45594000000E+02  0.51100000000E-03 0. -1.
         11   -1    0    0    0    0 -0.00000000000E+00 -0.00000000000E+00 -0.45593999997E+02  0.45594000000E+02  0.51100000000E-03 0.  1.
    9900012    2    1    2    0    0  0.16817420833E+01 -0.66128931543E+01 -0.17439059319E+02  0.72461564081E+02  0.69999991906E+02 0.  0.
         12    1    1    2    0    0 -0.16817420833E+01  0.66128931543E+01  0.17439059319E+02  0.18726435919E+02  0.00000000000E+00 0. -1.
         11    1    3    3    0    0 -0.12969262411E+02 -0.76788518262E+01 -0.94821420221E+01  0.17806671515E+02  0.51100000000E-03 0. -1.
        -11    1    3    3    0    0 -0.73308296640E+01 -0.17963212721E+02 -0.15252763488E+02  0.24679239638E+02  0.51100000000E-03 0.  1.
         12    1    3    3    0    0  0.21981834158E+02  0.19029171393E+02  0.72958461918E+01  0.29975652928E+02  0.00000000000E+00 0. -1.
</event>
<event>
 7    1  0.1465498E-013  0.7246157E+02  0.7816164E-02  0.1226708E+00
        -11   -1    0    0    0    0  0.00000000000E+00  0.00000000000E+00  0.45593999997E+02  0.45594000000E+02  0.51100000000E-03 0.  1.
         11   -1    0    0    0    0 -0.00000000000E+00 -0.00000000000E+00 -0.45593999997E+02  0.45594000000E+02  0.51100000000E-03 0. -1.
    9900012    2    1    2    0    0  0.17737688179E+02  0.31810221461E+01  0.50926253535E+01  0.72461566361E+02  0.69999994876E+02 0.  0.
         12    1    1    2    0    0 -0.17737688179E+02 -0.31810221461E+01 -0.50926253535E+01  0.18726433639E+02  0.00000000000E+00 0. -1.
         11    1    3    3    0    0 -0.27963499088E+01 -0.13935902853E+02  0.12327867599E+01  0.14267050312E+02  0.51100000000E-03 0. -1.
        -11    1    3    3    0    0  0.74214974178E+01 -0.88689886556E+01 -0.18275464366E+02  0.21627070577E+02  0.51100000000E-03 0.  1.
        -12    1    3    3    0    0  0.13112540670E+02  0.25985913655E+02  0.22135302960E+02  0.36567445473E+02  0.00000000000E+00 0.  1.
</event>
<event>
 7    1  0.1465498E-013  0.7246095E+02  0.7816164E-02  0.1226710E+00
        -11   -1    0    0    0    0  0.00000000000E+00  0.00000000000E+00  0.45593999997E+02  0.45594000000E+02  0.51100000000E-03 0.  1.
         11   -1    0    0    0    0 -0.00000000000E+00 -0.00000000000E+00 -0.45593999997E+02  0.45594000000E+02  0.51100000000E-03 0. -1.
    9900012    2    1    2    0    0 -0.11916519171E+02  0.65714036146E+01  0.12865290075E+02  0.72460948354E+02  0.69999189803E+02 0.  0.
         12    1    1    2    0    0  0.11916519171E+02 -0.65714036146E+01 -0.12865290075E+02  0.18727051646E+02  0.00000000000E+00 0. -1.
         11    1    3    3    0    0  0.50728894535E+01  0.70693405932E+01  0.26638462510E+02  0.28023516357E+02  0.51100000000E-03 0. -1.
        -11    1    3    3    0    0  0.88871211139E+01  0.14058805490E+01  0.68376851582E+01  0.11300945111E+02  0.51100000000E-03 0.  1.
         12    1    3    3    0    0 -0.25876529738E+02 -0.19038175277E+01 -0.20610857593E+02  0.33136486887E+02  0.00000000000E+00 0. -1.
</event>
<event>
 7    1  0.1465498E-013  0.7246155E+02  0.7816164E-02  0.1226708E+00
        -11   -1    0    0    0    0  0.00000000000E+00  0.00000000000E+00  0.45593999997E+02  0.45594000000E+02  0.51100000000E-03 0.  1.
         11   -1    0    0    0    0 -0.00000000000E+00 -0.00000000000E+00 -0.45593999997E+02  0.45594000000E+02  0.51100000000E-03 0. -1.
    9900012    2    1    2    0    0 -0.46062840418E+01  0.17658827598E+02 -0.41985613937E+01  0.72461549119E+02  0.69999972416E+02 0.  0.
         12    1    1    2    0    0  0.46062840418E+01 -0.17658827598E+02  0.41985613937E+01  0.18726450881E+02  0.00000000000E+00 0. -1.
         11    1    3    3    0    0 -0.61789818471E+01  0.29459110333E+01 -0.11299461870E+02  0.13211209153E+02  0.51100000000E-03 0. -1.
        -11    1    3    3    0    0  0.62441313622E+01 -0.19061300313E+02  0.14003849340E+02  0.24462831861E+02  0.51100000000E-03 0.  1.
         12    1    3    3    0    0 -0.46714335569E+01  0.33774216877E+02 -0.69029488633E+01  0.34787508105E+02  0.00000000000E+00 0. -1.
</event>
<event>
 7    1  0.1465498E-013  0.7246167E+02  0.7816164E-02  0.1226708E+00
        -11   -1    0    0    0    0  0.00000000000E+00  0.00000000000E+00  0.45593999997E+02  0.45594000000E+02  0.51100000000E-03 0. -1.
         11   -1    0    0    0    0 -0.00000000000E+00 -0.00000000000E+00 -0.45593999997E+02  0.45594000000E+02  0.51100000000E-03 0.  1.
    9900012    2    1    2    0    0  0.46571544940E+01 -0.17885674629E+02 -0.30147839717E+01  0.72461671814E+02  0.70000132249E+02 0.  0.
         12    1    1    2    0    0 -0.46571544940E+01  0.17885674629E+02  0.30147839717E+01  0.18726328186E+02  0.00000000000E+00 0. -1.
         11    1    3    3    0    0  0.61813205937E+01 -0.27105021677E+02  0.16195730709E+01  0.27848050948E+02  0.51100000000E-03 0. -1.
        -11    1    3    3    0    0  0.20815214780E+02  0.67847660378E+01 -0.18755142498E+01  0.21973251250E+02  0.51100000000E-03 0.  1.
        -12    1    3    3    0    0 -0.22339380880E+02  0.24345810106E+01 -0.27588427929E+01  0.22640369616E+02  0.00000000000E+00 0.  1.
</event>
<event>
 7    1  0.1465498E-013  0.7246160E+02  0.7816164E-02  0.1226708E+00
        -11   -1    0    0    0    0  0.00000000000E+00  0.00000000000E+00  0.45593999997E+02  0.45594000000E+02  0.51100000000E-03 0.  1.
         11   -1    0    0    0    0 -0.00000000000E+00 -0.00000000000E+00 -0.45593999997E+02  0.45594000000E+02  0.51100000000E-03 0. -1.
    9900012    2    1    2    0    0 -0.15378956293E+02 -0.38914416172E+01  0.99510076592E+01  0.72461597037E+02  0.70000034837E+02 0.  0.
         12    1    1    2    0    0  0.15378956293E+02  0.38914416172E+01 -0.99510076592E+01  0.18726402963E+02  0.00000000000E+00 0. -1.
         11    1    3    3    0    0 -0.72907776448E+01 -0.37589376411E+01  0.14039117027E+02  0.16259823431E+02  0.51100000000E-03 0. -1.
        -11    1    3    3    0    0  0.13198498157E+02  0.11144563881E+02  0.16963021292E+02  0.24210447111E+02  0.51100000000E-03 0.  1.
         12    1    3    3    0    0 -0.21286676805E+02 -0.11277067857E+02 -0.21051130660E+02  0.31991326495E+02  0.00000000000E+00 0. -1.
</event>
<event>
 7    1  0.1465498E-013  0.7246158E+02  0.7816164E-02  0.1226708E+00
        -11   -1    0    0    0    0  0.00000000000E+00  0.00000000000E+00  0.45593999997E+02  0.45594000000E+02  0.51100000000E-03 0. -1.
         11   -1    0    0    0    0 -0.00000000000E+00 -0.00000000000E+00 -0.45593999997E+02  0.45594000000E+02  0.51100000000E-03 0.  1.
    9900012    2    1    2    0    0  0.65079412983E+01  0.34261115480E+01 -0.17221710165E+02  0.72461579058E+02  0.70000011417E+02 0.  0.
         12    1    1    2    0    0 -0.65079412983E+01 -0.34261115480E+01  0.17221710165E+02  0.18726420942E+02  0.00000000000E+00 0. -1.
         11    1    3    3    0    0  0.26968431365E+01 -0.22265548130E+02 -0.98553222241E+01  0.24498060593E+02  0.51100000000E-03 0. -1.
        -11    1    3    3    0    0  0.70727606506E+01  0.11021977054E+02 -0.22881118943E+02  0.26363867807E+02  0.51100000000E-03 0.  1.
         12    1    3    3    0    0 -0.32616624888E+01  0.14669682624E+02  0.15514731003E+02  0.21599650658E+02  0.00000000000E+00 0. -1.
</event>
<event>
 7    1  0.1465498E-013  0.7246153E+02  0.7816164E-02  0.1226708E+00
        -11   -1    0    0    0    0  0.00000000000E+00  0.00000000000E+00  0.45593999997E+02  0.45594000000E+02  0.51100000000E-03 0.  1.
         11   -1    0    0    0    0 -0.00000000000E+00 -0.00000000000E+00 -0.45593999997E+02  0.45594000000E+02  0.51100000000E-03 0. -1.
    9900012    2    1    2    0    0 -0.13283333992E+02 -0.12255927377E+02 -0.49016354453E+01  0.72461528152E+02  0.69999945102E+02 0.  0.
         12    1    1    2    0    0  0.13283333992E+02  0.12255927377E+02  0.49016354453E+01  0.18726471848E+02  0.00000000000E+00 0. -1.
         11    1    3    3    0    0  0.20480989342E+01 -0.26326420469E+01  0.39282193289E+01  0.51532922243E+01  0.51100000000E-03 0. -1.
        -11    1    3    3    0    0 -0.13340103477E+02  0.17369839911E+02  0.18628596945E+02  0.28752292495E+02  0.51100000000E-03 0.  1.
         12    1    3    3    0    0 -0.19913294495E+01 -0.26993125241E+02 -0.27458451719E+02  0.38555943433E+02  0.00000000000E+00 0. -1.
</event>
<event>
 7    1  0.1465498E-013  0.7246154E+02  0.7816164E-02  0.1226708E+00
        -11   -1    0    0    0    0  0.00000000000E+00  0.00000000000E+00  0.45593999997E+02  0.45594000000E+02  0.51100000000E-03 0.  1.
         11   -1    0    0    0    0 -0.00000000000E+00 -0.00000000000E+00 -0.45593999997E+02  0.45594000000E+02  0.51100000000E-03 0. -1.
    9900012    2    1    2    0    0 -0.15613825776E+02 -0.10338616468E+02 -0.41110671014E-01  0.72461541821E+02  0.69999962909E+02 0.  0.
         12    1    1    2    0    0  0.15613825776E+02  0.10338616468E+02  0.41110671014E-01  0.18726458179E+02  0.00000000000E+00 0. -1.
         11    1    3    3    0    0 -0.73103325964E+00 -0.25383749126E+01 -0.48326760025E+01  0.55074962033E+01  0.51100000000E-03 0. -1.
        -11    1    3    3    0    0 -0.53268587069E+00 -0.18742734382E+02 -0.25525705074E+02  0.31672313874E+02  0.51100000000E-03 0.  1.
         12    1    3    3    0    0 -0.14350106646E+02  0.10942492827E+02  0.30317270405E+02  0.35281731744E+02  0.00000000000E+00 0. -1.
</event>
<event>
 7    1  0.1465498E-013  0.7246155E+02  0.7816164E-02  0.1226708E+00
        -11   -1    0    0    0    0  0.00000000000E+00  0.00000000000E+00  0.45593999997E+02  0.45594000000E+02  0.51100000000E-03 0.  1.
         11   -1    0    0    0    0 -0.00000000000E+00 -0.00000000000E+00 -0.45593999997E+02  0.45594000000E+02  0.51100000000E-03 0. -1.
    9900012    2    1    2    0    0  0.22050215662E+01  0.14892457363E+02  0.11136986012E+02  0.72461551756E+02  0.69999975850E+02 0.  0.
         12    1    1    2    0    0 -0.22050215662E+01 -0.14892457363E+02 -0.11136986012E+02  0.18726448244E+02  0.00000000000E+00 0. -1.
         11    1    3    3    0    0 -0.11192887038E+02 -0.11278874566E+02 -0.33444499242E+00  0.15893570569E+02  0.51100000000E-03 0. -1.
        -11    1    3    3    0    0 -0.17112939790E+02  0.15111497780E+02  0.64882395408E+01  0.23734096276E+02  0.51100000000E-03 0.  1.
        -12    1    3    3    0    0  0.30510848395E+02  0.11059834149E+02  0.49831914631E+01  0.32833884911E+02  0.00000000000E+00 0.  1.
</event>
<event>
 7    1  0.1465498E-013  0.7246158E+02  0.7816164E-02  0.1226708E+00
        -11   -1    0    0    0    0  0.00000000000E+00  0.00000000000E+00  0.45593999997E+02  0.45594000000E+02  0.51100000000E-03 0.  1.
         11   -1    0    0    0    0 -0.00000000000E+00 -0.00000000000E+00 -0.45593999997E+02  0.45594000000E+02  0.51100000000E-03 0. -1.
    9900012    2    1    2    0    0 -0.66410175160E+00  0.12049915878E+02  0.14319125041E+02  0.72461578939E+02  0.70000011261E+02 0.  0.
         12    1    1    2    0    0  0.66410175160E+00 -0.12049915878E+02 -0.14319125041E+02  0.18726421061E+02  0.00000000000E+00 0. -1.
         11    1    3    3    0    0  0.44697654648E+01 -0.79290547475E+01  0.10810585597E+01  0.91661006088E+01  0.51100000000E-03 0. -1.
        -11    1    3    3    0    0 -0.18710636770E+02 -0.86730439807E+01  0.22246049837E+02  0.30334738401E+02  0.51100000000E-03 0.  1.
         12    1    3    3    0    0  0.13576769554E+02  0.28652014607E+02 -0.90079833559E+01  0.32960739929E+02  0.00000000000E+00 0. -1.
</event>
<event>
 7    1  0.1465498E-013  0.7246153E+02  0.7816164E-02  0.1226708E+00
        -11   -1    0    0    0    0  0.00000000000E+00  0.00000000000E+00  0.45593999997E+02  0.45594000000E+02  0.51100000000E-03 0.  1.
         11   -1    0    0    0    0 -0.00000000000E+00 -0.00000000000E+00 -0.45593999997E+02  0.45594000000E+02  0.51100000000E-03 0. -1.
    9900012    2    1    2    0    0 -0.12817353470E+02  0.12086863093E+02  0.63485257967E+01  0.72461532389E+02  0.69999950621E+02 0.  0.
         12    1    1    2    0    0  0.12817353470E+02 -0.12086863093E+02 -0.63485257967E+01  0.18726467611E+02  0.00000000000E+00 0. -1.
         11    1    3    3    0    0  0.51259456050E-01 -0.39632890803E+01 -0.14290010125E+02  0.14829520475E+02  0.51100000000E-03 0. -1.
        -11    1    3    3    0    0 -0.20554564493E+02  0.24576154176E+02 -0.21551242710E+01  0.32111088995E+02  0.51100000000E-03 0.  1.
         12    1    3    3    0    0  0.76859515667E+01 -0.85260020025E+01  0.22793660193E+02  0.25520922919E+02  0.00000000000E+00 0. -1.
</event>
<event>
 7    1  0.1465498E-013  0.7246158E+02  0.7816164E-02  0.1226708E+00
        -11   -1    0    0    0    0  0.00000000000E+00  0.00000000000E+00  0.45593999997E+02  0.45594000000E+02  0.51100000000E-03 0.  1.
         11   -1    0    0    0    0 -0.00000000000E+00 -0.00000000000E+00 -0.45593999997E+02  0.45594000000E+02  0.51100000000E-03 0. -1.
    9900012    2    1    2    0    0  0.67781863690E+01  0.17435392788E+02 -0.86143931030E+00  0.72461579899E+02  0.70000012512E+02 0.  0.
         12    1    1    2    0    0 -0.67781863690E+01 -0.17435392788E+02  0.86143931030E+00  0.18726420101E+02  0.00000000000E+00 0. -1.
         11    1    3    3    0    0 -0.10352332157E+02 -0.13221058126E+01  0.39555467883E+00  0.10443907728E+02  0.51100000000E-03 0. -1.
        -11    1    3    3    0    0  0.40434715014E+01  0.32717953075E+02 -0.17133615298E+02  0.37153396731E+02  0.51100000000E-03 0.  1.
         12    1    3    3    0    0  0.13087047024E+02 -0.13960454475E+02  0.15876621309E+02  0.24864275440E+02  0.00000000000E+00 0. -1.
</event>
<event>
 7    1  0.1465498E-013  0.7246156E+02  0.7816164E-02  0.1226708E+00
        -11   -1    0    0    0    0  0.00000000000E+00  0.00000000000E+00  0.45593999997E+02  0.45594000000E+02  0.51100000000E-03 0.  1.
         11   -1    0    0    0    0 -0.00000000000E+00 -0.00000000000E+00 -0.45593999997E+02  0.45594000000E+02  0.51100000000E-03 0. -1.
    9900012    2    1    2    0    0 -0.14049349874E+02 -0.79163526934E+01  0.95198067885E+01  0.72461558984E+02  0.69999985266E+02 0.  0.
         12    1    1    2    0    0  0.14049349874E+02  0.79163526934E+01 -0.95198067885E+01  0.18726441016E+02  0.00000000000E+00 0. -1.
         11    1    3    3    0    0  0.11176143672E+02  0.90619798078E+01  0.48434787230E+01  0.15181730857E+02  0.51100000000E-03 0. -1.
        -11    1    3    3    0    0  0.13978542003E+02 -0.40478197724E+01  0.65434287536E+01  0.15956219526E+02  0.51100000000E-03 0.  1.
        -12    1    3    3    0    0 -0.39204035549E+02 -0.12930512729E+02 -0.18671006881E+01  0.41323608601E+02  0.00000000000E+00 0.  1.
</event>
<event>
 7    1  0.1465498E-013  0.7246157E+02  0.7816164E-02  0.1226708E+00
        -11   -1    0    0    0    0  0.00000000000E+00  0.00000000000E+00  0.45593999997E+02  0.45594000000E+02  0.51100000000E-03 0. -1.
         11   -1    0    0    0    0 -0.00000000000E+00 -0.00000000000E+00 -0.45593999997E+02  0.45594000000E+02  0.51100000000E-03 0.  1.
    9900012    2    1    2    0    0  0.81112189973E+01 -0.95484615825E+01  0.13918127337E+02  0.72461567857E+02  0.69999996825E+02 0.  0.
         12    1    1    2    0    0 -0.81112189973E+01  0.95484615825E+01 -0.13918127337E+02  0.18726432143E+02  0.00000000000E+00 0. -1.
         11    1    3    3    0    0  0.68303771515E+01 -0.50760882338E+01  0.32853586113E+01  0.91221875258E+01  0.51100000000E-03 0. -1.
        -11    1    3    3    0    0  0.30615804434E+02  0.52534026924E+01  0.92167736462E+01  0.32401769052E+02  0.51100000000E-03 0.  1.
         12    1    3    3    0    0 -0.29334962588E+02 -0.97257760410E+01  0.14159950798E+01  0.30937611280E+02  0.00000000000E+00 0. -1.
</event>
<event>
 7    1  0.1465498E-013  0.7246157E+02  0.7816164E-02  0.1226708E+00
        -11   -1    0    0    0    0  0.00000000000E+00  0.00000000000E+00  0.45593999997E+02  0.45594000000E+02  0.51100000000E-03 0. -1.
         11   -1    0    0    0    0 -0.00000000000E+00 -0.00000000000E+00 -0.45593999997E+02  0.45594000000E+02  0.51100000000E-03 0.  1.
    9900012    2    1    2    0    0 -0.59117320247E+01 -0.17352247062E+02 -0.38249542107E+01  0.72461566053E+02  0.69999994475E+02 0.  0.
         12    1    1    2    0    0  0.59117320247E+01  0.17352247062E+02  0.38249542107E+01  0.18726433947E+02  0.00000000000E+00 0. -1.
         11    1    3    3    0    0  0.75072450367E+01 -0.21334791359E+02 -0.83044141975E+01  0.24093471020E+02  0.51100000000E-03 0. -1.
        -11    1    3    3    0    0  0.44471178520E+00 -0.20134904478E+02  0.40695485883E+01  0.20546857980E+02  0.51100000000E-03 0.  1.
         12    1    3    3    0    0 -0.13863688847E+02  0.24117448774E+02  0.40991139841E+00  0.27821237053E+02  0.00000000000E+00 0. -1.
</event>
<event>
 7    1  0.1465498E-013  0.7246157E+02  0.7816164E-02  0.1226708E+00
        -11   -1    0    0    0    0  0.00000000000E+00  0.00000000000E+00  0.45593999997E+02  0.45594000000E+02  0.51100000000E-03 0. -1.
         11   -1    0    0    0    0 -0.00000000000E+00 -0.00000000000E+00 -0.45593999997E+02  0.45594000000E+02  0.51100000000E-03 0.  1.
    9900012    2    1    2    0    0  0.11251309657E+02 -0.12419908579E+02  0.83566147582E+01  0.72461571928E+02  0.70000002128E+02 0.  0.
         12    1    1    2    0    0 -0.11251309657E+02  0.12419908579E+02 -0.83566147582E+01  0.18726428072E+02  0.00000000000E+00 0. -1.
         11    1    3    3    0    0 -0.32176606095E+01  0.97946186953E+01  0.13801216602E+02  0.17226766242E+02  0.51100000000E-03 0. -1.
        -11    1    3    3    0    0 -0.13258880589E+02 -0.84787316008E+00  0.10339862570E+02  0.16835366394E+02  0.51100000000E-03 0.  1.
        -12    1    3    3    0    0  0.27727850856E+02 -0.21366654114E+02 -0.15784464415E+02  0.38399439293E+02  0.00000000000E+00 0.  1.
</event>
<event>
 7    1  0.1465498E-013  0.7246151E+02  0.7816164E-02  0.1226708E+00
        -11   -1    0    0    0    0  0.00000000000E+00  0.00000000000E+00  0.45593999997E+02  0.45594000000E+02  0.51100000000E-03 0.  1.
         11   -1    0    0    0    0 -0.00000000000E+00 -0.00000000000E+00 -0.45593999997E+02  0.45594000000E+02  0.51100000000E-03 0. -1.
    9900012    2    1    2    0    0 -0.86177574669E+01 -0.13925424433E+02  0.90828551503E+01  0.72461509483E+02  0.69999920782E+02 0.  0.
         12    1    1    2    0    0  0.86177574669E+01  0.13925424433E+02 -0.90828551503E+01  0.18726490517E+02  0.00000000000E+00 0. -1.
         11    1    3    3    0    0 -0.89620421022E+01  0.14240782852E+02  0.14007909395E+01  0.16884321437E+02  0.51100000000E-03 0. -1.
        -11    1    3    3    0    0  0.30175241170E+00 -0.15334970644E+01 -0.18302028119E+02  0.18368639070E+02  0.51100000000E-03 0.  1.
        -12    1    3    3    0    0  0.42532223599E-01 -0.26632710221E+02  0.25984092330E+02  0.37208548976E+02  0.00000000000E+00 0.  1.
</event>
<event>
 7    1  0.1465498E-013  0.7246230E+02  0.7816164E-02  0.1226706E+00
        -11   -1    0    0    0    0  0.00000000000E+00  0.00000000000E+00  0.45593999997E+02  0.45594000000E+02  0.51100000000E-03 0.  1.
         11   -1    0    0    0    0 -0.00000000000E+00 -0.00000000000E+00 -0.45593999997E+02  0.45594000000E+02  0.51100000000E-03 0. -1.
    9900012    2    1    2    0    0 -0.14542045204E+02 -0.52273218116E+01  0.10576188166E+02  0.72462303000E+02  0.70000954479E+02 0.  0.
         12    1    1    2    0    0  0.14542045204E+02  0.52273218116E+01 -0.10576188166E+02  0.18725697000E+02  0.00000000000E+00 0. -1.
         11    1    3    3    0    0 -0.31797685483E+02 -0.19537350058E+00 -0.90317855919E+01  0.33056075449E+02  0.51100000000E-03 0. -1.
        -11    1    3    3    0    0 -0.16526477187E+01 -0.13401828728E+02  0.78181808852E+01  0.15603339718E+02  0.51100000000E-03 0.  1.
        -12    1    3    3    0    0  0.18908287998E+02  0.83698804168E+01  0.11789792872E+02  0.23802887833E+02  0.00000000000E+00 0.  1.
</event>
<event>
 7    1  0.1465498E-013  0.7246158E+02  0.7816164E-02  0.1226708E+00
        -11   -1    0    0    0    0  0.00000000000E+00  0.00000000000E+00  0.45593999997E+02  0.45594000000E+02  0.51100000000E-03 0.  1.
         11   -1    0    0    0    0 -0.00000000000E+00 -0.00000000000E+00 -0.45593999997E+02  0.45594000000E+02  0.51100000000E-03 0. -1.
    9900012    2    1    2    0    0 -0.51885103816E+01  0.45347519576E-01  0.17993226459E+02  0.72461577630E+02  0.70000009556E+02 0.  0.
         12    1    1    2    0    0  0.51885103816E+01 -0.45347519576E-01 -0.17993226459E+02  0.18726422370E+02  0.00000000000E+00 0. -1.
         11    1    3    3    0    0 -0.11319177376E+02  0.28366286453E+02  0.13512288152E+02  0.33396884809E+02  0.51100000000E-03 0. -1.
        -11    1    3    3    0    0  0.12697665034E+01  0.48161333658E+00 -0.74054740395E+01  0.75289643637E+01  0.51100000000E-03 0.  1.
        -12    1    3    3    0    0  0.48609004906E+01 -0.28802552270E+02  0.11886412347E+02  0.31535728457E+02  0.00000000000E+00 0.  1.
</event>
<event>
 7    1  0.1465498E-013  0.7246157E+02  0.7816164E-02  0.1226708E+00
        -11   -1    0    0    0    0  0.00000000000E+00  0.00000000000E+00  0.45593999997E+02  0.45594000000E+02  0.51100000000E-03 0.  1.
         11   -1    0    0    0    0 -0.00000000000E+00 -0.00000000000E+00 -0.45593999997E+02  0.45594000000E+02  0.51100000000E-03 0. -1.
    9900012    2    1    2    0    0 -0.96842993826E+01  0.16017855498E+02 -0.56713769569E+00  0.72461574969E+02  0.70000006089E+02 0.  0.
         12    1    1    2    0    0  0.96842993826E+01 -0.16017855498E+02  0.56713769569E+00  0.18726425031E+02  0.00000000000E+00 0. -1.
         11    1    3    3    0    0  0.12120953013E+02  0.15846505357E+02 -0.74254342662E+01  0.21287703218E+02  0.51100000000E-03 0. -1.
        -11    1    3    3    0    0 -0.76900092959E+01  0.22676543797E+02  0.55298517859E+01  0.24575213988E+02  0.51100000000E-03 0.  1.
        -12    1    3    3    0    0 -0.14115243100E+02 -0.22505193656E+02  0.13284447846E+01  0.26598657763E+02  0.00000000000E+00 0.  1.
</event>
<event>
 7    1  0.1465498E-013  0.7246160E+02  0.7816164E-02  0.1226708E+00
        -11   -1    0    0    0    0  0.00000000000E+00  0.00000000000E+00  0.45593999997E+02  0.45594000000E+02  0.51100000000E-03 0. -1.
         11   -1    0    0    0    0 -0.00000000000E+00 -0.00000000000E+00 -0.45593999997E+02  0.45594000000E+02  0.51100000000E-03 0.  1.
    9900012    2    1    2    0    0  0.26051572064E+01  0.16135651138E+02 -0.91395777476E+01  0.72461602505E+02  0.70000041961E+02 0.  0.
         12    1    1    2    0    0 -0.26051572064E+01 -0.16135651138E+02  0.91395777476E+01  0.18726397495E+02  0.00000000000E+00 0. -1.
         11    1    3    3    0    0  0.63115034225E+01  0.74562758222E+01  0.20441282071E+02  0.22655620441E+02  0.51100000000E-03 0. -1.
        -11    1    3    3    0    0 -0.18930242585E+01  0.58630985195E+01  0.90949841503E+01  0.10985363082E+02  0.51100000000E-03 0.  1.
        -12    1    3    3    0    0 -0.18133219576E+01  0.28162767963E+01 -0.38675843969E+02  0.38820618983E+02  0.00000000000E+00 0.  1.
</event>
<event>
 7    1  0.1465498E-013  0.7246197E+02  0.7816164E-02  0.1226707E+00
        -11   -1    0    0    0    0  0.00000000000E+00  0.00000000000E+00  0.45593999997E+02  0.45594000000E+02  0.51100000000E-03 0.  1.
         11   -1    0    0    0    0 -0.00000000000E+00 -0.00000000000E+00 -0.45593999997E+02  0.45594000000E+02  0.51100000000E-03 0. -1.
    9900012    2    1    2    0    0  0.50656561099E+01 -0.17331854224E+02  0.49608680163E+01  0.72461968542E+02  0.70000518790E+02 0.  0.
         12    1    1    2    0    0 -0.50656561099E+01  0.17331854224E+02 -0.49608680163E+01  0.18726031458E+02  0.00000000000E+00 0. -1.
         11    1    3    3    0    0 -0.26197807105E+01  0.51875933814E+01  0.53146429555E+01  0.78752654601E+01  0.51100000000E-03 0. -1.
        -11    1    3    3    0    0 -0.25361319010E+02 -0.17190276415E+02 -0.40698401047E+01  0.30907372970E+02  0.51100000000E-03 0.  1.
        -12    1    3    3    0    0  0.33046755831E+02 -0.53291711908E+01  0.37160651655E+01  0.33679330112E+02  0.00000000000E+00 0.  1.
</event>
<event>
 7    1  0.1465498E-013  0.7246159E+02  0.7816164E-02  0.1226708E+00
        -11   -1    0    0    0    0  0.00000000000E+00  0.00000000000E+00  0.45593999997E+02  0.45594000000E+02  0.51100000000E-03 0.  1.
         11   -1    0    0    0    0 -0.00000000000E+00 -0.00000000000E+00 -0.45593999997E+02  0.45594000000E+02  0.51100000000E-03 0. -1.
    9900012    2    1    2    0    0 -0.13157786800E+00 -0.15801785814E+02  0.10048112524E+02  0.72461593165E+02  0.70000029793E+02 0.  0.
         12    1    1    2    0    0  0.13157786800E+00  0.15801785814E+02 -0.10048112524E+02  0.18726406835E+02  0.00000000000E+00 0. -1.
         11    1    3    3    0    0  0.28950468565E+01  0.50483265534E+01 -0.10365289723E+02  0.11887225437E+02  0.51100000000E-03 0. -1.
        -11    1    3    3    0    0  0.10811042726E+01 -0.77136380136E+01  0.37689433009E+02  0.38485872196E+02  0.51100000000E-03 0.  1.
         12    1    3    3    0    0 -0.41077289971E+01 -0.13136474354E+02 -0.17276030763E+02  0.22088495533E+02  0.00000000000E+00 0. -1.
</event>
<event>
 7    1  0.1465498E-013  0.7246155E+02  0.7816164E-02  0.1226708E+00
        -11   -1    0    0    0    0  0.00000000000E+00  0.00000000000E+00  0.45593999997E+02  0.45594000000E+02  0.51100000000E-03 0.  1.
         11   -1    0    0    0    0 -0.00000000000E+00 -0.00000000000E+00 -0.45593999997E+02  0.45594000000E+02  0.51100000000E-03 0. -1.
    9900012    2    1    2    0    0  0.56897443861E+01  0.13503438823E+02  0.11660354551E+02  0.72461550270E+02  0.69999973915E+02 0.  0.
         12    1    1    2    0    0 -0.56897443861E+01 -0.13503438823E+02 -0.11660354551E+02  0.18726449730E+02  0.00000000000E+00 0. -1.
         11    1    3    3    0    0 -0.93705837373E+01 -0.64762161215E+01 -0.63637465866E+01  0.13047853682E+02  0.51100000000E-03 0. -1.
        -11    1    3    3    0    0  0.87560628083E+01 -0.71669087616E+01 -0.13316287315E+02  0.17474459225E+02  0.51100000000E-03 0.  1.
        -12    1    3    3    0    0  0.63042653151E+01  0.27146563706E+02  0.31340388453E+02  0.41939237363E+02  0.00000000000E+00 0.  1.
</event>
<event>
 7    1  0.1465498E-013  0.7246158E+02  0.7816164E-02  0.1226708E+00
        -11   -1    0    0    0    0  0.00000000000E+00  0.00000000000E+00  0.45593999997E+02  0.45594000000E+02  0.51100000000E-03 0.  1.
         11   -1    0    0    0    0 -0.00000000000E+00 -0.00000000000E+00 -0.45593999997E+02  0.45594000000E+02  0.51100000000E-03 0. -1.
    9900012    2    1    2    0    0  0.91646983824E+01  0.64558598663E+01  0.15000295677E+02  0.72461583006E+02  0.70000016559E+02 0.  0.
         12    1    1    2    0    0 -0.91646983824E+01 -0.64558598663E+01 -0.15000295677E+02  0.18726416994E+02  0.00000000000E+00 0. -1.
         11    1    3    3    0    0 -0.38425287217E+01 -0.11079106859E+01 -0.25878556443E+02  0.26185724678E+02  0.51100000000E-03 0. -1.
        -11    1    3    3    0    0 -0.30337964844E+01  0.39795960183E+01  0.68264731224E+01  0.84641503490E+01  0.51100000000E-03 0.  1.
        -12    1    3    3    0    0  0.16041023589E+02  0.35841745340E+01  0.34052378998E+02  0.37811707979E+02  0.00000000000E+00 0.  1.
</event>
<event>
 7    1  0.1465498E-013  0.7246161E+02  0.7816164E-02  0.1226708E+00
        -11   -1    0    0    0    0  0.00000000000E+00  0.00000000000E+00  0.45593999997E+02  0.45594000000E+02  0.51100000000E-03 0. -1.
         11   -1    0    0    0    0 -0.00000000000E+00 -0.00000000000E+00 -0.45593999997E+02  0.45594000000E+02  0.51100000000E-03 0.  1.
    9900012    2    1    2    0    0 -0.90829956973E+01 -0.95677314587E+01 -0.13290430905E+02  0.72461605533E+02  0.70000045905E+02 0.  0.
         12    1    1    2    0    0  0.90829956973E+01  0.95677314587E+01  0.13290430905E+02  0.18726394467E+02  0.00000000000E+00 0. -1.
         11    1    3    3    0    0  0.73781987434E+01 -0.16857399944E+02  0.87448706890E+00  0.18422119244E+02  0.51100000000E-03 0. -1.
        -11    1    3    3    0    0  0.10349411687E+02 -0.12179725610E+02 -0.13463679372E+02  0.20898007098E+02  0.51100000000E-03 0.  1.
        -12    1    3    3    0    0 -0.26810606127E+02  0.19469394095E+02 -0.70123860132E+00  0.33141479190E+02  0.00000000000E+00 0.  1.
</event>
<event>
 7    1  0.1465498E-013  0.7246188E+02  0.7816164E-02  0.1226707E+00
        -11   -1    0    0    0    0  0.00000000000E+00  0.00000000000E+00  0.45593999997E+02  0.45594000000E+02  0.51100000000E-03 0. -1.
         11   -1    0    0    0    0 -0.00000000000E+00 -0.00000000000E+00 -0.45593999997E+02  0.45594000000E+02  0.51100000000E-03 0.  1.
    9900012    2    1    2    0    0 -0.25211621647E+01  0.17872780837E+02  0.49874717019E+01  0.72461883812E+02  0.70000408413E+02 0.  0.
         12    1    1    2    0    0  0.25211621647E+01 -0.17872780837E+02 -0.49874717019E+01  0.18726116188E+02  0.00000000000E+00 0. -1.
         11    1    3    3    0    0  0.56532516840E+01  0.28924797726E+02  0.23904325226E+02  0.37947594691E+02  0.51100000000E-03 0. -1.
        -11    1    3    3    0    0 -0.13261548364E+01  0.76653189782E+01 -0.10026859393E+02  0.12690693883E+02  0.51100000000E-03 0.  1.
        -12    1    3    3    0    0 -0.68482590123E+01 -0.18717335867E+02 -0.88899941303E+01  0.21823595237E+02  0.00000000000E+00 0.  1.
</event>
<event>
 7    1  0.1465498E-013  0.7246158E+02  0.7816164E-02  0.1226708E+00
        -11   -1    0    0    0    0  0.00000000000E+00  0.00000000000E+00  0.45593999997E+02  0.45594000000E+02  0.51100000000E-03 0.  1.
         11   -1    0    0    0    0 -0.00000000000E+00 -0.00000000000E+00 -0.45593999997E+02  0.45594000000E+02  0.51100000000E-03 0. -1.
    9900012    2    1    2    0    0  0.27408500114E+01  0.24303991934E+01  0.18364635199E+02  0.72461576822E+02  0.70000008504E+02 0.  0.
         12    1    1    2    0    0 -0.27408500114E+01 -0.24303991934E+01 -0.18364635199E+02  0.18726423178E+02  0.00000000000E+00 0. -1.
         11    1    3    3    0    0 -0.18828717273E+02 -0.71649429917E+01  0.79910811038E+01  0.21672895046E+02  0.51100000000E-03 0. -1.
        -11    1    3    3    0    0  0.15944590053E+02 -0.80803897009E-01 -0.15723140486E+02  0.22393160300E+02  0.51100000000E-03 0.  1.
        -12    1    3    3    0    0  0.56249772314E+01  0.96761460821E+01  0.26096694581E+02  0.28395521476E+02  0.00000000000E+00 0.  1.
</event>
<event>
 7    1  0.1465498E-013  0.7246152E+02  0.7816164E-02  0.1226708E+00
        -11   -1    0    0    0    0  0.00000000000E+00  0.00000000000E+00  0.45593999997E+02  0.45594000000E+02  0.51100000000E-03 0. -1.
         11   -1    0    0    0    0 -0.00000000000E+00 -0.00000000000E+00 -0.45593999997E+02  0.45594000000E+02  0.51100000000E-03 0.  1.
    9900012    2    1    2    0    0  0.13472555560E+02 -0.83208411831E+01  0.99967459823E+01  0.72461519243E+02  0.69999933496E+02 0.  0.
         12    1    1    2    0    0 -0.13472555560E+02  0.83208411831E+01 -0.99967459823E+01  0.18726480757E+02  0.00000000000E+00 0. -1.
         11    1    3    3    0    0  0.15113048566E+01 -0.26619526873E+01  0.20365761900E+02  0.20594520934E+02  0.51100000000E-03 0. -1.
        -11    1    3    3    0    0 -0.29806004005E+01  0.11170813315E+02  0.14356252681E+02  0.18432933574E+02  0.51100000000E-03 0.  1.
        -12    1    3    3    0    0  0.14941851103E+02 -0.16829701811E+02 -0.24725268598E+02  0.33434064735E+02  0.00000000000E+00 0.  1.
</event>
<event>
 7    1  0.1465498E-013  0.7246158E+02  0.7816164E-02  0.1226708E+00
        -11   -1    0    0    0    0  0.00000000000E+00  0.00000000000E+00  0.45593999997E+02  0.45594000000E+02  0.51100000000E-03 0.  1.
         11   -1    0    0    0    0 -0.00000000000E+00 -0.00000000000E+00 -0.45593999997E+02  0.45594000000E+02  0.51100000000E-03 0. -1.
    9900012    2    1    2    0    0  0.10035553411E+02  0.14608537629E+02 -0.60462574741E+01  0.72461576600E+02  0.70000008215E+02 0.  0.
         12    1    1    2    0    0 -0.10035553411E+02 -0.14608537629E+02  0.60462574741E+01  0.18726423400E+02  0.00000000000E+00 0. -1.
         11    1    3    3    0    0 -0.15997399959E+02  0.42667039857E+01 -0.25523168626E+01  0.16752190602E+02  0.51100000000E-03 0. -1.
        -11    1    3    3    0    0  0.48940411229E+01 -0.12930609320E+02  0.14045099533E+02  0.19708300714E+02  0.51100000000E-03 0.  1.
         12    1    3    3    0    0  0.21138912247E+02  0.23272442963E+02 -0.17539040144E+02  0.36001085284E+02  0.00000000000E+00 0. -1.
</event>
<event>
 7    1  0.1465498E-013  0.7246154E+02  0.7816164E-02  0.1226708E+00
        -11   -1    0    0    0    0  0.00000000000E+00  0.00000000000E+00  0.45593999997E+02  0.45594000000E+02  0.51100000000E-03 0.  1.
         11   -1    0    0    0    0 -0.00000000000E+00 -0.00000000000E+00 -0.45593999997E+02  0.45594000000E+02  0.51100000000E-03 0. -1.
    9900012    2    1    2    0    0 -0.77538713418E+01 -0.16875922163E+02 -0.24001807428E+01  0.72461544456E+02  0.69999966341E+02 0.  0.
         12    1    1    2    0    0  0.77538713418E+01  0.16875922163E+02  0.24001807428E+01  0.18726455544E+02  0.00000000000E+00 0. -1.
         11    1    3    3    0    0 -0.45481519983E+01 -0.47191993229E+00  0.17250639155E+01  0.48871505804E+01  0.51100000000E-03 0. -1.
        -11    1    3    3    0    0  0.14596884457E+02 -0.26574287158E+02  0.19688064702E+02  0.36150818328E+02  0.51100000000E-03 0.  1.
         12    1    3    3    0    0 -0.17802603800E+02  0.10170284927E+02 -0.23813309360E+02  0.31423575549E+02  0.00000000000E+00 0. -1.
</event>
<event>
 7    1  0.1465498E-013  0.7246147E+02  0.7816164E-02  0.1226708E+00
        -11   -1    0    0    0    0  0.00000000000E+00  0.00000000000E+00  0.45593999997E+02  0.45594000000E+02  0.51100000000E-03 0.  1.
         11   -1    0    0    0    0 -0.00000000000E+00 -0.00000000000E+00 -0.45593999997E+02  0.45594000000E+02  0.51100000000E-03 0. -1.
    9900012    2    1    2    0    0  0.12211288367E+02  0.14197059763E+02 -0.10467692625E+00  0.72461467306E+02  0.69999865838E+02 0.  0.
         12    1    1    2    0    0 -0.12211288367E+02 -0.14197059763E+02  0.10467692625E+00  0.18726532694E+02  0.00000000000E+00 0. -1.
         11    1    3    3    0    0 -0.32659117665E+01  0.13405226855E+02 -0.16050353893E+02  0.21165541502E+02  0.51100000000E-03 0. -1.
        -11    1    3    3    0    0  0.47984765602E+01  0.18286444691E+02 -0.73348251305E+01  0.20278537834E+02  0.51100000000E-03 0.  1.
        -12    1    3    3    0    0  0.10678723573E+02 -0.17494611783E+02  0.23280502097E+02  0.31017387970E+02  0.00000000000E+00 0.  1.
</event>
<event>
 7    1  0.1465498E-013  0.7246157E+02  0.7816164E-02  0.1226708E+00
        -11   -1    0    0    0    0  0.00000000000E+00  0.00000000000E+00  0.45593999997E+02  0.45594000000E+02  0.51100000000E-03 0.  1.
         11   -1    0    0    0    0 -0.00000000000E+00 -0.00000000000E+00 -0.45593999997E+02  0.45594000000E+02  0.51100000000E-03 0. -1.
    9900012    2    1    2    0    0 -0.43209765957E+01  0.17602894459E+02 -0.47060082391E+01  0.72461568263E+02  0.69999997354E+02 0.  0.
         12    1    1    2    0    0  0.43209765957E+01 -0.17602894459E+02  0.47060082391E+01  0.18726431737E+02  0.00000000000E+00 0. -1.
         11    1    3    3    0    0 -0.84359999024E+01 -0.36247455514E+01  0.14518038511E+02  0.17177843786E+02  0.51100000000E-03 0. -1.
        -11    1    3    3    0    0  0.59175392199E+01  0.25470411246E+02  0.82548667895E+01  0.27420830502E+02  0.51100000000E-03 0.  1.
         12    1    3    3    0    0 -0.18025159133E+01 -0.42427712358E+01 -0.27478913539E+02  0.27862893975E+02  0.00000000000E+00 0. -1.
</event>
<event>
 7    1  0.1465498E-013  0.7246157E+02  0.7816164E-02  0.1226708E+00
        -11   -1    0    0    0    0  0.00000000000E+00  0.00000000000E+00  0.45593999997E+02  0.45594000000E+02  0.51100000000E-03 0.  1.
         11   -1    0    0    0    0 -0.00000000000E+00 -0.00000000000E+00 -0.45593999997E+02  0.45594000000E+02  0.51100000000E-03 0. -1.
    9900012    2    1    2    0    0  0.16120379798E+02 -0.52043282225E+01 -0.79829615897E+01  0.72461565400E+02  0.69999993625E+02 0.  0.
         12    1    1    2    0    0 -0.16120379798E+02  0.52043282225E+01  0.79829615897E+01  0.18726434600E+02  0.00000000000E+00 0. -1.
         11    1    3    3    0    0 -0.31190136491E+01  0.17302357414E+02  0.33758143045E-01  0.17581267249E+02  0.51100000000E-03 0. -1.
        -11    1    3    3    0    0 -0.34175355949E+01 -0.23280731333E+01 -0.21345001711E+02  0.21741862210E+02  0.51100000000E-03 0.  1.
        -12    1    3    3    0    0  0.22656929042E+02 -0.20178612503E+02  0.13328281978E+02  0.33138435941E+02  0.00000000000E+00 0.  1.
</event>
<event>
 7    1  0.1465498E-013  0.7246137E+02  0.7816164E-02  0.1226709E+00
        -11   -1    0    0    0    0  0.00000000000E+00  0.00000000000E+00  0.45593999997E+02  0.45594000000E+02  0.51100000000E-03 0.  1.
         11   -1    0    0    0    0 -0.00000000000E+00 -0.00000000000E+00 -0.45593999997E+02  0.45594000000E+02  0.51100000000E-03 0. -1.
    9900012    2    1    2    0    0 -0.16199056275E+02  0.91521080729E+01  0.21251173145E+01  0.72461371099E+02  0.69999740511E+02 0.  0.
         12    1    1    2    0    0  0.16199056275E+02 -0.91521080729E+01 -0.21251173145E+01  0.18726628901E+02  0.00000000000E+00 0. -1.
         11    1    3    3    0    0 -0.71941924690E+01  0.16810109017E+02 -0.25416644860E+02  0.31310413709E+02  0.51100000000E-03 0. -1.
        -11    1    3    3    0    0 -0.41317884970E+01  0.10517686877E+02  0.69981973106E+01  0.13291658260E+02  0.51100000000E-03 0.  1.
         12    1    3    3    0    0 -0.48730753092E+01 -0.18175687821E+02  0.20543564863E+02  0.27859299131E+02  0.00000000000E+00 0. -1.
</event>
<event>
 7    1  0.1465498E-013  0.7246150E+02  0.7816164E-02  0.1226708E+00
        -11   -1    0    0    0    0  0.00000000000E+00  0.00000000000E+00  0.45593999997E+02  0.45594000000E+02  0.51100000000E-03 0. -1.
         11   -1    0    0    0    0 -0.00000000000E+00 -0.00000000000E+00 -0.45593999997E+02  0.45594000000E+02  0.51100000000E-03 0.  1.
    9900012    2    1    2    0    0 -0.39001781309E+01  0.16974392230E+02  0.68804340252E+01  0.72461501304E+02  0.69999910127E+02 0.  0.
         12    1    1    2    0    0  0.39001781309E+01 -0.16974392230E+02 -0.68804340252E+01  0.18726498696E+02  0.00000000000E+00 0. -1.
         11    1    3    3    0    0 -0.58662850791E+01  0.42001664308E+01  0.16211914782E+02  0.17744883202E+02  0.51100000000E-03 0. -1.
        -11    1    3    3    0    0  0.20452145469E+02  0.18134354326E+02  0.83495390432E+01  0.28580760374E+02  0.51100000000E-03 0.  1.
         12    1    3    3    0    0 -0.18486038521E+02 -0.53601285264E+01 -0.17681019800E+02  0.26135857728E+02  0.00000000000E+00 0. -1.
</event>
<event>
 7    1  0.1465498E-013  0.7246157E+02  0.7816164E-02  0.1226708E+00
        -11   -1    0    0    0    0  0.00000000000E+00  0.00000000000E+00  0.45593999997E+02  0.45594000000E+02  0.51100000000E-03 0. -1.
         11   -1    0    0    0    0 -0.00000000000E+00 -0.00000000000E+00 -0.45593999997E+02  0.45594000000E+02  0.51100000000E-03 0.  1.
    9900012    2    1    2    0    0 -0.13599702458E+02  0.12811258983E+02 -0.12645119069E+01  0.72461568037E+02  0.69999997060E+02 0.  0.
         12    1    1    2    0    0  0.13599702458E+02 -0.12811258983E+02  0.12645119069E+01  0.18726431963E+02  0.00000000000E+00 0. -1.
         11    1    3    3    0    0  0.89508920510E+01  0.26816483349E+02 -0.88420234862E+01  0.29621337365E+02  0.51100000000E-03 0. -1.
        -11    1    3    3    0    0 -0.76799993850E+01  0.10209321832E+02 -0.18331369057E+01  0.12906317600E+02  0.51100000000E-03 0.  1.
         12    1    3    3    0    0 -0.14870595124E+02 -0.24214546198E+02  0.94106484850E+01  0.29933913072E+02  0.00000000000E+00 0. -1.
</event>
<event>
 7    1  0.1465498E-013  0.7246159E+02  0.7816164E-02  0.1226708E+00
        -11   -1    0    0    0    0  0.00000000000E+00  0.00000000000E+00  0.45593999997E+02  0.45594000000E+02  0.51100000000E-03 0. -1.
         11   -1    0    0    0    0 -0.00000000000E+00 -0.00000000000E+00 -0.45593999997E+02  0.45594000000E+02  0.51100000000E-03 0.  1.
    9900012    2    1    2    0    0 -0.17991061933E+02 -0.50228629595E+01 -0.13307495866E+01  0.72461592009E+02  0.70000028288E+02 0.  0.
         12    1    1    2    0    0  0.17991061933E+02  0.50228629595E+01  0.13307495866E+01  0.18726407991E+02  0.00000000000E+00 0. -1.
         11    1    3    3    0    0 -0.15192361951E+02  0.94587771238E+01  0.19323399319E+02  0.26337617353E+02  0.51100000000E-03 0. -1.
        -11    1    3    3    0    0 -0.97547435805E+01 -0.22331991808E+02 -0.16596937481E+01  0.24425958815E+02  0.51100000000E-03 0.  1.
        -12    1    3    3    0    0  0.69560435987E+01  0.78503517245E+01 -0.18994455157E+02  0.21698015842E+02  0.00000000000E+00 0.  1.
</event>
<event>
 7    1  0.1465498E-013  0.7246153E+02  0.7816164E-02  0.1226708E+00
        -11   -1    0    0    0    0  0.00000000000E+00  0.00000000000E+00  0.45593999997E+02  0.45594000000E+02  0.51100000000E-03 0.  1.
         11   -1    0    0    0    0 -0.00000000000E+00 -0.00000000000E+00 -0.45593999997E+02  0.45594000000E+02  0.51100000000E-03 0. -1.
    9900012    2    1    2    0    0 -0.92930489418E+01 -0.14846439143E+02 -0.66259340009E+01  0.72461534363E+02  0.69999953193E+02 0.  0.
         12    1    1    2    0    0  0.92930489418E+01  0.14846439143E+02  0.66259340009E+01  0.18726465637E+02  0.00000000000E+00 0. -1.
         11    1    3    3    0    0 -0.43931222830E+01 -0.23923228168E+02 -0.20265748566E+02  0.31659452531E+02  0.51100000000E-03 0. -1.
        -11    1    3    3    0    0 -0.11937126878E+02 -0.69479568783E+01 -0.54999352332E+01  0.14866687281E+02  0.51100000000E-03 0.  1.
         12    1    3    3    0    0  0.70372002195E+01  0.16024745903E+02  0.19139749798E+02  0.25935394551E+02  0.00000000000E+00 0. -1.
</event>
<event>
 7    1  0.1465498E-013  0.7246159E+02  0.7816164E-02  0.1226708E+00
        -11   -1    0    0    0    0  0.00000000000E+00  0.00000000000E+00  0.45593999997E+02  0.45594000000E+02  0.51100000000E-03 0.  1.
         11   -1    0    0    0    0 -0.00000000000E+00 -0.00000000000E+00 -0.45593999997E+02  0.45594000000E+02  0.51100000000E-03 0. -1.
    9900012    2    1    2    0    0  0.95363384234E+01  0.94511189334E+01  0.13054228416E+02  0.72461594067E+02  0.70000030969E+02 0.  0.
         12    1    1    2    0    0 -0.95363384234E+01 -0.94511189334E+01 -0.13054228416E+02  0.18726405933E+02  0.00000000000E+00 0. -1.
         11    1    3    3    0    0 -0.15365865456E+02 -0.17486942832E+02  0.49933784604E+01  0.23808335086E+02  0.51100000000E-03 0. -1.
        -11    1    3    3    0    0  0.18785784901E+02 -0.13683740508E-01  0.93543541903E+01  0.20985943967E+02  0.51100000000E-03 0.  1.
         12    1    3    3    0    0  0.61164189790E+01  0.26951745506E+02 -0.12935042348E+01  0.27667315015E+02  0.00000000000E+00 0. -1.
</event>
<event>
 7    1  0.1465498E-013  0.7246159E+02  0.7816164E-02  0.1226708E+00
        -11   -1    0    0    0    0  0.00000000000E+00  0.00000000000E+00  0.45593999997E+02  0.45594000000E+02  0.51100000000E-03 0. -1.
         11   -1    0    0    0    0 -0.00000000000E+00 -0.00000000000E+00 -0.45593999997E+02  0.45594000000E+02  0.51100000000E-03 0.  1.
    9900012    2    1    2    0    0  0.17978955068E+00 -0.21224422856E+01 -0.18604876792E+02  0.72461587477E+02  0.70000022384E+02 0.  0.
         12    1    1    2    0    0 -0.17978955068E+00  0.21224422856E+01  0.18604876792E+02  0.18726412523E+02  0.00000000000E+00 0. -1.
         11    1    3    3    0    0  0.70930042876E+01  0.21550231382E+02  0.11274655756E+02  0.25334582000E+02  0.51100000000E-03 0. -1.
        -11    1    3    3    0    0 -0.83691920563E+00 -0.13345602697E+02  0.15781551539E+01  0.13464624727E+02  0.51100000000E-03 0.  1.
        -12    1    3    3    0    0 -0.60762955313E+01 -0.10327070971E+02 -0.31457687701E+02  0.33662380750E+02  0.00000000000E+00 0.  1.
</event>
<event>
 7    1  0.1465498E-013  0.7246157E+02  0.7816164E-02  0.1226708E+00
        -11   -1    0    0    0    0  0.00000000000E+00  0.00000000000E+00  0.45593999997E+02  0.45594000000E+02  0.51100000000E-03 0. -1.
         11   -1    0    0    0    0 -0.00000000000E+00 -0.00000000000E+00 -0.45593999997E+02  0.45594000000E+02  0.51100000000E-03 0.  1.
    9900012    2    1    2    0    0 -0.26054380298E+00 -0.13897993020E+02 -0.12548195737E+02  0.72461566561E+02  0.69999995137E+02 0.  0.
         12    1    1    2    0    0  0.26054380298E+00  0.13897993020E+02  0.12548195737E+02  0.18726433439E+02  0.00000000000E+00 0. -1.
         11    1    3    3    0    0 -0.42869878793E+01 -0.10448043885E+02  0.29261090544E+01  0.11666276208E+02  0.51100000000E-03 0. -1.
        -11    1    3    3    0    0 -0.12652330981E+02  0.75354557517E+01 -0.31771318233E+02  0.35018298576E+02  0.51100000000E-03 0.  1.
         12    1    3    3    0    0  0.16678775058E+02 -0.10985404887E+02  0.16297013441E+02  0.25776991777E+02  0.00000000000E+00 0. -1.
</event>
<event>
 7    1  0.1465498E-013  0.7246147E+02  0.7816164E-02  0.1226708E+00
        -11   -1    0    0    0    0  0.00000000000E+00  0.00000000000E+00  0.45593999997E+02  0.45594000000E+02  0.51100000000E-03 0.  1.
         11   -1    0    0    0    0 -0.00000000000E+00 -0.00000000000E+00 -0.45593999997E+02  0.45594000000E+02  0.51100000000E-03 0. -1.
    9900012    2    1    2    0    0 -0.97434301412E+01 -0.82333925222E+01  0.13709836965E+02  0.72461473014E+02  0.69999873274E+02 0.  0.
         12    1    1    2    0    0  0.97434301412E+01  0.82333925222E+01 -0.13709836965E+02  0.18726526986E+02  0.00000000000E+00 0. -1.
         11    1    3    3    0    0 -0.16873753182E+02 -0.15899737947E+01 -0.66658114320E+00  0.16961600567E+02  0.51100000000E-03 0. -1.
        -11    1    3    3    0    0 -0.17957608828E+02  0.10570222153E+02  0.13941327748E+02  0.25071217179E+02  0.51100000000E-03 0.  1.
         12    1    3    3    0    0  0.25087931869E+02 -0.17213640880E+02  0.43509036057E+00  0.30428655268E+02  0.00000000000E+00 0. -1.
</event>
<event>
 7    1  0.1465498E-013  0.7246154E+02  0.7816164E-02  0.1226708E+00
        -11   -1    0    0    0    0  0.00000000000E+00  0.00000000000E+00  0.45593999997E+02  0.45594000000E+02  0.51100000000E-03 0.  1.
         11   -1    0    0    0    0 -0.00000000000E+00 -0.00000000000E+00 -0.45593999997E+02  0.45594000000E+02  0.51100000000E-03 0. -1.
    9900012    2    1    2    0    0 -0.94570616680E+01 -0.14869251646E+02  0.63363645608E+01  0.72461543428E+02  0.69999965001E+02 0.  0.
         12    1    1    2    0    0  0.94570616680E+01  0.14869251646E+02 -0.63363645608E+01  0.18726456572E+02  0.00000000000E+00 0. -1.
         11    1    3    3    0    0 -0.73399684182E+01 -0.60151077712E+01 -0.17898155367E+01  0.96571267878E+01  0.51100000000E-03 0. -1.
        -11    1    3    3    0    0 -0.18588003789E+02 -0.24460789143E+02  0.20524808715E+02  0.36947420254E+02  0.51100000000E-03 0.  1.
         12    1    3    3    0    0  0.16470910539E+02  0.15606645268E+02 -0.12398628618E+02  0.25856996386E+02  0.00000000000E+00 0. -1.
</event>
<event>
 7    1  0.1465498E-013  0.7246155E+02  0.7816164E-02  0.1226708E+00
        -11   -1    0    0    0    0  0.00000000000E+00  0.00000000000E+00  0.45593999997E+02  0.45594000000E+02  0.51100000000E-03 0. -1.
         11   -1    0    0    0    0 -0.00000000000E+00 -0.00000000000E+00 -0.45593999997E+02  0.45594000000E+02  0.51100000000E-03 0.  1.
    9900012    2    1    2    0    0 -0.45767659404E+01 -0.12206370090E+02 -0.13443871048E+02  0.72461550096E+02  0.69999973688E+02 0.  0.
         12    1    1    2    0    0  0.45767659404E+01  0.12206370090E+02  0.13443871048E+02  0.18726449904E+02  0.00000000000E+00 0. -1.
         11    1    3    3    0    0 -0.19020936273E+02 -0.10241187825E+02 -0.11458961474E+02  0.24453747016E+02  0.51100000000E-03 0. -1.
        -11    1    3    3    0    0 -0.13916458714E+02 -0.10988826239E+02  0.25099543367E+01  0.17908712860E+02  0.51100000000E-03 0.  1.
        -12    1    3    3    0    0  0.28360629047E+02  0.90236439741E+01 -0.44948639108E+01  0.30099090221E+02  0.00000000000E+00 0.  1.
</event>
<event>
 7    1  0.1465498E-013  0.7246158E+02  0.7816164E-02  0.1226708E+00
        -11   -1    0    0    0    0  0.00000000000E+00  0.00000000000E+00  0.45593999997E+02  0.45594000000E+02  0.51100000000E-03 0. -1.
         11   -1    0    0    0    0 -0.00000000000E+00 -0.00000000000E+00 -0.45593999997E+02  0.45594000000E+02  0.51100000000E-03 0.  1.
    9900012    2    1    2    0    0 -0.14052735133E+02 -0.96151259583E+01  0.77941485128E+01  0.72461581150E+02  0.70000014141E+02 0.  0.
         12    1    1    2    0    0  0.14052735133E+02  0.96151259583E+01 -0.77941485128E+01  0.18726418850E+02  0.00000000000E+00 0. -1.
         11    1    3    3    0    0 -0.14513874145E+01  0.78902436206E+01  0.14657417625E+02  0.16709349524E+02  0.51100000000E-03 0. -1.
        -11    1    3    3    0    0 -0.28436404561E+02 -0.26618865809E+01  0.77418865007E+01  0.29591410095E+02  0.51100000000E-03 0.  1.
        -12    1    3    3    0    0  0.15835056843E+02 -0.14843482998E+02 -0.14605155613E+02  0.26160821531E+02  0.00000000000E+00 0.  1.
</event>
<event>
 7    1  0.1465498E-013  0.7246160E+02  0.7816164E-02  0.1226708E+00
        -11   -1    0    0    0    0  0.00000000000E+00  0.00000000000E+00  0.45593999997E+02  0.45594000000E+02  0.51100000000E-03 0. -1.
         11   -1    0    0    0    0 -0.00000000000E+00 -0.00000000000E+00 -0.45593999997E+02  0.45594000000E+02  0.51100000000E-03 0.  1.
    9900012    2    1    2    0    0  0.59718377205E+00 -0.88823724311E+01 -0.16474980504E+02  0.72461597487E+02  0.70000035423E+02 0.  0.
         12    1    1    2    0    0 -0.59718377205E+00  0.88823724311E+01  0.16474980504E+02  0.18726402513E+02  0.00000000000E+00 0. -1.
         11    1    3    3    0    0 -0.20545894806E+01 -0.92318237387E+01 -0.49176817270E+01  0.10659807752E+02  0.51100000000E-03 0. -1.
        -11    1    3    3    0    0  0.17362487740E+02 -0.23859506828E+02 -0.15280865735E+02  0.33230060253E+02  0.51100000000E-03 0.  1.
         12    1    3    3    0    0 -0.14710714487E+02  0.24208958135E+02  0.37235669572E+01  0.28571729482E+02  0.00000000000E+00 0. -1.
</event>
<event>
 7    1  0.1465498E-013  0.7246149E+02  0.7816164E-02  0.1226708E+00
        -11   -1    0    0    0    0  0.00000000000E+00  0.00000000000E+00  0.45593999997E+02  0.45594000000E+02  0.51100000000E-03 0. -1.
         11   -1    0    0    0    0 -0.00000000000E+00 -0.00000000000E+00 -0.45593999997E+02  0.45594000000E+02  0.51100000000E-03 0.  1.
    9900012    2    1    2    0    0 -0.11518013510E+02  0.49737598637E+01 -0.13902496708E+02  0.72461485720E+02  0.69999889826E+02 0.  0.
         12    1    1    2    0    0  0.11518013510E+02 -0.49737598637E+01  0.13902496708E+02  0.18726514280E+02  0.00000000000E+00 0. -1.
         11    1    3    3    0    0  0.17221985354E+02  0.96175729243E+01 -0.26565763577E+02  0.33088280149E+02  0.51100000000E-03 0. -1.
        -11    1    3    3    0    0 -0.45921526541E+01  0.34827855400E+01  0.12642848457E+02  0.13894577305E+02  0.51100000000E-03 0.  1.
        -12    1    3    3    0    0 -0.24147846210E+02 -0.81265986006E+01  0.20418412584E-01  0.25478628266E+02  0.00000000000E+00 0.  1.
</event>
<event>
 7    1  0.1465498E-013  0.7246157E+02  0.7816164E-02  0.1226708E+00
        -11   -1    0    0    0    0  0.00000000000E+00  0.00000000000E+00  0.45593999997E+02  0.45594000000E+02  0.51100000000E-03 0.  1.
         11   -1    0    0    0    0 -0.00000000000E+00 -0.00000000000E+00 -0.45593999997E+02  0.45594000000E+02  0.51100000000E-03 0. -1.
    9900012    2    1    2    0    0 -0.16626661430E+02 -0.37923281971E+01  0.77363749267E+01  0.72461571604E+02  0.70000001706E+02 0.  0.
         12    1    1    2    0    0  0.16626661430E+02  0.37923281971E+01 -0.77363749267E+01  0.18726428396E+02  0.00000000000E+00 0. -1.
         11    1    3    3    0    0 -0.80913891651E+01  0.59746130277E+01 -0.16317869084E+02  0.19168709689E+02  0.51100000000E-03 0. -1.
        -11    1    3    3    0    0  0.74594364160E+01 -0.11033083685E+02 -0.93246468783E+01  0.16257957034E+02  0.51100000000E-03 0.  1.
        -12    1    3    3    0    0 -0.15994708681E+02  0.12661424606E+01  0.33378890889E+02  0.37034904880E+02  0.00000000000E+00 0.  1.
</event>
<event>
 7    1  0.1465498E-013  0.7246135E+02  0.7816164E-02  0.1226709E+00
        -11   -1    0    0    0    0  0.00000000000E+00  0.00000000000E+00  0.45593999997E+02  0.45594000000E+02  0.51100000000E-03 0.  1.
         11   -1    0    0    0    0 -0.00000000000E+00 -0.00000000000E+00 -0.45593999997E+02  0.45594000000E+02  0.51100000000E-03 0. -1.
    9900012    2    1    2    0    0 -0.93571377139E+01 -0.40455903455E+01  0.15708740137E+02  0.72461352032E+02  0.69999715672E+02 0.  0.
         12    1    1    2    0    0  0.93571377139E+01  0.40455903455E+01 -0.15708740137E+02  0.18726647968E+02  0.00000000000E+00 0. -1.
         11    1    3    3    0    0  0.66220289617E+01 -0.23443059480E+01 -0.34191230105E+01  0.78126461823E+01  0.51100000000E-03 0. -1.
        -11    1    3    3    0    0  0.22848857202E+02 -0.28906828579E+00  0.83411767783E+01  0.24325481829E+02  0.51100000000E-03 0.  1.
         12    1    3    3    0    0 -0.38828023877E+02 -0.14122161117E+01  0.10786686369E+02  0.40323224020E+02  0.00000000000E+00 0. -1.
</event>
<event>
 7    1  0.1465498E-013  0.7246161E+02  0.7816164E-02  0.1226708E+00
        -11   -1    0    0    0    0  0.00000000000E+00  0.00000000000E+00  0.45593999997E+02  0.45594000000E+02  0.51100000000E-03 0.  1.
         11   -1    0    0    0    0 -0.00000000000E+00 -0.00000000000E+00 -0.45593999997E+02  0.45594000000E+02  0.51100000000E-03 0. -1.
    9900012    2    1    2    0    0  0.15237663425E+02 -0.61267292495E+01  0.89974718118E+01  0.72461609612E+02  0.70000051219E+02 0.  0.
         12    1    1    2    0    0 -0.15237663425E+02  0.61267292495E+01 -0.89974718118E+01  0.18726390388E+02  0.00000000000E+00 0. -1.
         11    1    3    3    0    0  0.78739989552E+01 -0.28230375150E+01 -0.25603352746E+01  0.87478407243E+01  0.51100000000E-03 0. -1.
        -11    1    3    3    0    0  0.34749969570E+02  0.61733852206E+00  0.91730301433E+01  0.35945597425E+02  0.51100000000E-03 0.  1.
         12    1    3    3    0    0 -0.27386305100E+02 -0.39210302565E+01  0.23847769431E+01  0.27768171463E+02  0.00000000000E+00 0. -1.
</event>
<event>
 7    1  0.1465498E-013  0.7246155E+02  0.7816164E-02  0.1226708E+00
        -11   -1    0    0    0    0  0.00000000000E+00  0.00000000000E+00  0.45593999997E+02  0.45594000000E+02  0.51100000000E-03 0. -1.
         11   -1    0    0    0    0 -0.00000000000E+00 -0.00000000000E+00 -0.45593999997E+02  0.45594000000E+02  0.51100000000E-03 0.  1.
    9900012    2    1    2    0    0 -0.32082243184E+01  0.10794070649E+02 -0.14962464576E+02  0.72461547836E+02  0.69999970744E+02 0.  0.
         12    1    1    2    0    0  0.32082243184E+01 -0.10794070649E+02  0.14962464576E+02  0.18726452164E+02  0.00000000000E+00 0. -1.
         11    1    3    3    0    0  0.96160249925E+01 -0.22312382062E+02 -0.78759923955E+01  0.25540978572E+02  0.51100000000E-03 0. -1.
        -11    1    3    3    0    0 -0.37973529005E+01  0.30520299239E+01 -0.13968765755E+02  0.14793957979E+02  0.51100000000E-03 0.  1.
         12    1    3    3    0    0 -0.90268964104E+01  0.30054422787E+02  0.68822935739E+01  0.32126611286E+02  0.00000000000E+00 0. -1.
</event>
<event>
 7    1  0.1465498E-013  0.7246169E+02  0.7816164E-02  0.1226708E+00
        -11   -1    0    0    0    0  0.00000000000E+00  0.00000000000E+00  0.45593999997E+02  0.45594000000E+02  0.51100000000E-03 0.  1.
         11   -1    0    0    0    0 -0.00000000000E+00 -0.00000000000E+00 -0.45593999997E+02  0.45594000000E+02  0.51100000000E-03 0. -1.
    9900012    2    1    2    0    0 -0.77775692844E+01  0.41226973041E+01  0.16528382679E+02  0.72461690940E+02  0.70000157163E+02 0.  0.
         12    1    1    2    0    0  0.77775692844E+01 -0.41226973041E+01 -0.16528382679E+02  0.18726309060E+02  0.00000000000E+00 0. -1.
         11    1    3    3    0    0 -0.18643442707E+02 -0.17724359850E+01  0.32790959060E+02  0.37761971368E+02  0.51100000000E-03 0. -1.
        -11    1    3    3    0    0  0.10922985825E+02 -0.61689877332E+01  0.21093797235E+01  0.12720751239E+02  0.51100000000E-03 0.  1.
         12    1    3    3    0    0 -0.57112402832E-01  0.12064121022E+02 -0.18371956105E+02  0.21978968333E+02  0.00000000000E+00 0. -1.
</event>
<event>
 7    1  0.1465498E-013  0.7246161E+02  0.7816164E-02  0.1226708E+00
        -11   -1    0    0    0    0  0.00000000000E+00  0.00000000000E+00  0.45593999997E+02  0.45594000000E+02  0.51100000000E-03 0. -1.
         11   -1    0    0    0    0 -0.00000000000E+00 -0.00000000000E+00 -0.45593999997E+02  0.45594000000E+02  0.51100000000E-03 0.  1.
    9900012    2    1    2    0    0  0.78262464030E+01  0.34758335055E+01 -0.16653715182E+02  0.72461607377E+02  0.70000048306E+02 0.  0.
         12    1    1    2    0    0 -0.78262464030E+01 -0.34758335055E+01  0.16653715182E+02  0.18726392623E+02  0.00000000000E+00 0. -1.
         11    1    3    3    0    0  0.22525109559E+02 -0.75842692653E+01 -0.22203501826E+02  0.32525331582E+02  0.51100000000E-03 0. -1.
        -11    1    3    3    0    0 -0.13215146323E+02 -0.95406532744E+01 -0.45819047772E+01  0.16930977789E+02  0.51100000000E-03 0.  1.
        -12    1    3    3    0    0 -0.14837168332E+01  0.20600756045E+02  0.10131691421E+02  0.23005298006E+02  0.00000000000E+00 0.  1.
</event>
<event>
 7    1  0.1465498E-013  0.7246150E+02  0.7816164E-02  0.1226708E+00
        -11   -1    0    0    0    0  0.00000000000E+00  0.00000000000E+00  0.45593999997E+02  0.45594000000E+02  0.51100000000E-03 0. -1.
         11   -1    0    0    0    0 -0.00000000000E+00 -0.00000000000E+00 -0.45593999997E+02  0.45594000000E+02  0.51100000000E-03 0.  1.
    9900012    2    1    2    0    0  0.61671561165E+01 -0.14988104357E+02  0.93810891715E+01  0.72461496834E+02  0.69999904305E+02 0.  0.
         12    1    1    2    0    0 -0.61671561165E+01  0.14988104357E+02 -0.93810891715E+01  0.18726503166E+02  0.00000000000E+00 0. -1.
         11    1    3    3    0    0 -0.10244900598E+02 -0.14322607673E+02  0.13273994535E+02  0.22052074959E+02  0.51100000000E-03 0. -1.
        -11    1    3    3    0    0  0.10955280626E+01 -0.16423701147E+02  0.14358841315E+02  0.21842950013E+02  0.51100000000E-03 0.  1.
        -12    1    3    3    0    0  0.15316528652E+02  0.15758204463E+02 -0.18251746679E+02  0.28566471862E+02  0.00000000000E+00 0.  1.
</event>
<event>
 7    1  0.1465498E-013  0.7246159E+02  0.7816164E-02  0.1226708E+00
        -11   -1    0    0    0    0  0.00000000000E+00  0.00000000000E+00  0.45593999997E+02  0.45594000000E+02  0.51100000000E-03 0.  1.
         11   -1    0    0    0    0 -0.00000000000E+00 -0.00000000000E+00 -0.45593999997E+02  0.45594000000E+02  0.51100000000E-03 0. -1.
    9900012    2    1    2    0    0 -0.14293637770E+02  0.42211533991E+01  0.11338086047E+02  0.72461590523E+02  0.70000026351E+02 0.  0.
         12    1    1    2    0    0  0.14293637770E+02 -0.42211533991E+01 -0.11338086047E+02  0.18726409477E+02  0.00000000000E+00 0. -1.
         11    1    3    3    0    0  0.47913172298E+01 -0.18748939327E+02  0.85053837939E+01  0.21138140893E+02  0.51100000000E-03 0. -1.
        -11    1    3    3    0    0 -0.22790039850E+01 -0.60169117295E+01  0.14484160145E+02  0.15848911044E+02  0.51100000000E-03 0.  1.
         12    1    3    3    0    0 -0.16805951014E+02  0.28987004456E+02 -0.11651457892E+02  0.35474538585E+02  0.00000000000E+00 0. -1.
</event>
<event>
 7    1  0.1465498E-013  0.7246142E+02  0.7816164E-02  0.1226708E+00
        -11   -1    0    0    0    0  0.00000000000E+00  0.00000000000E+00  0.45593999997E+02  0.45594000000E+02  0.51100000000E-03 0. -1.
         11   -1    0    0    0    0 -0.00000000000E+00 -0.00000000000E+00 -0.45593999997E+02  0.45594000000E+02  0.51100000000E-03 0.  1.
    9900012    2    1    2    0    0  0.26057958838E+01  0.78156105928E+01 -0.16816981049E+02  0.72461420154E+02  0.69999804414E+02 0.  0.
         12    1    1    2    0    0 -0.26057958838E+01 -0.78156105928E+01  0.16816981049E+02  0.18726579846E+02  0.00000000000E+00 0. -1.
         11    1    3    3    0    0 -0.29541911882E+02 -0.17510301542E+01  0.12628394723E+01  0.29620692565E+02  0.51100000000E-03 0. -1.
        -11    1    3    3    0    0  0.24050112567E+01 -0.20897953940E+01  0.31532186319E+01  0.44826456402E+01  0.51100000000E-03 0.  1.
        -12    1    3    3    0    0  0.29742696509E+02  0.11656436141E+02 -0.21233039153E+02  0.38358081949E+02  0.00000000000E+00 0.  1.
</event>
<event>
 7    1  0.1465498E-013  0.7246166E+02  0.7816164E-02  0.1226708E+00
        -11   -1    0    0    0    0  0.00000000000E+00  0.00000000000E+00  0.45593999997E+02  0.45594000000E+02  0.51100000000E-03 0. -1.
         11   -1    0    0    0    0 -0.00000000000E+00 -0.00000000000E+00 -0.45593999997E+02  0.45594000000E+02  0.51100000000E-03 0.  1.
    9900012    2    1    2    0    0  0.85677455524E+00 -0.48421907093E+01 -0.18069168643E+02  0.72461662158E+02  0.70000119670E+02 0.  0.
         12    1    1    2    0    0 -0.85677455524E+00  0.48421907093E+01  0.18069168643E+02  0.18726337842E+02  0.00000000000E+00 0. -1.
         11    1    3    3    0    0  0.41582601174E+01 -0.13348502950E+02  0.64255021486E+01  0.15387031433E+02  0.51100000000E-03 0. -1.
        -11    1    3    3    0    0  0.17793600226E+02 -0.12516088117E+02 -0.96624294455E+01  0.23803932738E+02  0.51100000000E-03 0.  1.
         12    1    3    3    0    0 -0.21095085788E+02  0.21022400357E+02 -0.14832241346E+02  0.33270697987E+02  0.00000000000E+00 0. -1.
</event>
<event>
 7    1  0.1465498E-013  0.7246159E+02  0.7816164E-02  0.1226708E+00
        -11   -1    0    0    0    0  0.00000000000E+00  0.00000000000E+00  0.45593999997E+02  0.45594000000E+02  0.51100000000E-03 0. -1.
         11   -1    0    0    0    0 -0.00000000000E+00 -0.00000000000E+00 -0.45593999997E+02  0.45594000000E+02  0.51100000000E-03 0.  1.
    9900012    2    1    2    0    0 -0.87704102217E+01  0.11681584994E+02 -0.11717465848E+02  0.72461587388E+02  0.70000022267E+02 0.  0.
         12    1    1    2    0    0  0.87704102217E+01 -0.11681584994E+02  0.11717465848E+02  0.18726412612E+02  0.00000000000E+00 0. -1.
         11    1    3    3    0    0 -0.19738839195E+02 -0.44212504027E+01  0.17044526277E+01  0.20299615438E+02  0.51100000000E-03 0. -1.
        -11    1    3    3    0    0 -0.57098216069E+01 -0.10408977047E+02  0.79102179406E+01  0.14266058113E+02  0.51100000000E-03 0.  1.
        -12    1    3    3    0    0  0.16678250580E+02  0.26511812444E+02 -0.21332136416E+02  0.37895913837E+02  0.00000000000E+00 0.  1.
</event>
<event>
 7    1  0.1465498E-013  0.7246157E+02  0.7816164E-02  0.1226708E+00
        -11   -1    0    0    0    0  0.00000000000E+00  0.00000000000E+00  0.45593999997E+02  0.45594000000E+02  0.51100000000E-03 0. -1.
         11   -1    0    0    0    0 -0.00000000000E+00 -0.00000000000E+00 -0.45593999997E+02  0.45594000000E+02  0.51100000000E-03 0.  1.
    9900012    2    1    2    0    0  0.17458119102E+00  0.50988150557E+01 -0.18018069412E+02  0.72461568976E+02  0.69999998282E+02 0.  0.
         12    1    1    2    0    0 -0.17458119102E+00 -0.50988150557E+01  0.18018069412E+02  0.18726431024E+02  0.00000000000E+00 0. -1.
         11    1    3    3    0    0 -0.10300160062E+02  0.20832629739E+02 -0.10837551929E+02  0.25642626449E+02  0.51100000000E-03 0. -1.
        -11    1    3    3    0    0  0.22724870878E+02  0.26518276907E+01 -0.91445464718E+01  0.24638885465E+02  0.51100000000E-03 0.  1.
        -12    1    3    3    0    0 -0.12250129626E+02 -0.18385642374E+02  0.19640289888E+01  0.22180057061E+02  0.00000000000E+00 0.  1.
</event>
<event>
 7    1  0.1465498E-013  0.7246152E+02  0.7816164E-02  0.1226708E+00
        -11   -1    0    0    0    0  0.00000000000E+00  0.00000000000E+00  0.45593999997E+02  0.45594000000E+02  0.51100000000E-03 0.  1.
         11   -1    0    0    0    0 -0.00000000000E+00 -0.00000000000E+00 -0.45593999997E+02  0.45594000000E+02  0.51100000000E-03 0. -1.
    9900012    2    1    2    0    0  0.90414588084E+01 -0.13428856770E+02  0.94127028850E+01  0.72461517492E+02  0.69999931215E+02 0.  0.
         12    1    1    2    0    0 -0.90414588084E+01  0.13428856770E+02 -0.94127028850E+01  0.18726482508E+02  0.00000000000E+00 0. -1.
         11    1    3    3    0    0  0.16207054025E+02 -0.10069476662E+01  0.92041435272E+01  0.18665444064E+02  0.51100000000E-03 0. -1.
        -11    1    3    3    0    0  0.46566818281E+01 -0.14834049204E+02  0.23143388665E+02  0.27880999634E+02  0.51100000000E-03 0.  1.
         12    1    3    3    0    0 -0.11822277045E+02  0.24121401002E+01 -0.22934829307E+02  0.25915073794E+02  0.00000000000E+00 0. -1.
</event>
<event>
 7    1  0.1465498E-013  0.7246126E+02  0.7816164E-02  0.1226709E+00
        -11   -1    0    0    0    0  0.00000000000E+00  0.00000000000E+00  0.45593999997E+02  0.45594000000E+02  0.51100000000E-03 0. -1.
         11   -1    0    0    0    0 -0.00000000000E+00 -0.00000000000E+00 -0.45593999997E+02  0.45594000000E+02  0.51100000000E-03 0.  1.
    9900012    2    1    2    0    0  0.17798251164E+02  0.37086858379E+01  0.44898535451E+01  0.72461257624E+02  0.69999592688E+02 0.  0.
         12    1    1    2    0    0 -0.17798251164E+02 -0.37086858379E+01 -0.44898535451E+01  0.18726742376E+02  0.00000000000E+00 0. -1.
         11    1    3    3    0    0 -0.64592274081E+01  0.24542832732E+00 -0.10654107028E+02  0.12461615088E+02  0.51100000000E-03 0. -1.
        -11    1    3    3    0    0 -0.49349217545E+01  0.89541821989E+01  0.26340556877E+02  0.28255190114E+02  0.51100000000E-03 0.  1.
        -12    1    3    3    0    0  0.29192400327E+02 -0.54909246883E+01 -0.11196596304E+02  0.31744452422E+02  0.00000000000E+00 0.  1.
</event>
<event>
 7    1  0.1465498E-013  0.7246156E+02  0.7816164E-02  0.1226708E+00
        -11   -1    0    0    0    0  0.00000000000E+00  0.00000000000E+00  0.45593999997E+02  0.45594000000E+02  0.51100000000E-03 0.  1.
         11   -1    0    0    0    0 -0.00000000000E+00 -0.00000000000E+00 -0.45593999997E+02  0.45594000000E+02  0.51100000000E-03 0. -1.
    9900012    2    1    2    0    0 -0.38356167784E+01 -0.10399433504E+02  0.15093690159E+02  0.72461557308E+02  0.69999983083E+02 0.  0.
         12    1    1    2    0    0  0.38356167784E+01  0.10399433504E+02 -0.15093690159E+02  0.18726442692E+02  0.00000000000E+00 0. -1.
         11    1    3    3    0    0  0.90452790391E+01 -0.97534488370E+01  0.17312296315E+02  0.21832600419E+02  0.51100000000E-03 0.  1.
        -11    1    3    3    0    0 -0.23513686602E+01 -0.20303870266E+02  0.12453742240E+02  0.23934739990E+02  0.51100000000E-03 0. -1.
         12    1    3    3    0    0 -0.10529527157E+02  0.19657885599E+02 -0.14672348396E+02  0.26694216899E+02  0.00000000000E+00 0. -1.
</event>
<event>
 7    1  0.1465498E-013  0.7246149E+02  0.7816164E-02  0.1226708E+00
        -11   -1    0    0    0    0  0.00000000000E+00  0.00000000000E+00  0.45593999997E+02  0.45594000000E+02  0.51100000000E-03 0. -1.
         11   -1    0    0    0    0 -0.00000000000E+00 -0.00000000000E+00 -0.45593999997E+02  0.45594000000E+02  0.51100000000E-03 0.  1.
    9900012    2    1    2    0    0 -0.16214662900E+02  0.56027922688E+01 -0.75083810153E+01  0.72461485118E+02  0.69999889042E+02 0.  0.
         12    1    1    2    0    0  0.16214662900E+02 -0.56027922688E+01  0.75083810153E+01  0.18726514882E+02  0.00000000000E+00 0. -1.
         11    1    3    3    0    0 -0.75307287996E+00  0.89625655990E+00  0.13835980373E+02  0.13885414928E+02  0.51100000000E-03 0. -1.
        -11    1    3    3    0    0  0.12675474044E+02 -0.44262200950E+01  0.90272563078E+01  0.16178702769E+02  0.51100000000E-03 0.  1.
         12    1    3    3    0    0 -0.28137064064E+02  0.91327558039E+01 -0.30371617696E+02  0.42397367421E+02  0.00000000000E+00 0. -1.
</event>
<event>
 7    1  0.1465498E-013  0.7246156E+02  0.7816164E-02  0.1226708E+00
        -11   -1    0    0    0    0  0.00000000000E+00  0.00000000000E+00  0.45593999997E+02  0.45594000000E+02  0.51100000000E-03 0.  1.
         11   -1    0    0    0    0 -0.00000000000E+00 -0.00000000000E+00 -0.45593999997E+02  0.45594000000E+02  0.51100000000E-03 0. -1.
    9900012    2    1    2    0    0 -0.91922176332E+01  0.13612981740E+02 -0.89927441621E+01  0.72461559216E+02  0.69999985569E+02 0.  0.
         12    1    1    2    0    0  0.91922176332E+01 -0.13612981740E+02  0.89927441621E+01  0.18726440784E+02  0.00000000000E+00 0. -1.
         11    1    3    3    0    0  0.41968429712E+01  0.11892873994E+02 -0.15143943631E+02  0.19707688137E+02  0.51100000000E-03 0. -1.
        -11    1    3    3    0    0 -0.10444995050E+02  0.18973481726E+02 -0.14209899723E+02  0.25903902810E+02  0.51100000000E-03 0.  1.
        -12    1    3    3    0    0 -0.29440655545E+01 -0.17253373981E+02  0.20361099192E+02  0.26849968268E+02  0.00000000000E+00 0.  1.
</event>
<event>
 7    1  0.1465498E-013  0.7246163E+02  0.7816164E-02  0.1226708E+00
        -11   -1    0    0    0    0  0.00000000000E+00  0.00000000000E+00  0.45593999997E+02  0.45594000000E+02  0.51100000000E-03 0. -1.
         11   -1    0    0    0    0 -0.00000000000E+00 -0.00000000000E+00 -0.45593999997E+02  0.45594000000E+02  0.51100000000E-03 0.  1.
    9900012    2    1    2    0    0 -0.51901145587E+01 -0.17986521197E+02  0.47407777166E+00  0.72461628658E+02  0.70000076030E+02 0.  0.
         12    1    1    2    0    0  0.51901145587E+01  0.17986521197E+02 -0.47407777166E+00  0.18726371342E+02  0.00000000000E+00 0. -1.
         11    1    3    3    0    0  0.12569364600E+02 -0.52360366635E-01 -0.16544754939E+01  0.12677892470E+02  0.51100000000E-03 0. -1.
        -11    1    3    3    0    0 -0.29607722042E+01 -0.31723679287E+02  0.15605239043E+02  0.35477901367E+02  0.51100000000E-03 0.  1.
         12    1    3    3    0    0 -0.14798706955E+02  0.13789518457E+02 -0.13476685777E+02  0.24305834821E+02  0.00000000000E+00 0. -1.
</event>
<event>
 7    1  0.1465498E-013  0.7246145E+02  0.7816164E-02  0.1226708E+00
        -11   -1    0    0    0    0  0.00000000000E+00  0.00000000000E+00  0.45593999997E+02  0.45594000000E+02  0.51100000000E-03 0.  1.
         11   -1    0    0    0    0 -0.00000000000E+00 -0.00000000000E+00 -0.45593999997E+02  0.45594000000E+02  0.51100000000E-03 0. -1.
    9900012    2    1    2    0    0  0.84564166663E+01 -0.12844473381E+02  0.10686072713E+02  0.72461451218E+02  0.69999844880E+02 0.  0.
         12    1    1    2    0    0 -0.84564166663E+01  0.12844473381E+02 -0.10686072713E+02  0.18726548782E+02  0.00000000000E+00 0. -1.
         11    1    3    3    0    0 -0.78572049551E+01  0.96235816074E+00 -0.13382087777E+01  0.80282380339E+01  0.51100000000E-03 0. -1.
        -11    1    3    3    0    0 -0.18964435368E+02 -0.39257544390E+01  0.19009944660E+02  0.27137416107E+02  0.51100000000E-03 0.  1.
         12    1    3    3    0    0  0.35278056989E+02 -0.98810771027E+01 -0.69856631691E+01  0.37295797076E+02  0.00000000000E+00 0. -1.
</event>
<event>
 7    1  0.1465498E-013  0.7246157E+02  0.7816164E-02  0.1226708E+00
        -11   -1    0    0    0    0  0.00000000000E+00  0.00000000000E+00  0.45593999997E+02  0.45594000000E+02  0.51100000000E-03 0. -1.
         11   -1    0    0    0    0 -0.00000000000E+00 -0.00000000000E+00 -0.45593999997E+02  0.45594000000E+02  0.51100000000E-03 0.  1.
    9900012    2    1    2    0    0 -0.52728471519E+01  0.14782505150E+02 -0.10215374778E+02  0.72461567947E+02  0.69999996942E+02 0.  0.
         12    1    1    2    0    0  0.52728471519E+01 -0.14782505150E+02  0.10215374778E+02  0.18726432053E+02  0.00000000000E+00 0. -1.
         11    1    3    3    0    0  0.63599589758E+01 -0.27918913922E+01  0.19242896837E+00  0.69484361470E+01  0.51100000000E-03 0. -1.
        -11    1    3    3    0    0  0.18804860217E+02  0.21913595736E+02 -0.17760449872E+02  0.33900767333E+02  0.51100000000E-03 0.  1.
         12    1    3    3    0    0 -0.30437666344E+02 -0.43391991944E+01  0.73526461249E+01  0.31612364467E+02  0.00000000000E+00 0. -1.
</event>
<event>
 7    1  0.1465498E-013  0.7246154E+02  0.7816164E-02  0.1226708E+00
        -11   -1    0    0    0    0  0.00000000000E+00  0.00000000000E+00  0.45593999997E+02  0.45594000000E+02  0.51100000000E-03 0.  1.
         11   -1    0    0    0    0 -0.00000000000E+00 -0.00000000000E+00 -0.45593999997E+02  0.45594000000E+02  0.51100000000E-03 0. -1.
    9900012    2    1    2    0    0  0.75521933319E+01  0.85203242936E+01  0.14867705989E+02  0.72461541938E+02  0.69999963060E+02 0.  0.
         12    1    1    2    0    0 -0.75521933319E+01 -0.85203242936E+01 -0.14867705989E+02  0.18726458062E+02  0.00000000000E+00 0. -1.
         11    1    3    3    0    0 -0.12028242557E+01 -0.20305723564E+02  0.11971125539E+02  0.23602479585E+02  0.51100000000E-03 0. -1.
        -11    1    3    3    0    0  0.16133101671E+02  0.13328736677E+02 -0.13676589002E+02  0.24999625556E+02  0.51100000000E-03 0.  1.
        -12    1    3    3    0    0 -0.73780840837E+01  0.15497311181E+02  0.16573169452E+02  0.23859436797E+02  0.00000000000E+00 0.  1.
</event>
<event>
 7    1  0.1465498E-013  0.7246158E+02  0.7816164E-02  0.1226708E+00
        -11   -1    0    0    0    0  0.00000000000E+00  0.00000000000E+00  0.45593999997E+02  0.45594000000E+02  0.51100000000E-03 0. -1.
         11   -1    0    0    0    0 -0.00000000000E+00 -0.00000000000E+00 -0.45593999997E+02  0.45594000000E+02  0.51100000000E-03 0.  1.
    9900012    2    1    2    0    0  0.42447713549E+01  0.12927105819E+02 -0.12866656049E+02  0.72461575179E+02  0.70000006363E+02 0.  0.
         12    1    1    2    0    0 -0.42447713549E+01 -0.12927105819E+02  0.12866656049E+02  0.18726424821E+02  0.00000000000E+00 0. -1.
         11    1    3    3    0    0  0.46628515517E+00  0.13001883414E+02 -0.10680912806E+02  0.16832952587E+02  0.51100000000E-03 0. -1.
        -11    1    3    3    0    0 -0.19437216637E+02 -0.18841055122E+01 -0.18734004473E+02  0.27061377792E+02  0.51100000000E-03 0.  1.
         12    1    3    3    0    0  0.23215702837E+02  0.18093279171E+01  0.16548261230E+02  0.28567244800E+02  0.00000000000E+00 0. -1.
</event>
<event>
 7    1  0.1465498E-013  0.7246156E+02  0.7816164E-02  0.1226708E+00
        -11   -1    0    0    0    0  0.00000000000E+00  0.00000000000E+00  0.45593999997E+02  0.45594000000E+02  0.51100000000E-03 0.  1.
         11   -1    0    0    0    0 -0.00000000000E+00 -0.00000000000E+00 -0.45593999997E+02  0.45594000000E+02  0.51100000000E-03 0. -1.
    9900012    2    1    2    0    0 -0.68946600088E+01 -0.88932377221E+01  0.14968420429E+02  0.72461558161E+02  0.69999984194E+02 0.  0.
         12    1    1    2    0    0  0.68946600088E+01  0.88932377221E+01 -0.14968420429E+02  0.18726441839E+02  0.00000000000E+00 0. -1.
         11    1    3    3    0    0 -0.13452746300E+02  0.64313154332E-01  0.60891106826E+01  0.14766779892E+02  0.51100000000E-03 0. -1.
        -11    1    3    3    0    0  0.23812504718E+01 -0.23982030645E+02  0.25374386526E+02  0.34995251671E+02  0.51100000000E-03 0.  1.
         12    1    3    3    0    0  0.41768358198E+01  0.15024479769E+02 -0.16495076780E+02  0.22699526598E+02  0.00000000000E+00 0. -1.
</event>
<event>
 7    1  0.1465498E-013  0.7246157E+02  0.7816164E-02  0.1226708E+00
        -11   -1    0    0    0    0  0.00000000000E+00  0.00000000000E+00  0.45593999997E+02  0.45594000000E+02  0.51100000000E-03 0.  1.
         11   -1    0    0    0    0 -0.00000000000E+00 -0.00000000000E+00 -0.45593999997E+02  0.45594000000E+02  0.51100000000E-03 0. -1.
    9900012    2    1    2    0    0 -0.14601965426E+00  0.26890078498E+01  0.18531788736E+02  0.72461567379E+02  0.69999996202E+02 0.  0.
         12    1    1    2    0    0  0.14601965426E+00 -0.26890078498E+01 -0.18531788736E+02  0.18726432621E+02  0.00000000000E+00 0. -1.
         11    1    3    3    0    0  0.24374842169E+02 -0.15874715824E+02  0.15544359914E+02  0.32981307716E+02  0.51100000000E-03 0. -1.
        -11    1    3    3    0    0  0.33595956299E+00 -0.24283757501E+01  0.63162877631E+01  0.67753501001E+01  0.51100000000E-03 0.  1.
        -12    1    3    3    0    0 -0.24856821386E+02  0.20992099424E+02 -0.33288589411E+01  0.32704909563E+02  0.00000000000E+00 0.  1.
</event>
<event>
 7    1  0.1465498E-013  0.7246156E+02  0.7816164E-02  0.1226708E+00
        -11   -1    0    0    0    0  0.00000000000E+00  0.00000000000E+00  0.45593999997E+02  0.45594000000E+02  0.51100000000E-03 0. -1.
         11   -1    0    0    0    0 -0.00000000000E+00 -0.00000000000E+00 -0.45593999997E+02  0.45594000000E+02  0.51100000000E-03 0.  1.
    9900012    2    1    2    0    0 -0.73728940979E+00 -0.10360594175E+01 -0.18683212934E+02  0.72461562530E+02  0.69999989886E+02 0.  0.
         12    1    1    2    0    0  0.73728940979E+00  0.10360594175E+01  0.18683212934E+02  0.18726437470E+02  0.00000000000E+00 0. -1.
         11    1    3    3    0    0 -0.15285636104E+02  0.67689568015E+01  0.15175286756E+02  0.22577838153E+02  0.51100000000E-03 0. -1.
        -11    1    3    3    0    0  0.98946063861E+01  0.12400231404E+02 -0.15758318901E+02  0.22360536426E+02  0.51100000000E-03 0.  1.
        -12    1    3    3    0    0  0.46537403081E+01 -0.20205247623E+02 -0.18100180789E+02  0.27523187951E+02  0.00000000000E+00 0.  1.
</event>
<event>
 7    1  0.1667688E-013  0.7246161E+02  0.7816164E-02  0.1226708E+00
        -11   -1    0    0    0    0  0.00000000000E+00  0.00000000000E+00  0.45593999997E+02  0.45594000000E+02  0.51100000000E-03 0.  1.
         11   -1    0    0    0    0 -0.00000000000E+00 -0.00000000000E+00 -0.45593999997E+02  0.45594000000E+02  0.51100000000E-03 0. -1.
    9900012    2    1    2    0    0  0.18552679584E+02  0.23820486324E+01 -0.89526043424E+00  0.72461613091E+02  0.70000055750E+02 0.  0.
         12    1    1    2    0    0 -0.18552679584E+02 -0.23820486324E+01  0.89526043424E+00  0.18726386909E+02  0.00000000000E+00 0. -1.
         11    1    3    3    0    0 -0.56094402712E+01  0.17888769460E+01 -0.24984738950E+02  0.25669107533E+02  0.51100000000E-03 0. -1.
        -11    1    3    3    0    0 -0.41503407440E+01 -0.33320217032E+01  0.16328946484E+02  0.17174463324E+02  0.51100000000E-03 0.  1.
        -12    1    3    3    0    0  0.28312460599E+02  0.39251933896E+01  0.77605320322E+01  0.29618042234E+02  0.00000000000E+00 0.  1.
</event>
<event>
 7    1  0.1465498E-013  0.7246162E+02  0.7816164E-02  0.1226708E+00
        -11   -1    0    0    0    0  0.00000000000E+00  0.00000000000E+00  0.45593999997E+02  0.45594000000E+02  0.51100000000E-03 0. -1.
         11   -1    0    0    0    0 -0.00000000000E+00 -0.00000000000E+00 -0.45593999997E+02  0.45594000000E+02  0.51100000000E-03 0.  1.
    9900012    2    1    2    0    0 -0.18683627675E+02  0.72804945803E+00  0.10340547819E+01  0.72461621054E+02  0.70000066124E+02 0.  0.
         12    1    1    2    0    0  0.18683627675E+02 -0.72804945803E+00 -0.10340547819E+01  0.18726378946E+02  0.00000000000E+00 0. -1.
         11    1    3    3    0    0  0.47348582064E+01  0.26020021090E+02  0.13680532831E+02  0.29776120610E+02  0.51100000000E-03 0. -1.
        -11    1    3    3    0    0 -0.68128988583E+01 -0.11866304547E+02  0.54169019591E+01  0.14716235984E+02  0.51100000000E-03 0.  1.
        -12    1    3    3    0    0 -0.16605587024E+02 -0.13425667086E+02 -0.18063380009E+02  0.27969264460E+02  0.00000000000E+00 0.  1.
</event>
<event>
 7    1  0.1465498E-013  0.7246155E+02  0.7816164E-02  0.1226708E+00
        -11   -1    0    0    0    0  0.00000000000E+00  0.00000000000E+00  0.45593999997E+02  0.45594000000E+02  0.51100000000E-03 0. -1.
         11   -1    0    0    0    0 -0.00000000000E+00 -0.00000000000E+00 -0.45593999997E+02  0.45594000000E+02  0.51100000000E-03 0.  1.
    9900012    2    1    2    0    0 -0.11124330336E+02 -0.84434460846E+01 -0.12475467343E+02  0.72461553658E+02  0.69999978327E+02 0.  0.
         12    1    1    2    0    0  0.11124330336E+02  0.84434460846E+01  0.12475467343E+02  0.18726446342E+02  0.00000000000E+00 0. -1.
         11    1    3    3    0    0 -0.97971075298E+01  0.11105634958E+02 -0.26966162916E+02  0.30765116389E+02  0.51100000000E-03 0. -1.
        -11    1    3    3    0    0 -0.14579330792E+02  0.81631872902E+00  0.34285910840E+01  0.14999283306E+02  0.51100000000E-03 0.  1.
         12    1    3    3    0    0  0.13252107987E+02 -0.20365399772E+02  0.11062104489E+02  0.26697153962E+02  0.00000000000E+00 0. -1.
</event>
<event>
 7    1  0.1465498E-013  0.7246159E+02  0.7816164E-02  0.1226708E+00
        -11   -1    0    0    0    0  0.00000000000E+00  0.00000000000E+00  0.45593999997E+02  0.45594000000E+02  0.51100000000E-03 0. -1.
         11   -1    0    0    0    0 -0.00000000000E+00 -0.00000000000E+00 -0.45593999997E+02  0.45594000000E+02  0.51100000000E-03 0.  1.
    9900012    2    1    2    0    0  0.17372002290E+02  0.10020046084E+00  0.69915481680E+01  0.72461594859E+02  0.70000032001E+02 0.  0.
         12    1    1    2    0    0 -0.17372002290E+02 -0.10020046084E+00 -0.69915481680E+01  0.18726405141E+02  0.00000000000E+00 0. -1.
         11    1    3    3    0    0 -0.10799074958E+02 -0.16050715302E+02  0.15998599714E+02  0.25103798014E+02  0.51100000000E-03 0. -1.
        -11    1    3    3    0    0  0.64110731188E+01  0.21955448845E+02 -0.96572468883E+01  0.24827525254E+02  0.51100000000E-03 0.  1.
        -12    1    3    3    0    0  0.21760004129E+02 -0.58045330814E+01  0.65019534241E+00  0.22530271591E+02  0.00000000000E+00 0.  1.
</event>
<event>
 7    1  0.1465498E-013  0.7246151E+02  0.7816164E-02  0.1226708E+00
        -11   -1    0    0    0    0  0.00000000000E+00  0.00000000000E+00  0.45593999997E+02  0.45594000000E+02  0.51100000000E-03 0. -1.
         11   -1    0    0    0    0 -0.00000000000E+00 -0.00000000000E+00 -0.45593999997E+02  0.45594000000E+02  0.51100000000E-03 0.  1.
    9900012    2    1    2    0    0 -0.91541392323E+01  0.14575669385E+02 -0.73778757487E+01  0.72461509307E+02  0.69999920553E+02 0.  0.
         12    1    1    2    0    0  0.91541392323E+01 -0.14575669385E+02  0.73778757487E+01  0.18726490693E+02  0.00000000000E+00 0. -1.
         11    1    3    3    0    0 -0.17136463882E+02 -0.20519316523E+01  0.26703001477E+02  0.31794954097E+02  0.51100000000E-03 0. -1.
        -11    1    3    3    0    0 -0.17062887740E+01 -0.88695126764E+00 -0.50556338295E+01  0.54090237206E+01  0.51100000000E-03 0.  1.
        -12    1    3    3    0    0  0.96886134234E+01  0.17514552305E+02 -0.29025243397E+02  0.35257531490E+02  0.00000000000E+00 0.  1.
</event>
<event>
 7    1  0.1465498E-013  0.7246151E+02  0.7816164E-02  0.1226708E+00
        -11   -1    0    0    0    0  0.00000000000E+00  0.00000000000E+00  0.45593999997E+02  0.45594000000E+02  0.51100000000E-03 0.  1.
         11   -1    0    0    0    0 -0.00000000000E+00 -0.00000000000E+00 -0.45593999997E+02  0.45594000000E+02  0.51100000000E-03 0. -1.
    9900012    2    1    2    0    0 -0.17289455520E+02  0.50032295572E+01  0.51695166475E+01  0.72461508589E+02  0.69999919618E+02 0.  0.
         12    1    1    2    0    0  0.17289455520E+02 -0.50032295572E+01 -0.51695166475E+01  0.18726491411E+02  0.00000000000E+00 0. -1.
         11    1    3    3    0    0 -0.11978816642E+01 -0.14996262379E+02  0.73619221557E+01  0.16748752309E+02  0.51100000000E-03 0. -1.
        -11    1    3    3    0    0 -0.53633656986E+01 -0.10221571310E+02  0.15313634660E+02  0.19176903254E+02  0.51100000000E-03 0.  1.
        -12    1    3    3    0    0 -0.10728208157E+02  0.30221063246E+02 -0.17506040168E+02  0.36535853026E+02  0.00000000000E+00 0.  1.
</event>
<event>
 7    1  0.1465498E-013  0.7246155E+02  0.7816164E-02  0.1226708E+00
        -11   -1    0    0    0    0  0.00000000000E+00  0.00000000000E+00  0.45593999997E+02  0.45594000000E+02  0.51100000000E-03 0. -1.
         11   -1    0    0    0    0 -0.00000000000E+00 -0.00000000000E+00 -0.45593999997E+02  0.45594000000E+02  0.51100000000E-03 0.  1.
    9900012    2    1    2    0    0  0.82045051207E+01 -0.53532556444E+01 -0.15959592029E+02  0.72461552713E+02  0.69999977097E+02 0.  0.
         12    1    1    2    0    0 -0.82045051207E+01  0.53532556444E+01  0.15959592029E+02  0.18726447287E+02  0.00000000000E+00 0. -1.
         11    1    3    3    0    0  0.56959670600E+01  0.18932043347E+02 -0.24725427241E+02  0.31657748791E+02  0.51100000000E-03 0. -1.
        -11    1    3    3    0    0 -0.11264025708E+02 -0.42995192185E+00  0.68528439357E+01  0.13191838541E+02  0.51100000000E-03 0.  1.
        -12    1    3    3    0    0  0.13772563769E+02 -0.23855347069E+02  0.19129912768E+01  0.27611965381E+02  0.00000000000E+00 0.  1.
</event>
<event>
 7    1  0.1465498E-013  0.7246158E+02  0.7816164E-02  0.1226708E+00
        -11   -1    0    0    0    0  0.00000000000E+00  0.00000000000E+00  0.45593999997E+02  0.45594000000E+02  0.51100000000E-03 0.  1.
         11   -1    0    0    0    0 -0.00000000000E+00 -0.00000000000E+00 -0.45593999997E+02  0.45594000000E+02  0.51100000000E-03 0. -1.
    9900012    2    1    2    0    0 -0.50627413000E+01  0.14508698468E+02  0.10702579643E+02  0.72461577712E+02  0.70000009663E+02 0.  0.
         12    1    1    2    0    0  0.50627413000E+01 -0.14508698468E+02 -0.10702579643E+02  0.18726422288E+02  0.00000000000E+00 0. -1.
         11    1    3    3    0    0 -0.15087742153E+02 -0.49116634363E+01  0.11652676129E+01  0.15909816148E+02  0.51100000000E-03 0. -1.
        -11    1    3    3    0    0 -0.68544493387E+00  0.35403191297E+02  0.11455493111E+02  0.37216718171E+02  0.51100000000E-03 0.  1.
         12    1    3    3    0    0  0.10710445787E+02 -0.15982829393E+02 -0.19181810803E+01  0.19335043393E+02  0.00000000000E+00 0. -1.
</event>
<event>
 7    1  0.1465498E-013  0.7246157E+02  0.7816164E-02  0.1226708E+00
        -11   -1    0    0    0    0  0.00000000000E+00  0.00000000000E+00  0.45593999997E+02  0.45594000000E+02  0.51100000000E-03 0. -1.
         11   -1    0    0    0    0 -0.00000000000E+00 -0.00000000000E+00 -0.45593999997E+02  0.45594000000E+02  0.51100000000E-03 0.  1.
    9900012    2    1    2    0    0 -0.91288814627E+01  0.22344030986E+01 -0.16197230006E+02  0.72461566975E+02  0.69999995676E+02 0.  0.
         12    1    1    2    0    0  0.91288814627E+01 -0.22344030986E+01  0.16197230006E+02  0.18726433025E+02  0.00000000000E+00 0. -1.
         11    1    3    3    0    0 -0.22866525103E+02 -0.10438459699E+02 -0.11327103681E+02  0.27570685324E+02  0.51100000000E-03 0.  1.
        -11    1    3    3    0    0  0.37799629893E+01  0.12863788523E+02  0.16531641628E+02  0.21285214364E+02  0.51100000000E-03 0. -1.
         12    1    3    3    0    0  0.99576806513E+01 -0.19092572515E+00 -0.21401767952E+02  0.23605667287E+02  0.00000000000E+00 0. -1.
</event>
<event>
 7    1  0.1465498E-013  0.7246160E+02  0.7816164E-02  0.1226708E+00
        -11   -1    0    0    0    0  0.00000000000E+00  0.00000000000E+00  0.45593999997E+02  0.45594000000E+02  0.51100000000E-03 0. -1.
         11   -1    0    0    0    0 -0.00000000000E+00 -0.00000000000E+00 -0.45593999997E+02  0.45594000000E+02  0.51100000000E-03 0.  1.
    9900012    2    1    2    0    0 -0.48797811249E+01 -0.13671247783E+01 -0.18027662341E+02  0.72461604098E+02  0.70000044035E+02 0.  0.
         12    1    1    2    0    0  0.48797811249E+01  0.13671247783E+01  0.18027662341E+02  0.18726395902E+02  0.00000000000E+00 0. -1.
         11    1    3    3    0    0  0.20838703283E+01 -0.36910427777E+01 -0.15951531578E+01  0.45288879640E+01  0.51100000000E-03 0. -1.
        -11    1    3    3    0    0 -0.33641461032E+02 -0.10104725982E+02 -0.15745496663E+02  0.38493818374E+02  0.51100000000E-03 0.  1.
         12    1    3    3    0    0  0.26677809579E+02  0.12428643981E+02 -0.68701252028E+00  0.29438897760E+02  0.00000000000E+00 0. -1.
</event>
<event>
 7    1  0.1465498E-013  0.7246153E+02  0.7816164E-02  0.1226708E+00
        -11   -1    0    0    0    0  0.00000000000E+00  0.00000000000E+00  0.45593999997E+02  0.45594000000E+02  0.51100000000E-03 0. -1.
         11   -1    0    0    0    0 -0.00000000000E+00 -0.00000000000E+00 -0.45593999997E+02  0.45594000000E+02  0.51100000000E-03 0.  1.
    9900012    2    1    2    0    0  0.17118443953E+02  0.27413216125E+01  0.70798861804E+01  0.72461527938E+02  0.69999944823E+02 0.  0.
         12    1    1    2    0    0 -0.17118443953E+02 -0.27413216125E+01 -0.70798861804E+01  0.18726472062E+02  0.00000000000E+00 0. -1.
         11    1    3    3    0    0 -0.42572269435E+01  0.17881308559E+01  0.31910759674E+02  0.32243107425E+02  0.51100000000E-03 0. -1.
        -11    1    3    3    0    0 -0.20210098519E+01  0.33525573992E+01  0.21170429480E+01  0.44503924592E+01  0.51100000000E-03 0.  1.
        -12    1    3    3    0    0  0.23396680749E+02 -0.23993666426E+01 -0.26947916441E+02  0.35768028054E+02  0.00000000000E+00 0.  1.
</event>
<event>
 7    1  0.1465498E-013  0.7246162E+02  0.7816164E-02  0.1226708E+00
        -11   -1    0    0    0    0  0.00000000000E+00  0.00000000000E+00  0.45593999997E+02  0.45594000000E+02  0.51100000000E-03 0. -1.
         11   -1    0    0    0    0 -0.00000000000E+00 -0.00000000000E+00 -0.45593999997E+02  0.45594000000E+02  0.51100000000E-03 0.  1.
    9900012    2    1    2    0    0 -0.53534599311E+00  0.12726290011E+02 -0.13727068901E+02  0.72461615581E+02  0.70000058995E+02 0.  0.
         12    1    1    2    0    0  0.53534599311E+00 -0.12726290011E+02  0.13727068901E+02  0.18726384419E+02  0.00000000000E+00 0. -1.
         11    1    3    3    0    0  0.13728758951E+02  0.15078104627E+01  0.10056894037E+02  0.17084889015E+02  0.51100000000E-03 0. -1.
        -11    1    3    3    0    0  0.12547653455E+01  0.27215222848E+02 -0.16857529638E+02  0.32037776086E+02  0.51100000000E-03 0.  1.
         12    1    3    3    0    0 -0.15518870290E+02 -0.15996743300E+02 -0.69264333003E+01  0.23338950481E+02  0.00000000000E+00 0. -1.
</event>
<event>
 7    1  0.1465498E-013  0.7246157E+02  0.7816164E-02  0.1226708E+00
        -11   -1    0    0    0    0  0.00000000000E+00  0.00000000000E+00  0.45593999997E+02  0.45594000000E+02  0.51100000000E-03 0. -1.
         11   -1    0    0    0    0 -0.00000000000E+00 -0.00000000000E+00 -0.45593999997E+02  0.45594000000E+02  0.51100000000E-03 0.  1.
    9900012    2    1    2    0    0  0.11751849337E+02 -0.13760647825E+02 -0.48184887199E+01  0.72461568815E+02  0.69999998073E+02 0.  0.
         12    1    1    2    0    0 -0.11751849337E+02  0.13760647825E+02  0.48184887199E+01  0.18726431185E+02  0.00000000000E+00 0. -1.
         11    1    3    3    0    0 -0.84149139670E+01 -0.14570497346E+02 -0.64174648636E+01  0.18008165523E+02  0.51100000000E-03 0. -1.
        -11    1    3    3    0    0 -0.48107400026E+01  0.58004118767E+01 -0.19800493059E+02  0.21186021877E+02  0.51100000000E-03 0.  1.
         12    1    3    3    0    0  0.24977503306E+02 -0.49905623558E+01  0.21399469203E+02  0.33267381415E+02  0.00000000000E+00 0. -1.
</event>
<event>
 7    1  0.1465498E-013  0.7246158E+02  0.7816164E-02  0.1226708E+00
        -11   -1    0    0    0    0  0.00000000000E+00  0.00000000000E+00  0.45593999997E+02  0.45594000000E+02  0.51100000000E-03 0. -1.
         11   -1    0    0    0    0 -0.00000000000E+00 -0.00000000000E+00 -0.45593999997E+02  0.45594000000E+02  0.51100000000E-03 0.  1.
    9900012    2    1    2    0    0 -0.85668976020E+01 -0.10698615692E+02 -0.12760354442E+02  0.72461581289E+02  0.70000014323E+02 0.  0.
         12    1    1    2    0    0  0.85668976020E+01  0.10698615692E+02  0.12760354442E+02  0.18726418711E+02  0.00000000000E+00 0. -1.
         11    1    3    3    0    0  0.45480018834E+01 -0.71300854696E+01 -0.16145183660E+02  0.18226063635E+02  0.51100000000E-03 0. -1.
        -11    1    3    3    0    0 -0.89341917663E+01 -0.44729208638E+01 -0.24272984974E+02  0.26248897184E+02  0.51100000000E-03 0.  1.
         12    1    3    3    0    0 -0.41807077191E+01  0.90439064164E+00  0.27657814192E+02  0.27986620470E+02  0.00000000000E+00 0. -1.
</event>
<event>
 7    1  0.1465498E-013  0.7246155E+02  0.7816164E-02  0.1226708E+00
        -11   -1    0    0    0    0  0.00000000000E+00  0.00000000000E+00  0.45593999997E+02  0.45594000000E+02  0.51100000000E-03 0. -1.
         11   -1    0    0    0    0 -0.00000000000E+00 -0.00000000000E+00 -0.45593999997E+02  0.45594000000E+02  0.51100000000E-03 0.  1.
    9900012    2    1    2    0    0 -0.12706165290E+02 -0.48957587981E+01 -0.12855542825E+02  0.72461546200E+02  0.69999968613E+02 0.  0.
         12    1    1    2    0    0  0.12706165290E+02  0.48957587981E+01  0.12855542825E+02  0.18726453800E+02  0.00000000000E+00 0. -1.
         11    1    3    3    0    0 -0.99665457050E+01 -0.78309295044E+01 -0.18807195988E+02  0.22679640900E+02  0.51100000000E-03 0. -1.
        -11    1    3    3    0    0  0.18502388413E+02 -0.87300326862E+01 -0.78267914343E+01  0.21904577424E+02  0.51100000000E-03 0.  1.
         12    1    3    3    0    0 -0.21242007998E+02  0.11665203392E+02  0.13778444596E+02  0.27877327876E+02  0.00000000000E+00 0. -1.
</event>
<event>
 7    1  0.1465498E-013  0.7246158E+02  0.7816164E-02  0.1226708E+00
        -11   -1    0    0    0    0  0.00000000000E+00  0.00000000000E+00  0.45593999997E+02  0.45594000000E+02  0.51100000000E-03 0.  1.
         11   -1    0    0    0    0 -0.00000000000E+00 -0.00000000000E+00 -0.45593999997E+02  0.45594000000E+02  0.51100000000E-03 0. -1.
    9900012    2    1    2    0    0  0.10584601129E+02 -0.77382852779E+01  0.13370264924E+02  0.72461579513E+02  0.70000012009E+02 0.  0.
         12    1    1    2    0    0 -0.10584601129E+02  0.77382852779E+01 -0.13370264924E+02  0.18726420487E+02  0.00000000000E+00 0. -1.
         11    1    3    3    0    0 -0.18297246780E+02 -0.47740444046E+01  0.60394707148E+01  0.19850842463E+02  0.51100000000E-03 0. -1.
        -11    1    3    3    0    0  0.11138144769E+02 -0.18274067115E+02 -0.98431638519E+01  0.23556053844E+02  0.51100000000E-03 0.  1.
        -12    1    3    3    0    0  0.17743703140E+02  0.15309826242E+02  0.17173958061E+02  0.29054683206E+02  0.00000000000E+00 0.  1.
</event>
<event>
 7    1  0.1465498E-013  0.7246159E+02  0.7816164E-02  0.1226708E+00
        -11   -1    0    0    0    0  0.00000000000E+00  0.00000000000E+00  0.45593999997E+02  0.45594000000E+02  0.51100000000E-03 0. -1.
         11   -1    0    0    0    0 -0.00000000000E+00 -0.00000000000E+00 -0.45593999997E+02  0.45594000000E+02  0.51100000000E-03 0.  1.
    9900012    2    1    2    0    0 -0.18266148808E+02 -0.29149454242E+00 -0.41159704666E+01  0.72461591528E+02  0.70000027661E+02 0.  0.
         12    1    1    2    0    0  0.18266148808E+02  0.29149454242E+00  0.41159704666E+01  0.18726408472E+02  0.00000000000E+00 0. -1.
         11    1    3    3    0    0  0.51905450540E+01  0.15149897779E+02  0.12257593466E+02  0.20167046350E+02  0.51100000000E-03 0. -1.
        -11    1    3    3    0    0 -0.22074437341E+02 -0.71780470614E+01  0.95130378933E+01  0.25085913054E+02  0.51100000000E-03 0.  1.
        -12    1    3    3    0    0 -0.13822565214E+01 -0.82633452597E+01 -0.25886601826E+02  0.27208632124E+02  0.00000000000E+00 0.  1.
</event>
<event>
 7    1  0.1465498E-013  0.7246158E+02  0.7816164E-02  0.1226708E+00
        -11   -1    0    0    0    0  0.00000000000E+00  0.00000000000E+00  0.45593999997E+02  0.45594000000E+02  0.51100000000E-03 0. -1.
         11   -1    0    0    0    0 -0.00000000000E+00 -0.00000000000E+00 -0.45593999997E+02  0.45594000000E+02  0.51100000000E-03 0.  1.
    9900012    2    1    2    0    0  0.13230518146E+02  0.52845631520E+00  0.13242083178E+02  0.72461584342E+02  0.70000018300E+02 0.  0.
         12    1    1    2    0    0 -0.13230518146E+02 -0.52845631520E+00 -0.13242083178E+02  0.18726415658E+02  0.00000000000E+00 0. -1.
         11    1    3    3    0    0  0.27880710282E+01  0.19600634181E+02  0.30452820970E+02  0.36322616999E+02  0.51100000000E-03 0. -1.
        -11    1    3    3    0    0  0.11224337931E+02 -0.11212570899E+02  0.13946421221E+01  0.15926472776E+02  0.51100000000E-03 0.  1.
        -12    1    3    3    0    0 -0.78189081294E+00 -0.78596069667E+01 -0.18605379914E+02  0.20212494568E+02  0.00000000000E+00 0.  1.
</event>
<event>
 7    1  0.1465498E-013  0.7246157E+02  0.7816164E-02  0.1226708E+00
        -11   -1    0    0    0    0  0.00000000000E+00  0.00000000000E+00  0.45593999997E+02  0.45594000000E+02  0.51100000000E-03 0.  1.
         11   -1    0    0    0    0 -0.00000000000E+00 -0.00000000000E+00 -0.45593999997E+02  0.45594000000E+02  0.51100000000E-03 0. -1.
    9900012    2    1    2    0    0 -0.15782531529E+02  0.96552847369E+00  0.10032882432E+02  0.72461567436E+02  0.69999996276E+02 0.  0.
         12    1    1    2    0    0  0.15782531529E+02 -0.96552847369E+00 -0.10032882432E+02  0.18726432564E+02  0.00000000000E+00 0. -1.
         11    1    3    3    0    0 -0.27248009710E+01 -0.56308673611E+01 -0.86034627008E+01  0.10637235462E+02  0.51100000000E-03 0. -1.
        -11    1    3    3    0    0 -0.16465220920E+02 -0.16544996547E+02  0.28153575324E+02  0.36571357843E+02  0.51100000000E-03 0.  1.
         12    1    3    3    0    0  0.34074903622E+01  0.23141392382E+02 -0.95172301908E+01  0.25252974131E+02  0.00000000000E+00 0. -1.
</event>
<event>
 7    1  0.1465498E-013  0.7246156E+02  0.7816164E-02  0.1226708E+00
        -11   -1    0    0    0    0  0.00000000000E+00  0.00000000000E+00  0.45593999997E+02  0.45594000000E+02  0.51100000000E-03 0.  1.
         11   -1    0    0    0    0 -0.00000000000E+00 -0.00000000000E+00 -0.45593999997E+02  0.45594000000E+02  0.51100000000E-03 0. -1.
    9900012    2    1    2    0    0 -0.50586674359E+01 -0.27383119770E+01 -0.17821084748E+02  0.72461560661E+02  0.69999987451E+02 0.  0.
         12    1    1    2    0    0  0.50586674359E+01  0.27383119770E+01  0.17821084748E+02  0.18726439339E+02  0.00000000000E+00 0. -1.
         11    1    3    3    0    0 -0.18196599667E+01 -0.13185526582E+02  0.92542214760E+01  0.16211412309E+02  0.51100000000E-03 0.  1.
        -11    1    3    3    0    0 -0.21464234004E+01  0.29430393894E+02 -0.11498043431E+02  0.31669547221E+02  0.51100000000E-03 0. -1.
         12    1    3    3    0    0 -0.10925840687E+01 -0.18983179289E+02 -0.15577262793E+02  0.24580601132E+02  0.00000000000E+00 0. -1.
</event>
<event>
 7    1  0.1465498E-013  0.7246159E+02  0.7816164E-02  0.1226708E+00
        -11   -1    0    0    0    0  0.00000000000E+00  0.00000000000E+00  0.45593999997E+02  0.45594000000E+02  0.51100000000E-03 0. -1.
         11   -1    0    0    0    0 -0.00000000000E+00 -0.00000000000E+00 -0.45593999997E+02  0.45594000000E+02  0.51100000000E-03 0.  1.
    9900012    2    1    2    0    0 -0.37579100331E+01  0.84017722154E+01 -0.16308482429E+02  0.72461594491E+02  0.70000031520E+02 0.  0.
         12    1    1    2    0    0  0.37579100331E+01 -0.84017722154E+01  0.16308482429E+02  0.18726405509E+02  0.00000000000E+00 0. -1.
         11    1    3    3    0    0  0.35173533250E+00  0.78709348781E+00 -0.54812847302E+01  0.55486679895E+01  0.51100000000E-03 0. -1.
        -11    1    3    3    0    0 -0.15372109432E+02 -0.25883957902E+02 -0.94192519325E+01  0.31543673411E+02  0.51100000000E-03 0.  1.
         12    1    3    3    0    0  0.11262464066E+02  0.33498636629E+02 -0.14079457659E+01  0.35369253090E+02  0.00000000000E+00 0. -1.
</event>
<event>
 7    1  0.1465498E-013  0.7246156E+02  0.7816164E-02  0.1226708E+00
        -11   -1    0    0    0    0  0.00000000000E+00  0.00000000000E+00  0.45593999997E+02  0.45594000000E+02  0.51100000000E-03 0.  1.
         11   -1    0    0    0    0 -0.00000000000E+00 -0.00000000000E+00 -0.45593999997E+02  0.45594000000E+02  0.51100000000E-03 0. -1.
    9900012    2    1    2    0    0 -0.31918312373E+00  0.17715204422E+02  0.60621218206E+01  0.72461557023E+02  0.69999982712E+02 0.  0.
         12    1    1    2    0    0  0.31918312373E+00 -0.17715204422E+02 -0.60621218206E+01  0.18726442977E+02  0.00000000000E+00 0. -1.
         11    1    3    3    0    0  0.13818828778E+02  0.19442311432E+01 -0.42241479248E+01  0.14580243121E+02  0.51100000000E-03 0. -1.
        -11    1    3    3    0    0 -0.19847118215E+01 -0.77551941995E+01  0.25921881289E+02  0.27129799998E+02  0.51100000000E-03 0.  1.
         12    1    3    3    0    0 -0.12153300080E+02  0.23526167479E+02 -0.15635611544E+02  0.30751513904E+02  0.00000000000E+00 0. -1.
</event>
<event>
 7    1  0.1465498E-013  0.7246152E+02  0.7816164E-02  0.1226708E+00
        -11   -1    0    0    0    0  0.00000000000E+00  0.00000000000E+00  0.45593999997E+02  0.45594000000E+02  0.51100000000E-03 0. -1.
         11   -1    0    0    0    0 -0.00000000000E+00 -0.00000000000E+00 -0.45593999997E+02  0.45594000000E+02  0.51100000000E-03 0.  1.
    9900012    2    1    2    0    0  0.66098931803E+01  0.89230727942E+01  0.15078761083E+02  0.72461522709E+02  0.69999938011E+02 0.  0.
         12    1    1    2    0    0 -0.66098931803E+01 -0.89230727942E+01 -0.15078761083E+02  0.18726477291E+02  0.00000000000E+00 0. -1.
         11    1    3    3    0    0 -0.16609745027E+01  0.26318538617E+00 -0.10307027848E+02  0.10443319691E+02  0.51100000000E-03 0.  1.
        -11    1    3    3    0    0 -0.48137842361E+01 -0.20492122500E+02  0.21054189540E+02  0.29772109443E+02  0.51100000000E-03 0. -1.
         12    1    3    3    0    0  0.13084651919E+02  0.29152009908E+02  0.43315993905E+01  0.32246093575E+02  0.00000000000E+00 0. -1.
</event>
<event>
 7    1  0.1465498E-013  0.7246147E+02  0.7816164E-02  0.1226708E+00
        -11   -1    0    0    0    0  0.00000000000E+00  0.00000000000E+00  0.45593999997E+02  0.45594000000E+02  0.51100000000E-03 0.  1.
         11   -1    0    0    0    0 -0.00000000000E+00 -0.00000000000E+00 -0.45593999997E+02  0.45594000000E+02  0.51100000000E-03 0. -1.
    9900012    2    1    2    0    0  0.60972821301E+01 -0.17343744632E+02 -0.35637836878E+01  0.72461471187E+02  0.69999870894E+02 0.  0.
         12    1    1    2    0    0 -0.60972821301E+01  0.17343744632E+02  0.35637836878E+01  0.18726528813E+02  0.00000000000E+00 0. -1.
         11    1    3    3    0    0  0.34672906103E+01 -0.26759885905E+02  0.11674057884E+01  0.27008821417E+02  0.51100000000E-03 0. -1.
        -11    1    3    3    0    0  0.10589147952E+02 -0.56451535582E+01 -0.19506963110E+02  0.22902389026E+02  0.51100000000E-03 0.  1.
        -12    1    3    3    0    0 -0.79591564325E+01  0.15061294831E+02  0.14775773634E+02  0.22550260743E+02  0.00000000000E+00 0.  1.
</event>
<event>
 7    1  0.1465498E-013  0.7246161E+02  0.7816164E-02  0.1226708E+00
        -11   -1    0    0    0    0  0.00000000000E+00  0.00000000000E+00  0.45593999997E+02  0.45594000000E+02  0.51100000000E-03 0.  1.
         11   -1    0    0    0    0 -0.00000000000E+00 -0.00000000000E+00 -0.45593999997E+02  0.45594000000E+02  0.51100000000E-03 0. -1.
    9900012    2    1    2    0    0 -0.22726984140E+00  0.18556950032E+02  0.25031284734E+01  0.72461609579E+02  0.70000051175E+02 0.  0.
         12    1    1    2    0    0  0.22726984140E+00 -0.18556950032E+02 -0.25031284734E+01  0.18726390421E+02  0.00000000000E+00 0. -1.
         11    1    3    3    0    0 -0.17351656995E+02  0.26067630894E+02  0.81334343859E+01  0.32353579958E+02  0.51100000000E-03 0. -1.
        -11    1    3    3    0    0 -0.10900490929E+02 -0.11020327050E+01 -0.12291040531E+01  0.11024784606E+02  0.51100000000E-03 0.  1.
        -12    1    3    3    0    0  0.28024878083E+02 -0.64086481572E+01 -0.44012018594E+01  0.29083245015E+02  0.00000000000E+00 0.  1.
</event>
<event>
 7    1  0.1465498E-013  0.7246159E+02  0.7816164E-02  0.1226708E+00
        -11   -1    0    0    0    0  0.00000000000E+00  0.00000000000E+00  0.45593999997E+02  0.45594000000E+02  0.51100000000E-03 0.  1.
         11   -1    0    0    0    0 -0.00000000000E+00 -0.00000000000E+00 -0.45593999997E+02  0.45594000000E+02  0.51100000000E-03 0. -1.
    9900012    2    1    2    0    0  0.39574844926E+01 -0.59288040491E+01  0.17316637632E+02  0.72461592447E+02  0.70000028858E+02 0.  0.
         12    1    1    2    0    0 -0.39574844926E+01  0.59288040491E+01 -0.17316637632E+02  0.18726407553E+02  0.00000000000E+00 0. -1.
         11    1    3    3    0    0 -0.71004201905E+01  0.14123903796E+02  0.17410314494E+01  0.15903830233E+02  0.51100000000E-03 0. -1.
        -11    1    3    3    0    0 -0.80312523360E+01 -0.75964205732E+01  0.28349565006E+02  0.30428678182E+02  0.51100000000E-03 0.  1.
         12    1    3    3    0    0  0.19089157019E+02 -0.12456287272E+02 -0.12773958824E+02  0.26129084032E+02  0.00000000000E+00 0. -1.
</event>
<event>
 7    1  0.1465498E-013  0.7246159E+02  0.7816164E-02  0.1226708E+00
        -11   -1    0    0    0    0  0.00000000000E+00  0.00000000000E+00  0.45593999997E+02  0.45594000000E+02  0.51100000000E-03 0.  1.
         11   -1    0    0    0    0 -0.00000000000E+00 -0.00000000000E+00 -0.45593999997E+02  0.45594000000E+02  0.51100000000E-03 0. -1.
    9900012    2    1    2    0    0 -0.99336415998E+01  0.10235783979E+02  0.12133839077E+02  0.72461586573E+02  0.70000021206E+02 0.  0.
         12    1    1    2    0    0  0.99336415998E+01 -0.10235783979E+02 -0.12133839077E+02  0.18726413427E+02  0.00000000000E+00 0. -1.
         11    1    3    3    0    0  0.64256797564E+01  0.24694927562E+02  0.15097611563E+02  0.29649058717E+02  0.51100000000E-03 0. -1.
        -11    1    3    3    0    0  0.77946939138E+01  0.69426223188E+01 -0.74348269479E+00  0.10464703754E+02  0.51100000000E-03 0.  1.
        -12    1    3    3    0    0 -0.24154015270E+02 -0.21401765902E+02 -0.22202897917E+01  0.32347824102E+02  0.00000000000E+00 0.  1.
</event>
<event>
 7    1  0.1695200E-013  0.7246155E+02  0.7816164E-02  0.1226708E+00
        -11   -1    0    0    0    0  0.00000000000E+00  0.00000000000E+00  0.45593999997E+02  0.45594000000E+02  0.51100000000E-03 0. -1.
         11   -1    0    0    0    0 -0.00000000000E+00 -0.00000000000E+00 -0.45593999997E+02  0.45594000000E+02  0.51100000000E-03 0.  1.
    9900012    2    1    2    0    0  0.18329898603E+01  0.63897244617E+01 -0.17506894572E+02  0.72461553779E+02  0.69999978485E+02 0.  0.
         12    1    1    2    0    0 -0.18329898603E+01 -0.63897244617E+01  0.17506894572E+02  0.18726446221E+02  0.00000000000E+00 0. -1.
         11    1    3    3    0    0  0.15965671215E+02 -0.71369041612E+01  0.11612469566E+02  0.20992558396E+02  0.51100000000E-03 0. -1.
        -11    1    3    3    0    0  0.41488371610E+01 -0.99573591363E+01 -0.15446846311E+01  0.10897151079E+02  0.51100000000E-03 0.  1.
        -12    1    3    3    0    0 -0.18281518515E+02  0.23483987759E+02 -0.27574679507E+02  0.40571844304E+02  0.00000000000E+00 0.  1.
</event>
<event>
 7    1  0.1465498E-013  0.7246156E+02  0.7816164E-02  0.1226708E+00
        -11   -1    0    0    0    0  0.00000000000E+00  0.00000000000E+00  0.45593999997E+02  0.45594000000E+02  0.51100000000E-03 0.  1.
         11   -1    0    0    0    0 -0.00000000000E+00 -0.00000000000E+00 -0.45593999997E+02  0.45594000000E+02  0.51100000000E-03 0. -1.
    9900012    2    1    2    0    0  0.95197739435E+01 -0.12523622659E+02  0.10159348003E+02  0.72461559540E+02  0.69999985990E+02 0.  0.
         12    1    1    2    0    0 -0.95197739435E+01  0.12523622659E+02 -0.10159348003E+02  0.18726440460E+02  0.00000000000E+00 0. -1.
         11    1    3    3    0    0  0.14221810417E+02 -0.30110232076E+02 -0.73689963010E+01  0.34105543156E+02  0.51100000000E-03 0. -1.
        -11    1    3    3    0    0  0.19301465797E+01 -0.76497902865E+01  0.55408136428E+01  0.96408180842E+01  0.51100000000E-03 0.  1.
        -12    1    3    3    0    0 -0.66321830531E+01  0.25236399703E+02  0.11987530662E+02  0.28715198300E+02  0.00000000000E+00 0.  1.
</event>
<event>
 7    1  0.1465498E-013  0.7246157E+02  0.7816164E-02  0.1226708E+00
        -11   -1    0    0    0    0  0.00000000000E+00  0.00000000000E+00  0.45593999997E+02  0.45594000000E+02  0.51100000000E-03 0. -1.
         11   -1    0    0    0    0 -0.00000000000E+00 -0.00000000000E+00 -0.45593999997E+02  0.45594000000E+02  0.51100000000E-03 0.  1.
    9900012    2    1    2    0    0 -0.44866193460E+01  0.12400059950E+02 -0.13296161219E+02  0.72461571000E+02  0.70000000919E+02 0.  0.
         12    1    1    2    0    0  0.44866193460E+01 -0.12400059950E+02  0.13296161219E+02  0.18726429000E+02  0.00000000000E+00 0. -1.
         11    1    3    3    0    0 -0.60252820752E+01 -0.47462873528E+01 -0.11388045826E+02  0.13730216885E+02  0.51100000000E-03 0. -1.
        -11    1    3    3    0    0  0.15123978358E+02  0.15111396410E+02 -0.24359422502E+02  0.32410962462E+02  0.51100000000E-03 0.  1.
         12    1    3    3    0    0 -0.13585315629E+02  0.20349508928E+01  0.22451307109E+02  0.26320391653E+02  0.00000000000E+00 0. -1.
</event>
<event>
 7    1  0.1465498E-013  0.7246155E+02  0.7816164E-02  0.1226708E+00
        -11   -1    0    0    0    0  0.00000000000E+00  0.00000000000E+00  0.45593999997E+02  0.45594000000E+02  0.51100000000E-03 0.  1.
         11   -1    0    0    0    0 -0.00000000000E+00 -0.00000000000E+00 -0.45593999997E+02  0.45594000000E+02  0.51100000000E-03 0. -1.
    9900012    2    1    2    0    0 -0.14393327311E+01 -0.18645689226E+02 -0.97290206969E+00  0.72461549619E+02  0.69999973067E+02 0.  0.
         12    1    1    2    0    0  0.14393327311E+01  0.18645689226E+02  0.97290206969E+00  0.18726450381E+02  0.00000000000E+00 0. -1.
         11    1    3    3    0    0  0.44997021715E+01 -0.15128633755E+02 -0.55858547567E+01  0.16742898571E+02  0.51100000000E-03 0. -1.
        -11    1    3    3    0    0 -0.14566381648E+02 -0.26416895739E+02  0.74798181136E+01  0.31080211294E+02  0.51100000000E-03 0.  1.
         12    1    3    3    0    0  0.86273467451E+01  0.22899840268E+02 -0.28668654266E+01  0.24638439755E+02  0.00000000000E+00 0. -1.
</event>
<event>
 7    1  0.1465498E-013  0.7246150E+02  0.7816164E-02  0.1226708E+00
        -11   -1    0    0    0    0  0.00000000000E+00  0.00000000000E+00  0.45593999997E+02  0.45594000000E+02  0.51100000000E-03 0.  1.
         11   -1    0    0    0    0 -0.00000000000E+00 -0.00000000000E+00 -0.45593999997E+02  0.45594000000E+02  0.51100000000E-03 0. -1.
    9900012    2    1    2    0    0 -0.13484042630E+02 -0.12920364640E+02 -0.13879762556E+01  0.72461502565E+02  0.69999911770E+02 0.  0.
         12    1    1    2    0    0  0.13484042630E+02  0.12920364640E+02  0.13879762556E+01  0.18726497435E+02  0.00000000000E+00 0. -1.
         11    1    3    3    0    0  0.10510660478E+02  0.93165077570E+01 -0.37928163367E+01  0.14548427974E+02  0.51100000000E-03 0. -1.
        -11    1    3    3    0    0  0.89019216528E+01  0.34278301784E+01 -0.10551329732E+02  0.14224091824E+02  0.51100000000E-03 0.  1.
        -12    1    3    3    0    0 -0.32896624762E+02 -0.25664702576E+02  0.12956169813E+02  0.43688982767E+02  0.00000000000E+00 0.  1.
</event>
<event>
 7    1  0.1465498E-013  0.7246151E+02  0.7816164E-02  0.1226708E+00
        -11   -1    0    0    0    0  0.00000000000E+00  0.00000000000E+00  0.45593999997E+02  0.45594000000E+02  0.51100000000E-03 0.  1.
         11   -1    0    0    0    0 -0.00000000000E+00 -0.00000000000E+00 -0.45593999997E+02  0.45594000000E+02  0.51100000000E-03 0. -1.
    9900012    2    1    2    0    0  0.17066226477E+02  0.34714977104E+01  0.68828709037E+01  0.72461513560E+02  0.69999926093E+02 0.  0.
         12    1    1    2    0    0 -0.17066226477E+02 -0.34714977104E+01 -0.68828709037E+01  0.18726486440E+02  0.00000000000E+00 0. -1.
         11    1    3    3    0    0 -0.12995827280E+02  0.33245803017E+01  0.21389368081E+02  0.25247760852E+02  0.51100000000E-03 0. -1.
        -11    1    3    3    0    0 -0.28898946824E+01  0.94417315541E+01  0.37607148430E+00  0.98812557925E+01  0.51100000000E-03 0.  1.
        -12    1    3    3    0    0  0.32951948440E+02 -0.92948141455E+01 -0.14882568661E+02  0.37332496915E+02  0.00000000000E+00 0.  1.
</event>
<event>
 7    1  0.1465498E-013  0.7246158E+02  0.7816164E-02  0.1226708E+00
        -11   -1    0    0    0    0  0.00000000000E+00  0.00000000000E+00  0.45593999997E+02  0.45594000000E+02  0.51100000000E-03 0.  1.
         11   -1    0    0    0    0 -0.00000000000E+00 -0.00000000000E+00 -0.45593999997E+02  0.45594000000E+02  0.51100000000E-03 0. -1.
    9900012    2    1    2    0    0  0.17052483779E+02 -0.27916653223E+01  0.72179211138E+01  0.72461575261E+02  0.70000006470E+02 0.  0.
         12    1    1    2    0    0 -0.17052483779E+02  0.27916653223E+01 -0.72179211138E+01  0.18726424739E+02  0.00000000000E+00 0. -1.
         11    1    3    3    0    0  0.11822045726E+02  0.11064624693E+02 -0.76641440771E+01  0.17914401733E+02  0.51100000000E-03 0. -1.
        -11    1    3    3    0    0 -0.12931654510E+02 -0.98603032921E+01 -0.13145889636E+02  0.20910946511E+02  0.51100000000E-03 0.  1.
        -12    1    3    3    0    0  0.18162092564E+02 -0.39959867231E+01  0.28027954827E+02  0.33636227017E+02  0.00000000000E+00 0.  1.
</event>
<event>
 7    1  0.1869058E-013  0.7246157E+02  0.7816164E-02  0.1226708E+00
        -11   -1    0    0    0    0  0.00000000000E+00  0.00000000000E+00  0.45593999997E+02  0.45594000000E+02  0.51100000000E-03 0. -1.
         11   -1    0    0    0    0 -0.00000000000E+00 -0.00000000000E+00 -0.45593999997E+02  0.45594000000E+02  0.51100000000E-03 0.  1.
    9900012    2    1    2    0    0 -0.28744023337E+01 -0.13812514202E+02 -0.12313876108E+02  0.72461567287E+02  0.69999996082E+02 0.  0.
         12    1    1    2    0    0  0.28744023337E+01  0.13812514202E+02  0.12313876108E+02  0.18726432713E+02  0.00000000000E+00 0. -1.
         11    1    3    3    0    0 -0.17593160073E+02 -0.64806842670E+01  0.19162113398E+02  0.26808676582E+02  0.51100000000E-03 0. -1.
        -11    1    3    3    0    0 -0.91977026150E+00  0.83431805105E+01 -0.17291922820E+01  0.85699909319E+01  0.51100000000E-03 0.  1.
        -12    1    3    3    0    0  0.15638528001E+02 -0.15675010446E+02 -0.29746797224E+02  0.37082899773E+02  0.00000000000E+00 0.  1.
</event>
<event>
 7    1  0.1465498E-013  0.7246159E+02  0.7816164E-02  0.1226708E+00
        -11   -1    0    0    0    0  0.00000000000E+00  0.00000000000E+00  0.45593999997E+02  0.45594000000E+02  0.51100000000E-03 0.  1.
         11   -1    0    0    0    0 -0.00000000000E+00 -0.00000000000E+00 -0.45593999997E+02  0.45594000000E+02  0.51100000000E-03 0. -1.
    9900012    2    1    2    0    0  0.83054069325E+01 -0.87203245505E+01  0.14340659242E+02  0.72461592120E+02  0.70000028432E+02 0.  0.
         12    1    1    2    0    0 -0.83054069325E+01  0.87203245505E+01 -0.14340659242E+02  0.18726407880E+02  0.00000000000E+00 0. -1.
         11    1    3    3    0    0 -0.84733449645E+01  0.33505924521E+01  0.52998721179E+01  0.10541000398E+02  0.51100000000E-03 0.  1.
        -11    1    3    3    0    0  0.28658187378E+02 -0.28661199090E+02  0.30070157308E+01  0.40642320074E+02  0.51100000000E-03 0. -1.
         12    1    3    3    0    0 -0.11879435481E+02  0.16590282088E+02  0.60337713933E+01  0.21278271648E+02  0.00000000000E+00 0. -1.
</event>
<event>
 7    1  0.1465498E-013  0.7246154E+02  0.7816164E-02  0.1226708E+00
        -11   -1    0    0    0    0  0.00000000000E+00  0.00000000000E+00  0.45593999997E+02  0.45594000000E+02  0.51100000000E-03 0. -1.
         11   -1    0    0    0    0 -0.00000000000E+00 -0.00000000000E+00 -0.45593999997E+02  0.45594000000E+02  0.51100000000E-03 0.  1.
    9900012    2    1    2    0    0  0.27599904360E+00  0.18713214529E+02  0.64800644290E+00  0.72461535149E+02  0.69999954217E+02 0.  0.
         12    1    1    2    0    0 -0.27599904360E+00 -0.18713214529E+02 -0.64800644290E+00  0.18726464851E+02  0.00000000000E+00 0. -1.
         11    1    3    3    0    0 -0.10173667580E+00  0.31597064185E+01  0.28791143831E+01  0.42759086630E+01  0.51100000000E-03 0. -1.
        -11    1    3    3    0    0 -0.31827845333E+01 -0.22991952613E+02  0.12980794380E+02  0.26594379582E+02  0.51100000000E-03 0.  1.
         12    1    3    3    0    0  0.35605202527E+01  0.38545460723E+02 -0.15211902320E+02  0.41591246904E+02  0.00000000000E+00 0. -1.
</event>
<event>
 7    1  0.1465498E-013  0.7246153E+02  0.7816164E-02  0.1226708E+00
        -11   -1    0    0    0    0  0.00000000000E+00  0.00000000000E+00  0.45593999997E+02  0.45594000000E+02  0.51100000000E-03 0. -1.
         11   -1    0    0    0    0 -0.00000000000E+00 -0.00000000000E+00 -0.45593999997E+02  0.45594000000E+02  0.51100000000E-03 0.  1.
    9900012    2    1    2    0    0  0.10401887468E+02  0.40098438920E+01 -0.15046682119E+02  0.72461527996E+02  0.69999944898E+02 0.  0.
         12    1    1    2    0    0 -0.10401887468E+02 -0.40098438920E+01  0.15046682119E+02  0.18726472004E+02  0.00000000000E+00 0. -1.
         11    1    3    3    0    0 -0.69739900916E+01 -0.10911591630E+02 -0.92820058948E+01  0.15932827853E+02  0.51100000000E-03 0. -1.
        -11    1    3    3    0    0 -0.68428745156E+00  0.33485905404E+01 -0.26485435961E+02  0.26705048703E+02  0.51100000000E-03 0.  1.
        -12    1    3    3    0    0  0.18060165011E+02  0.11572844981E+02  0.20720759736E+02  0.29823651440E+02  0.00000000000E+00 0.  1.
</event>
<event>
 7    1  0.1465498E-013  0.7246157E+02  0.7816164E-02  0.1226708E+00
        -11   -1    0    0    0    0  0.00000000000E+00  0.00000000000E+00  0.45593999997E+02  0.45594000000E+02  0.51100000000E-03 0.  1.
         11   -1    0    0    0    0 -0.00000000000E+00 -0.00000000000E+00 -0.45593999997E+02  0.45594000000E+02  0.51100000000E-03 0. -1.
    9900012    2    1    2    0    0  0.60494362677E+01  0.72913945468E+00  0.17707396888E+02  0.72461568731E+02  0.69999997964E+02 0.  0.
         12    1    1    2    0    0 -0.60494362677E+01 -0.72913945468E+00 -0.17707396888E+02  0.18726431269E+02  0.00000000000E+00 0. -1.
         11    1    3    3    0    0  0.17370237912E+02 -0.12738888295E+02  0.21595388848E+01  0.21648742425E+02  0.51100000000E-03 0. -1.
        -11    1    3    3    0    0 -0.18841372375E+02  0.92066364097E+01  0.28412848464E+02  0.35313586976E+02  0.51100000000E-03 0.  1.
         12    1    3    3    0    0  0.75205707306E+01  0.42613913402E+01 -0.12864990461E+02  0.15499239331E+02  0.00000000000E+00 0. -1.
</event>
<event>
 7    1  0.1465498E-013  0.7246158E+02  0.7816164E-02  0.1226708E+00
        -11   -1    0    0    0    0  0.00000000000E+00  0.00000000000E+00  0.45593999997E+02  0.45594000000E+02  0.51100000000E-03 0.  1.
         11   -1    0    0    0    0 -0.00000000000E+00 -0.00000000000E+00 -0.45593999997E+02  0.45594000000E+02  0.51100000000E-03 0. -1.
    9900012    2    1    2    0    0 -0.17861134556E+01 -0.18473405875E+01  0.18549283068E+02  0.72461580938E+02  0.70000013866E+02 0.  0.
         12    1    1    2    0    0  0.17861134556E+01  0.18473405875E+01 -0.18549283068E+02  0.18726419062E+02  0.00000000000E+00 0. -1.
         11    1    3    3    0    0  0.18973697034E+02  0.18975492381E+02  0.71686127792E+01  0.27775159759E+02  0.51100000000E-03 0. -1.
        -11    1    3    3    0    0 -0.83852914235E+01  0.43819228745E+00 -0.93134675278E+01  0.12539768833E+02  0.51100000000E-03 0.  1.
        -12    1    3    3    0    0 -0.12374519066E+02 -0.21261025256E+02  0.20694137817E+02  0.32146652346E+02  0.00000000000E+00 0.  1.
</event>
<event>
 7    1  0.1465498E-013  0.7246156E+02  0.7816164E-02  0.1226708E+00
        -11   -1    0    0    0    0  0.00000000000E+00  0.00000000000E+00  0.45593999997E+02  0.45594000000E+02  0.51100000000E-03 0.  1.
         11   -1    0    0    0    0 -0.00000000000E+00 -0.00000000000E+00 -0.45593999997E+02  0.45594000000E+02  0.51100000000E-03 0. -1.
    9900012    2    1    2    0    0  0.13613728000E+02 -0.38770927205E+01  0.12260262678E+02  0.72461562033E+02  0.69999989238E+02 0.  0.
         12    1    1    2    0    0 -0.13613728000E+02  0.38770927205E+01 -0.12260262678E+02  0.18726437967E+02  0.00000000000E+00 0. -1.
         11    1    3    3    0    0  0.80233274444E+01 -0.16593696696E+02  0.19226723057E+02  0.26634403186E+02  0.51100000000E-03 0. -1.
        -11    1    3    3    0    0  0.94932736396E+01 -0.14116384011E+02  0.23126263955E+01  0.17168074529E+02  0.51100000000E-03 0.  1.
         12    1    3    3    0    0 -0.39028730841E+01  0.26832987986E+02 -0.92790867745E+01  0.28659084318E+02  0.00000000000E+00 0. -1.
</event>
<event>
 7    1  0.1465498E-013  0.7246160E+02  0.7816164E-02  0.1226708E+00
        -11   -1    0    0    0    0  0.00000000000E+00  0.00000000000E+00  0.45593999997E+02  0.45594000000E+02  0.51100000000E-03 0. -1.
         11   -1    0    0    0    0 -0.00000000000E+00 -0.00000000000E+00 -0.45593999997E+02  0.45594000000E+02  0.51100000000E-03 0.  1.
    9900012    2    1    2    0    0  0.35070638796E+01  0.18393530244E+02  0.23774106017E+00  0.72461602249E+02  0.70000041627E+02 0.  0.
         12    1    1    2    0    0 -0.35070638796E+01 -0.18393530244E+02 -0.23774106017E+00  0.18726397751E+02  0.00000000000E+00 0. -1.
         11    1    3    3    0    0  0.55433382775E+01 -0.77821921859E+01 -0.15938561763E+01  0.96866656930E+01  0.51100000000E-03 0. -1.
        -11    1    3    3    0    0  0.15725996885E+02  0.35883769392E+02  0.10792872023E+02  0.40637888362E+02  0.51100000000E-03 0.  1.
         12    1    3    3    0    0 -0.17762271283E+02 -0.97080469612E+01 -0.89612747868E+01  0.22137048194E+02  0.00000000000E+00 0. -1.
</event>
<event>
 7    1  0.1465498E-013  0.7246163E+02  0.7816164E-02  0.1226708E+00
        -11   -1    0    0    0    0  0.00000000000E+00  0.00000000000E+00  0.45593999997E+02  0.45594000000E+02  0.51100000000E-03 0. -1.
         11   -1    0    0    0    0 -0.00000000000E+00 -0.00000000000E+00 -0.45593999997E+02  0.45594000000E+02  0.51100000000E-03 0.  1.
    9900012    2    1    2    0    0 -0.10862212723E+02  0.11968361757E+02 -0.94576803986E+01  0.72461626435E+02  0.70000073133E+02 0.  0.
         12    1    1    2    0    0  0.10862212723E+02 -0.11968361757E+02  0.94576803986E+01  0.18726373565E+02  0.00000000000E+00 0. -1.
         11    1    3    3    0    0 -0.30839023640E+02  0.10396643775E+02 -0.16771513325E+02  0.36611736374E+02  0.51100000000E-03 0. -1.
        -11    1    3    3    0    0  0.67101747173E+01  0.11518107321E+02  0.12704376183E+02  0.18414516433E+02  0.51100000000E-03 0.  1.
        -12    1    3    3    0    0  0.13266636200E+02 -0.99463893394E+01 -0.53905432562E+01  0.17435373628E+02  0.00000000000E+00 0.  1.
</event>
<event>
 7    1  0.1465498E-013  0.7246155E+02  0.7816164E-02  0.1226708E+00
        -11   -1    0    0    0    0  0.00000000000E+00  0.00000000000E+00  0.45593999997E+02  0.45594000000E+02  0.51100000000E-03 0.  1.
         11   -1    0    0    0    0 -0.00000000000E+00 -0.00000000000E+00 -0.45593999997E+02  0.45594000000E+02  0.51100000000E-03 0. -1.
    9900012    2    1    2    0    0 -0.15778012018E+02  0.27041242234E+01  0.97171025325E+01  0.72461547248E+02  0.69999969977E+02 0.  0.
         12    1    1    2    0    0  0.15778012018E+02 -0.27041242234E+01 -0.97171025325E+01  0.18726452752E+02  0.00000000000E+00 0. -1.
         11    1    3    3    0    0  0.41896427926E+01  0.80128601305E+00 -0.18331927558E+02  0.18821655992E+02  0.51100000000E-03 0. -1.
        -11    1    3    3    0    0 -0.14995352324E+02 -0.17664997599E+02  0.64032967742E+01  0.24039861508E+02  0.51100000000E-03 0.  1.
         12    1    3    3    0    0 -0.49723024873E+01  0.19567835809E+02  0.21645733317E+02  0.29600029748E+02  0.00000000000E+00 0. -1.
</event>
<event>
 7    1  0.1465498E-013  0.7246164E+02  0.7816164E-02  0.1226708E+00
        -11   -1    0    0    0    0  0.00000000000E+00  0.00000000000E+00  0.45593999997E+02  0.45594000000E+02  0.51100000000E-03 0.  1.
         11   -1    0    0    0    0 -0.00000000000E+00 -0.00000000000E+00 -0.45593999997E+02  0.45594000000E+02  0.51100000000E-03 0. -1.
    9900012    2    1    2    0    0 -0.76993174378E+01 -0.11122059850E+02  0.12949780783E+02  0.72461640860E+02  0.70000091924E+02 0.  0.
         12    1    1    2    0    0  0.76993174378E+01  0.11122059850E+02 -0.12949780783E+02  0.18726359140E+02  0.00000000000E+00 0. -1.
         11    1    3    3    0    0  0.20335930081E+01 -0.32909911662E+01 -0.14120314081E+02  0.14640675988E+02  0.51100000000E-03 0. -1.
        -11    1    3    3    0    0  0.63672172047E+01 -0.14348254830E+02 -0.87790400689E+01  0.17985700331E+02  0.51100000000E-03 0.  1.
        -12    1    3    3    0    0 -0.16100127651E+02  0.65171861458E+01  0.35849134933E+02  0.39835264541E+02  0.00000000000E+00 0.  1.
</event>
<event>
 7    1  0.1465498E-013  0.7246155E+02  0.7816164E-02  0.1226708E+00
        -11   -1    0    0    0    0  0.00000000000E+00  0.00000000000E+00  0.45593999997E+02  0.45594000000E+02  0.51100000000E-03 0.  1.
         11   -1    0    0    0    0 -0.00000000000E+00 -0.00000000000E+00 -0.45593999997E+02  0.45594000000E+02  0.51100000000E-03 0. -1.
    9900012    2    1    2    0    0  0.63101489147E+01  0.16177852259E+02  0.70099347762E+01  0.72461546289E+02  0.69999968729E+02 0.  0.
         12    1    1    2    0    0 -0.63101489147E+01 -0.16177852259E+02 -0.70099347762E+01  0.18726453711E+02  0.00000000000E+00 0. -1.
         11    1    3    3    0    0  0.17159272151E+02  0.15791301838E+02  0.23054844053E+02  0.32792250137E+02  0.51100000000E-03 0. -1.
        -11    1    3    3    0    0  0.28711561821E+01 -0.12398913439E+02  0.28554663414E+01  0.13043399886E+02  0.51100000000E-03 0.  1.
         12    1    3    3    0    0 -0.13720279419E+02  0.12785463860E+02 -0.18900375618E+02  0.26625896266E+02  0.00000000000E+00 0. -1.
</event>
<event>
 7    1  0.1465498E-013  0.7246155E+02  0.7816164E-02  0.1226708E+00
        -11   -1    0    0    0    0  0.00000000000E+00  0.00000000000E+00  0.45593999997E+02  0.45594000000E+02  0.51100000000E-03 0.  1.
         11   -1    0    0    0    0 -0.00000000000E+00 -0.00000000000E+00 -0.45593999997E+02  0.45594000000E+02  0.51100000000E-03 0. -1.
    9900012    2    1    2    0    0 -0.10499748115E+02 -0.15301971857E+02  0.25069562637E+01  0.72461551247E+02  0.69999975188E+02 0.  0.
         12    1    1    2    0    0  0.10499748115E+02  0.15301971857E+02 -0.25069562637E+01  0.18726448753E+02  0.00000000000E+00 0. -1.
         11    1    3    3    0    0 -0.74014956586E+00 -0.20539213593E+02 -0.16026013311E+02  0.26062237420E+02  0.51100000000E-03 0. -1.
        -11    1    3    3    0    0  0.15807380344E+02 -0.43782078298E+00  0.34786313489E+01  0.16191535959E+02  0.51100000000E-03 0.  1.
        -12    1    3    3    0    0 -0.25566978893E+02  0.56750625196E+01  0.15054338226E+02  0.30207777868E+02  0.00000000000E+00 0.  1.
</event>
<event>
 7    1  0.1653231E-013  0.7246147E+02  0.7816164E-02  0.1226708E+00
        -11   -1    0    0    0    0  0.00000000000E+00  0.00000000000E+00  0.45593999997E+02  0.45594000000E+02  0.51100000000E-03 0.  1.
         11   -1    0    0    0    0 -0.00000000000E+00 -0.00000000000E+00 -0.45593999997E+02  0.45594000000E+02  0.51100000000E-03 0. -1.
    9900012    2    1    2    0    0  0.12634655327E+02 -0.35740620339E+01  0.13351953833E+02  0.72461465194E+02  0.69999863088E+02 0.  0.
         12    1    1    2    0    0 -0.12634655327E+02  0.35740620339E+01 -0.13351953833E+02  0.18726534806E+02  0.00000000000E+00 0. -1.
         11    1    3    3    0    0  0.22090687457E+02 -0.84051945825E+00 -0.10507399218E+02  0.24476731479E+02  0.51100000000E-03 0. -1.
        -11    1    3    3    0    0 -0.13750922608E+02  0.10985727220E+02 -0.26786962188E+01  0.17803075263E+02  0.51100000000E-03 0.  1.
        -12    1    3    3    0    0  0.42948904781E+01 -0.13719269795E+02  0.26538049270E+02  0.30181658453E+02  0.00000000000E+00 0.  1.
</event>
<event>
 7    1  0.1465498E-013  0.7246161E+02  0.7816164E-02  0.1226708E+00
        -11   -1    0    0    0    0  0.00000000000E+00  0.00000000000E+00  0.45593999997E+02  0.45594000000E+02  0.51100000000E-03 0.  1.
         11   -1    0    0    0    0 -0.00000000000E+00 -0.00000000000E+00 -0.45593999997E+02  0.45594000000E+02  0.51100000000E-03 0. -1.
    9900012    2    1    2    0    0 -0.20556722901E+01 -0.69772930504E+01  0.17255993758E+02  0.72461608798E+02  0.70000050158E+02 0.  0.
         12    1    1    2    0    0  0.20556722901E+01  0.69772930504E+01 -0.17255993758E+02  0.18726391202E+02  0.00000000000E+00 0. -1.
         11    1    3    3    0    0  0.34149742932E+01 -0.74272088537E+01 -0.76380681851E+01  0.11187741803E+02  0.51100000000E-03 0. -1.
        -11    1    3    3    0    0  0.17041318521E+01 -0.23354604701E+02 -0.33397397860E+01  0.23653656973E+02  0.51100000000E-03 0.  1.
        -12    1    3    3    0    0 -0.71747784354E+01  0.23804520504E+02  0.28233801729E+02  0.37620210022E+02  0.00000000000E+00 0.  1.
</event>
<event>
 7    1  0.1465498E-013  0.7246145E+02  0.7816164E-02  0.1226708E+00
        -11   -1    0    0    0    0  0.00000000000E+00  0.00000000000E+00  0.45593999997E+02  0.45594000000E+02  0.51100000000E-03 0.  1.
         11   -1    0    0    0    0 -0.00000000000E+00 -0.00000000000E+00 -0.45593999997E+02  0.45594000000E+02  0.51100000000E-03 0. -1.
    9900012    2    1    2    0    0  0.26564090173E+01 -0.48268960845E+01  0.17897714809E+02  0.72461451197E+02  0.69999844853E+02 0.  0.
         12    1    1    2    0    0 -0.26564090173E+01  0.48268960845E+01 -0.17897714809E+02  0.18726548803E+02  0.00000000000E+00 0. -1.
         11    1    3    3    0    0 -0.16491467299E+02  0.15418013547E+02  0.77950970054E+01  0.23884035945E+02  0.51100000000E-03 0. -1.
        -11    1    3    3    0    0  0.11911462143E+02  0.90404121055E+01 -0.36983243641E+01  0.15404206724E+02  0.51100000000E-03 0.  1.
         12    1    3    3    0    0  0.72364141731E+01 -0.29285321737E+02  0.13800942168E+02  0.33173208529E+02  0.00000000000E+00 0. -1.
</event>
<event>
 7    1  0.1465498E-013  0.7246156E+02  0.7816164E-02  0.1226708E+00
        -11   -1    0    0    0    0  0.00000000000E+00  0.00000000000E+00  0.45593999997E+02  0.45594000000E+02  0.51100000000E-03 0.  1.
         11   -1    0    0    0    0 -0.00000000000E+00 -0.00000000000E+00 -0.45593999997E+02  0.45594000000E+02  0.51100000000E-03 0. -1.
    9900012    2    1    2    0    0  0.78666105178E+00 -0.18303402426E+02  0.38789527921E+01  0.72461557445E+02  0.69999983262E+02 0.  0.
         12    1    1    2    0    0 -0.78666105178E+00  0.18303402426E+02 -0.38789527921E+01  0.18726442555E+02  0.00000000000E+00 0. -1.
         11    1    3    3    0    0 -0.18988459997E+00 -0.62424132015E+00 -0.76122305322E+00  0.10025937288E+01  0.51100000000E-03 0. -1.
        -11    1    3    3    0    0  0.30808596431E+01  0.13049795543E+02  0.29156651496E+02  0.32092042419E+02  0.51100000000E-03 0.  1.
         12    1    3    3    0    0 -0.21043139914E+01 -0.30728956649E+02 -0.24516475651E+02  0.39366921298E+02  0.00000000000E+00 0. -1.
</event>
<event>
 7    1  0.1465498E-013  0.7246166E+02  0.7816164E-02  0.1226708E+00
        -11   -1    0    0    0    0  0.00000000000E+00  0.00000000000E+00  0.45593999997E+02  0.45594000000E+02  0.51100000000E-03 0. -1.
         11   -1    0    0    0    0 -0.00000000000E+00 -0.00000000000E+00 -0.45593999997E+02  0.45594000000E+02  0.51100000000E-03 0.  1.
    9900012    2    1    2    0    0 -0.63654856015E+01  0.13856059530E+02 -0.10870424969E+02  0.72461656746E+02  0.70000112619E+02 0.  0.
         12    1    1    2    0    0  0.63654856015E+01 -0.13856059530E+02  0.10870424969E+02  0.18726343254E+02  0.00000000000E+00 0. -1.
         11    1    3    3    0    0  0.15607162446E+02 -0.51908451641E+01  0.10320109682E+01  0.16480092234E+02  0.51100000000E-03 0. -1.
        -11    1    3    3    0    0 -0.11041159089E+02  0.11505106289E+02 -0.29738645299E+02  0.33744061540E+02  0.51100000000E-03 0.  1.
         12    1    3    3    0    0 -0.10931488958E+02  0.75417984050E+01  0.17836209362E+02  0.22237502972E+02  0.00000000000E+00 0. -1.
</event>
<event>
 7    1  0.1465498E-013  0.7246148E+02  0.7816164E-02  0.1226708E+00
        -11   -1    0    0    0    0  0.00000000000E+00  0.00000000000E+00  0.45593999997E+02  0.45594000000E+02  0.51100000000E-03 0. -1.
         11   -1    0    0    0    0 -0.00000000000E+00 -0.00000000000E+00 -0.45593999997E+02  0.45594000000E+02  0.51100000000E-03 0.  1.
    9900012    2    1    2    0    0 -0.60130095289E+01 -0.17279192264E+02 -0.39944898358E+01  0.72461475551E+02  0.69999876579E+02 0.  0.
         12    1    1    2    0    0  0.60130095289E+01  0.17279192264E+02  0.39944898358E+01  0.18726524449E+02  0.00000000000E+00 0. -1.
         11    1    3    3    0    0  0.61998088516E+01 -0.79370388531E+01  0.14559790033E+02  0.17703719994E+02  0.51100000000E-03 0. -1.
        -11    1    3    3    0    0 -0.33292794130E+01 -0.29179826823E+02 -0.14063845486E+02  0.32562833797E+02  0.51100000000E-03 0.  1.
         12    1    3    3    0    0 -0.88835389675E+01  0.19837673411E+02 -0.44904343834E+01  0.22194921759E+02  0.00000000000E+00 0. -1.
</event>
<event>
 7    1  0.1465498E-013  0.7246148E+02  0.7816164E-02  0.1226708E+00
        -11   -1    0    0    0    0  0.00000000000E+00  0.00000000000E+00  0.45593999997E+02  0.45594000000E+02  0.51100000000E-03 0.  1.
         11   -1    0    0    0    0 -0.00000000000E+00 -0.00000000000E+00 -0.45593999997E+02  0.45594000000E+02  0.51100000000E-03 0. -1.
    9900012    2    1    2    0    0 -0.10652486316E+02  0.15324380391E+02  0.15396879794E+01  0.72461475011E+02  0.69999875875E+02 0.  0.
         12    1    1    2    0    0  0.10652486316E+02 -0.15324380391E+02 -0.15396879794E+01  0.18726524989E+02  0.00000000000E+00 0. -1.
         11    1    3    3    0    0 -0.14029202986E+02 -0.22821299481E+01 -0.68408743523E+01  0.15774162916E+02  0.51100000000E-03 0. -1.
        -11    1    3    3    0    0 -0.22952122412E+01 -0.17569079200E+01  0.28233409925E+02  0.28380982382E+02  0.51100000000E-03 0.  1.
         12    1    3    3    0    0  0.56719289110E+01  0.19363418260E+02 -0.19852847594E+02  0.28306329713E+02  0.00000000000E+00 0. -1.
</event>
<event>
 7    1  0.1465498E-013  0.7246156E+02  0.7816164E-02  0.1226708E+00
        -11   -1    0    0    0    0  0.00000000000E+00  0.00000000000E+00  0.45593999997E+02  0.45594000000E+02  0.51100000000E-03 0.  1.
         11   -1    0    0    0    0 -0.00000000000E+00 -0.00000000000E+00 -0.45593999997E+02  0.45594000000E+02  0.51100000000E-03 0. -1.
    9900012    2    1    2    0    0 -0.17217950044E+02 -0.31835742145E+01  0.66397855153E+01  0.72461556125E+02  0.69999981542E+02 0.  0.
         12    1    1    2    0    0  0.17217950044E+02  0.31835742145E+01 -0.66397855153E+01  0.18726443875E+02  0.00000000000E+00 0. -1.
         11    1    3    3    0    0  0.14728466437E+02  0.67809864101E+00 -0.31661060180E+01  0.15080178014E+02  0.51100000000E-03 0. -1.
        -11    1    3    3    0    0  0.95206348509E+01  0.79347186713E+01  0.68672593819E+01  0.14169033137E+02  0.51100000000E-03 0.  1.
        -12    1    3    3    0    0 -0.41467051332E+02 -0.11796391527E+02  0.29386321513E+01  0.43212344974E+02  0.00000000000E+00 0.  1.
</event>
<event>
 7    1  0.1465498E-013  0.7246157E+02  0.7816164E-02  0.1226708E+00
        -11   -1    0    0    0    0  0.00000000000E+00  0.00000000000E+00  0.45593999997E+02  0.45594000000E+02  0.51100000000E-03 0. -1.
         11   -1    0    0    0    0 -0.00000000000E+00 -0.00000000000E+00 -0.45593999997E+02  0.45594000000E+02  0.51100000000E-03 0.  1.
    9900012    2    1    2    0    0 -0.13735490948E+02  0.12577591380E+02  0.19544036278E+01  0.72461569212E+02  0.69999998591E+02 0.  0.
         12    1    1    2    0    0  0.13735490948E+02 -0.12577591380E+02 -0.19544036278E+01  0.18726430788E+02  0.00000000000E+00 0. -1.
         11    1    3    3    0    0 -0.99026155123E+01  0.21234744272E+02 -0.21947619837E+02  0.32104114612E+02  0.51100000000E-03 0. -1.
        -11    1    3    3    0    0 -0.14965961997E+02 -0.89730308592E+01  0.45564072258E+01  0.18034859255E+02  0.51100000000E-03 0.  1.
         12    1    3    3    0    0  0.11133086561E+02  0.31587796716E+00  0.19345616239E+02  0.22322595345E+02  0.00000000000E+00 0. -1.
</event>
<event>
 7    1  0.1465498E-013  0.7246164E+02  0.7816164E-02  0.1226708E+00
        -11   -1    0    0    0    0  0.00000000000E+00  0.00000000000E+00  0.45593999997E+02  0.45594000000E+02  0.51100000000E-03 0.  1.
         11   -1    0    0    0    0 -0.00000000000E+00 -0.00000000000E+00 -0.45593999997E+02  0.45594000000E+02  0.51100000000E-03 0. -1.
    9900012    2    1    2    0    0  0.11033047947E+02  0.10236570105E+02 -0.11142765800E+02  0.72461635052E+02  0.70000084358E+02 0.  0.
         12    1    1    2    0    0 -0.11033047947E+02 -0.10236570105E+02  0.11142765800E+02  0.18726364948E+02  0.00000000000E+00 0. -1.
         11    1    3    3    0    0  0.13610297154E+02  0.11109475545E+02  0.10464267960E+02  0.20448998501E+02  0.51100000000E-03 0. -1.
        -11    1    3    3    0    0  0.21886856436E+02  0.17433987609E+01 -0.14821128385E+02  0.26490371284E+02  0.51100000000E-03 0.  1.
        -12    1    3    3    0    0 -0.24464105643E+02 -0.26163042015E+01 -0.67859053748E+01  0.25522265267E+02  0.00000000000E+00 0.  1.
</event>
<event>
 7    1  0.1465498E-013  0.7246160E+02  0.7816164E-02  0.1226708E+00
        -11   -1    0    0    0    0  0.00000000000E+00  0.00000000000E+00  0.45593999997E+02  0.45594000000E+02  0.51100000000E-03 0. -1.
         11   -1    0    0    0    0 -0.00000000000E+00 -0.00000000000E+00 -0.45593999997E+02  0.45594000000E+02  0.51100000000E-03 0.  1.
    9900012    2    1    2    0    0  0.18141733410E+01 -0.63255754023E+00 -0.18627579525E+02  0.72461599574E+02  0.70000038143E+02 0.  0.
         12    1    1    2    0    0 -0.18141733410E+01  0.63255754023E+00  0.18627579525E+02  0.18726400426E+02  0.00000000000E+00 0. -1.
         11    1    3    3    0    0 -0.79808840116E+01  0.34435590398E+01  0.19053754056E+02  0.20942735073E+02  0.51100000000E-03 0. -1.
        -11    1    3    3    0    0 -0.10296461416E+02 -0.81631029700E+01 -0.78020595649E+01  0.15281541202E+02  0.51100000000E-03 0.  1.
        -12    1    3    3    0    0  0.20091518769E+02  0.40869863899E+01 -0.29879274016E+02  0.36237323299E+02  0.00000000000E+00 0.  1.
</event>
<event>
 7    1  0.1465498E-013  0.7246154E+02  0.7816164E-02  0.1226708E+00
        -11   -1    0    0    0    0  0.00000000000E+00  0.00000000000E+00  0.45593999997E+02  0.45594000000E+02  0.51100000000E-03 0.  1.
         11   -1    0    0    0    0 -0.00000000000E+00 -0.00000000000E+00 -0.45593999997E+02  0.45594000000E+02  0.51100000000E-03 0. -1.
    9900012    2    1    2    0    0 -0.29670261752E+01  0.14870083822E+02  0.10988971940E+02  0.72461544343E+02  0.69999966193E+02 0.  0.
         12    1    1    2    0    0  0.29670261752E+01 -0.14870083822E+02 -0.10988971940E+02  0.18726455657E+02  0.00000000000E+00 0. -1.
         11    1    3    3    0    0  0.41461107602E+00  0.61435503396E+01 -0.21846652511E+01  0.65335959196E+01  0.51100000000E-03 0. -1.
        -11    1    3    3    0    0 -0.12918439429E+02  0.34459331232E+02  0.10945517603E+02  0.38394478015E+02  0.51100000000E-03 0.  1.
         12    1    3    3    0    0  0.95368021779E+01 -0.25732797749E+02  0.22281195880E+01  0.27533470408E+02  0.00000000000E+00 0. -1.
</event>
<event>
 7    1  0.1465498E-013  0.7246157E+02  0.7816164E-02  0.1226708E+00
        -11   -1    0    0    0    0  0.00000000000E+00  0.00000000000E+00  0.45593999997E+02  0.45594000000E+02  0.51100000000E-03 0.  1.
         11   -1    0    0    0    0 -0.00000000000E+00 -0.00000000000E+00 -0.45593999997E+02  0.45594000000E+02  0.51100000000E-03 0. -1.
    9900012    2    1    2    0    0 -0.17966814559E+01 -0.90107662704E+01  0.16317394553E+02  0.72461565795E+02  0.69999994139E+02 0.  0.
         12    1    1    2    0    0  0.17966814559E+01  0.90107662704E+01 -0.16317394553E+02  0.18726434205E+02  0.00000000000E+00 0. -1.
         11    1    3    3    0    0  0.97504922617E+01  0.31571853640E+01 -0.11434427405E+02  0.15355326408E+02  0.51100000000E-03 0. -1.
        -11    1    3    3    0    0 -0.11287126211E+02 -0.11964657516E+02 -0.10067888718E+02  0.19285088309E+02  0.51100000000E-03 0.  1.
        -12    1    3    3    0    0 -0.26004750709E+00 -0.20329411844E+00  0.37819710676E+02  0.37821151078E+02  0.00000000000E+00 0.  1.
</event>
<event>
 7    1  0.1465498E-013  0.7246155E+02  0.7816164E-02  0.1226708E+00
        -11   -1    0    0    0    0  0.00000000000E+00  0.00000000000E+00  0.45593999997E+02  0.45594000000E+02  0.51100000000E-03 0. -1.
         11   -1    0    0    0    0 -0.00000000000E+00 -0.00000000000E+00 -0.45593999997E+02  0.45594000000E+02  0.51100000000E-03 0.  1.
    9900012    2    1    2    0    0 -0.71312249207E+01 -0.16183113159E+02  0.61589302013E+01  0.72461549679E+02  0.69999973145E+02 0.  0.
         12    1    1    2    0    0  0.71312249207E+01  0.16183113159E+02 -0.61589302013E+01  0.18726450321E+02  0.00000000000E+00 0. -1.
         11    1    3    3    0    0  0.40111197732E+01 -0.13803058820E+02  0.80247073435E+01  0.16462364436E+02  0.51100000000E-03 0. -1.
        -11    1    3    3    0    0  0.16893505813E+02 -0.16445048403E+02 -0.60899758058E+01  0.24349906800E+02  0.51100000000E-03 0.  1.
         12    1    3    3    0    0 -0.28035850507E+02  0.14064994063E+02  0.42241986636E+01  0.31649278443E+02  0.00000000000E+00 0. -1.
</event>
<event>
 7    1  0.1465498E-013  0.7246160E+02  0.7816164E-02  0.1226708E+00
        -11   -1    0    0    0    0  0.00000000000E+00  0.00000000000E+00  0.45593999997E+02  0.45594000000E+02  0.51100000000E-03 0.  1.
         11   -1    0    0    0    0 -0.00000000000E+00 -0.00000000000E+00 -0.45593999997E+02  0.45594000000E+02  0.51100000000E-03 0. -1.
    9900012    2    1    2    0    0 -0.16362508556E+02 -0.10149010564E+01  0.90507748644E+01  0.72461595219E+02  0.70000032468E+02 0.  0.
         12    1    1    2    0    0  0.16362508556E+02  0.10149010564E+01 -0.90507748644E+01  0.18726404781E+02  0.00000000000E+00 0. -1.
         11    1    3    3    0    0 -0.69704649361E+01  0.63939037898E+01  0.12689119236E+02  0.15826658976E+02  0.51100000000E-03 0. -1.
        -11    1    3    3    0    0  0.25820435895E+01  0.90266792608E+01  0.21995188785E+02  0.23915188009E+02  0.51100000000E-03 0.  1.
         12    1    3    3    0    0 -0.11974087209E+02 -0.16435484107E+02 -0.25633533157E+02  0.32719748233E+02  0.00000000000E+00 0. -1.
</event>
<event>
 7    1  0.1465498E-013  0.7246155E+02  0.7816164E-02  0.1226708E+00
        -11   -1    0    0    0    0  0.00000000000E+00  0.00000000000E+00  0.45593999997E+02  0.45594000000E+02  0.51100000000E-03 0.  1.
         11   -1    0    0    0    0 -0.00000000000E+00 -0.00000000000E+00 -0.45593999997E+02  0.45594000000E+02  0.51100000000E-03 0. -1.
    9900012    2    1    2    0    0 -0.21473487130E+01 -0.89160875940E+01  0.16327041146E+02  0.72461548198E+02  0.69999971216E+02 0.  0.
         12    1    1    2    0    0  0.21473487130E+01  0.89160875940E+01 -0.16327041146E+02  0.18726451802E+02  0.00000000000E+00 0. -1.
         11    1    3    3    0    0 -0.12317612262E+02 -0.11414181121E+02  0.16947343306E+02  0.23858322403E+02  0.51100000000E-03 0. -1.
        -11    1    3    3    0    0  0.17323705487E+02  0.18390712447E+02  0.11104736182E+02  0.27597902855E+02  0.51100000000E-03 0.  1.
         12    1    3    3    0    0 -0.71534419374E+01 -0.15892618920E+02 -0.11725038342E+02  0.21005322940E+02  0.00000000000E+00 0. -1.
</event>
<event>
 7    1  0.1465498E-013  0.7246177E+02  0.7816164E-02  0.1226707E+00
        -11   -1    0    0    0    0  0.00000000000E+00  0.00000000000E+00  0.45593999997E+02  0.45594000000E+02  0.51100000000E-03 0.  1.
         11   -1    0    0    0    0 -0.00000000000E+00 -0.00000000000E+00 -0.45593999997E+02  0.45594000000E+02  0.51100000000E-03 0. -1.
    9900012    2    1    2    0    0 -0.88547729442E+01 -0.21551700973E+01  0.16359089191E+02  0.72461773440E+02  0.70000264634E+02 0.  0.
         12    1    1    2    0    0  0.88547729442E+01  0.21551700973E+01 -0.16359089191E+02  0.18726226560E+02  0.00000000000E+00 0. -1.
         11    1    3    3    0    0 -0.20882444440E+02 -0.13191659634E+02  0.10358268782E+02  0.26784139002E+02  0.51100000000E-03 0.  1.
        -11    1    3    3    0    0 -0.11567207682E+02 -0.40580254290E+01 -0.77207732295E+01  0.14487173757E+02  0.51100000000E-03 0. -1.
        -12    1    3    3    0    0  0.23594879178E+02  0.15094514966E+02  0.13721593638E+02  0.31190460680E+02  0.00000000000E+00 0.  1.
</event>
<event>
 7    1  0.1465498E-013  0.7246159E+02  0.7816164E-02  0.1226708E+00
        -11   -1    0    0    0    0  0.00000000000E+00  0.00000000000E+00  0.45593999997E+02  0.45594000000E+02  0.51100000000E-03 0. -1.
         11   -1    0    0    0    0 -0.00000000000E+00 -0.00000000000E+00 -0.45593999997E+02  0.45594000000E+02  0.51100000000E-03 0.  1.
    9900012    2    1    2    0    0 -0.30660963934E+01  0.10042831797E+02 -0.15505449022E+02  0.72461591723E+02  0.70000027915E+02 0.  0.
         12    1    1    2    0    0  0.30660963934E+01 -0.10042831797E+02  0.15505449022E+02  0.18726408277E+02  0.00000000000E+00 0. -1.
         11    1    3    3    0    0 -0.31068807290E+01  0.79331564850E+01  0.41990378391E+01  0.94983997976E+01  0.51100000000E-03 0. -1.
        -11    1    3    3    0    0 -0.22392193709E+02  0.11904160772E+02 -0.27370341516E+02  0.37312933116E+02  0.51100000000E-03 0.  1.
        -12    1    3    3    0    0  0.22432978044E+02 -0.97944854600E+01  0.76658546552E+01  0.25650258809E+02  0.00000000000E+00 0.  1.
</event>
<event>
 7    1  0.1465498E-013  0.7246157E+02  0.7816164E-02  0.1226708E+00
        -11   -1    0    0    0    0  0.00000000000E+00  0.00000000000E+00  0.45593999997E+02  0.45594000000E+02  0.51100000000E-03 0. -1.
         11   -1    0    0    0    0 -0.00000000000E+00 -0.00000000000E+00 -0.45593999997E+02  0.45594000000E+02  0.51100000000E-03 0.  1.
    9900012    2    1    2    0    0 -0.74404884889E+00  0.16928868468E+02 -0.79711344768E+01  0.72461569984E+02  0.69999999596E+02 0.  0.
         12    1    1    2    0    0  0.74404884889E+00 -0.16928868468E+02  0.79711344768E+01  0.18726430016E+02  0.00000000000E+00 0. -1.
         11    1    3    3    0    0  0.82538164533E+01  0.31500865287E+00  0.18830781390E+01  0.84717589693E+01  0.51100000000E-03 0. -1.
        -11    1    3    3    0    0  0.92602705769E+01 -0.19488340002E+02  0.24212178850E+01  0.21711985250E+02  0.51100000000E-03 0.  1.
         12    1    3    3    0    0 -0.18258135879E+02  0.36102199817E+02 -0.12275430501E+02  0.42277825765E+02  0.00000000000E+00 0. -1.
</event>
<event>
 7    1  0.1465498E-013  0.7246154E+02  0.7816164E-02  0.1226708E+00
        -11   -1    0    0    0    0  0.00000000000E+00  0.00000000000E+00  0.45593999997E+02  0.45594000000E+02  0.51100000000E-03 0. -1.
         11   -1    0    0    0    0 -0.00000000000E+00 -0.00000000000E+00 -0.45593999997E+02  0.45594000000E+02  0.51100000000E-03 0.  1.
    9900012    2    1    2    0    0 -0.71460637397E+01 -0.15885608983E+02 -0.68747115782E+01  0.72461535864E+02  0.69999955149E+02 0.  0.
         12    1    1    2    0    0  0.71460637397E+01  0.15885608983E+02  0.68747115782E+01  0.18726464136E+02  0.00000000000E+00 0. -1.
         11    1    3    3    0    0  0.19412138976E+01  0.47211095778E+01  0.28732453213E+01  0.58577065460E+01  0.51100000000E-03 0. -1.
        -11    1    3    3    0    0 -0.21833692713E+02  0.97637760192E+01 -0.20969133600E+02  0.31807955355E+02  0.51100000000E-03 0.  1.
         12    1    3    3    0    0  0.12746415076E+02 -0.30370494580E+02  0.11221176701E+02  0.34795873964E+02  0.00000000000E+00 0. -1.
</event>
<event>
 7    1  0.1465498E-013  0.7246159E+02  0.7816164E-02  0.1226708E+00
        -11   -1    0    0    0    0  0.00000000000E+00  0.00000000000E+00  0.45593999997E+02  0.45594000000E+02  0.51100000000E-03 0.  1.
         11   -1    0    0    0    0 -0.00000000000E+00 -0.00000000000E+00 -0.45593999997E+02  0.45594000000E+02  0.51100000000E-03 0. -1.
    9900012    2    1    2    0    0 -0.86928121837E+01  0.16435498615E+02  0.22333535071E+01  0.72461589071E+02  0.70000024460E+02 0.  0.
         12    1    1    2    0    0  0.86928121837E+01 -0.16435498615E+02 -0.22333535071E+01  0.18726410929E+02  0.00000000000E+00 0. -1.
         11    1    3    3    0    0 -0.24682657268E+02 -0.63708728319E+01 -0.71755510949E+00  0.25501695553E+02  0.51100000000E-03 0.  1.
        -11    1    3    3    0    0  0.65462414547E+01 -0.31561762067E+01 -0.13120381156E+02  0.14998637518E+02  0.51100000000E-03 0. -1.
         12    1    3    3    0    0  0.94436036298E+01  0.25962547654E+02  0.16071289773E+02  0.31961256001E+02  0.00000000000E+00 0. -1.
</event>
<event>
 7    1  0.1465498E-013  0.7246149E+02  0.7816164E-02  0.1226708E+00
        -11   -1    0    0    0    0  0.00000000000E+00  0.00000000000E+00  0.45593999997E+02  0.45594000000E+02  0.51100000000E-03 0. -1.
         11   -1    0    0    0    0 -0.00000000000E+00 -0.00000000000E+00 -0.45593999997E+02  0.45594000000E+02  0.51100000000E-03 0.  1.
    9900012    2    1    2    0    0  0.13428613903E+02  0.13003686206E+02 -0.11219176841E+01  0.72461488697E+02  0.69999893704E+02 0.  0.
         12    1    1    2    0    0 -0.13428613903E+02 -0.13003686206E+02  0.11219176841E+01  0.18726511303E+02  0.00000000000E+00 0. -1.
         11    1    3    3    0    0  0.19149990286E+02  0.42555546403E+01  0.47171166944E+01  0.20176299548E+02  0.51100000000E-03 0. -1.
        -11    1    3    3    0    0  0.22104083290E+02  0.41671612951E+01  0.30913749680E+01  0.22704896626E+02  0.51100000000E-03 0.  1.
         12    1    3    3    0    0 -0.27825459673E+02  0.45809702705E+01 -0.89304093464E+01  0.29580292523E+02  0.00000000000E+00 0. -1.
</event>
<event>
 7    1  0.1465498E-013  0.7246157E+02  0.7816164E-02  0.1226708E+00
        -11   -1    0    0    0    0  0.00000000000E+00  0.00000000000E+00  0.45593999997E+02  0.45594000000E+02  0.51100000000E-03 0.  1.
         11   -1    0    0    0    0 -0.00000000000E+00 -0.00000000000E+00 -0.45593999997E+02  0.45594000000E+02  0.51100000000E-03 0. -1.
    9900012    2    1    2    0    0 -0.14928539312E+02  0.98767430589E+01  0.55016077082E+01  0.72461574105E+02  0.70000004964E+02 0.  0.
         12    1    1    2    0    0  0.14928539312E+02 -0.98767430589E+01 -0.55016077082E+01  0.18726425895E+02  0.00000000000E+00 0. -1.
         11    1    3    3    0    0 -0.66045100050E+01 -0.53996212959E+01  0.15392676130E+02  0.17598577819E+02  0.51100000000E-03 0. -1.
        -11    1    3    3    0    0 -0.22347416936E+02  0.24998747058E+02  0.27248009984E+01  0.33641773718E+02  0.51100000000E-03 0.  1.
         12    1    3    3    0    0  0.14023387629E+02 -0.97223827033E+01 -0.12615869420E+02  0.21221222567E+02  0.00000000000E+00 0. -1.
</event>
<event>
 7    1  0.1465498E-013  0.7246154E+02  0.7816164E-02  0.1226708E+00
        -11   -1    0    0    0    0  0.00000000000E+00  0.00000000000E+00  0.45593999997E+02  0.45594000000E+02  0.51100000000E-03 0.  1.
         11   -1    0    0    0    0 -0.00000000000E+00 -0.00000000000E+00 -0.45593999997E+02  0.45594000000E+02  0.51100000000E-03 0. -1.
    9900012    2    1    2    0    0  0.88449685847E+01 -0.13451100143E+02  0.95663249191E+01  0.72461544469E+02  0.69999966357E+02 0.  0.
         12    1    1    2    0    0 -0.88449685847E+01  0.13451100143E+02 -0.95663249191E+01  0.18726455531E+02  0.00000000000E+00 0. -1.
         11    1    3    3    0    0 -0.93352349263E+01 -0.16373231352E+02  0.28955460287E+02  0.34549211232E+02  0.51100000000E-03 0. -1.
        -11    1    3    3    0    0  0.39856729624E+01  0.83804564576E+00  0.68717580307E+01  0.79880515872E+01  0.51100000000E-03 0.  1.
         12    1    3    3    0    0  0.14194530549E+02  0.20840855636E+01 -0.26260893399E+02  0.29924281649E+02  0.00000000000E+00 0. -1.
</event>
<event>
 7    1  0.1465498E-013  0.7246165E+02  0.7816164E-02  0.1226708E+00
        -11   -1    0    0    0    0  0.00000000000E+00  0.00000000000E+00  0.45593999997E+02  0.45594000000E+02  0.51100000000E-03 0. -1.
         11   -1    0    0    0    0 -0.00000000000E+00 -0.00000000000E+00 -0.45593999997E+02  0.45594000000E+02  0.51100000000E-03 0.  1.
    9900012    2    1    2    0    0  0.95810546805E+01 -0.13629458078E+02 -0.85508744447E+01  0.72461649847E+02  0.70000103632E+02 0.  0.
         12    1    1    2    0    0 -0.95810546805E+01  0.13629458078E+02  0.85508744447E+01  0.18726350153E+02  0.00000000000E+00 0. -1.
         11    1    3    3    0    0 -0.46549157317E+01 -0.27248845740E+02  0.54978463769E+01  0.28184998664E+02  0.51100000000E-03 0. -1.
        -11    1    3    3    0    0  0.15362711589E+02 -0.81213928537E+01 -0.14300893593E+02  0.22505232437E+02  0.51100000000E-03 0.  1.
        -12    1    3    3    0    0 -0.11267411765E+01  0.21740780516E+02  0.25217277129E+00  0.21771418746E+02  0.00000000000E+00 0.  1.
</event>
<event>
 7    1  0.1465498E-013  0.7246150E+02  0.7816164E-02  0.1226708E+00
        -11   -1    0    0    0    0  0.00000000000E+00  0.00000000000E+00  0.45593999997E+02  0.45594000000E+02  0.51100000000E-03 0. -1.
         11   -1    0    0    0    0 -0.00000000000E+00 -0.00000000000E+00 -0.45593999997E+02  0.45594000000E+02  0.51100000000E-03 0.  1.
    9900012    2    1    2    0    0  0.17062689315E+02  0.15813443034E+01 -0.75528558220E+01  0.72461504131E+02  0.69999913810E+02 0.  0.
         12    1    1    2    0    0 -0.17062689315E+02 -0.15813443034E+01  0.75528558220E+01  0.18726495869E+02  0.00000000000E+00 0. -1.
         11    1    3    3    0    0 -0.27579726277E+01  0.44939230007E+01 -0.19344701480E+01  0.56163984871E+01  0.51100000000E-03 0. -1.
        -11    1    3    3    0    0 -0.93782056370E+01  0.63876882897E+01 -0.27127946012E+02  0.29405420550E+02  0.51100000000E-03 0.  1.
         12    1    3    3    0    0  0.29198867580E+02 -0.93002669870E+01  0.21509560338E+02  0.37439685093E+02  0.00000000000E+00 0. -1.
</event>
<event>
 7    1  0.1465498E-013  0.7246157E+02  0.7816164E-02  0.1226708E+00
        -11   -1    0    0    0    0  0.00000000000E+00  0.00000000000E+00  0.45593999997E+02  0.45594000000E+02  0.51100000000E-03 0.  1.
         11   -1    0    0    0    0 -0.00000000000E+00 -0.00000000000E+00 -0.45593999997E+02  0.45594000000E+02  0.51100000000E-03 0. -1.
    9900012    2    1    2    0    0  0.63704321884E+01 -0.17233257624E+02  0.36210040566E+01  0.72461568280E+02  0.69999997376E+02 0.  0.
         12    1    1    2    0    0 -0.63704321884E+01  0.17233257624E+02 -0.36210040566E+01  0.18726431720E+02  0.00000000000E+00 0. -1.
         11    1    3    3    0    0 -0.16248143477E+02 -0.24181889738E+02 -0.16233033409E+02  0.33350822054E+02  0.51100000000E-03 0. -1.
        -11    1    3    3    0    0  0.57740906599E+01 -0.83461721777E+01  0.23840978497E+01  0.10425096440E+02  0.51100000000E-03 0.  1.
        -12    1    3    3    0    0  0.16844485006E+02  0.15294804292E+02  0.17469939616E+02  0.28685649786E+02  0.00000000000E+00 0.  1.
</event>
<event>
 7    1  0.1465498E-013  0.7246159E+02  0.7816164E-02  0.1226708E+00
        -11   -1    0    0    0    0  0.00000000000E+00  0.00000000000E+00  0.45593999997E+02  0.45594000000E+02  0.51100000000E-03 0. -1.
         11   -1    0    0    0    0 -0.00000000000E+00 -0.00000000000E+00 -0.45593999997E+02  0.45594000000E+02  0.51100000000E-03 0.  1.
    9900012    2    1    2    0    0 -0.67755315403E+01 -0.17212425443E+02  0.29160118987E+01  0.72461587031E+02  0.70000021803E+02 0.  0.
         12    1    1    2    0    0  0.67755315403E+01  0.17212425443E+02 -0.29160118987E+01  0.18726412969E+02  0.00000000000E+00 0. -1.
         11    1    3    3    0    0 -0.36645827326E+01 -0.29506517519E+02 -0.42625985644E+01  0.30037201758E+02  0.51100000000E-03 0. -1.
        -11    1    3    3    0    0 -0.12572968600E+02 -0.84859328058E+01 -0.57066256716E+01  0.16206670596E+02  0.51100000000E-03 0.  1.
        -12    1    3    3    0    0  0.94620197919E+01  0.20780024882E+02  0.12885236135E+02  0.26217714677E+02  0.00000000000E+00 0.  1.
</event>
<event>
 7    1  0.1465498E-013  0.7246158E+02  0.7816164E-02  0.1226708E+00
        -11   -1    0    0    0    0  0.00000000000E+00  0.00000000000E+00  0.45593999997E+02  0.45594000000E+02  0.51100000000E-03 0. -1.
         11   -1    0    0    0    0 -0.00000000000E+00 -0.00000000000E+00 -0.45593999997E+02  0.45594000000E+02  0.51100000000E-03 0.  1.
    9900012    2    1    2    0    0 -0.17920028666E+02  0.52261127604E+01 -0.14963208749E+01  0.72461583948E+02  0.70000017786E+02 0.  0.
         12    1    1    2    0    0  0.17920028666E+02 -0.52261127604E+01  0.14963208749E+01  0.18726416052E+02  0.00000000000E+00 0. -1.
         11    1    3    3    0    0  0.53962380537E+01 -0.36746435447E+01  0.67918933367E+01  0.94208389048E+01  0.51100000000E-03 0. -1.
        -11    1    3    3    0    0  0.37781967407E+01 -0.13270484550E+02  0.15471235762E+02  0.20730163219E+02  0.51100000000E-03 0.  1.
        -12    1    3    3    0    0 -0.27094463461E+02  0.22171240855E+02 -0.23759449974E+02  0.42310581825E+02  0.00000000000E+00 0.  1.
</event>
<event>
 7    1  0.1465498E-013  0.7246149E+02  0.7816164E-02  0.1226708E+00
        -11   -1    0    0    0    0  0.00000000000E+00  0.00000000000E+00  0.45593999997E+02  0.45594000000E+02  0.51100000000E-03 0.  1.
         11   -1    0    0    0    0 -0.00000000000E+00 -0.00000000000E+00 -0.45593999997E+02  0.45594000000E+02  0.51100000000E-03 0. -1.
    9900012    2    1    2    0    0 -0.18387790342E+02  0.35321692593E+01 -0.30868979025E+00  0.72461485569E+02  0.69999889629E+02 0.  0.
         12    1    1    2    0    0  0.18387790342E+02 -0.35321692593E+01  0.30868979025E+00  0.18726514431E+02  0.00000000000E+00 0. -1.
         11    1    3    3    0    0  0.83965291596E+01  0.58238145251E+01 -0.18754804872E+02  0.21357931164E+02  0.51100000000E-03 0. -1.
        -11    1    3    3    0    0  0.64396218722E+01  0.88597944990E+01 -0.10449975314E+01  0.11002577358E+02  0.51100000000E-03 0.  1.
         12    1    3    3    0    0 -0.33223941374E+02 -0.11151439765E+02  0.19491112613E+02  0.40100977047E+02  0.00000000000E+00 0. -1.
</event>
<event>
 7    1  0.1465498E-013  0.7246158E+02  0.7816164E-02  0.1226708E+00
        -11   -1    0    0    0    0  0.00000000000E+00  0.00000000000E+00  0.45593999997E+02  0.45594000000E+02  0.51100000000E-03 0.  1.
         11   -1    0    0    0    0 -0.00000000000E+00 -0.00000000000E+00 -0.45593999997E+02  0.45594000000E+02  0.51100000000E-03 0. -1.
    9900012    2    1    2    0    0 -0.11328426138E+02 -0.14068440503E+02  0.49421049611E+01  0.72461583941E+02  0.70000017778E+02 0.  0.
         12    1    1    2    0    0  0.11328426138E+02  0.14068440503E+02 -0.49421049611E+01  0.18726416059E+02  0.00000000000E+00 0. -1.
         11    1    3    3    0    0  0.13796979877E+01 -0.28957954905E+01 -0.30145465007E+01  0.44018960603E+01  0.51100000000E-03 0. -1.
        -11    1    3    3    0    0  0.26896383037E+02 -0.25833430357E+01  0.19326496486E+01  0.27089190033E+02  0.51100000000E-03 0.  1.
         12    1    3    3    0    0 -0.39604507163E+02 -0.85893019770E+01  0.60240018132E+01  0.40970497848E+02  0.00000000000E+00 0. -1.
</event>
<event>
 7    1  0.1465498E-013  0.7246159E+02  0.7816164E-02  0.1226708E+00
        -11   -1    0    0    0    0  0.00000000000E+00  0.00000000000E+00  0.45593999997E+02  0.45594000000E+02  0.51100000000E-03 0. -1.
         11   -1    0    0    0    0 -0.00000000000E+00 -0.00000000000E+00 -0.45593999997E+02  0.45594000000E+02  0.51100000000E-03 0.  1.
    9900012    2    1    2    0    0  0.16648989553E+02  0.84938102620E+01 -0.11596063100E+01  0.72461592104E+02  0.70000028411E+02 0.  0.
         12    1    1    2    0    0 -0.16648989553E+02 -0.84938102620E+01  0.11596063100E+01  0.18726407896E+02  0.00000000000E+00 0. -1.
         11    1    3    3    0    0 -0.14973620707E+02  0.13258800961E+02  0.12862363510E+02  0.23779098287E+02  0.51100000000E-03 0. -1.
        -11    1    3    3    0    0  0.15673736576E+01 -0.12428715787E+01  0.99050235023E+01  0.10104992864E+02  0.51100000000E-03 0.  1.
        -12    1    3    3    0    0  0.30055236602E+02 -0.35221191200E+01 -0.23926993323E+02  0.38577500953E+02  0.00000000000E+00 0.  1.
</event>
<event>
 7    1  0.1465498E-013  0.7246160E+02  0.7816164E-02  0.1226708E+00
        -11   -1    0    0    0    0  0.00000000000E+00  0.00000000000E+00  0.45593999997E+02  0.45594000000E+02  0.51100000000E-03 0. -1.
         11   -1    0    0    0    0 -0.00000000000E+00 -0.00000000000E+00 -0.45593999997E+02  0.45594000000E+02  0.51100000000E-03 0.  1.
    9900012    2    1    2    0    0 -0.90762292682E+01 -0.11120651368E+02 -0.12026277573E+02  0.72461596799E+02  0.70000034527E+02 0.  0.
         12    1    1    2    0    0  0.90762292682E+01  0.11120651368E+02  0.12026277573E+02  0.18726403201E+02  0.00000000000E+00 0. -1.
         11    1    3    3    0    0  0.64351567294E+01 -0.14623778663E+01  0.49986761681E+01  0.82786807434E+01  0.51100000000E-03 0. -1.
        -11    1    3    3    0    0  0.19930325683E+02  0.83672211328E+01 -0.99523747237E+01  0.23796597114E+02  0.51100000000E-03 0.  1.
         12    1    3    3    0    0 -0.35441711681E+02 -0.18025494635E+02 -0.70725790171E+01  0.40386318941E+02  0.00000000000E+00 0. -1.
</event>
<event>
 7    1  0.1465498E-013  0.7246165E+02  0.7816164E-02  0.1226708E+00
        -11   -1    0    0    0    0  0.00000000000E+00  0.00000000000E+00  0.45593999997E+02  0.45594000000E+02  0.51100000000E-03 0.  1.
         11   -1    0    0    0    0 -0.00000000000E+00 -0.00000000000E+00 -0.45593999997E+02  0.45594000000E+02  0.51100000000E-03 0. -1.
    9900012    2    1    2    0    0  0.36611869763E+01  0.60523565104E+01  0.17338995235E+02  0.72461653181E+02  0.70000107975E+02 0.  0.
         12    1    1    2    0    0 -0.36611869763E+01 -0.60523565104E+01 -0.17338995235E+02  0.18726346819E+02  0.00000000000E+00 0. -1.
         11    1    3    3    0    0  0.95702979627E+01 -0.17014394432E+02 -0.11023364746E+01  0.19552374969E+02  0.51100000000E-03 0. -1.
        -11    1    3    3    0    0  0.13440685313E+02  0.15412740665E+02 -0.55119221337E+01  0.21179846136E+02  0.51100000000E-03 0.  1.
         12    1    3    3    0    0 -0.19349796299E+02  0.76540102771E+01  0.23953253844E+02  0.31729432076E+02  0.00000000000E+00 0. -1.
</event>
<event>
 7    1  0.1465498E-013  0.7246155E+02  0.7816164E-02  0.1226708E+00
        -11   -1    0    0    0    0  0.00000000000E+00  0.00000000000E+00  0.45593999997E+02  0.45594000000E+02  0.51100000000E-03 0.  1.
         11   -1    0    0    0    0 -0.00000000000E+00 -0.00000000000E+00 -0.45593999997E+02  0.45594000000E+02  0.51100000000E-03 0. -1.
    9900012    2    1    2    0    0 -0.82763605102E+01  0.70330877292E+01  0.15255080930E+02  0.72461549175E+02  0.69999972489E+02 0.  0.
         12    1    1    2    0    0  0.82763605102E+01 -0.70330877292E+01 -0.15255080930E+02  0.18726450825E+02  0.00000000000E+00 0. -1.
         11    1    3    3    0    0 -0.11367461714E+02  0.28813719231E+02  0.99806773392E+00  0.30991059052E+02  0.51100000000E-03 0. -1.
        -11    1    3    3    0    0 -0.81223253933E+00 -0.14292259000E+01  0.19920451024E+02  0.19988165940E+02  0.51100000000E-03 0.  1.
        -12    1    3    3    0    0  0.39033337428E+01 -0.20351405602E+02 -0.56634378283E+01  0.21482324183E+02  0.00000000000E+00 0.  1.
</event>
<event>
 7    1  0.1465498E-013  0.7246159E+02  0.7816164E-02  0.1226708E+00
        -11   -1    0    0    0    0  0.00000000000E+00  0.00000000000E+00  0.45593999997E+02  0.45594000000E+02  0.51100000000E-03 0.  1.
         11   -1    0    0    0    0 -0.00000000000E+00 -0.00000000000E+00 -0.45593999997E+02  0.45594000000E+02  0.51100000000E-03 0. -1.
    9900012    2    1    2    0    0  0.87169733667E+01 -0.43507706634E+00  0.16568143597E+02  0.72461593538E+02  0.70000030279E+02 0.  0.
         12    1    1    2    0    0 -0.87169733667E+01  0.43507706634E+00 -0.16568143597E+02  0.18726406462E+02  0.00000000000E+00 0. -1.
         11    1    3    3    0    0  0.11452583090E+02 -0.11915668624E+02  0.17863611897E+02  0.24336257898E+02  0.51100000000E-03 0. -1.
        -11    1    3    3    0    0  0.62729692366E+01  0.28298619610E+01  0.21258225452E+02  0.22344359722E+02  0.51100000000E-03 0.  1.
         12    1    3    3    0    0 -0.90085789602E+01  0.86507295969E+01 -0.22553693752E+02  0.25780975918E+02  0.00000000000E+00 0. -1.
</event>
<event>
 7    1  0.1465498E-013  0.7246168E+02  0.7816164E-02  0.1226708E+00
        -11   -1    0    0    0    0  0.00000000000E+00  0.00000000000E+00  0.45593999997E+02  0.45594000000E+02  0.51100000000E-03 0. -1.
         11   -1    0    0    0    0 -0.00000000000E+00 -0.00000000000E+00 -0.45593999997E+02  0.45594000000E+02  0.51100000000E-03 0.  1.
    9900012    2    1    2    0    0 -0.16206054915E+01 -0.15526458388E+02 -0.10343002626E+02  0.72461682274E+02  0.70000145874E+02 0.  0.
         12    1    1    2    0    0  0.16206054915E+01  0.15526458388E+02  0.10343002626E+02  0.18726317726E+02  0.00000000000E+00 0. -1.
         11    1    3    3    0    0 -0.12253906330E+02  0.20058730113E+00 -0.12551570445E+02  0.17542530505E+02  0.51100000000E-03 0. -1.
        -11    1    3    3    0    0 -0.61685752544E+01  0.16889593828E+02 -0.14947345833E+01  0.18042836032E+02  0.51100000000E-03 0.  1.
         12    1    3    3    0    0  0.16801876093E+02 -0.32616639518E+02  0.37033024021E+01  0.36876315737E+02  0.00000000000E+00 0. -1.
</event>
<event>
 7    1  0.1465498E-013  0.7246156E+02  0.7816164E-02  0.1226708E+00
        -11   -1    0    0    0    0  0.00000000000E+00  0.00000000000E+00  0.45593999997E+02  0.45594000000E+02  0.51100000000E-03 0. -1.
         11   -1    0    0    0    0 -0.00000000000E+00 -0.00000000000E+00 -0.45593999997E+02  0.45594000000E+02  0.51100000000E-03 0.  1.
    9900012    2    1    2    0    0  0.17546675263E+02 -0.55543633024E+01 -0.34558250877E+01  0.72461561697E+02  0.69999988800E+02 0.  0.
         12    1    1    2    0    0 -0.17546675263E+02  0.55543633024E+01  0.34558250877E+01  0.18726438303E+02  0.00000000000E+00 0. -1.
         11    1    3    3    0    0 -0.28731135484E+01  0.32311601231E+01  0.22399541669E+02  0.22813036722E+02  0.51100000000E-03 0. -1.
        -11    1    3    3    0    0 -0.10293635436E+00  0.83101424821E+01  0.43060864886E+01  0.93600985611E+01  0.51100000000E-03 0.  1.
        -12    1    3    3    0    0  0.20522725166E+02 -0.17095665908E+02 -0.30161453246E+02  0.40288426414E+02  0.00000000000E+00 0.  1.
</event>
<event>
 7    1  0.1465498E-013  0.7246156E+02  0.7816164E-02  0.1226708E+00
        -11   -1    0    0    0    0  0.00000000000E+00  0.00000000000E+00  0.45593999997E+02  0.45594000000E+02  0.51100000000E-03 0.  1.
         11   -1    0    0    0    0 -0.00000000000E+00 -0.00000000000E+00 -0.45593999997E+02  0.45594000000E+02  0.51100000000E-03 0. -1.
    9900012    2    1    2    0    0 -0.12600527434E+02  0.23231132709E+01  0.13656844447E+02  0.72461560212E+02  0.69999986866E+02 0.  0.
         12    1    1    2    0    0  0.12600527434E+02 -0.23231132709E+01 -0.13656844447E+02  0.18726439788E+02  0.00000000000E+00 0. -1.
         11    1    3    3    0    0  0.81455066925E+01  0.98402209145E+01 -0.15456193246E+02  0.20051761440E+02  0.51100000000E-03 0. -1.
        -11    1    3    3    0    0 -0.93927192431E+01  0.12374465733E+02  0.24555448357E+02  0.29057195687E+02  0.51100000000E-03 0.  1.
         12    1    3    3    0    0 -0.11353314883E+02 -0.19891573377E+02  0.45575893372E+01  0.23352603084E+02  0.00000000000E+00 0. -1.
</event>
<event>
 7    1  0.1465498E-013  0.7246163E+02  0.7816164E-02  0.1226708E+00
        -11   -1    0    0    0    0  0.00000000000E+00  0.00000000000E+00  0.45593999997E+02  0.45594000000E+02  0.51100000000E-03 0.  1.
         11   -1    0    0    0    0 -0.00000000000E+00 -0.00000000000E+00 -0.45593999997E+02  0.45594000000E+02  0.51100000000E-03 0. -1.
    9900012    2    1    2    0    0 -0.13600377834E+02  0.12856263664E+02 -0.65063164754E+00  0.72461625173E+02  0.70000071489E+02 0.  0.
         12    1    1    2    0    0  0.13600377834E+02 -0.12856263664E+02  0.65063164754E+00  0.18726374827E+02  0.00000000000E+00 0. -1.
         11    1    3    3    0    0  0.97245259773E+01 -0.65252391395E+01  0.35075654905E+01  0.12224899478E+02  0.51100000000E-03 0. -1.
        -11    1    3    3    0    0  0.14389161179E+02  0.59064453103E+01  0.91359441499E+01  0.18038833981E+02  0.51100000000E-03 0.  1.
         12    1    3    3    0    0 -0.37714064990E+02  0.13475057493E+02 -0.13294141288E+02  0.42197891714E+02  0.00000000000E+00 0. -1.
</event>
<event>
 7    1  0.1465498E-013  0.7246156E+02  0.7816164E-02  0.1226708E+00
        -11   -1    0    0    0    0  0.00000000000E+00  0.00000000000E+00  0.45593999997E+02  0.45594000000E+02  0.51100000000E-03 0.  1.
         11   -1    0    0    0    0 -0.00000000000E+00 -0.00000000000E+00 -0.45593999997E+02  0.45594000000E+02  0.51100000000E-03 0. -1.
    9900012    2    1    2    0    0  0.54722538751E+00 -0.11000276091E+02  0.15145102005E+02  0.72461557614E+02  0.69999983481E+02 0.  0.
         12    1    1    2    0    0 -0.54722538751E+00  0.11000276091E+02 -0.15145102005E+02  0.18726442386E+02  0.00000000000E+00 0. -1.
         11    1    3    3    0    0  0.46637261402E-01  0.14107557292E+02 -0.10663351261E+01  0.14147876824E+02  0.51100000000E-03 0. -1.
        -11    1    3    3    0    0  0.13490447943E+02  0.10043468742E+02  0.11876359510E+02  0.20589107935E+02  0.51100000000E-03 0.  1.
         12    1    3    3    0    0 -0.12989859817E+02 -0.35151302124E+02  0.43350776210E+01  0.37724572855E+02  0.00000000000E+00 0. -1.
</event>
<event>
 7    1  0.1465498E-013  0.7246158E+02  0.7816164E-02  0.1226708E+00
        -11   -1    0    0    0    0  0.00000000000E+00  0.00000000000E+00  0.45593999997E+02  0.45594000000E+02  0.51100000000E-03 0.  1.
         11   -1    0    0    0    0 -0.00000000000E+00 -0.00000000000E+00 -0.45593999997E+02  0.45594000000E+02  0.51100000000E-03 0. -1.
    9900012    2    1    2    0    0  0.18360612778E+02 -0.27588473177E+01 -0.24404191855E+01  0.72461575197E+02  0.70000006387E+02 0.  0.
         12    1    1    2    0    0 -0.18360612778E+02  0.27588473177E+01  0.24404191855E+01  0.18726424803E+02  0.00000000000E+00 0. -1.
         11    1    3    3    0    0 -0.55818346350E+01  0.34070115024E+01  0.32592860310E+01  0.73066785178E+01  0.51100000000E-03 0. -1.
        -11    1    3    3    0    0  0.27577205877E+02  0.22631338310E+02 -0.56856995817E+00  0.35679168008E+02  0.51100000000E-03 0.  1.
        -12    1    3    3    0    0 -0.36347584648E+01 -0.28797197130E+02 -0.51311352583E+01  0.29475728671E+02  0.00000000000E+00 0.  1.
</event>
<event>
 7    1  0.1465498E-013  0.7246158E+02  0.7816164E-02  0.1226708E+00
        -11   -1    0    0    0    0  0.00000000000E+00  0.00000000000E+00  0.45593999997E+02  0.45594000000E+02  0.51100000000E-03 0.  1.
         11   -1    0    0    0    0 -0.00000000000E+00 -0.00000000000E+00 -0.45593999997E+02  0.45594000000E+02  0.51100000000E-03 0. -1.
    9900012    2    1    2    0    0 -0.13164168501E+01 -0.85953703523E-02  0.18680089933E+02  0.72461580505E+02  0.70000013301E+02 0.  0.
         12    1    1    2    0    0  0.13164168501E+01  0.85953703523E-02 -0.18680089933E+02  0.18726419495E+02  0.00000000000E+00 0. -1.
         11    1    3    3    0    0  0.39142340794E+00 -0.38047721939E+01  0.89458476246E+01  0.97292185563E+01  0.51100000000E-03 0. -1.
        -11    1    3    3    0    0 -0.83621020311E+01  0.11662112611E+02  0.33709601471E+02  0.36636960198E+02  0.51100000000E-03 0.  1.
         12    1    3    3    0    0  0.66542617730E+01 -0.78659357879E+01 -0.23975359162E+02  0.26095401751E+02  0.00000000000E+00 0. -1.
</event>
<event>
 7    1  0.1465498E-013  0.7246167E+02  0.7816164E-02  0.1226708E+00
        -11   -1    0    0    0    0  0.00000000000E+00  0.00000000000E+00  0.45593999997E+02  0.45594000000E+02  0.51100000000E-03 0.  1.
         11   -1    0    0    0    0 -0.00000000000E+00 -0.00000000000E+00 -0.45593999997E+02  0.45594000000E+02  0.51100000000E-03 0. -1.
    9900012    2    1    2    0    0 -0.25329305322E+01  0.47580949783E+01  0.17933778218E+02  0.72461665440E+02  0.70000123944E+02 0.  0.
         12    1    1    2    0    0  0.25329305322E+01 -0.47580949783E+01 -0.17933778218E+02  0.18726334560E+02  0.00000000000E+00 0. -1.
         11    1    3    3    0    0  0.11840164379E+02  0.14687694521E+02  0.56544433591E+01  0.19694938254E+02  0.51100000000E-03 0. -1.
        -11    1    3    3    0    0  0.16327172387E+02 -0.19915392788E+01  0.13128868473E+02  0.21045426451E+02  0.51100000000E-03 0.  1.
        -12    1    3    3    0    0 -0.30700267298E+02 -0.79380602641E+01 -0.84953361477E+00  0.31721300735E+02  0.00000000000E+00 0.  1.
</event>
<event>
 7    1  0.1465498E-013  0.7246155E+02  0.7816164E-02  0.1226708E+00
        -11   -1    0    0    0    0  0.00000000000E+00  0.00000000000E+00  0.45593999997E+02  0.45594000000E+02  0.51100000000E-03 0. -1.
         11   -1    0    0    0    0 -0.00000000000E+00 -0.00000000000E+00 -0.45593999997E+02  0.45594000000E+02  0.51100000000E-03 0.  1.
    9900012    2    1    2    0    0 -0.17574276287E+02 -0.60047850089E+01 -0.24015153117E+01  0.72461550636E+02  0.69999974391E+02 0.  0.
         12    1    1    2    0    0  0.17574276287E+02  0.60047850089E+01  0.24015153117E+01  0.18726449364E+02  0.00000000000E+00 0. -1.
         11    1    3    3    0    0 -0.85972185563E+01 -0.11573860867E+02 -0.19775778935E+02  0.24473411185E+02  0.51100000000E-03 0. -1.
        -11    1    3    3    0    0 -0.85508950376E+01 -0.15980770159E+02 -0.29497360877E+01  0.18363108780E+02  0.51100000000E-03 0.  1.
         12    1    3    3    0    0 -0.42616269273E+00  0.21549846017E+02  0.20323999711E+02  0.29625030671E+02  0.00000000000E+00 0. -1.
</event>
<event>
 7    1  0.1465498E-013  0.7246154E+02  0.7816164E-02  0.1226708E+00
        -11   -1    0    0    0    0  0.00000000000E+00  0.00000000000E+00  0.45593999997E+02  0.45594000000E+02  0.51100000000E-03 0. -1.
         11   -1    0    0    0    0 -0.00000000000E+00 -0.00000000000E+00 -0.45593999997E+02  0.45594000000E+02  0.51100000000E-03 0.  1.
    9900012    2    1    2    0    0  0.15335147039E+02 -0.84939330776E+01 -0.65853351309E+01  0.72461540841E+02  0.69999961632E+02 0.  0.
         12    1    1    2    0    0 -0.15335147039E+02  0.84939330776E+01  0.65853351309E+01  0.18726459159E+02  0.00000000000E+00 0. -1.
         11    1    3    3    0    0  0.29668322452E+02 -0.17805243284E+02 -0.30566972991E+01  0.34735852432E+02  0.51100000000E-03 0. -1.
        -11    1    3    3    0    0  0.80340153206E+01  0.54546608933E+01 -0.10185106641E+02  0.14072495343E+02  0.51100000000E-03 0.  1.
         12    1    3    3    0    0 -0.22367190734E+02  0.38566493129E+01  0.66564688094E+01  0.23653193067E+02  0.00000000000E+00 0. -1.
</event>
<event>
 7    1  0.1465498E-013  0.7246155E+02  0.7816164E-02  0.1226708E+00
        -11   -1    0    0    0    0  0.00000000000E+00  0.00000000000E+00  0.45593999997E+02  0.45594000000E+02  0.51100000000E-03 0.  1.
         11   -1    0    0    0    0 -0.00000000000E+00 -0.00000000000E+00 -0.45593999997E+02  0.45594000000E+02  0.51100000000E-03 0. -1.
    9900012    2    1    2    0    0  0.10097827688E+02 -0.33197566065E+01  0.15417299254E+02  0.72461547474E+02  0.69999970272E+02 0.  0.
         12    1    1    2    0    0 -0.10097827688E+02  0.33197566065E+01 -0.15417299254E+02  0.18726452526E+02  0.00000000000E+00 0. -1.
         11    1    3    3    0    0  0.26287817156E+01  0.27728271184E+01  0.24578112777E+02  0.24873332938E+02  0.51100000000E-03 0. -1.
        -11    1    3    3    0    0  0.14603700011E+02  0.14146487033E+02  0.61323257693E+01  0.21236679802E+02  0.51100000000E-03 0.  1.
         12    1    3    3    0    0 -0.71346540390E+01 -0.20239070758E+02 -0.15293139292E+02  0.26351534734E+02  0.00000000000E+00 0. -1.
</event>
<event>
 7    1  0.1465498E-013  0.7246156E+02  0.7816164E-02  0.1226708E+00
        -11   -1    0    0    0    0  0.00000000000E+00  0.00000000000E+00  0.45593999997E+02  0.45594000000E+02  0.51100000000E-03 0.  1.
         11   -1    0    0    0    0 -0.00000000000E+00 -0.00000000000E+00 -0.45593999997E+02  0.45594000000E+02  0.51100000000E-03 0. -1.
    9900012    2    1    2    0    0  0.10223673219E+02 -0.32386356287E+01  0.15351461613E+02  0.72461558041E+02  0.69999984037E+02 0.  0.
         12    1    1    2    0    0 -0.10223673219E+02  0.32386356287E+01 -0.15351461613E+02  0.18726441959E+02  0.00000000000E+00 0. -1.
         11    1    3    3    0    0  0.37008585712E+01  0.11894228279E+02 -0.20616471533E+02  0.24087505459E+02  0.51100000000E-03 0. -1.
        -11    1    3    3    0    0  0.82014748401E+01 -0.22259157858E+01 -0.15714977939E+01  0.86422506453E+01  0.51100000000E-03 0.  1.
         12    1    3    3    0    0 -0.16786601928E+01 -0.12906948121E+02  0.37539430939E+02  0.39731801936E+02  0.00000000000E+00 0. -1.
</event>
<event>
 7    1  0.1465498E-013  0.7246154E+02  0.7816164E-02  0.1226708E+00
        -11   -1    0    0    0    0  0.00000000000E+00  0.00000000000E+00  0.45593999997E+02  0.45594000000E+02  0.51100000000E-03 0. -1.
         11   -1    0    0    0    0 -0.00000000000E+00 -0.00000000000E+00 -0.45593999997E+02  0.45594000000E+02  0.51100000000E-03 0.  1.
    9900012    2    1    2    0    0  0.36863039670E+01 -0.12490613793E+01 -0.18317515873E+02  0.72461538001E+02  0.69999957932E+02 0.  0.
         12    1    1    2    0    0 -0.36863039670E+01  0.12490613793E+01  0.18317515873E+02  0.18726461999E+02  0.00000000000E+00 0. -1.
         11    1    3    3    0    0  0.42248230023E+01 -0.15712401885E+02 -0.34836979358E+01  0.16639256412E+02  0.51100000000E-03 0. -1.
        -11    1    3    3    0    0  0.16137284873E+01 -0.35057967562E+01 -0.31190501689E+02  0.31428364997E+02  0.51100000000E-03 0.  1.
         12    1    3    3    0    0 -0.21522475227E+01  0.17969137262E+02  0.16356683752E+02  0.24393916592E+02  0.00000000000E+00 0. -1.
</event>
<event>
 7    1  0.1465498E-013  0.7246158E+02  0.7816164E-02  0.1226708E+00
        -11   -1    0    0    0    0  0.00000000000E+00  0.00000000000E+00  0.45593999997E+02  0.45594000000E+02  0.51100000000E-03 0.  1.
         11   -1    0    0    0    0 -0.00000000000E+00 -0.00000000000E+00 -0.45593999997E+02  0.45594000000E+02  0.51100000000E-03 0. -1.
    9900012    2    1    2    0    0 -0.17389915155E+01  0.10388151276E+02  0.15483572158E+02  0.72461580556E+02  0.70000013368E+02 0.  0.
         12    1    1    2    0    0  0.17389915155E+01 -0.10388151276E+02 -0.15483572158E+02  0.18726419444E+02  0.00000000000E+00 0. -1.
         11    1    3    3    0    0 -0.16665272061E+02 -0.10085054969E+02  0.36073336893E-01  0.19479243521E+02  0.51100000000E-03 0. -1.
        -11    1    3    3    0    0 -0.92909644518E+01 -0.22061882929E+01  0.17290715324E+02  0.19752420710E+02  0.51100000000E-03 0.  1.
         12    1    3    3    0    0  0.24217244998E+02  0.22679394537E+02 -0.18432165033E+01  0.33229916325E+02  0.00000000000E+00 0. -1.
</event>
<event>
 7    1  0.1465498E-013  0.7246158E+02  0.7816164E-02  0.1226708E+00
        -11   -1    0    0    0    0  0.00000000000E+00  0.00000000000E+00  0.45593999997E+02  0.45594000000E+02  0.51100000000E-03 0.  1.
         11   -1    0    0    0    0 -0.00000000000E+00 -0.00000000000E+00 -0.45593999997E+02  0.45594000000E+02  0.51100000000E-03 0. -1.
    9900012    2    1    2    0    0  0.14482086274E+02 -0.66139772170E+01  0.98591812532E+01  0.72461575556E+02  0.70000006854E+02 0.  0.
         12    1    1    2    0    0 -0.14482086274E+02  0.66139772170E+01 -0.98591812532E+01  0.18726424444E+02  0.00000000000E+00 0. -1.
         11    1    3    3    0    0  0.19221252312E+02 -0.62856580356E+01 -0.57958417248E+01  0.21037058229E+02  0.51100000000E-03 0. -1.
        -11    1    3    3    0    0  0.15687408033E+01 -0.24098539279E+02  0.52086688916E+01  0.24704873506E+02  0.51100000000E-03 0.  1.
        -12    1    3    3    0    0 -0.63079068408E+01  0.23770220097E+02  0.10446354086E+02  0.26719643820E+02  0.00000000000E+00 0.  1.
</event>
<event>
 7    1  0.1465498E-013  0.7246154E+02  0.7816164E-02  0.1226708E+00
        -11   -1    0    0    0    0  0.00000000000E+00  0.00000000000E+00  0.45593999997E+02  0.45594000000E+02  0.51100000000E-03 0.  1.
         11   -1    0    0    0    0 -0.00000000000E+00 -0.00000000000E+00 -0.45593999997E+02  0.45594000000E+02  0.51100000000E-03 0. -1.
    9900012    2    1    2    0    0 -0.18348459102E+02  0.36526434875E+01 -0.82013499674E+00  0.72461538047E+02  0.69999957991E+02 0.  0.
         12    1    1    2    0    0  0.18348459102E+02 -0.36526434875E+01  0.82013499674E+00  0.18726461953E+02  0.00000000000E+00 0. -1.
         11    1    3    3    0    0  0.65971811231E+01 -0.84015571908E+01 -0.50022638974E+01  0.11795406155E+02  0.51100000000E-03 0. -1.
        -11    1    3    3    0    0 -0.25029426129E+02 -0.12147545621E+02  0.17671016690E+02  0.32959063519E+02  0.51100000000E-03 0.  1.
         12    1    3    3    0    0  0.83785903629E-01  0.24201746299E+02 -0.13488887789E+02  0.27707068372E+02  0.00000000000E+00 0. -1.
</event>
<event>
 7    1  0.1465498E-013  0.7246160E+02  0.7816164E-02  0.1226708E+00
        -11   -1    0    0    0    0  0.00000000000E+00  0.00000000000E+00  0.45593999997E+02  0.45594000000E+02  0.51100000000E-03 0. -1.
         11   -1    0    0    0    0 -0.00000000000E+00 -0.00000000000E+00 -0.45593999997E+02  0.45594000000E+02  0.51100000000E-03 0.  1.
    9900012    2    1    2    0    0  0.17982394887E+02  0.50213952672E+01 -0.14481784643E+01  0.72461597325E+02  0.70000035212E+02 0.  0.
         12    1    1    2    0    0 -0.17982394887E+02 -0.50213952672E+01  0.14481784643E+01  0.18726402675E+02  0.00000000000E+00 0. -1.
         11    1    3    3    0    0 -0.93721723418E+01  0.10685602373E+02 -0.98930101722E+00  0.14247751726E+02  0.51100000000E-03 0. -1.
        -11    1    3    3    0    0  0.32125835375E+02 -0.29422014954E+01 -0.19972090072E+02  0.37942195908E+02  0.51100000000E-03 0.  1.
         12    1    3    3    0    0 -0.47712681467E+01 -0.27220056100E+01  0.19513212625E+02  0.20271649691E+02  0.00000000000E+00 0. -1.
</event>
<event>
 7    1  0.1465498E-013  0.7246156E+02  0.7816164E-02  0.1226708E+00
        -11   -1    0    0    0    0  0.00000000000E+00  0.00000000000E+00  0.45593999997E+02  0.45594000000E+02  0.51100000000E-03 0.  1.
         11   -1    0    0    0    0 -0.00000000000E+00 -0.00000000000E+00 -0.45593999997E+02  0.45594000000E+02  0.51100000000E-03 0. -1.
    9900012    2    1    2    0    0 -0.18984819990E+01 -0.11347627232E+02  0.14775200633E+02  0.72461563301E+02  0.69999990890E+02 0.  0.
         12    1    1    2    0    0  0.18984819990E+01  0.11347627232E+02 -0.14775200633E+02  0.18726436699E+02  0.00000000000E+00 0. -1.
         11    1    3    3    0    0 -0.13161268977E+02  0.53574276036E+01 -0.14026777176E+02  0.19966760123E+02  0.51100000000E-03 0. -1.
        -11    1    3    3    0    0  0.36929860313E+00 -0.17234415397E+02 -0.41955562677E+01  0.17741593734E+02  0.51100000000E-03 0.  1.
        -12    1    3    3    0    0  0.10893488375E+02  0.52936056211E+00  0.32997534076E+02  0.34753209444E+02  0.00000000000E+00 0.  1.
</event>
<event>
 7    1  0.1465498E-013  0.7246157E+02  0.7816164E-02  0.1226708E+00
        -11   -1    0    0    0    0  0.00000000000E+00  0.00000000000E+00  0.45593999997E+02  0.45594000000E+02  0.51100000000E-03 0. -1.
         11   -1    0    0    0    0 -0.00000000000E+00 -0.00000000000E+00 -0.45593999997E+02  0.45594000000E+02  0.51100000000E-03 0.  1.
    9900012    2    1    2    0    0  0.13021596907E+02  0.73144396731E+01 -0.11296739339E+02  0.72461565918E+02  0.69999994299E+02 0.  0.
         12    1    1    2    0    0 -0.13021596907E+02 -0.73144396731E+01  0.11296739339E+02  0.18726434082E+02  0.00000000000E+00 0. -1.
         11    1    3    3    0    0  0.64458655664E+01 -0.26844760672E+01 -0.26834253952E+02  0.27727834032E+02  0.51100000000E-03 0. -1.
        -11    1    3    3    0    0  0.17240279417E+02  0.39286126619E+01 -0.70438307776E+01  0.19033569926E+02  0.51100000000E-03 0.  1.
         12    1    3    3    0    0 -0.10664548077E+02  0.60703030784E+01  0.22581345391E+02  0.25700161961E+02  0.00000000000E+00 0. -1.
</event>
<event>
 7    1  0.1465498E-013  0.7246157E+02  0.7816164E-02  0.1226708E+00
        -11   -1    0    0    0    0  0.00000000000E+00  0.00000000000E+00  0.45593999997E+02  0.45594000000E+02  0.51100000000E-03 0.  1.
         11   -1    0    0    0    0 -0.00000000000E+00 -0.00000000000E+00 -0.45593999997E+02  0.45594000000E+02  0.51100000000E-03 0. -1.
    9900012    2    1    2    0    0 -0.11031734690E+02  0.10246475422E+02  0.11135071507E+02  0.72461568244E+02  0.69999997329E+02 0.  0.
         12    1    1    2    0    0  0.11031734690E+02 -0.10246475422E+02 -0.11135071507E+02  0.18726431756E+02  0.00000000000E+00 0. -1.
         11    1    3    3    0    0  0.54825221931E+01  0.27029437128E+01  0.59425024695E+00  0.61414239334E+01  0.51100000000E-03 0. -1.
        -11    1    3    3    0    0 -0.76729890688E+01  0.33220803021E+02  0.17445468181E+02  0.38299358675E+02  0.51100000000E-03 0.  1.
         12    1    3    3    0    0 -0.88412678139E+01 -0.25677271311E+02 -0.69046469213E+01  0.28020785636E+02  0.00000000000E+00 0. -1.
</event>
<event>
 7    1  0.1465498E-013  0.7246155E+02  0.7816164E-02  0.1226708E+00
        -11   -1    0    0    0    0  0.00000000000E+00  0.00000000000E+00  0.45593999997E+02  0.45594000000E+02  0.51100000000E-03 0. -1.
         11   -1    0    0    0    0 -0.00000000000E+00 -0.00000000000E+00 -0.45593999997E+02  0.45594000000E+02  0.51100000000E-03 0.  1.
    9900012    2    1    2    0    0  0.57337235785E+01 -0.15975299329E+02 -0.79116372880E+01  0.72461554013E+02  0.69999978791E+02 0.  0.
         12    1    1    2    0    0 -0.57337235785E+01  0.15975299329E+02  0.79116372880E+01  0.18726445987E+02  0.00000000000E+00 0. -1.
         11    1    3    3    0    0 -0.10074820524E+02 -0.14595436052E+02  0.15012708872E+02  0.23235967595E+02  0.51100000000E-03 0. -1.
        -11    1    3    3    0    0 -0.61230811111E+01 -0.85672150645E+01  0.60798062402E+01  0.12159495896E+02  0.51100000000E-03 0.  1.
        -12    1    3    3    0    0  0.21931625213E+02  0.71873517880E+01 -0.29004152400E+02  0.37066090523E+02  0.00000000000E+00 0.  1.
</event>
<event>
 7    1  0.1465498E-013  0.7246158E+02  0.7816164E-02  0.1226708E+00
        -11   -1    0    0    0    0  0.00000000000E+00  0.00000000000E+00  0.45593999997E+02  0.45594000000E+02  0.51100000000E-03 0. -1.
         11   -1    0    0    0    0 -0.00000000000E+00 -0.00000000000E+00 -0.45593999997E+02  0.45594000000E+02  0.51100000000E-03 0.  1.
    9900012    2    1    2    0    0  0.16883993770E+02  0.51837603625E+01  0.62239888147E+01  0.72461584062E+02  0.70000017935E+02 0.  0.
         12    1    1    2    0    0 -0.16883993770E+02 -0.51837603625E+01 -0.62239888147E+01  0.18726415938E+02  0.00000000000E+00 0. -1.
         11    1    3    3    0    0 -0.73475080022E+01  0.11040250542E+02  0.18391406504E+02  0.22674144732E+02  0.51100000000E-03 0. -1.
        -11    1    3    3    0    0 -0.68487628752E+01 -0.38238681735E+01  0.91441837283E+01  0.12047556476E+02  0.51100000000E-03 0.  1.
        -12    1    3    3    0    0  0.31080264648E+02 -0.20326220062E+01 -0.21311601418E+02  0.37739882853E+02  0.00000000000E+00 0.  1.
</event>
<event>
 7    1  0.1465498E-013  0.7246156E+02  0.7816164E-02  0.1226708E+00
        -11   -1    0    0    0    0  0.00000000000E+00  0.00000000000E+00  0.45593999997E+02  0.45594000000E+02  0.51100000000E-03 0. -1.
         11   -1    0    0    0    0 -0.00000000000E+00 -0.00000000000E+00 -0.45593999997E+02  0.45594000000E+02  0.51100000000E-03 0.  1.
    9900012    2    1    2    0    0 -0.13488421422E+02 -0.23206360893E+01 -0.12781105388E+02  0.72461560956E+02  0.69999987835E+02 0.  0.
         12    1    1    2    0    0  0.13488421422E+02  0.23206360893E+01  0.12781105388E+02  0.18726439044E+02  0.00000000000E+00 0. -1.
         11    1    3    3    0    0  0.98593067617E+00  0.76637965714E+01 -0.35479582995E+01  0.85025787583E+01  0.51100000000E-03 0. -1.
        -11    1    3    3    0    0 -0.89451998274E+01 -0.23828062235E+02 -0.29396346564E+02  0.38883651338E+02  0.51100000000E-03 0.  1.
         12    1    3    3    0    0 -0.55291522709E+01  0.13843629574E+02  0.20163199476E+02  0.25075330860E+02  0.00000000000E+00 0. -1.
</event>
<event>
 7    1  0.1465498E-013  0.7246156E+02  0.7816164E-02  0.1226708E+00
        -11   -1    0    0    0    0  0.00000000000E+00  0.00000000000E+00  0.45593999997E+02  0.45594000000E+02  0.51100000000E-03 0.  1.
         11   -1    0    0    0    0 -0.00000000000E+00 -0.00000000000E+00 -0.45593999997E+02  0.45594000000E+02  0.51100000000E-03 0. -1.
    9900012    2    1    2    0    0 -0.19647219095E+01  0.89223512124E+01  0.16346591299E+02  0.72461560658E+02  0.69999987447E+02 0.  0.
         12    1    1    2    0    0  0.19647219095E+01 -0.89223512124E+01 -0.16346591299E+02  0.18726439342E+02  0.00000000000E+00 0. -1.
         11    1    3    3    0    0 -0.15767972261E+02  0.11906405584E+02  0.18586971957E+01  0.19845558664E+02  0.51100000000E-03 0. -1.
        -11    1    3    3    0    0 -0.17696070430E+02  0.33147217224E+01  0.86220199744E+01  0.19961901650E+02  0.51100000000E-03 0.  1.
         12    1    3    3    0    0  0.31499320782E+02 -0.62987760943E+01  0.58658741289E+01  0.32654100344E+02  0.00000000000E+00 0. -1.
</event>
<event>
 7    1  0.1465498E-013  0.7246157E+02  0.7816164E-02  0.1226708E+00
        -11   -1    0    0    0    0  0.00000000000E+00  0.00000000000E+00  0.45593999997E+02  0.45594000000E+02  0.51100000000E-03 0.  1.
         11   -1    0    0    0    0 -0.00000000000E+00 -0.00000000000E+00 -0.45593999997E+02  0.45594000000E+02  0.51100000000E-03 0. -1.
    9900012    2    1    2    0    0  0.11147244946E+02  0.11583274271E+02 -0.96044741587E+01  0.72461568504E+02  0.69999997667E+02 0.  0.
         12    1    1    2    0    0 -0.11147244946E+02 -0.11583274271E+02  0.96044741587E+01  0.18726431496E+02  0.00000000000E+00 0. -1.
         11    1    3    3    0    0  0.25929593540E+00  0.23150151334E+01 -0.55303846421E+01  0.60009735878E+01  0.51100000000E-03 0. -1.
        -11    1    3    3    0    0 -0.20955690332E+02  0.16720485652E+02  0.12746069840E+02  0.29684640715E+02  0.51100000000E-03 0.  1.
         12    1    3    3    0    0  0.31843639343E+02 -0.74522265147E+01 -0.16820159357E+02  0.36775954201E+02  0.00000000000E+00 0. -1.
</event>
<event>
 7    1  0.1465498E-013  0.7246164E+02  0.7816164E-02  0.1226708E+00
        -11   -1    0    0    0    0  0.00000000000E+00  0.00000000000E+00  0.45593999997E+02  0.45594000000E+02  0.51100000000E-03 0.  1.
         11   -1    0    0    0    0 -0.00000000000E+00 -0.00000000000E+00 -0.45593999997E+02  0.45594000000E+02  0.51100000000E-03 0. -1.
    9900012    2    1    2    0    0 -0.12006322698E+02  0.11315992082E+02 -0.88585052770E+01  0.72461639508E+02  0.70000090164E+02 0.  0.
         12    1    1    2    0    0  0.12006322698E+02 -0.11315992082E+02  0.88585052770E+01  0.18726360492E+02  0.00000000000E+00 0. -1.
         11    1    3    3    0    0 -0.30740808901E+02 -0.49053948402E+01 -0.40258300342E+01  0.31388971601E+02  0.51100000000E-03 0. -1.
        -11    1    3    3    0    0 -0.69835257010E+01  0.10888704053E+02 -0.70179853705E+01  0.14716848375E+02  0.51100000000E-03 0.  1.
        -12    1    3    3    0    0  0.25718011904E+02  0.53326828697E+01  0.21853101277E+01  0.26355819533E+02  0.00000000000E+00 0.  1.
</event>
<event>
 7    1  0.1465498E-013  0.7246212E+02  0.7816164E-02  0.1226707E+00
        -11   -1    0    0    0    0  0.00000000000E+00  0.00000000000E+00  0.45593999997E+02  0.45594000000E+02  0.51100000000E-03 0.  1.
         11   -1    0    0    0    0 -0.00000000000E+00 -0.00000000000E+00 -0.45593999997E+02  0.45594000000E+02  0.51100000000E-03 0. -1.
    9900012    2    1    2    0    0  0.43735272512E+01 -0.14845621406E+02  0.10542210658E+02  0.72462124290E+02  0.70000721679E+02 0.  0.
         12    1    1    2    0    0 -0.43735272512E+01  0.14845621406E+02 -0.10542210658E+02  0.18725875710E+02  0.00000000000E+00 0. -1.
         11    1    3    3    0    0  0.16497948657E+02 -0.21220362846E+02 -0.88492128241E+01  0.28298315799E+02  0.51100000000E-03 0. -1.
        -11    1    3    3    0    0  0.44813993662E+01 -0.34226903259E+01 -0.85341543616E+01  0.10228858210E+02  0.51100000000E-03 0.  1.
        -12    1    3    3    0    0 -0.16605820772E+02  0.97974317663E+01  0.27925577844E+02  0.33934950282E+02  0.00000000000E+00 0.  1.
</event>
<event>
 7    1  0.1465498E-013  0.7246157E+02  0.7816164E-02  0.1226708E+00
        -11   -1    0    0    0    0  0.00000000000E+00  0.00000000000E+00  0.45593999997E+02  0.45594000000E+02  0.51100000000E-03 0.  1.
         11   -1    0    0    0    0 -0.00000000000E+00 -0.00000000000E+00 -0.45593999997E+02  0.45594000000E+02  0.51100000000E-03 0. -1.
    9900012    2    1    2    0    0 -0.13262694200E+02  0.34387140933E-01 -0.13220401406E+02  0.72461568059E+02  0.69999997088E+02 0.  0.
         12    1    1    2    0    0  0.13262694200E+02 -0.34387140933E-01  0.13220401406E+02  0.18726431941E+02  0.00000000000E+00 0. -1.
         11    1    3    3    0    0 -0.17678961444E+01 -0.27210948290E+01  0.21770514390E+01  0.39076037509E+01  0.51100000000E-03 0. -1.
        -11    1    3    3    0    0 -0.36030478577E+02 -0.12102489431E+02 -0.10717711945E+02  0.39490948159E+02  0.51100000000E-03 0.  1.
         12    1    3    3    0    0  0.24535680521E+02  0.14857971401E+02 -0.46797408995E+01  0.29063016149E+02  0.00000000000E+00 0. -1.
</event>
<event>
 7    1  0.1465498E-013  0.7246158E+02  0.7816164E-02  0.1226708E+00
        -11   -1    0    0    0    0  0.00000000000E+00  0.00000000000E+00  0.45593999997E+02  0.45594000000E+02  0.51100000000E-03 0. -1.
         11   -1    0    0    0    0 -0.00000000000E+00 -0.00000000000E+00 -0.45593999997E+02  0.45594000000E+02  0.51100000000E-03 0.  1.
    9900012    2    1    2    0    0 -0.14027626372E+02 -0.11179878310E+02 -0.53772386241E+01  0.72461583475E+02  0.70000017170E+02 0.  0.
         12    1    1    2    0    0  0.14027626372E+02  0.11179878310E+02  0.53772386241E+01  0.18726416525E+02  0.00000000000E+00 0. -1.
         11    1    3    3    0    0  0.23741542498E+01 -0.21802410838E+02  0.71715393899E+01  0.23074069954E+02  0.51100000000E-03 0. -1.
        -11    1    3    3    0    0 -0.18818608812E+01  0.47605781788E+00 -0.26665874216E+02  0.26736433558E+02  0.51100000000E-03 0.  1.
         12    1    3    3    0    0 -0.14519919740E+02  0.10146474710E+02  0.14117096202E+02  0.22651079963E+02  0.00000000000E+00 0. -1.
</event>
<event>
 7    1  0.1465498E-013  0.7246139E+02  0.7816164E-02  0.1226708E+00
        -11   -1    0    0    0    0  0.00000000000E+00  0.00000000000E+00  0.45593999997E+02  0.45594000000E+02  0.51100000000E-03 0.  1.
         11   -1    0    0    0    0 -0.00000000000E+00 -0.00000000000E+00 -0.45593999997E+02  0.45594000000E+02  0.51100000000E-03 0. -1.
    9900012    2    1    2    0    0 -0.87599306591E+01  0.16465792826E+02  0.16814352520E+01  0.72461389441E+02  0.69999764404E+02 0.  0.
         12    1    1    2    0    0  0.87599306591E+01 -0.16465792826E+02 -0.16814352520E+01  0.18726610559E+02  0.00000000000E+00 0. -1.
         11    1    3    3    0    0 -0.47857457221E+01  0.26422278327E+01 -0.42862296013E+01  0.69466894628E+01  0.51100000000E-03 0. -1.
        -11    1    3    3    0    0  0.33282806545E+00  0.32270934103E+02 -0.16402073186E+02  0.36201546479E+02  0.51100000000E-03 0.  1.
         12    1    3    3    0    0 -0.43070130025E+01 -0.18447369110E+02  0.22369738039E+02  0.29313153499E+02  0.00000000000E+00 0. -1.
</event>
<event>
 7    1  0.1465498E-013  0.7246156E+02  0.7816164E-02  0.1226708E+00
        -11   -1    0    0    0    0  0.00000000000E+00  0.00000000000E+00  0.45593999997E+02  0.45594000000E+02  0.51100000000E-03 0.  1.
         11   -1    0    0    0    0 -0.00000000000E+00 -0.00000000000E+00 -0.45593999997E+02  0.45594000000E+02  0.51100000000E-03 0. -1.
    9900012    2    1    2    0    0 -0.15405786900E+02 -0.82112492267E+01  0.67761733937E+01  0.72461563880E+02  0.69999991645E+02 0.  0.
         12    1    1    2    0    0  0.15405786900E+02  0.82112492267E+01 -0.67761733937E+01  0.18726436120E+02  0.00000000000E+00 0. -1.
         11    1    3    3    0    0 -0.34275170938E+01 -0.69981348362E+01  0.15148658004E+01  0.79382985122E+01  0.51100000000E-03 0.  1.
        -11    1    3    3    0    0 -0.14579607599E+02  0.17237432577E+02  0.27454670685E+02  0.35545083799E+02  0.51100000000E-03 0. -1.
         12    1    3    3    0    0  0.26013377928E+01 -0.18450546968E+02 -0.22193363092E+02  0.28978181569E+02  0.00000000000E+00 0. -1.
</event>
<event>
 7    1  0.1465498E-013  0.7246155E+02  0.7816164E-02  0.1226708E+00
        -11   -1    0    0    0    0  0.00000000000E+00  0.00000000000E+00  0.45593999997E+02  0.45594000000E+02  0.51100000000E-03 0. -1.
         11   -1    0    0    0    0 -0.00000000000E+00 -0.00000000000E+00 -0.45593999997E+02  0.45594000000E+02  0.51100000000E-03 0.  1.
    9900012    2    1    2    0    0  0.46486561686E+01 -0.11713154266E+02 -0.13851780497E+02  0.72461553194E+02  0.69999977724E+02 0.  0.
         12    1    1    2    0    0 -0.46486561686E+01  0.11713154266E+02  0.13851780497E+02  0.18726446806E+02  0.00000000000E+00 0. -1.
         11    1    3    3    0    0 -0.11063570231E+02  0.18338553424E+01 -0.16742401697E+02  0.20151268608E+02  0.51100000000E-03 0.  1.
        -11    1    3    3    0    0 -0.17074319833E+02 -0.95821414530E+00  0.49431078994E+00  0.17108328835E+02  0.51100000000E-03 0. -1.
        -12    1    3    3    0    0  0.32786546233E+02 -0.12588795463E+02  0.23963104101E+01  0.35201955751E+02  0.00000000000E+00 0.  1.
</event>
<event>
 7    1  0.1465498E-013  0.7246155E+02  0.7816164E-02  0.1226708E+00
        -11   -1    0    0    0    0  0.00000000000E+00  0.00000000000E+00  0.45593999997E+02  0.45594000000E+02  0.51100000000E-03 0. -1.
         11   -1    0    0    0    0 -0.00000000000E+00 -0.00000000000E+00 -0.45593999997E+02  0.45594000000E+02  0.51100000000E-03 0.  1.
    9900012    2    1    2    0    0  0.33635026732E+01 -0.17097228500E+02 -0.68594117057E+01  0.72461550748E+02  0.69999974538E+02 0.  0.
         12    1    1    2    0    0 -0.33635026732E+01  0.17097228500E+02  0.68594117057E+01  0.18726449252E+02  0.00000000000E+00 0. -1.
         11    1    3    3    0    0 -0.27659512063E+01 -0.40526118201E+02  0.91479415271E+01  0.41637742218E+02  0.51100000000E-03 0. -1.
        -11    1    3    3    0    0 -0.25922250815E+01  0.99043191309E+01 -0.57989383179E+01  0.11766174153E+02  0.51100000000E-03 0.  1.
        -12    1    3    3    0    0  0.87216789609E+01  0.13524570570E+02 -0.10208414915E+02  0.19057634378E+02  0.00000000000E+00 0.  1.
</event>
<event>
 7    1  0.1712879E-013  0.7246138E+02  0.7816164E-02  0.1226709E+00
        -11   -1    0    0    0    0  0.00000000000E+00  0.00000000000E+00  0.45593999997E+02  0.45594000000E+02  0.51100000000E-03 0.  1.
         11   -1    0    0    0    0 -0.00000000000E+00 -0.00000000000E+00 -0.45593999997E+02  0.45594000000E+02  0.51100000000E-03 0. -1.
    9900012    2    1    2    0    0  0.16929915265E+02  0.80781644996E+00  0.79631467274E+01  0.72461379800E+02  0.69999751846E+02 0.  0.
         12    1    1    2    0    0 -0.16929915265E+02 -0.80781644996E+00 -0.79631467274E+01  0.18726620200E+02  0.00000000000E+00 0. -1.
         11    1    3    3    0    0  0.26355636108E+02  0.12529186542E+02 -0.40394195290E+01  0.29460430758E+02  0.51100000000E-03 0. -1.
        -11    1    3    3    0    0 -0.40010218321E+01  0.10281716352E+02  0.16547042941E+02  0.19887847978E+02  0.51100000000E-03 0.  1.
        -12    1    3    3    0    0 -0.54246990112E+01 -0.22003086445E+02 -0.45444766843E+01  0.23113101064E+02  0.00000000000E+00 0.  1.
</event>
<event>
 7    1  0.1465498E-013  0.7246159E+02  0.7816164E-02  0.1226708E+00
        -11   -1    0    0    0    0  0.00000000000E+00  0.00000000000E+00  0.45593999997E+02  0.45594000000E+02  0.51100000000E-03 0. -1.
         11   -1    0    0    0    0 -0.00000000000E+00 -0.00000000000E+00 -0.45593999997E+02  0.45594000000E+02  0.51100000000E-03 0.  1.
    9900012    2    1    2    0    0 -0.14887062915E+02 -0.20691084255E+01  0.11170172434E+02  0.72461585391E+02  0.70000019666E+02 0.  0.
         12    1    1    2    0    0  0.14887062915E+02  0.20691084255E+01 -0.11170172434E+02  0.18726414609E+02  0.00000000000E+00 0. -1.
         11    1    3    3    0    0 -0.97732091680E+01  0.10537817281E+02  0.31665344210E+01  0.14716934158E+02  0.51100000000E-03 0. -1.
        -11    1    3    3    0    0  0.10265932831E+02  0.19230260227E+02  0.21299793309E+01  0.21902718952E+02  0.51100000000E-03 0.  1.
        -12    1    3    3    0    0 -0.15379786578E+02 -0.31837185934E+02  0.58736586818E+01  0.35841932281E+02  0.00000000000E+00 0.  1.
</event>
<event>
 7    1  0.1465498E-013  0.7246162E+02  0.7816164E-02  0.1226708E+00
        -11   -1    0    0    0    0  0.00000000000E+00  0.00000000000E+00  0.45593999997E+02  0.45594000000E+02  0.51100000000E-03 0. -1.
         11   -1    0    0    0    0 -0.00000000000E+00 -0.00000000000E+00 -0.45593999997E+02  0.45594000000E+02  0.51100000000E-03 0.  1.
    9900012    2    1    2    0    0 -0.32894993144E+01  0.60433907899E+01 -0.17416488550E+02  0.72461616169E+02  0.70000059760E+02 0.  0.
         12    1    1    2    0    0  0.32894993144E+01 -0.60433907899E+01  0.17416488550E+02  0.18726383831E+02  0.00000000000E+00 0. -1.
         11    1    3    3    0    0 -0.28740930749E+02 -0.36460674497E+01  0.87515549637E+01  0.30264246608E+02  0.51100000000E-03 0. -1.
        -11    1    3    3    0    0  0.37394676660E+01  0.44929785583E+01 -0.17151339271E+02  0.18120124552E+02  0.51100000000E-03 0.  1.
        -12    1    3    3    0    0  0.21711963769E+02  0.51964796814E+01 -0.90167042430E+01  0.24077245008E+02  0.00000000000E+00 0.  1.
</event>
<event>
 7    1  0.1465498E-013  0.7246159E+02  0.7816164E-02  0.1226708E+00
        -11   -1    0    0    0    0  0.00000000000E+00  0.00000000000E+00  0.45593999997E+02  0.45594000000E+02  0.51100000000E-03 0.  1.
         11   -1    0    0    0    0 -0.00000000000E+00 -0.00000000000E+00 -0.45593999997E+02  0.45594000000E+02  0.51100000000E-03 0. -1.
    9900012    2    1    2    0    0  0.54875006783E+01  0.15151509199E+02  0.95392645931E+01  0.72461589140E+02  0.70000024551E+02 0.  0.
         12    1    1    2    0    0 -0.54875006783E+01 -0.15151509199E+02 -0.95392645931E+01  0.18726410860E+02  0.00000000000E+00 0. -1.
         11    1    3    3    0    0  0.18104214739E+02  0.19156414038E+02  0.78149118258E+01  0.27491883115E+02  0.51100000000E-03 0. -1.
        -11    1    3    3    0    0 -0.43811777285E+01 -0.23822161655E+01  0.22245811763E+02  0.22797934411E+02  0.51100000000E-03 0.  1.
         12    1    3    3    0    0 -0.82355363323E+01 -0.16226886732E+01 -0.20521458996E+02  0.22171771615E+02  0.00000000000E+00 0. -1.
</event>
<event>
 7    1  0.1465498E-013  0.7246154E+02  0.7816164E-02  0.1226708E+00
        -11   -1    0    0    0    0  0.00000000000E+00  0.00000000000E+00  0.45593999997E+02  0.45594000000E+02  0.51100000000E-03 0. -1.
         11   -1    0    0    0    0 -0.00000000000E+00 -0.00000000000E+00 -0.45593999997E+02  0.45594000000E+02  0.51100000000E-03 0.  1.
    9900012    2    1    2    0    0 -0.37455287516E+01  0.18152404782E+02 -0.26723649699E+01  0.72461539588E+02  0.69999960000E+02 0.  0.
         12    1    1    2    0    0  0.37455287516E+01 -0.18152404782E+02  0.26723649699E+01  0.18726460412E+02  0.00000000000E+00 0. -1.
         11    1    3    3    0    0  0.10879297938E+01  0.18295457287E+02  0.28090023613E+02  0.33540375302E+02  0.51100000000E-03 0. -1.
        -11    1    3    3    0    0  0.53591583932E+00  0.59211661120E+01  0.10992304435E+01  0.60461327923E+01  0.51100000000E-03 0.  1.
        -12    1    3    3    0    0 -0.53693743847E+01 -0.60642186164E+01 -0.31861619027E+02  0.32875031494E+02  0.00000000000E+00 0.  1.
</event>
<event>
 7    1  0.1465498E-013  0.7246156E+02  0.7816164E-02  0.1226708E+00
        -11   -1    0    0    0    0  0.00000000000E+00  0.00000000000E+00  0.45593999997E+02  0.45594000000E+02  0.51100000000E-03 0.  1.
         11   -1    0    0    0    0 -0.00000000000E+00 -0.00000000000E+00 -0.45593999997E+02  0.45594000000E+02  0.51100000000E-03 0. -1.
    9900012    2    1    2    0    0 -0.15374272671E+02 -0.56685422325E+01 -0.90652575224E+01  0.72461560799E+02  0.69999987630E+02 0.  0.
         12    1    1    2    0    0  0.15374272671E+02  0.56685422325E+01  0.90652575224E+01  0.18726439201E+02  0.00000000000E+00 0. -1.
         11    1    3    3    0    0 -0.16663244612E+02 -0.11644106586E+02 -0.86226082655E+01  0.22081628399E+02  0.51100000000E-03 0. -1.
        -11    1    3    3    0    0 -0.65222039766E+01 -0.21136035978E+02  0.85140938556E+00  0.22135854621E+02  0.51100000000E-03 0.  1.
         12    1    3    3    0    0  0.78111759176E+01  0.27111600332E+02 -0.12940586425E+01  0.28244077779E+02  0.00000000000E+00 0. -1.
</event>
<event>
 7    1  0.1465498E-013  0.7246156E+02  0.7816164E-02  0.1226708E+00
        -11   -1    0    0    0    0  0.00000000000E+00  0.00000000000E+00  0.45593999997E+02  0.45594000000E+02  0.51100000000E-03 0.  1.
         11   -1    0    0    0    0 -0.00000000000E+00 -0.00000000000E+00 -0.45593999997E+02  0.45594000000E+02  0.51100000000E-03 0. -1.
    9900012    2    1    2    0    0 -0.36200634334E+01  0.18363566327E+02 -0.59517777361E+00  0.72461557089E+02  0.69999982798E+02 0.  0.
         12    1    1    2    0    0  0.36200634334E+01 -0.18363566327E+02  0.59517777361E+00  0.18726442911E+02  0.00000000000E+00 0. -1.
         11    1    3    3    0    0 -0.15526201124E+02 -0.12145003095E+02 -0.78125223578E+01  0.21203762104E+02  0.51100000000E-03 0. -1.
        -11    1    3    3    0    0 -0.29359035921E+01  0.29942093698E+02 -0.67893581379E+01  0.30842241960E+02  0.51100000000E-03 0.  1.
        -12    1    3    3    0    0  0.14842041282E+02  0.56647572349E+00  0.14006702722E+02  0.20415553025E+02  0.00000000000E+00 0.  1.
</event>
<event>
 7    1  0.1465498E-013  0.7246159E+02  0.7816164E-02  0.1226708E+00
        -11   -1    0    0    0    0  0.00000000000E+00  0.00000000000E+00  0.45593999997E+02  0.45594000000E+02  0.51100000000E-03 0. -1.
         11   -1    0    0    0    0 -0.00000000000E+00 -0.00000000000E+00 -0.45593999997E+02  0.45594000000E+02  0.51100000000E-03 0.  1.
    9900012    2    1    2    0    0  0.17609940395E+01 -0.14584398000E+02 -0.11613465201E+02  0.72461592470E+02  0.70000028888E+02 0.  0.
         12    1    1    2    0    0 -0.17609940395E+01  0.14584398000E+02  0.11613465201E+02  0.18726407530E+02  0.00000000000E+00 0. -1.
         11    1    3    3    0    0  0.11910899416E+02  0.13768010077E+02 -0.22186986290E+02  0.28699999778E+02  0.51100000000E-03 0. -1.
        -11    1    3    3    0    0 -0.18984124129E+01 -0.74019799943E+01 -0.10456668660E+02  0.12951262381E+02  0.51100000000E-03 0.  1.
        -12    1    3    3    0    0 -0.82514929636E+01 -0.20950428082E+02  0.21030189749E+02  0.30810330311E+02  0.00000000000E+00 0.  1.
</event>
<event>
 7    1  0.1465498E-013  0.7246193E+02  0.7816164E-02  0.1226707E+00
        -11   -1    0    0    0    0  0.00000000000E+00  0.00000000000E+00  0.45593999997E+02  0.45594000000E+02  0.51100000000E-03 0.  1.
         11   -1    0    0    0    0 -0.00000000000E+00 -0.00000000000E+00 -0.45593999997E+02  0.45594000000E+02  0.51100000000E-03 0. -1.
    9900012    2    1    2    0    0 -0.12515874479E+01  0.75947752516E+01  0.17070989752E+02  0.72461927978E+02  0.70000465948E+02 0.  0.
         12    1    1    2    0    0  0.12515874479E+01 -0.75947752516E+01 -0.17070989752E+02  0.18726072022E+02  0.00000000000E+00 0. -1.
         11    1    3    3    0    0 -0.13967882075E+02  0.19306352033E+02  0.17177984044E+02  0.29375501606E+02  0.51100000000E-03 0. -1.
        -11    1    3    3    0    0  0.15952596021E+01 -0.14433297967E+02  0.17090371070E+02  0.22426451502E+02  0.51100000000E-03 0.  1.
        -12    1    3    3    0    0  0.11121035025E+02  0.27217211849E+01 -0.17197365363E+02  0.20659974871E+02  0.00000000000E+00 0.  1.
</event>
<event>
 7    1  0.1465498E-013  0.7246124E+02  0.7816164E-02  0.1226709E+00
        -11   -1    0    0    0    0  0.00000000000E+00  0.00000000000E+00  0.45593999997E+02  0.45594000000E+02  0.51100000000E-03 0. -1.
         11   -1    0    0    0    0 -0.00000000000E+00 -0.00000000000E+00 -0.45593999997E+02  0.45594000000E+02  0.51100000000E-03 0.  1.
    9900012    2    1    2    0    0  0.16368178100E+02 -0.26681155356E+01 -0.86980074411E+01  0.72461242986E+02  0.69999573618E+02 0.  0.
         12    1    1    2    0    0 -0.16368178100E+02  0.26681155356E+01  0.86980074411E+01  0.18726757014E+02  0.00000000000E+00 0. -1.
         11    1    3    3    0    0  0.28113567157E+01  0.36330343387E+01 -0.48223893415E+01  0.66601880087E+01  0.51100000000E-03 0. -1.
        -11    1    3    3    0    0  0.25614715577E+02 -0.18652426823E+02 -0.23660023555E+02  0.39545206983E+02  0.51100000000E-03 0.  1.
         12    1    3    3    0    0 -0.12057894193E+02  0.12351276948E+02  0.19784405456E+02  0.26255847993E+02  0.00000000000E+00 0. -1.
</event>
<event>
 7    1  0.1465498E-013  0.7246157E+02  0.7816164E-02  0.1226708E+00
        -11   -1    0    0    0    0  0.00000000000E+00  0.00000000000E+00  0.45593999997E+02  0.45594000000E+02  0.51100000000E-03 0. -1.
         11   -1    0    0    0    0 -0.00000000000E+00 -0.00000000000E+00 -0.45593999997E+02  0.45594000000E+02  0.51100000000E-03 0.  1.
    9900012    2    1    2    0    0 -0.41326707499E+01  0.63946728394E+01 -0.17108718279E+02  0.72461573501E+02  0.70000004178E+02 0.  0.
         12    1    1    2    0    0  0.41326707499E+01 -0.63946728394E+01  0.17108718279E+02  0.18726426499E+02  0.00000000000E+00 0. -1.
         11    1    3    3    0    0 -0.12176323488E+02 -0.43834979577E+01 -0.14653684388E+02  0.19550150241E+02  0.51100000000E-03 0. -1.
        -11    1    3    3    0    0 -0.14814118746E+02 -0.85147357151E+01  0.10779529266E+02  0.20202898059E+02  0.51100000000E-03 0.  1.
         12    1    3    3    0    0  0.22857771484E+02  0.19292906512E+02 -0.13234563157E+02  0.32708525202E+02  0.00000000000E+00 0. -1.
</event>
<event>
 7    1  0.1465498E-013  0.7246166E+02  0.7816164E-02  0.1226708E+00
        -11   -1    0    0    0    0  0.00000000000E+00  0.00000000000E+00  0.45593999997E+02  0.45594000000E+02  0.51100000000E-03 0.  1.
         11   -1    0    0    0    0 -0.00000000000E+00 -0.00000000000E+00 -0.45593999997E+02  0.45594000000E+02  0.51100000000E-03 0. -1.
    9900012    2    1    2    0    0  0.10461579642E+02  0.15338312351E+02  0.24428022187E+01  0.72461661408E+02  0.70000118693E+02 0.  0.
         12    1    1    2    0    0 -0.10461579642E+02 -0.15338312351E+02 -0.24428022187E+01  0.18726338592E+02  0.00000000000E+00 0. -1.
         11    1    3    3    0    0 -0.26286476627E+01 -0.10308337826E+02 -0.12916346537E+02  0.16733308860E+02  0.51100000000E-03 0. -1.
        -11    1    3    3    0    0  0.38321496006E+01 -0.13031146271E+02  0.61247403952E+01  0.14899952646E+02  0.51100000000E-03 0.  1.
        -12    1    3    3    0    0  0.92580777045E+01  0.38677796447E+02  0.92344083606E+01  0.40828399902E+02  0.00000000000E+00 0.  1.
</event>
<event>
 7    1  0.1465498E-013  0.7246165E+02  0.7816164E-02  0.1226708E+00
        -11   -1    0    0    0    0  0.00000000000E+00  0.00000000000E+00  0.45593999997E+02  0.45594000000E+02  0.51100000000E-03 0. -1.
         11   -1    0    0    0    0 -0.00000000000E+00 -0.00000000000E+00 -0.45593999997E+02  0.45594000000E+02  0.51100000000E-03 0.  1.
    9900012    2    1    2    0    0 -0.16236582125E+02 -0.92092833545E+01  0.14962676246E+01  0.72461646489E+02  0.70000099258E+02 0.  0.
         12    1    1    2    0    0  0.16236582125E+02  0.92092833545E+01 -0.14962676246E+01  0.18726353511E+02  0.00000000000E+00 0. -1.
         11    1    3    3    0    0 -0.34510253304E+02 -0.17621025718E+02  0.63670431592E+01  0.39268274336E+02  0.51100000000E-03 0. -1.
        -11    1    3    3    0    0 -0.13663188361E+01  0.51135217598E+01 -0.11124561738E+02  0.12319529459E+02  0.51100000000E-03 0.  1.
        -12    1    3    3    0    0  0.19639990015E+02  0.32982206036E+01  0.62537862039E+01  0.20873842694E+02  0.00000000000E+00 0.  1.
</event>
<event>
 7    1  0.1465498E-013  0.7246149E+02  0.7816164E-02  0.1226708E+00
        -11   -1    0    0    0    0  0.00000000000E+00  0.00000000000E+00  0.45593999997E+02  0.45594000000E+02  0.51100000000E-03 0. -1.
         11   -1    0    0    0    0 -0.00000000000E+00 -0.00000000000E+00 -0.45593999997E+02  0.45594000000E+02  0.51100000000E-03 0.  1.
    9900012    2    1    2    0    0 -0.55844775617E-01  0.18665093843E+02  0.15144362633E+01  0.72461485001E+02  0.69999888889E+02 0.  0.
         12    1    1    2    0    0  0.55844775617E-01 -0.18665093843E+02 -0.15144362633E+01  0.18726514999E+02  0.00000000000E+00 0. -1.
         11    1    3    3    0    0  0.41931801259E+01  0.35551541637E+01  0.82906398414E+01  0.99476926942E+01  0.51100000000E-03 0. -1.
        -11    1    3    3    0    0  0.24008377402E+02 -0.56804888562E+01  0.56257040065E+01  0.25304519062E+02  0.51100000000E-03 0.  1.
        -12    1    3    3    0    0 -0.28257402304E+02  0.20790428536E+02 -0.12401907585E+02  0.37209273245E+02  0.00000000000E+00 0.  1.
</event>
<event>
 7    1  0.1465498E-013  0.7246156E+02  0.7816164E-02  0.1226708E+00
        -11   -1    0    0    0    0  0.00000000000E+00  0.00000000000E+00  0.45593999997E+02  0.45594000000E+02  0.51100000000E-03 0.  1.
         11   -1    0    0    0    0 -0.00000000000E+00 -0.00000000000E+00 -0.45593999997E+02  0.45594000000E+02  0.51100000000E-03 0. -1.
    9900012    2    1    2    0    0  0.13357244582E+02  0.11206563729E+02  0.68320183344E+01  0.72461560724E+02  0.69999987532E+02 0.  0.
         12    1    1    2    0    0 -0.13357244582E+02 -0.11206563729E+02 -0.68320183344E+01  0.18726439276E+02  0.00000000000E+00 0. -1.
         11    1    3    3    0    0  0.62742912813E+01 -0.33326909232E+01  0.56253606881E+01  0.90619116639E+01  0.51100000000E-03 0. -1.
        -11    1    3    3    0    0  0.25368262847E+02 -0.11739105992E+02 -0.96857275157E+01  0.29583250111E+02  0.51100000000E-03 0.  1.
         12    1    3    3    0    0 -0.18285309546E+02  0.26278360644E+02  0.10892385162E+02  0.33816398949E+02  0.00000000000E+00 0. -1.
</event>
<event>
 7    1  0.1465498E-013  0.7246159E+02  0.7816164E-02  0.1226708E+00
        -11   -1    0    0    0    0  0.00000000000E+00  0.00000000000E+00  0.45593999997E+02  0.45594000000E+02  0.51100000000E-03 0.  1.
         11   -1    0    0    0    0 -0.00000000000E+00 -0.00000000000E+00 -0.45593999997E+02  0.45594000000E+02  0.51100000000E-03 0. -1.
    9900012    2    1    2    0    0  0.17041833675E+02  0.36924735633E+01 -0.68278937720E+01  0.72461585784E+02  0.70000020179E+02 0.  0.
         12    1    1    2    0    0 -0.17041833675E+02 -0.36924735633E+01  0.68278937720E+01  0.18726414216E+02  0.00000000000E+00 0. -1.
         11    1    3    3    0    0  0.40518084329E+02  0.10015019808E+01 -0.16217902384E+02  0.43654765168E+02  0.51100000000E-03 0. -1.
        -11    1    3    3    0    0 -0.69754220067E-02 -0.28337106004E+01 -0.24038217428E+00  0.28438966708E+01  0.51100000000E-03 0.  1.
        -12    1    3    3    0    0 -0.23469275232E+02  0.55246821828E+01  0.96303907857E+01  0.25962923946E+02  0.00000000000E+00 0.  1.
</event>
<event>
 7    1  0.1465498E-013  0.7246156E+02  0.7816164E-02  0.1226708E+00
        -11   -1    0    0    0    0  0.00000000000E+00  0.00000000000E+00  0.45593999997E+02  0.45594000000E+02  0.51100000000E-03 0.  1.
         11   -1    0    0    0    0 -0.00000000000E+00 -0.00000000000E+00 -0.45593999997E+02  0.45594000000E+02  0.51100000000E-03 0. -1.
    9900012    2    1    2    0    0  0.34271293353E+01  0.18410001189E+02  0.79527824320E-01  0.72461556560E+02  0.69999982108E+02 0.  0.
         12    1    1    2    0    0 -0.34271293353E+01 -0.18410001189E+02 -0.79527824320E-01  0.18726443440E+02  0.00000000000E+00 0. -1.
         11    1    3    3    0    0  0.70545812087E+00  0.38287378847E+01  0.13764454353E+02  0.14304443675E+02  0.51100000000E-03 0.  1.
        -11    1    3    3    0    0  0.25008750894E+02  0.20369079362E+02 -0.19505258343E+01  0.32313179457E+02  0.51100000000E-03 0. -1.
         12    1    3    3    0    0 -0.22287079679E+02 -0.57878160580E+01 -0.11734400694E+02  0.25843933428E+02  0.00000000000E+00 0. -1.
</event>
<event>
 7    1  0.1465498E-013  0.7246154E+02  0.7816164E-02  0.1226708E+00
        -11   -1    0    0    0    0  0.00000000000E+00  0.00000000000E+00  0.45593999997E+02  0.45594000000E+02  0.51100000000E-03 0. -1.
         11   -1    0    0    0    0 -0.00000000000E+00 -0.00000000000E+00 -0.45593999997E+02  0.45594000000E+02  0.51100000000E-03 0.  1.
    9900012    2    1    2    0    0  0.10720156534E+02  0.10041095351E+02 -0.11616156530E+02  0.72461536253E+02  0.69999955655E+02 0.  0.
         12    1    1    2    0    0 -0.10720156534E+02 -0.10041095351E+02  0.11616156530E+02  0.18726463747E+02  0.00000000000E+00 0. -1.
         11    1    3    3    0    0 -0.65475047024E+01  0.28539797894E+01  0.10892419002E+02  0.13025352603E+02  0.51100000000E-03 0. -1.
        -11    1    3    3    0    0  0.14424482159E+02  0.27997528646E+02 -0.45899206625E+01  0.31827577159E+02  0.51100000000E-03 0.  1.
        -12    1    3    3    0    0  0.28431790770E+01 -0.20810413085E+02 -0.17918654869E+02  0.27608606491E+02  0.00000000000E+00 0.  1.
</event>
<event>
 7    1  0.1465498E-013  0.7246160E+02  0.7816164E-02  0.1226708E+00
        -11   -1    0    0    0    0  0.00000000000E+00  0.00000000000E+00  0.45593999997E+02  0.45594000000E+02  0.51100000000E-03 0. -1.
         11   -1    0    0    0    0 -0.00000000000E+00 -0.00000000000E+00 -0.45593999997E+02  0.45594000000E+02  0.51100000000E-03 0.  1.
    9900012    2    1    2    0    0 -0.38286922169E+01  0.13848112536E+02 -0.12010369466E+02  0.72461599395E+02  0.70000037909E+02 0.  0.
         12    1    1    2    0    0  0.38286922169E+01 -0.13848112536E+02  0.12010369466E+02  0.18726400605E+02  0.00000000000E+00 0. -1.
         11    1    3    3    0    0  0.12337758339E+02  0.52856964442E+01 -0.70654805698E+01  0.15168384346E+02  0.51100000000E-03 0. -1.
        -11    1    3    3    0    0  0.39808154600E+01 -0.95529906790E+01 -0.22667111690E+02  0.24917954878E+02  0.51100000000E-03 0.  1.
         12    1    3    3    0    0 -0.20147266016E+02  0.18115406771E+02  0.17722222794E+02  0.32375260171E+02  0.00000000000E+00 0. -1.
</event>
<event>
 7    1  0.1465498E-013  0.7246157E+02  0.7816164E-02  0.1226708E+00
        -11   -1    0    0    0    0  0.00000000000E+00  0.00000000000E+00  0.45593999997E+02  0.45594000000E+02  0.51100000000E-03 0. -1.
         11   -1    0    0    0    0 -0.00000000000E+00 -0.00000000000E+00 -0.45593999997E+02  0.45594000000E+02  0.51100000000E-03 0.  1.
    9900012    2    1    2    0    0 -0.12766439922E+02  0.96355447214E+01 -0.97392768739E+01  0.72461568829E+02  0.69999998092E+02 0.  0.
         12    1    1    2    0    0  0.12766439922E+02 -0.96355447214E+01  0.97392768739E+01  0.18726431171E+02  0.00000000000E+00 0. -1.
         11    1    3    3    0    0 -0.83257536427E+01  0.57981666728E+01  0.20220667581E+01  0.10345320909E+02  0.51100000000E-03 0. -1.
        -11    1    3    3    0    0 -0.22871667418E+02 -0.17958006417E+02 -0.16109470870E+02  0.33243318380E+02  0.51100000000E-03 0.  1.
         12    1    3    3    0    0  0.18430981139E+02  0.21795384466E+02  0.43481272380E+01  0.28872929540E+02  0.00000000000E+00 0. -1.
</event>
<event>
 7    1  0.1465498E-013  0.7246156E+02  0.7816164E-02  0.1226708E+00
        -11   -1    0    0    0    0  0.00000000000E+00  0.00000000000E+00  0.45593999997E+02  0.45594000000E+02  0.51100000000E-03 0.  1.
         11   -1    0    0    0    0 -0.00000000000E+00 -0.00000000000E+00 -0.45593999997E+02  0.45594000000E+02  0.51100000000E-03 0. -1.
    9900012    2    1    2    0    0  0.13053234666E+02  0.82059528938E+00  0.13402205265E+02  0.72461563664E+02  0.69999991363E+02 0.  0.
         12    1    1    2    0    0 -0.13053234666E+02 -0.82059528938E+00 -0.13402205265E+02  0.18726436336E+02  0.00000000000E+00 0. -1.
         11    1    3    3    0    0  0.10725167529E+01  0.26612995487E+01  0.66917225816E+01  0.72809311797E+01  0.51100000000E-03 0. -1.
        -11    1    3    3    0    0 -0.38625894269E+01  0.16510694948E+02  0.28119697001E+02  0.32836565053E+02  0.51100000000E-03 0.  1.
         12    1    3    3    0    0  0.15843307340E+02 -0.18351399207E+02 -0.21409214318E+02  0.32344067432E+02  0.00000000000E+00 0. -1.
</event>
<event>
 7    1  0.1465498E-013  0.7246158E+02  0.7816164E-02  0.1226708E+00
        -11   -1    0    0    0    0  0.00000000000E+00  0.00000000000E+00  0.45593999997E+02  0.45594000000E+02  0.51100000000E-03 0.  1.
         11   -1    0    0    0    0 -0.00000000000E+00 -0.00000000000E+00 -0.45593999997E+02  0.45594000000E+02  0.51100000000E-03 0. -1.
    9900012    2    1    2    0    0 -0.12997158489E+02 -0.10848999611E+02  0.80032429883E+01  0.72461579635E+02  0.70000012169E+02 0.  0.
         12    1    1    2    0    0  0.12997158489E+02  0.10848999611E+02 -0.80032429883E+01  0.18726420365E+02  0.00000000000E+00 0. -1.
         11    1    3    3    0    0  0.17052579727E+02  0.11009986791E+02 -0.10936811942E+02  0.23056975956E+02  0.51100000000E-03 0. -1.
        -11    1    3    3    0    0 -0.37502290740E+00  0.75760702941E+00 -0.50018248750E+01  0.50727569362E+01  0.51100000000E-03 0.  1.
        -12    1    3    3    0    0 -0.29674715309E+02 -0.22616593431E+02  0.23941879805E+02  0.44331846744E+02  0.00000000000E+00 0.  1.
</event>
<event>
 7    1  0.1465498E-013  0.7246157E+02  0.7816164E-02  0.1226708E+00
        -11   -1    0    0    0    0  0.00000000000E+00  0.00000000000E+00  0.45593999997E+02  0.45594000000E+02  0.51100000000E-03 0.  1.
         11   -1    0    0    0    0 -0.00000000000E+00 -0.00000000000E+00 -0.45593999997E+02  0.45594000000E+02  0.51100000000E-03 0. -1.
    9900012    2    1    2    0    0 -0.56227478691E+01  0.47818783073E+01  0.17210386931E+02  0.72461572896E+02  0.70000003389E+02 0.  0.
         12    1    1    2    0    0  0.56227478691E+01 -0.47818783073E+01 -0.17210386931E+02  0.18726427104E+02  0.00000000000E+00 0. -1.
         11    1    3    3    0    0  0.15492008118E+01  0.25419822485E-01 -0.10014123813E+02  0.10133279101E+02  0.51100000000E-03 0. -1.
        -11    1    3    3    0    0 -0.13992490082E+02  0.17031809091E+02 -0.87456423184E+01  0.23714100435E+02  0.51100000000E-03 0.  1.
         12    1    3    3    0    0  0.68205414014E+01 -0.12275350606E+02  0.35970153063E+02  0.38614193361E+02  0.00000000000E+00 0. -1.
</event>
<event>
 7    1  0.1465498E-013  0.7246156E+02  0.7816164E-02  0.1226708E+00
        -11   -1    0    0    0    0  0.00000000000E+00  0.00000000000E+00  0.45593999997E+02  0.45594000000E+02  0.51100000000E-03 0.  1.
         11   -1    0    0    0    0 -0.00000000000E+00 -0.00000000000E+00 -0.45593999997E+02  0.45594000000E+02  0.51100000000E-03 0. -1.
    9900012    2    1    2    0    0  0.12091898979E+02  0.79683736581E+01  0.11873108536E+02  0.72461555971E+02  0.69999981341E+02 0.  0.
         12    1    1    2    0    0 -0.12091898979E+02 -0.79683736581E+01 -0.11873108536E+02  0.18726444029E+02  0.00000000000E+00 0. -1.
         11    1    3    3    0    0 -0.99458240413E+01  0.19855026882E+02 -0.33145156145E+01  0.22452784290E+02  0.51100000000E-03 0. -1.
        -11    1    3    3    0    0  0.70571244413E+00 -0.15160338348E+01  0.24477924928E+02  0.24534979064E+02  0.51100000000E-03 0.  1.
         12    1    3    3    0    0  0.21332010576E+02 -0.10370619389E+02 -0.92903007776E+01  0.25473792617E+02  0.00000000000E+00 0. -1.
</event>
<event>
 7    1  0.1465498E-013  0.7246168E+02  0.7816164E-02  0.1226708E+00
        -11   -1    0    0    0    0  0.00000000000E+00  0.00000000000E+00  0.45593999997E+02  0.45594000000E+02  0.51100000000E-03 0.  1.
         11   -1    0    0    0    0 -0.00000000000E+00 -0.00000000000E+00 -0.45593999997E+02  0.45594000000E+02  0.51100000000E-03 0. -1.
    9900012    2    1    2    0    0 -0.13355264146E+02  0.11132233624E+02 -0.69559504845E+01  0.72461682877E+02  0.70000146659E+02 0.  0.
         12    1    1    2    0    0  0.13355264146E+02 -0.11132233624E+02  0.69559504845E+01  0.18726317123E+02  0.00000000000E+00 0. -1.
         11    1    3    3    0    0 -0.12219454475E+02 -0.13593642252E+02 -0.88637030172E+01  0.20314216913E+02  0.51100000000E-03 0.  1.
        -11    1    3    3    0    0 -0.30759430872E+01 -0.73445732733E+01 -0.14144320669E+02  0.16231635466E+02  0.51100000000E-03 0. -1.
        -12    1    3    3    0    0  0.19401334160E+01  0.32070449149E+02  0.16052073202E+02  0.35915830498E+02  0.00000000000E+00 0.  1.
</event>
<event>
 7    1  0.1465498E-013  0.7246155E+02  0.7816164E-02  0.1226708E+00
        -11   -1    0    0    0    0  0.00000000000E+00  0.00000000000E+00  0.45593999997E+02  0.45594000000E+02  0.51100000000E-03 0. -1.
         11   -1    0    0    0    0 -0.00000000000E+00 -0.00000000000E+00 -0.45593999997E+02  0.45594000000E+02  0.51100000000E-03 0.  1.
    9900012    2    1    2    0    0 -0.12988247387E+02  0.11317713306E+02 -0.73413129158E+01  0.72461545985E+02  0.69999968332E+02 0.  0.
         12    1    1    2    0    0  0.12988247387E+02 -0.11317713306E+02  0.73413129158E+01  0.18726454015E+02  0.00000000000E+00 0. -1.
         11    1    3    3    0    0 -0.11352969326E+01 -0.16176540259E+02 -0.64810041297E+01  0.17463469549E+02  0.51100000000E-03 0. -1.
        -11    1    3    3    0    0  0.44724152403E+01 -0.54599029133E+01  0.13726420509E+02  0.15434625300E+02  0.51100000000E-03 0.  1.
        -12    1    3    3    0    0 -0.16325365695E+02  0.32954156479E+02 -0.14586729295E+02  0.39563451136E+02  0.00000000000E+00 0.  1.
</event>
<event>
 7    1  0.1465498E-013  0.7246156E+02  0.7816164E-02  0.1226708E+00
        -11   -1    0    0    0    0  0.00000000000E+00  0.00000000000E+00  0.45593999997E+02  0.45594000000E+02  0.51100000000E-03 0.  1.
         11   -1    0    0    0    0 -0.00000000000E+00 -0.00000000000E+00 -0.45593999997E+02  0.45594000000E+02  0.51100000000E-03 0. -1.
    9900012    2    1    2    0    0 -0.50073665320E+01 -0.15511318658E+02  0.92198075559E+01  0.72461559402E+02  0.69999985811E+02 0.  0.
         12    1    1    2    0    0  0.50073665320E+01  0.15511318658E+02 -0.92198075559E+01  0.18726440598E+02  0.00000000000E+00 0. -1.
         11    1    3    3    0    0 -0.24712942026E+01  0.49081943654E+01  0.71903964794E+01  0.90498325264E+01  0.51100000000E-03 0. -1.
        -11    1    3    3    0    0 -0.26114383407E+02  0.42732675519E+01  0.10108868730E+02  0.28326861167E+02  0.51100000000E-03 0.  1.
         12    1    3    3    0    0  0.23578311078E+02 -0.24692780575E+02 -0.80794576540E+01  0.35084865709E+02  0.00000000000E+00 0. -1.
</event>
<event>
 7    1  0.1465498E-013  0.7246154E+02  0.7816164E-02  0.1226708E+00
        -11   -1    0    0    0    0  0.00000000000E+00  0.00000000000E+00  0.45593999997E+02  0.45594000000E+02  0.51100000000E-03 0.  1.
         11   -1    0    0    0    0 -0.00000000000E+00 -0.00000000000E+00 -0.45593999997E+02  0.45594000000E+02  0.51100000000E-03 0. -1.
    9900012    2    1    2    0    0 -0.40907972554E+01 -0.13386243133E+02  0.12440019882E+02  0.72461542191E+02  0.69999963391E+02 0.  0.
         12    1    1    2    0    0  0.40907972554E+01  0.13386243133E+02 -0.12440019882E+02  0.18726457809E+02  0.00000000000E+00 0. -1.
         11    1    3    3    0    0 -0.73291490815E+00  0.19708309971E+02 -0.17634514230E+02  0.26456204160E+02  0.51100000000E-03 0. -1.
        -11    1    3    3    0    0  0.32357540093E+01 -0.18413291548E+02  0.17022100760E+02  0.25283815459E+02  0.51100000000E-03 0.  1.
        -12    1    3    3    0    0 -0.65936363566E+01 -0.14681261556E+02  0.13052433352E+02  0.20721522572E+02  0.00000000000E+00 0.  1.
</event>
<event>
 7    1  0.1465498E-013  0.7246146E+02  0.7816164E-02  0.1226708E+00
        -11   -1    0    0    0    0  0.00000000000E+00  0.00000000000E+00  0.45593999997E+02  0.45594000000E+02  0.51100000000E-03 0.  1.
         11   -1    0    0    0    0 -0.00000000000E+00 -0.00000000000E+00 -0.45593999997E+02  0.45594000000E+02  0.51100000000E-03 0. -1.
    9900012    2    1    2    0    0  0.74916113468E+01 -0.13190937835E+02 -0.10979892876E+02  0.72461464573E+02  0.69999862278E+02 0.  0.
         12    1    1    2    0    0 -0.74916113468E+01  0.13190937835E+02  0.10979892876E+02  0.18726535427E+02  0.00000000000E+00 0. -1.
         11    1    3    3    0    0 -0.20469513416E+02 -0.64654228929E+01 -0.16348783244E+02  0.26983057397E+02  0.51100000000E-03 0. -1.
        -11    1    3    3    0    0 -0.41918707179E+01 -0.91365872624E+01  0.83904910061E+01  0.13093866751E+02  0.51100000000E-03 0.  1.
        -12    1    3    3    0    0  0.32152995480E+02  0.24110723201E+01 -0.30216006375E+01  0.32384540424E+02  0.00000000000E+00 0.  1.
</event>
<event>
 7    1  0.1465498E-013  0.7246158E+02  0.7816164E-02  0.1226708E+00
        -11   -1    0    0    0    0  0.00000000000E+00  0.00000000000E+00  0.45593999997E+02  0.45594000000E+02  0.51100000000E-03 0.  1.
         11   -1    0    0    0    0 -0.00000000000E+00 -0.00000000000E+00 -0.45593999997E+02  0.45594000000E+02  0.51100000000E-03 0. -1.
    9900012    2    1    2    0    0  0.66114269696E+01 -0.93748457275E+01 -0.14801356569E+02  0.72461578685E+02  0.70000010930E+02 0.  0.
         12    1    1    2    0    0 -0.66114269696E+01  0.93748457275E+01  0.14801356569E+02  0.18726421315E+02  0.00000000000E+00 0. -1.
         11    1    3    3    0    0  0.77533185282E+01 -0.98243332939E+01  0.52332538195E+01  0.13565338870E+02  0.51100000000E-03 0. -1.
        -11    1    3    3    0    0  0.23287416052E+01  0.21258627811E+02  0.88357767244E+01  0.23139214430E+02  0.51100000000E-03 0.  1.
         12    1    3    3    0    0 -0.34706331639E+01 -0.20809140244E+02 -0.28870387113E+02  0.35757025384E+02  0.00000000000E+00 0. -1.
</event>
<event>
 7    1  0.1465498E-013  0.7246161E+02  0.7816164E-02  0.1226708E+00
        -11   -1    0    0    0    0  0.00000000000E+00  0.00000000000E+00  0.45593999997E+02  0.45594000000E+02  0.51100000000E-03 0.  1.
         11   -1    0    0    0    0 -0.00000000000E+00 -0.00000000000E+00 -0.45593999997E+02  0.45594000000E+02  0.51100000000E-03 0. -1.
    9900012    2    1    2    0    0 -0.10422080155E+02 -0.50260665911E+01  0.14724017996E+02  0.72461606698E+02  0.70000047423E+02 0.  0.
         12    1    1    2    0    0  0.10422080155E+02  0.50260665911E+01 -0.14724017996E+02  0.18726393302E+02  0.00000000000E+00 0. -1.
         11    1    3    3    0    0  0.62401247610E+01  0.74392422073E+00 -0.21987776127E+01  0.66578677915E+01  0.51100000000E-03 0. -1.
        -11    1    3    3    0    0  0.16550444026E+02 -0.61363267272E+01  0.25949909233E+02  0.31384223626E+02  0.51100000000E-03 0.  1.
         12    1    3    3    0    0 -0.33212648942E+02  0.36633591541E+00 -0.90271136244E+01  0.34419515281E+02  0.00000000000E+00 0. -1.
</event>
<event>
 7    1  0.1465498E-013  0.7246181E+02  0.7816164E-02  0.1226707E+00
        -11   -1    0    0    0    0  0.00000000000E+00  0.00000000000E+00  0.45593999997E+02  0.45594000000E+02  0.51100000000E-03 0. -1.
         11   -1    0    0    0    0 -0.00000000000E+00 -0.00000000000E+00 -0.45593999997E+02  0.45594000000E+02  0.51100000000E-03 0.  1.
    9900012    2    1    2    0    0 -0.10691662800E+02  0.53835924327E+01 -0.14400534650E+02  0.72461811944E+02  0.70000314793E+02 0.  0.
         12    1    1    2    0    0  0.10691662800E+02 -0.53835924327E+01  0.14400534650E+02  0.18726188056E+02  0.00000000000E+00 0. -1.
         11    1    3    3    0    0  0.16410337187E+02 -0.12460479108E+02  0.46766874617E+01  0.21128987483E+02  0.51100000000E-03 0. -1.
        -11    1    3    3    0    0  0.68139818878E+01  0.24234194740E+01  0.32164543612E+01  0.79151051814E+01  0.51100000000E-03 0.  1.
        -12    1    3    3    0    0 -0.33915981875E+02  0.15420652067E+02 -0.22293676473E+02  0.43417719279E+02  0.00000000000E+00 0.  1.
</event>
<event>
 7    1  0.1465498E-013  0.7246162E+02  0.7816164E-02  0.1226708E+00
        -11   -1    0    0    0    0  0.00000000000E+00  0.00000000000E+00  0.45593999997E+02  0.45594000000E+02  0.51100000000E-03 0.  1.
         11   -1    0    0    0    0 -0.00000000000E+00 -0.00000000000E+00 -0.45593999997E+02  0.45594000000E+02  0.51100000000E-03 0. -1.
    9900012    2    1    2    0    0  0.91781613239E+01 -0.94931214316E+01  0.13278525967E+02  0.72461621502E+02  0.70000066707E+02 0.  0.
         12    1    1    2    0    0 -0.91781613239E+01  0.94931214316E+01 -0.13278525967E+02  0.18726378498E+02  0.00000000000E+00 0. -1.
         11    1    3    3    0    0 -0.74941176956E+01 -0.15926434638E+02 -0.23108157301E+00  0.17603025856E+02  0.51100000000E-03 0.  1.
        -11    1    3    3    0    0  0.34207708722E+02  0.21710679181E+01  0.13426556960E+02  0.36812406930E+02  0.51100000000E-03 0. -1.
         12    1    3    3    0    0 -0.17535429703E+02  0.42622452887E+01  0.83050580489E-01  0.18046188716E+02  0.00000000000E+00 0. -1.
</event>
<event>
 7    1  0.1465498E-013  0.7246156E+02  0.7816164E-02  0.1226708E+00
        -11   -1    0    0    0    0  0.00000000000E+00  0.00000000000E+00  0.45593999997E+02  0.45594000000E+02  0.51100000000E-03 0. -1.
         11   -1    0    0    0    0 -0.00000000000E+00 -0.00000000000E+00 -0.45593999997E+02  0.45594000000E+02  0.51100000000E-03 0.  1.
    9900012    2    1    2    0    0  0.49267950085E+01  0.15369732381E+02 -0.94961918494E+01  0.72461557675E+02  0.69999983561E+02 0.  0.
         12    1    1    2    0    0 -0.49267950085E+01 -0.15369732381E+02  0.94961918494E+01  0.18726442325E+02  0.00000000000E+00 0. -1.
         11    1    3    3    0    0  0.11719345187E+00  0.64482333165E+01 -0.71225279346E+01  0.96085301503E+01  0.51100000000E-03 0.  1.
        -11    1    3    3    0    0  0.19341205757E+02  0.91131249135E+00  0.24525568082E+02  0.31247659442E+02  0.51100000000E-03 0. -1.
         12    1    3    3    0    0 -0.14531604201E+02  0.80101865730E+01 -0.26899231997E+02  0.31605368082E+02  0.00000000000E+00 0. -1.
</event>
<event>
 7    1  0.1465498E-013  0.7246159E+02  0.7816164E-02  0.1226708E+00
        -11   -1    0    0    0    0  0.00000000000E+00  0.00000000000E+00  0.45593999997E+02  0.45594000000E+02  0.51100000000E-03 0. -1.
         11   -1    0    0    0    0 -0.00000000000E+00 -0.00000000000E+00 -0.45593999997E+02  0.45594000000E+02  0.51100000000E-03 0.  1.
    9900012    2    1    2    0    0 -0.12222382238E+02  0.14035882426E+02 -0.20702618289E+01  0.72461585311E+02  0.70000019563E+02 0.  0.
         12    1    1    2    0    0  0.12222382238E+02 -0.14035882426E+02  0.20702618289E+01  0.18726414689E+02  0.00000000000E+00 0. -1.
         11    1    3    3    0    0 -0.87216474592E+00 -0.13038326963E+02  0.32567633999E+01  0.13467187882E+02  0.51100000000E-03 0. -1.
        -11    1    3    3    0    0 -0.15727985053E+02 -0.11513819006E+02 -0.51403365799E+01  0.20158387891E+02  0.51100000000E-03 0.  1.
        -12    1    3    3    0    0  0.43777675613E+01  0.38588028395E+02 -0.18668864895E+00  0.38836009539E+02  0.00000000000E+00 0.  1.
</event>
<event>
 7    1  0.1465498E-013  0.7246158E+02  0.7816164E-02  0.1226708E+00
        -11   -1    0    0    0    0  0.00000000000E+00  0.00000000000E+00  0.45593999997E+02  0.45594000000E+02  0.51100000000E-03 0. -1.
         11   -1    0    0    0    0 -0.00000000000E+00 -0.00000000000E+00 -0.45593999997E+02  0.45594000000E+02  0.51100000000E-03 0.  1.
    9900012    2    1    2    0    0 -0.30722756249E+01  0.85536954600E+01 -0.16372968462E+02  0.72461583370E+02  0.70000017033E+02 0.  0.
         12    1    1    2    0    0  0.30722756249E+01 -0.85536954600E+01  0.16372968462E+02  0.18726416630E+02  0.00000000000E+00 0. -1.
         11    1    3    3    0    0  0.62941592051E+01  0.17607102061E+02 -0.18386577510E+02  0.26223895894E+02  0.51100000000E-03 0. -1.
        -11    1    3    3    0    0 -0.13947135622E+02 -0.13514994323E+02 -0.17228146864E+02  0.25961253980E+02  0.51100000000E-03 0.  1.
         12    1    3    3    0    0  0.45807007919E+01  0.44615877218E+01  0.19241755911E+02  0.20276433496E+02  0.00000000000E+00 0. -1.
</event>
<event>
 7    1  0.1465498E-013  0.7246155E+02  0.7816164E-02  0.1226708E+00
        -11   -1    0    0    0    0  0.00000000000E+00  0.00000000000E+00  0.45593999997E+02  0.45594000000E+02  0.51100000000E-03 0.  1.
         11   -1    0    0    0    0 -0.00000000000E+00 -0.00000000000E+00 -0.45593999997E+02  0.45594000000E+02  0.51100000000E-03 0. -1.
    9900012    2    1    2    0    0  0.11747449778E+02  0.14207925534E+02 -0.32881664175E+01  0.72461554457E+02  0.69999979369E+02 0.  0.
         12    1    1    2    0    0 -0.11747449778E+02 -0.14207925534E+02  0.32881664175E+01  0.18726445543E+02  0.00000000000E+00 0. -1.
         11    1    3    3    0    0  0.28284757343E+01  0.19889542976E+02 -0.11637541749E+02  0.23216945816E+02  0.51100000000E-03 0. -1.
        -11    1    3    3    0    0  0.13472306822E+02 -0.66405798136E+01 -0.17452868904E+02  0.23026136988E+02  0.51100000000E-03 0.  1.
        -12    1    3    3    0    0 -0.45533327777E+01  0.95896237158E+00  0.25802244236E+02  0.26218471653E+02  0.00000000000E+00 0.  1.
</event>
<event>
 7    1  0.1465498E-013  0.7246145E+02  0.7816164E-02  0.1226708E+00
        -11   -1    0    0    0    0  0.00000000000E+00  0.00000000000E+00  0.45593999997E+02  0.45594000000E+02  0.51100000000E-03 0.  1.
         11   -1    0    0    0    0 -0.00000000000E+00 -0.00000000000E+00 -0.45593999997E+02  0.45594000000E+02  0.51100000000E-03 0. -1.
    9900012    2    1    2    0    0 -0.11499281396E+02  0.89426118409E+01  0.11767753275E+02  0.72461446759E+02  0.69999839072E+02 0.  0.
         12    1    1    2    0    0  0.11499281396E+02 -0.89426118409E+01 -0.11767753275E+02  0.18726553241E+02  0.00000000000E+00 0. -1.
         11    1    3    3    0    0 -0.17701719750E+02 -0.11929268349E+02  0.72509480513E+01  0.22544058493E+02  0.51100000000E-03 0. -1.
        -11    1    3    3    0    0  0.99221781235E+01  0.20666999007E+02  0.22160227100E+02  0.31884951498E+02  0.51100000000E-03 0.  1.
         12    1    3    3    0    0 -0.37197397694E+01  0.20488118272E+00 -0.17643421877E+02  0.18032436767E+02  0.00000000000E+00 0. -1.
</event>
<event>
 7    1  0.1465498E-013  0.7246155E+02  0.7816164E-02  0.1226708E+00
        -11   -1    0    0    0    0  0.00000000000E+00  0.00000000000E+00  0.45593999997E+02  0.45594000000E+02  0.51100000000E-03 0. -1.
         11   -1    0    0    0    0 -0.00000000000E+00 -0.00000000000E+00 -0.45593999997E+02  0.45594000000E+02  0.51100000000E-03 0.  1.
    9900012    2    1    2    0    0 -0.67257982627E+01  0.14603723108E+02  0.96007756053E+01  0.72461548571E+02  0.69999971702E+02 0.  0.
         12    1    1    2    0    0  0.67257982627E+01 -0.14603723108E+02 -0.96007756053E+01  0.18726451429E+02  0.00000000000E+00 0. -1.
         11    1    3    3    0    0  0.47324455554E+01  0.16107474373E+02 -0.73273629847E+01  0.18317669616E+02  0.51100000000E-03 0. -1.
        -11    1    3    3    0    0 -0.13235056514E+02  0.56600642897E+01 -0.15343661724E+02  0.21038797590E+02  0.51100000000E-03 0.  1.
         12    1    3    3    0    0  0.17768126959E+01 -0.71638155542E+01  0.32271800314E+02  0.33105081365E+02  0.00000000000E+00 0. -1.
</event>
<event>
 7    1  0.1465498E-013  0.7246156E+02  0.7816164E-02  0.1226708E+00
        -11   -1    0    0    0    0  0.00000000000E+00  0.00000000000E+00  0.45593999997E+02  0.45594000000E+02  0.51100000000E-03 0. -1.
         11   -1    0    0    0    0 -0.00000000000E+00 -0.00000000000E+00 -0.45593999997E+02  0.45594000000E+02  0.51100000000E-03 0.  1.
    9900012    2    1    2    0    0 -0.17639486264E+02 -0.16894608241E+01  0.60559022763E+01  0.72461555972E+02  0.69999981343E+02 0.  0.
         12    1    1    2    0    0  0.17639486264E+02  0.16894608241E+01 -0.60559022763E+01  0.18726444028E+02  0.00000000000E+00 0. -1.
         11    1    3    3    0    0  0.33128007223E+01 -0.39678333542E+01 -0.39966908148E+01  0.65339029594E+01  0.51100000000E-03 0. -1.
        -11    1    3    3    0    0 -0.32005205831E+02  0.22819860218E+02 -0.25951124287E+01  0.39393068292E+02  0.51100000000E-03 0.  1.
         12    1    3    3    0    0  0.11052918844E+02 -0.20541487688E+02  0.12647705520E+02  0.26534584721E+02  0.00000000000E+00 0. -1.
</event>
<event>
 7    1  0.1465498E-013  0.7246157E+02  0.7816164E-02  0.1226708E+00
        -11   -1    0    0    0    0  0.00000000000E+00  0.00000000000E+00  0.45593999997E+02  0.45594000000E+02  0.51100000000E-03 0.  1.
         11   -1    0    0    0    0 -0.00000000000E+00 -0.00000000000E+00 -0.45593999997E+02  0.45594000000E+02  0.51100000000E-03 0. -1.
    9900012    2    1    2    0    0  0.81241073369E+01 -0.17947786158E+01  0.16776669712E+02  0.72461574902E+02  0.70000006003E+02 0.  0.
         12    1    1    2    0    0 -0.81241073369E+01  0.17947786158E+01 -0.16776669712E+02  0.18726425098E+02  0.00000000000E+00 0. -1.
         11    1    3    3    0    0  0.17847704813E+01  0.16779117639E+02 -0.47737117773E+01  0.17536034866E+02  0.51100000000E-03 0. -1.
        -11    1    3    3    0    0 -0.34655962418E+01  0.14242153950E+02  0.38287516445E+00  0.14662738493E+02  0.51100000000E-03 0.  1.
        -12    1    3    3    0    0  0.98049330974E+01 -0.32816050205E+02  0.21167506325E+02  0.40262801544E+02  0.00000000000E+00 0.  1.
</event>
<event>
 7    1  0.1465498E-013  0.7246155E+02  0.7816164E-02  0.1226708E+00
        -11   -1    0    0    0    0  0.00000000000E+00  0.00000000000E+00  0.45593999997E+02  0.45594000000E+02  0.51100000000E-03 0.  1.
         11   -1    0    0    0    0 -0.00000000000E+00 -0.00000000000E+00 -0.45593999997E+02  0.45594000000E+02  0.51100000000E-03 0. -1.
    9900012    2    1    2    0    0 -0.58862617974E+01 -0.16751998995E+02 -0.59499753168E+01  0.72461554674E+02  0.69999979651E+02 0.  0.
         12    1    1    2    0    0  0.58862617974E+01  0.16751998995E+02  0.59499753168E+01  0.18726445326E+02  0.00000000000E+00 0. -1.
         11    1    3    3    0    0 -0.96331881610E+01 -0.41207575203E+01 -0.18933247810E+02  0.21639011751E+02  0.51100000000E-03 0. -1.
        -11    1    3    3    0    0 -0.27146288165E+01  0.73512749155E+01 -0.14351508416E+02  0.16351643544E+02  0.51100000000E-03 0.  1.
        -12    1    3    3    0    0  0.64615551801E+01 -0.19982516390E+02  0.27334780909E+02  0.34470899379E+02  0.00000000000E+00 0.  1.
</event>
<event>
 7    1  0.1465498E-013  0.7246158E+02  0.7816164E-02  0.1226708E+00
        -11   -1    0    0    0    0  0.00000000000E+00  0.00000000000E+00  0.45593999997E+02  0.45594000000E+02  0.51100000000E-03 0.  1.
         11   -1    0    0    0    0 -0.00000000000E+00 -0.00000000000E+00 -0.45593999997E+02  0.45594000000E+02  0.51100000000E-03 0. -1.
    9900012    2    1    2    0    0 -0.48551956834E+01 -0.16518190901E+02  0.73658123228E+01  0.72461581577E+02  0.70000014698E+02 0.  0.
         12    1    1    2    0    0  0.48551956834E+01  0.16518190901E+02 -0.73658123228E+01  0.18726418423E+02  0.00000000000E+00 0. -1.
         11    1    3    3    0    0 -0.68618589822E+01 -0.22910317462E+01 -0.26580958855E+02  0.27547800440E+02  0.51100000000E-03 0. -1.
        -11    1    3    3    0    0  0.72449326710E+01  0.31475619926E+01  0.19613931894E+01  0.81389962163E+01  0.51100000000E-03 0.  1.
        -12    1    3    3    0    0 -0.52382693722E+01 -0.17374721147E+02  0.31985377988E+02  0.36774784921E+02  0.00000000000E+00 0.  1.
</event>
<event>
 7    1  0.1465498E-013  0.7246156E+02  0.7816164E-02  0.1226708E+00
        -11   -1    0    0    0    0  0.00000000000E+00  0.00000000000E+00  0.45593999997E+02  0.45594000000E+02  0.51100000000E-03 0.  1.
         11   -1    0    0    0    0 -0.00000000000E+00 -0.00000000000E+00 -0.45593999997E+02  0.45594000000E+02  0.51100000000E-03 0. -1.
    9900012    2    1    2    0    0 -0.68099852167E+01  0.11423172953E+02  0.13183886562E+02  0.72461557630E+02  0.69999983502E+02 0.  0.
         12    1    1    2    0    0  0.68099852167E+01 -0.11423172953E+02 -0.13183886562E+02  0.18726442370E+02  0.00000000000E+00 0. -1.
         11    1    3    3    0    0  0.20454274938E+01  0.19789977195E+01 -0.25411828126E+01  0.38154706072E+01  0.51100000000E-03 0. -1.
        -11    1    3    3    0    0  0.23387819248E+02 -0.18315992444E+01  0.23935730235E+02  0.33515131315E+02  0.51100000000E-03 0.  1.
         12    1    3    3    0    0 -0.32243231958E+02  0.11275774477E+02 -0.82106608598E+01  0.35130955708E+02  0.00000000000E+00 0. -1.
</event>
<event>
 7    1  0.1465498E-013  0.7246156E+02  0.7816164E-02  0.1226708E+00
        -11   -1    0    0    0    0  0.00000000000E+00  0.00000000000E+00  0.45593999997E+02  0.45594000000E+02  0.51100000000E-03 0.  1.
         11   -1    0    0    0    0 -0.00000000000E+00 -0.00000000000E+00 -0.45593999997E+02  0.45594000000E+02  0.51100000000E-03 0. -1.
    9900012    2    1    2    0    0 -0.21571235408E+01 -0.59682161870E+01  0.17618363569E+02  0.72461560903E+02  0.69999987766E+02 0.  0.
         12    1    1    2    0    0  0.21571235408E+01  0.59682161870E+01 -0.17618363569E+02  0.18726439097E+02  0.00000000000E+00 0. -1.
         11    1    3    3    0    0  0.15319732877E+02 -0.36544408707E+00  0.44654762759E+01  0.15961461193E+02  0.51100000000E-03 0. -1.
        -11    1    3    3    0    0 -0.98096423603E-01 -0.10966154561E+02  0.29855972387E+02  0.31806371315E+02  0.51100000000E-03 0.  1.
         12    1    3    3    0    0 -0.17378759994E+02  0.53633824606E+01 -0.16703085095E+02  0.24693728395E+02  0.00000000000E+00 0. -1.
</event>
<event>
 7    1  0.1465498E-013  0.7246165E+02  0.7816164E-02  0.1226708E+00
        -11   -1    0    0    0    0  0.00000000000E+00  0.00000000000E+00  0.45593999997E+02  0.45594000000E+02  0.51100000000E-03 0. -1.
         11   -1    0    0    0    0 -0.00000000000E+00 -0.00000000000E+00 -0.45593999997E+02  0.45594000000E+02  0.51100000000E-03 0.  1.
    9900012    2    1    2    0    0 -0.18362843165E+02  0.36665996576E+01 -0.19596108727E+00  0.72461645232E+02  0.70000097620E+02 0.  0.
         12    1    1    2    0    0  0.18362843165E+02 -0.36665996576E+01  0.19596108727E+00  0.18726354768E+02  0.00000000000E+00 0. -1.
         11    1    3    3    0    0 -0.12424281538E+02  0.27672263975E+02 -0.14420477432E+02  0.33586710689E+02  0.51100000000E-03 0. -1.
        -11    1    3    3    0    0 -0.18673277694E+01 -0.10919362586E+02 -0.73650588326E+01  0.13302762276E+02  0.51100000000E-03 0.  1.
        -12    1    3    3    0    0 -0.40712338575E+01 -0.13086301731E+02  0.21589575177E+02  0.25572172267E+02  0.00000000000E+00 0.  1.
</event>
<event>
 7    1  0.1465498E-013  0.7246153E+02  0.7816164E-02  0.1226708E+00
        -11   -1    0    0    0    0  0.00000000000E+00  0.00000000000E+00  0.45593999997E+02  0.45594000000E+02  0.51100000000E-03 0. -1.
         11   -1    0    0    0    0 -0.00000000000E+00 -0.00000000000E+00 -0.45593999997E+02  0.45594000000E+02  0.51100000000E-03 0.  1.
    9900012    2    1    2    0    0  0.14202428705E+02  0.94757751016E+01 -0.76929396088E+01  0.72461531707E+02  0.69999949733E+02 0.  0.
         12    1    1    2    0    0 -0.14202428705E+02 -0.94757751016E+01  0.76929396088E+01  0.18726468293E+02  0.00000000000E+00 0. -1.
         11    1    3    3    0    0  0.56835175780E+01 -0.95324206277E+01 -0.17288628173E+02  0.20544246870E+02  0.51100000000E-03 0. -1.
        -11    1    3    3    0    0  0.87174923060E+01 -0.14819158596E+02  0.34392120897E+01  0.17533690817E+02  0.51100000000E-03 0.  1.
        -12    1    3    3    0    0 -0.19858117883E+00  0.33827354326E+02  0.61564764748E+01  0.34383594020E+02  0.00000000000E+00 0.  1.
</event>
<event>
 7    1  0.1465498E-013  0.7246154E+02  0.7816164E-02  0.1226708E+00
        -11   -1    0    0    0    0  0.00000000000E+00  0.00000000000E+00  0.45593999997E+02  0.45594000000E+02  0.51100000000E-03 0. -1.
         11   -1    0    0    0    0 -0.00000000000E+00 -0.00000000000E+00 -0.45593999997E+02  0.45594000000E+02  0.51100000000E-03 0.  1.
    9900012    2    1    2    0    0  0.15664409963E+02 -0.75978287292E+01 -0.68977930119E+01  0.72461540395E+02  0.69999961051E+02 0.  0.
         12    1    1    2    0    0 -0.15664409963E+02  0.75978287292E+01  0.68977930119E+01  0.18726459605E+02  0.00000000000E+00 0. -1.
         11    1    3    3    0    0  0.98643902682E+01 -0.35699403104E-01 -0.58487895761E+01  0.11468034251E+02  0.51100000000E-03 0. -1.
        -11    1    3    3    0    0  0.34553909357E+01 -0.30236561369E+01 -0.30631236292E+02  0.30973454118E+02  0.51100000000E-03 0.  1.
         12    1    3    3    0    0  0.23446287595E+01 -0.45384731892E+01  0.29582232856E+02  0.30020052026E+02  0.00000000000E+00 0. -1.
</event>
<event>
 7    1  0.1465498E-013  0.7246161E+02  0.7816164E-02  0.1226708E+00
        -11   -1    0    0    0    0  0.00000000000E+00  0.00000000000E+00  0.45593999997E+02  0.45594000000E+02  0.51100000000E-03 0. -1.
         11   -1    0    0    0    0 -0.00000000000E+00 -0.00000000000E+00 -0.45593999997E+02  0.45594000000E+02  0.51100000000E-03 0.  1.
    9900012    2    1    2    0    0 -0.12809120371E+02 -0.86057220031E+01 -0.10608755258E+02  0.72461609424E+02  0.70000050974E+02 0.  0.
         12    1    1    2    0    0  0.12809120371E+02  0.86057220031E+01  0.10608755258E+02  0.18726390576E+02  0.00000000000E+00 0. -1.
         11    1    3    3    0    0 -0.15055548007E+01  0.14775639968E+02 -0.18180138912E+02  0.23475597603E+02  0.51100000000E-03 0. -1.
        -11    1    3    3    0    0 -0.13776699076E+02 -0.49240777701E+01 -0.14164559039E+02  0.20363661565E+02  0.51100000000E-03 0.  1.
         12    1    3    3    0    0  0.24731335054E+01 -0.18457284201E+02  0.21735942693E+02  0.28622350256E+02  0.00000000000E+00 0. -1.
</event>
<event>
 7    1  0.1465498E-013  0.7246159E+02  0.7816164E-02  0.1226708E+00
        -11   -1    0    0    0    0  0.00000000000E+00  0.00000000000E+00  0.45593999997E+02  0.45594000000E+02  0.51100000000E-03 0.  1.
         11   -1    0    0    0    0 -0.00000000000E+00 -0.00000000000E+00 -0.45593999997E+02  0.45594000000E+02  0.51100000000E-03 0. -1.
    9900012    2    1    2    0    0 -0.90015772306E+01  0.34002499027E+01  0.16065122304E+02  0.72461594934E+02  0.70000032098E+02 0.  0.
         12    1    1    2    0    0  0.90015772306E+01 -0.34002499027E+01 -0.16065122304E+02  0.18726405066E+02  0.00000000000E+00 0. -1.
         11    1    3    3    0    0 -0.19467892891E+02  0.50655143851E+01 -0.14586057815E+02  0.24847763933E+02  0.51100000000E-03 0. -1.
        -11    1    3    3    0    0 -0.37411151933E+01  0.13711700201E+02  0.64329494733E+01  0.15600945627E+02  0.51100000000E-03 0.  1.
        -12    1    3    3    0    0  0.14207430854E+02 -0.15376964683E+02  0.24218230646E+02  0.32012885374E+02  0.00000000000E+00 0.  1.
</event>
<event>
 7    1  0.1465498E-013  0.7246156E+02  0.7816164E-02  0.1226708E+00
        -11   -1    0    0    0    0  0.00000000000E+00  0.00000000000E+00  0.45593999997E+02  0.45594000000E+02  0.51100000000E-03 0.  1.
         11   -1    0    0    0    0 -0.00000000000E+00 -0.00000000000E+00 -0.45593999997E+02  0.45594000000E+02  0.51100000000E-03 0. -1.
    9900012    2    1    2    0    0  0.80270816151E+01 -0.86463661479E+01  0.14542557921E+02  0.72461556726E+02  0.69999982325E+02 0.  0.
         12    1    1    2    0    0 -0.80270816151E+01  0.86463661479E+01 -0.14542557921E+02  0.18726443274E+02  0.00000000000E+00 0. -1.
         11    1    3    3    0    0  0.20217749624E+02 -0.14729730842E+02 -0.62520596181E+01  0.25783921740E+02  0.51100000000E-03 0. -1.
        -11    1    3    3    0    0  0.77129288275E+01  0.89358792141E+01 -0.59489991259E+01  0.13218539983E+02  0.51100000000E-03 0.  1.
        -12    1    3    3    0    0 -0.19903596837E+02 -0.28525145203E+01  0.26743616665E+02  0.33459095003E+02  0.00000000000E+00 0.  1.
</event>
<event>
 7    1  0.1465498E-013  0.7246153E+02  0.7816164E-02  0.1226708E+00
        -11   -1    0    0    0    0  0.00000000000E+00  0.00000000000E+00  0.45593999997E+02  0.45594000000E+02  0.51100000000E-03 0.  1.
         11   -1    0    0    0    0 -0.00000000000E+00 -0.00000000000E+00 -0.45593999997E+02  0.45594000000E+02  0.51100000000E-03 0. -1.
    9900012    2    1    2    0    0  0.15819341371E+02  0.97597452319E+01 -0.22751762847E+01  0.72461531686E+02  0.69999949705E+02 0.  0.
         12    1    1    2    0    0 -0.15819341371E+02 -0.97597452319E+01  0.22751762847E+01  0.18726468314E+02  0.00000000000E+00 0. -1.
         11    1    3    3    0    0 -0.34067321611E+01  0.22726739103E+02 -0.19768229538E+02  0.30313254421E+02  0.51100000000E-03 0. -1.
        -11    1    3    3    0    0 -0.78972307533E+01 -0.40914475141E+00  0.67175395883E+01  0.10375885089E+02  0.51100000000E-03 0.  1.
        -12    1    3    3    0    0  0.27123304285E+02 -0.12557849119E+02  0.10775513665E+02  0.31772392176E+02  0.00000000000E+00 0.  1.
</event>
<event>
 7    1  0.1465498E-013  0.7246157E+02  0.7816164E-02  0.1226708E+00
        -11   -1    0    0    0    0  0.00000000000E+00  0.00000000000E+00  0.45593999997E+02  0.45594000000E+02  0.51100000000E-03 0.  1.
         11   -1    0    0    0    0 -0.00000000000E+00 -0.00000000000E+00 -0.45593999997E+02  0.45594000000E+02  0.51100000000E-03 0. -1.
    9900012    2    1    2    0    0  0.94245545814E+01 -0.16162483721E+02  0.79451684227E+00  0.72461565045E+02  0.69999993162E+02 0.  0.
         12    1    1    2    0    0 -0.94245545814E+01  0.16162483721E+02 -0.79451684227E+00  0.18726434955E+02  0.00000000000E+00 0. -1.
         11    1    3    3    0    0  0.66833244699E+01 -0.24382512455E+02  0.23366781324E+02  0.34426446365E+02  0.51100000000E-03 0. -1.
        -11    1    3    3    0    0  0.38893002632E+01  0.92262757647E+01  0.44591681122E+01  0.10960611367E+02  0.51100000000E-03 0.  1.
        -12    1    3    3    0    0 -0.11480701517E+01 -0.10062470306E+01 -0.27031432594E+02  0.27074507313E+02  0.00000000000E+00 0.  1.
</event>
<event>
 7    1  0.1465498E-013  0.7246156E+02  0.7816164E-02  0.1226708E+00
        -11   -1    0    0    0    0  0.00000000000E+00  0.00000000000E+00  0.45593999997E+02  0.45594000000E+02  0.51100000000E-03 0.  1.
         11   -1    0    0    0    0 -0.00000000000E+00 -0.00000000000E+00 -0.45593999997E+02  0.45594000000E+02  0.51100000000E-03 0. -1.
    9900012    2    1    2    0    0 -0.15867911619E+02  0.63207889993E+01 -0.76770226343E+01  0.72461556952E+02  0.69999982619E+02 0.  0.
         12    1    1    2    0    0  0.15867911619E+02 -0.63207889993E+01  0.76770226343E+01  0.18726443048E+02  0.00000000000E+00 0. -1.
         11    1    3    3    0    0 -0.13406293392E+02  0.26493574769E+01 -0.51589345358E+01  0.14606929977E+02  0.51100000000E-03 0. -1.
        -11    1    3    3    0    0 -0.78722243002E+01 -0.12498235211E+02  0.22898071763E+02  0.27248843821E+02  0.51100000000E-03 0.  1.
         12    1    3    3    0    0  0.54106060737E+01  0.16169666733E+02 -0.25416159862E+02  0.30605783154E+02  0.00000000000E+00 0. -1.
</event>
<event>
 7    1  0.1465498E-013  0.7246169E+02  0.7816164E-02  0.1226708E+00
        -11   -1    0    0    0    0  0.00000000000E+00  0.00000000000E+00  0.45593999997E+02  0.45594000000E+02  0.51100000000E-03 0.  1.
         11   -1    0    0    0    0 -0.00000000000E+00 -0.00000000000E+00 -0.45593999997E+02  0.45594000000E+02  0.51100000000E-03 0. -1.
    9900012    2    1    2    0    0  0.76561171327E+01  0.11605716518E+02  0.12544559082E+02  0.72461688350E+02  0.70000153790E+02 0.  0.
         12    1    1    2    0    0 -0.76561171327E+01 -0.11605716518E+02 -0.12544559082E+02  0.18726311650E+02  0.00000000000E+00 0. -1.
         11    1    3    3    0    0 -0.16539541569E+02  0.24213567545E+01  0.21237942792E+02  0.27027201448E+02  0.51100000000E-03 0. -1.
        -11    1    3    3    0    0  0.12552057180E+02  0.18067286400E+02  0.78333176431E+01  0.23352555382E+02  0.51100000000E-03 0.  1.
        -12    1    3    3    0    0  0.11643601522E+02 -0.88829266364E+01 -0.16526701353E+02  0.22081931520E+02  0.00000000000E+00 0.  1.
</event>
<event>
 7    1  0.1465498E-013  0.7246145E+02  0.7816164E-02  0.1226708E+00
        -11   -1    0    0    0    0  0.00000000000E+00  0.00000000000E+00  0.45593999997E+02  0.45594000000E+02  0.51100000000E-03 0.  1.
         11   -1    0    0    0    0 -0.00000000000E+00 -0.00000000000E+00 -0.45593999997E+02  0.45594000000E+02  0.51100000000E-03 0. -1.
    9900012    2    1    2    0    0 -0.11493897669E+02 -0.61813394026E+01  0.13430010076E+02  0.72461446364E+02  0.69999838558E+02 0.  0.
         12    1    1    2    0    0  0.11493897669E+02  0.61813394026E+01 -0.13430010076E+02  0.18726553636E+02  0.00000000000E+00 0. -1.
         11    1    3    3    0    0 -0.10760513718E+02 -0.10177682397E+02 -0.16597965354E+02  0.22245591217E+02  0.51100000000E-03 0. -1.
        -11    1    3    3    0    0 -0.11552860164E+02 -0.86672049808E+01  0.30290714175E+02  0.33557657630E+02  0.51100000000E-03 0.  1.
         12    1    3    3    0    0  0.10819476214E+02  0.12663547975E+02 -0.26273874455E+00  0.16658197517E+02  0.00000000000E+00 0. -1.
</event>
<event>
 7    1  0.1465498E-013  0.7246162E+02  0.7816164E-02  0.1226708E+00
        -11   -1    0    0    0    0  0.00000000000E+00  0.00000000000E+00  0.45593999997E+02  0.45594000000E+02  0.51100000000E-03 0.  1.
         11   -1    0    0    0    0 -0.00000000000E+00 -0.00000000000E+00 -0.45593999997E+02  0.45594000000E+02  0.51100000000E-03 0. -1.
    9900012    2    1    2    0    0  0.66102151813E+01  0.12137321154E+02  0.12635971504E+02  0.72461620601E+02  0.70000065533E+02 0.  0.
         12    1    1    2    0    0 -0.66102151813E+01 -0.12137321154E+02 -0.12635971504E+02  0.18726379399E+02  0.00000000000E+00 0. -1.
         11    1    3    3    0    0 -0.20383704763E+02  0.90709164582E+01  0.12807526194E+02  0.25725661755E+02  0.51100000000E-03 0. -1.
        -11    1    3    3    0    0  0.93492773100E+01 -0.98883825733E+01  0.14884874132E+02  0.20168008685E+02  0.51100000000E-03 0.  1.
        -12    1    3    3    0    0  0.17644642634E+02  0.12954787269E+02 -0.15056428821E+02  0.26567950161E+02  0.00000000000E+00 0.  1.
</event>
<event>
 7    1  0.1465498E-013  0.7246164E+02  0.7816164E-02  0.1226708E+00
        -11   -1    0    0    0    0  0.00000000000E+00  0.00000000000E+00  0.45593999997E+02  0.45594000000E+02  0.51100000000E-03 0.  1.
         11   -1    0    0    0    0 -0.00000000000E+00 -0.00000000000E+00 -0.45593999997E+02  0.45594000000E+02  0.51100000000E-03 0. -1.
    9900012    2    1    2    0    0 -0.17157742222E+02  0.70567542123E+01  0.25477121177E+01  0.72461635291E+02  0.70000084670E+02 0.  0.
         12    1    1    2    0    0  0.17157742222E+02 -0.70567542123E+01 -0.25477121177E+01  0.18726364709E+02  0.00000000000E+00 0. -1.
         11    1    3    3    0    0  0.33076969125E+01  0.12199449213E+02 -0.17243823628E+01  0.12756994739E+02  0.51100000000E-03 0. -1.
        -11    1    3    3    0    0 -0.30458804245E+02  0.17000628417E+02  0.58076313563E+01  0.35362249714E+02  0.51100000000E-03 0.  1.
         12    1    3    3    0    0  0.99933651102E+01 -0.22143323418E+02 -0.15355368758E+01  0.24342390838E+02  0.00000000000E+00 0. -1.
</event>
<event>
 7    1  0.1465498E-013  0.7246157E+02  0.7816164E-02  0.1226708E+00
        -11   -1    0    0    0    0  0.00000000000E+00  0.00000000000E+00  0.45593999997E+02  0.45594000000E+02  0.51100000000E-03 0.  1.
         11   -1    0    0    0    0 -0.00000000000E+00 -0.00000000000E+00 -0.45593999997E+02  0.45594000000E+02  0.51100000000E-03 0. -1.
    9900012    2    1    2    0    0  0.15301016490E+02 -0.42296155411E+01  0.99331938879E+01  0.72461572309E+02  0.70000002624E+02 0.  0.
         12    1    1    2    0    0 -0.15301016490E+02  0.42296155411E+01 -0.99331938879E+01  0.18726427691E+02  0.00000000000E+00 0. -1.
         11    1    3    3    0    0  0.16367955769E+02 -0.16557831985E+02 -0.20714761464E+02  0.31163650602E+02  0.51100000000E-03 0. -1.
        -11    1    3    3    0    0 -0.72767377406E+01 -0.31851283272E+01  0.20952982620E+01  0.82150002845E+01  0.51100000000E-03 0.  1.
        -12    1    3    3    0    0  0.62097984621E+01  0.15513344771E+02  0.28552657090E+02  0.33082921422E+02  0.00000000000E+00 0.  1.
</event>
<event>
 7    1  0.1465498E-013  0.7246164E+02  0.7816164E-02  0.1226708E+00
        -11   -1    0    0    0    0  0.00000000000E+00  0.00000000000E+00  0.45593999997E+02  0.45594000000E+02  0.51100000000E-03 0.  1.
         11   -1    0    0    0    0 -0.00000000000E+00 -0.00000000000E+00 -0.45593999997E+02  0.45594000000E+02  0.51100000000E-03 0. -1.
    9900012    2    1    2    0    0 -0.80872983786E+00 -0.11511467060E+02  0.14748169295E+02  0.72461643831E+02  0.70000095796E+02 0.  0.
         12    1    1    2    0    0  0.80872983786E+00  0.11511467060E+02 -0.14748169295E+02  0.18726356169E+02  0.00000000000E+00 0. -1.
         11    1    3    3    0    0 -0.94515158124E+01  0.10212665303E+02 -0.54676994805E+01  0.14950766589E+02  0.51100000000E-03 0. -1.
        -11    1    3    3    0    0 -0.31865496964E+01  0.14720944547E+02  0.91698499510E+01  0.17633673914E+02  0.51100000000E-03 0.  1.
         12    1    3    3    0    0  0.11829335671E+02 -0.36445076910E+02  0.11046018824E+02  0.39877203328E+02  0.00000000000E+00 0. -1.
</event>
<event>
 7    1  0.1465498E-013  0.7246158E+02  0.7816164E-02  0.1226708E+00
        -11   -1    0    0    0    0  0.00000000000E+00  0.00000000000E+00  0.45593999997E+02  0.45594000000E+02  0.51100000000E-03 0. -1.
         11   -1    0    0    0    0 -0.00000000000E+00 -0.00000000000E+00 -0.45593999997E+02  0.45594000000E+02  0.51100000000E-03 0.  1.
    9900012    2    1    2    0    0  0.12090736970E+01 -0.15184606953E+02 -0.10892417633E+02  0.72461577239E+02  0.70000009047E+02 0.  0.
         12    1    1    2    0    0 -0.12090736970E+01  0.15184606953E+02  0.10892417633E+02  0.18726422761E+02  0.00000000000E+00 0. -1.
         11    1    3    3    0    0 -0.15956916904E+01  0.57534102183E+01 -0.78421677068E+01  0.98563459616E+01  0.51100000000E-03 0. -1.
        -11    1    3    3    0    0 -0.19491959370E+02 -0.84016095976E+01 -0.22152794540E+02  0.30680121090E+02  0.51100000000E-03 0.  1.
         12    1    3    3    0    0  0.22296724758E+02 -0.12536407574E+02  0.19102544614E+02  0.31925110188E+02  0.00000000000E+00 0. -1.
</event>
<event>
 7    1  0.2065451E-013  0.7246156E+02  0.7816164E-02  0.1226708E+00
        -11   -1    0    0    0    0  0.00000000000E+00  0.00000000000E+00  0.45593999997E+02  0.45594000000E+02  0.51100000000E-03 0. -1.
         11   -1    0    0    0    0 -0.00000000000E+00 -0.00000000000E+00 -0.45593999997E+02  0.45594000000E+02  0.51100000000E-03 0.  1.
    9900012    2    1    2    0    0  0.69632574782E+01 -0.70170905897E+01 -0.15904497687E+02  0.72461559823E+02  0.69999986359E+02 0.  0.
         12    1    1    2    0    0 -0.69632574782E+01  0.70170905897E+01  0.15904497687E+02  0.18726440177E+02  0.00000000000E+00 0. -1.
         11    1    3    3    0    0 -0.72897617297E+01  0.17630988098E+02  0.15399044921E+02  0.24517808877E+02  0.51100000000E-03 0. -1.
        -11    1    3    3    0    0  0.56135113122E+01  0.29211647120E+01 -0.16432008428E+01  0.65379524163E+01  0.51100000000E-03 0.  1.
        -12    1    3    3    0    0  0.86395078957E+01 -0.27569243399E+02 -0.29660341765E+02  0.41405798530E+02  0.00000000000E+00 0.  1.
</event>
<event>
 7    1  0.1465498E-013  0.7246154E+02  0.7816164E-02  0.1226708E+00
        -11   -1    0    0    0    0  0.00000000000E+00  0.00000000000E+00  0.45593999997E+02  0.45594000000E+02  0.51100000000E-03 0. -1.
         11   -1    0    0    0    0 -0.00000000000E+00 -0.00000000000E+00 -0.45593999997E+02  0.45594000000E+02  0.51100000000E-03 0.  1.
    9900012    2    1    2    0    0 -0.83378092308E+01 -0.13115041575E+02 -0.10447822984E+02  0.72461537884E+02  0.69999957779E+02 0.  0.
         12    1    1    2    0    0  0.83378092308E+01  0.13115041575E+02  0.10447822984E+02  0.18726462116E+02  0.00000000000E+00 0. -1.
         11    1    3    3    0    0  0.10461472018E+02  0.11928232622E+02 -0.84879256258E+01  0.17993610309E+02  0.51100000000E-03 0. -1.
        -11    1    3    3    0    0  0.23102073178E+00  0.94116608314E+01 -0.10592223289E+02  0.14171376950E+02  0.51100000000E-03 0.  1.
         12    1    3    3    0    0 -0.19030301980E+02 -0.34454935029E+02  0.86323259309E+01  0.40296550625E+02  0.00000000000E+00 0. -1.
</event>
<event>
 7    1  0.1465498E-013  0.7246157E+02  0.7816164E-02  0.1226708E+00
        -11   -1    0    0    0    0  0.00000000000E+00  0.00000000000E+00  0.45593999997E+02  0.45594000000E+02  0.51100000000E-03 0.  1.
         11   -1    0    0    0    0 -0.00000000000E+00 -0.00000000000E+00 -0.45593999997E+02  0.45594000000E+02  0.51100000000E-03 0. -1.
    9900012    2    1    2    0    0 -0.58190675217E+01  0.17435412011E+02  0.35810718807E+01  0.72461569089E+02  0.69999998430E+02 0.  0.
         12    1    1    2    0    0  0.58190675217E+01 -0.17435412011E+02 -0.35810718807E+01  0.18726430911E+02  0.00000000000E+00 0. -1.
         11    1    3    3    0    0 -0.53290170571E+01  0.50417202168E+00  0.50447231633E+01  0.73553955895E+01  0.51100000000E-03 0. -1.
        -11    1    3    3    0    0 -0.33590308396E+01 -0.19335337413E+02  0.15459567933E+02  0.24982726072E+02  0.51100000000E-03 0.  1.
         12    1    3    3    0    0  0.28689803750E+01  0.36266577402E+02 -0.16923219216E+02  0.40123447428E+02  0.00000000000E+00 0. -1.
</event>
<event>
 7    1  0.1465498E-013  0.7246162E+02  0.7816164E-02  0.1226708E+00
        -11   -1    0    0    0    0  0.00000000000E+00  0.00000000000E+00  0.45593999997E+02  0.45594000000E+02  0.51100000000E-03 0.  1.
         11   -1    0    0    0    0 -0.00000000000E+00 -0.00000000000E+00 -0.45593999997E+02  0.45594000000E+02  0.51100000000E-03 0. -1.
    9900012    2    1    2    0    0  0.17913978228E+02 -0.18699051780E+01 -0.51254457354E+01  0.72461618735E+02  0.70000063102E+02 0.  0.
         12    1    1    2    0    0 -0.17913978228E+02  0.18699051780E+01  0.51254457354E+01  0.18726381265E+02  0.00000000000E+00 0. -1.
         11    1    3    3    0    0 -0.22244951201E+01 -0.24022468779E+00  0.22194620255E+01  0.31515231847E+01  0.51100000000E-03 0. -1.
        -11    1    3    3    0    0  0.15589121271E+02  0.31674615145E+02 -0.40983685971E+01  0.35540098087E+02  0.51100000000E-03 0.  1.
         12    1    3    3    0    0  0.45493520769E+01 -0.33304295636E+02 -0.32465391638E+01  0.33769997463E+02  0.00000000000E+00 0. -1.
</event>
<event>
 7    1  0.1465498E-013  0.7246161E+02  0.7816164E-02  0.1226708E+00
        -11   -1    0    0    0    0  0.00000000000E+00  0.00000000000E+00  0.45593999997E+02  0.45594000000E+02  0.51100000000E-03 0.  1.
         11   -1    0    0    0    0 -0.00000000000E+00 -0.00000000000E+00 -0.45593999997E+02  0.45594000000E+02  0.51100000000E-03 0. -1.
    9900012    2    1    2    0    0  0.17115844589E+02 -0.47883316432E+01 -0.58989370052E+01  0.72461609165E+02  0.70000050636E+02 0.  0.
         12    1    1    2    0    0 -0.17115844589E+02  0.47883316432E+01  0.58989370052E+01  0.18726390835E+02  0.00000000000E+00 0. -1.
         11    1    3    3    0    0  0.75445805814E+01 -0.97083447725E+01  0.37179091911E+00  0.12300848878E+02  0.51100000000E-03 0. -1.
        -11    1    3    3    0    0  0.31049499184E+02 -0.11159915243E+02 -0.29588427900E+01  0.33126573302E+02  0.51100000000E-03 0.  1.
        -12    1    3    3    0    0 -0.21478235177E+02  0.16079928372E+02 -0.33118851344E+01  0.27034186984E+02  0.00000000000E+00 0.  1.
</event>
<event>
 7    1  0.1465498E-013  0.7246157E+02  0.7816164E-02  0.1226708E+00
        -11   -1    0    0    0    0  0.00000000000E+00  0.00000000000E+00  0.45593999997E+02  0.45594000000E+02  0.51100000000E-03 0. -1.
         11   -1    0    0    0    0 -0.00000000000E+00 -0.00000000000E+00 -0.45593999997E+02  0.45594000000E+02  0.51100000000E-03 0.  1.
    9900012    2    1    2    0    0 -0.88795468743E+01  0.15442109400E+02 -0.57770178145E+01  0.72461574013E+02  0.70000004844E+02 0.  0.
         12    1    1    2    0    0  0.88795468743E+01 -0.15442109400E+02  0.57770178145E+01  0.18726425987E+02  0.00000000000E+00 0. -1.
         11    1    3    3    0    0  0.78392614781E+01  0.18378384227E+02 -0.64721094481E+01  0.21002552900E+02  0.51100000000E-03 0. -1.
        -11    1    3    3    0    0  0.13098365439E+02 -0.39412463617E+01 -0.12782903109E+02  0.18721731015E+02  0.51100000000E-03 0.  1.
         12    1    3    3    0    0 -0.29817173791E+02  0.10049715346E+01  0.13477994742E+02  0.32737290098E+02  0.00000000000E+00 0. -1.
</event>
<event>
 7    1  0.1465498E-013  0.7246173E+02  0.7816164E-02  0.1226708E+00
        -11   -1    0    0    0    0  0.00000000000E+00  0.00000000000E+00  0.45593999997E+02  0.45594000000E+02  0.51100000000E-03 0.  1.
         11   -1    0    0    0    0 -0.00000000000E+00 -0.00000000000E+00 -0.45593999997E+02  0.45594000000E+02  0.51100000000E-03 0. -1.
    9900012    2    1    2    0    0 -0.24545445582E+01  0.18370590632E+02 -0.26776616262E+01  0.72461728056E+02  0.70000205513E+02 0.  0.
         12    1    1    2    0    0  0.24545445582E+01 -0.18370590632E+02  0.26776616262E+01  0.18726271944E+02  0.00000000000E+00 0. -1.
         11    1    3    3    0    0  0.14210754122E+02  0.13272219179E+02 -0.38596469217E+01  0.19824081550E+02  0.51100000000E-03 0. -1.
        -11    1    3    3    0    0  0.79627726953E+01 -0.10187343055E+02 -0.14706659505E+02  0.19582480475E+02  0.51100000000E-03 0.  1.
         12    1    3    3    0    0 -0.24628071376E+02  0.15285714507E+02  0.15888644801E+02  0.33055166031E+02  0.00000000000E+00 0. -1.
</event>
<event>
 7    1  0.1465498E-013  0.7246159E+02  0.7816164E-02  0.1226708E+00
        -11   -1    0    0    0    0  0.00000000000E+00  0.00000000000E+00  0.45593999997E+02  0.45594000000E+02  0.51100000000E-03 0.  1.
         11   -1    0    0    0    0 -0.00000000000E+00 -0.00000000000E+00 -0.45593999997E+02  0.45594000000E+02  0.51100000000E-03 0. -1.
    9900012    2    1    2    0    0  0.57527656175E+01 -0.15906680546E+02  0.80350165716E+01  0.72461593790E+02  0.70000030607E+02 0.  0.
         12    1    1    2    0    0 -0.57527656175E+01  0.15906680546E+02 -0.80350165716E+01  0.18726406210E+02  0.00000000000E+00 0. -1.
         11    1    3    3    0    0  0.14885738444E+02 -0.23684745632E+02  0.69304057921E+01  0.28819835346E+02  0.51100000000E-03 0.  1.
        -11    1    3    3    0    0  0.16164555692E+02  0.38145951690E+01 -0.49481411877E+01  0.17329976875E+02  0.51100000000E-03 0. -1.
        -12    1    3    3    0    0 -0.25297528518E+02  0.39634699171E+01  0.60527519673E+01  0.26311781568E+02  0.00000000000E+00 0.  1.
</event>
<event>
 7    1  0.1465498E-013  0.7246155E+02  0.7816164E-02  0.1226708E+00
        -11   -1    0    0    0    0  0.00000000000E+00  0.00000000000E+00  0.45593999997E+02  0.45594000000E+02  0.51100000000E-03 0.  1.
         11   -1    0    0    0    0 -0.00000000000E+00 -0.00000000000E+00 -0.45593999997E+02  0.45594000000E+02  0.51100000000E-03 0. -1.
    9900012    2    1    2    0    0  0.13763862998E+02  0.81232099888E+01 -0.97595743626E+01  0.72461554611E+02  0.69999979570E+02 0.  0.
         12    1    1    2    0    0 -0.13763862998E+02 -0.81232099888E+01  0.97595743626E+01  0.18726445389E+02  0.00000000000E+00 0. -1.
         11    1    3    3    0    0  0.52551399827E+01  0.30197122185E+02  0.93843064305E-01  0.30651125449E+02  0.51100000000E-03 0. -1.
        -11    1    3    3    0    0 -0.98982803578E+01  0.24879879585E+00 -0.81553246171E+01  0.12827594270E+02  0.51100000000E-03 0.  1.
        -12    1    3    3    0    0  0.18407003373E+02 -0.22322710992E+02 -0.16980928098E+01  0.28982834893E+02  0.00000000000E+00 0.  1.
</event>
<event>
 7    1  0.1465498E-013  0.7246163E+02  0.7816164E-02  0.1226708E+00
        -11   -1    0    0    0    0  0.00000000000E+00  0.00000000000E+00  0.45593999997E+02  0.45594000000E+02  0.51100000000E-03 0.  1.
         11   -1    0    0    0    0 -0.00000000000E+00 -0.00000000000E+00 -0.45593999997E+02  0.45594000000E+02  0.51100000000E-03 0. -1.
    9900012    2    1    2    0    0  0.18634125979E+02  0.12893476585E+01  0.13355750189E+01  0.72461632786E+02  0.70000081407E+02 0.  0.
         12    1    1    2    0    0 -0.18634125979E+02 -0.12893476585E+01 -0.13355750189E+01  0.18726367214E+02  0.00000000000E+00 0. -1.
         11    1    3    3    0    0 -0.43801923948E+00 -0.16062105152E+02  0.13652763986E+01  0.16125974782E+02  0.51100000000E-03 0. -1.
        -11    1    3    3    0    0 -0.14136188031E+02  0.12709797074E+02  0.98084302731E+01  0.21391027521E+02  0.51100000000E-03 0.  1.
         12    1    3    3    0    0  0.33208333250E+02  0.46416557366E+01 -0.98381316528E+01  0.34944630483E+02  0.00000000000E+00 0. -1.
</event>
<event>
 7    1  0.1465498E-013  0.7246157E+02  0.7816164E-02  0.1226708E+00
        -11   -1    0    0    0    0  0.00000000000E+00  0.00000000000E+00  0.45593999997E+02  0.45594000000E+02  0.51100000000E-03 0. -1.
         11   -1    0    0    0    0 -0.00000000000E+00 -0.00000000000E+00 -0.45593999997E+02  0.45594000000E+02  0.51100000000E-03 0.  1.
    9900012    2    1    2    0    0 -0.91710572701E+01 -0.75212794873E+01 -0.14491414839E+02  0.72461573736E+02  0.70000004484E+02 0.  0.
         12    1    1    2    0    0  0.91710572701E+01  0.75212794873E+01  0.14491414839E+02  0.18726426264E+02  0.00000000000E+00 0. -1.
         11    1    3    3    0    0  0.12557814938E+02 -0.14296416219E+02 -0.45489803691E+01  0.19564750328E+02  0.51100000000E-03 0. -1.
        -11    1    3    3    0    0  0.76319274643E+01  0.11638239424E+02 -0.17336026039E+02  0.22231345726E+02  0.51100000000E-03 0.  1.
         12    1    3    3    0    0 -0.29360799672E+02 -0.48631026919E+01  0.73935915696E+01  0.30665477682E+02  0.00000000000E+00 0. -1.
</event>
<event>
 7    1  0.1465498E-013  0.7246161E+02  0.7816164E-02  0.1226708E+00
        -11   -1    0    0    0    0  0.00000000000E+00  0.00000000000E+00  0.45593999997E+02  0.45594000000E+02  0.51100000000E-03 0.  1.
         11   -1    0    0    0    0 -0.00000000000E+00 -0.00000000000E+00 -0.45593999997E+02  0.45594000000E+02  0.51100000000E-03 0. -1.
    9900012    2    1    2    0    0  0.52240649011E+00 -0.13681566931E+01  0.18669038803E+02  0.72461607633E+02  0.70000048640E+02 0.  0.
         12    1    1    2    0    0 -0.52240649011E+00  0.13681566931E+01 -0.18669038803E+02  0.18726392367E+02  0.00000000000E+00 0. -1.
         11    1    3    3    0    0 -0.12958572612E+02 -0.16759268510E+02  0.14034776123E+02  0.25412056709E+02  0.51100000000E-03 0. -1.
        -11    1    3    3    0    0 -0.13593703645E+02  0.14164066734E+02  0.53759324261E+00  0.19639210065E+02  0.51100000000E-03 0.  1.
        -12    1    3    3    0    0  0.27074682747E+02  0.12270450828E+01  0.40966694367E+01  0.27410340858E+02  0.00000000000E+00 0.  1.
</event>
<event>
 7    1  0.1465498E-013  0.7246170E+02  0.7816164E-02  0.1226708E+00
        -11   -1    0    0    0    0  0.00000000000E+00  0.00000000000E+00  0.45593999997E+02  0.45594000000E+02  0.51100000000E-03 0. -1.
         11   -1    0    0    0    0 -0.00000000000E+00 -0.00000000000E+00 -0.45593999997E+02  0.45594000000E+02  0.51100000000E-03 0.  1.
    9900012    2    1    2    0    0  0.13270997548E+02  0.13210173592E+02 -0.21544799699E+00  0.72461695504E+02  0.70000163108E+02 0.  0.
         12    1    1    2    0    0 -0.13270997548E+02 -0.13210173592E+02  0.21544799699E+00  0.18726304496E+02  0.00000000000E+00 0. -1.
         11    1    3    3    0    0 -0.93336529803E+01 -0.13578850500E+01 -0.82017651009E+00  0.94675033421E+01  0.51100000000E-03 0. -1.
        -11    1    3    3    0    0 -0.10425024502E+01 -0.20356128504E+02  0.36520628941E+01  0.20707398259E+02  0.51100000000E-03 0.  1.
         12    1    3    3    0    0  0.23647152978E+02  0.34924187146E+02 -0.30473343810E+01  0.42286793903E+02  0.00000000000E+00 0. -1.
</event>
<event>
 7    1  0.1465498E-013  0.7246157E+02  0.7816164E-02  0.1226708E+00
        -11   -1    0    0    0    0  0.00000000000E+00  0.00000000000E+00  0.45593999997E+02  0.45594000000E+02  0.51100000000E-03 0.  1.
         11   -1    0    0    0    0 -0.00000000000E+00 -0.00000000000E+00 -0.45593999997E+02  0.45594000000E+02  0.51100000000E-03 0. -1.
    9900012    2    1    2    0    0 -0.34905103934E+01  0.36123925468E+01  0.18040130639E+02  0.72461565310E+02  0.69999993507E+02 0.  0.
         12    1    1    2    0    0  0.34905103934E+01 -0.36123925468E+01 -0.18040130639E+02  0.18726434690E+02  0.00000000000E+00 0. -1.
         11    1    3    3    0    0 -0.17504932162E+02 -0.63914643793E+01 -0.21154721483E+02  0.28192121385E+02  0.51100000000E-03 0. -1.
        -11    1    3    3    0    0 -0.16773985845E+01 -0.31885556284E+00  0.22539366969E+01  0.28276431487E+01  0.51100000000E-03 0.  1.
        -12    1    3    3    0    0  0.15691820353E+02  0.10322712489E+02  0.36940915425E+02  0.41441800776E+02  0.00000000000E+00 0.  1.
</event>
<event>
 7    1  0.1465498E-013  0.7246158E+02  0.7816164E-02  0.1226708E+00
        -11   -1    0    0    0    0  0.00000000000E+00  0.00000000000E+00  0.45593999997E+02  0.45594000000E+02  0.51100000000E-03 0. -1.
         11   -1    0    0    0    0 -0.00000000000E+00 -0.00000000000E+00 -0.45593999997E+02  0.45594000000E+02  0.51100000000E-03 0.  1.
    9900012    2    1    2    0    0  0.12842675027E+02  0.10265735847E+02 -0.89643253103E+01  0.72461581159E+02  0.70000014154E+02 0.  0.
         12    1    1    2    0    0 -0.12842675027E+02 -0.10265735847E+02  0.89643253103E+01  0.18726418841E+02  0.00000000000E+00 0. -1.
         11    1    3    3    0    0 -0.11655984748E+02  0.13030988012E+02  0.12520120501E+02  0.21504000713E+02  0.51100000000E-03 0. -1.
        -11    1    3    3    0    0 -0.62570067108E+01 -0.19727584881E+00 -0.18988875431E+02  0.19994160176E+02  0.51100000000E-03 0.  1.
         12    1    3    3    0    0  0.30755666486E+02 -0.25679763160E+01 -0.24955703803E+01  0.30963420271E+02  0.00000000000E+00 0. -1.
</event>
<event>
 7    1  0.1465498E-013  0.7246167E+02  0.7816164E-02  0.1226708E+00
        -11   -1    0    0    0    0  0.00000000000E+00  0.00000000000E+00  0.45593999997E+02  0.45594000000E+02  0.51100000000E-03 0.  1.
         11   -1    0    0    0    0 -0.00000000000E+00 -0.00000000000E+00 -0.45593999997E+02  0.45594000000E+02  0.51100000000E-03 0. -1.
    9900012    2    1    2    0    0 -0.27265752164E+01 -0.25506387920E+01  0.18350357350E+02  0.72461665988E+02  0.70000124659E+02 0.  0.
         12    1    1    2    0    0  0.27265752164E+01  0.25506387920E+01 -0.18350357350E+02  0.18726334012E+02  0.00000000000E+00 0. -1.
         11    1    3    3    0    0 -0.25972247542E+01  0.10576410664E+02 -0.12705151428E+02  0.16734004662E+02  0.51100000000E-03 0. -1.
        -11    1    3    3    0    0 -0.12728252428E+02  0.92286131830E+01  0.36982522915E+00  0.15726171883E+02  0.51100000000E-03 0.  1.
        -12    1    3    3    0    0  0.12598901965E+02 -0.22355662639E+02  0.30685683549E+02  0.40001489443E+02  0.00000000000E+00 0.  1.
</event>
<event>
 7    1  0.1465498E-013  0.7246157E+02  0.7816164E-02  0.1226708E+00
        -11   -1    0    0    0    0  0.00000000000E+00  0.00000000000E+00  0.45593999997E+02  0.45594000000E+02  0.51100000000E-03 0.  1.
         11   -1    0    0    0    0 -0.00000000000E+00 -0.00000000000E+00 -0.45593999997E+02  0.45594000000E+02  0.51100000000E-03 0. -1.
    9900012    2    1    2    0    0  0.17698025315E+02  0.52881327806E+01  0.30813555184E+01  0.72461569476E+02  0.69999998933E+02 0.  0.
         12    1    1    2    0    0 -0.17698025315E+02 -0.52881327806E+01 -0.30813555184E+01  0.18726430524E+02  0.00000000000E+00 0. -1.
         11    1    3    3    0    0  0.24411557816E+02 -0.18778464547E+02  0.12290140414E+02  0.33160253880E+02  0.51100000000E-03 0. -1.
        -11    1    3    3    0    0 -0.75184901761E+00  0.20522163329E+02  0.69796824880E+01  0.21689638829E+02  0.51100000000E-03 0.  1.
         12    1    3    3    0    0 -0.59616834831E+01  0.35444339988E+01 -0.16188467383E+02  0.17611676767E+02  0.00000000000E+00 0. -1.
</event>
<event>
 7    1  0.1465498E-013  0.7246200E+02  0.7816164E-02  0.1226707E+00
        -11   -1    0    0    0    0  0.00000000000E+00  0.00000000000E+00  0.45593999997E+02  0.45594000000E+02  0.51100000000E-03 0.  1.
         11   -1    0    0    0    0 -0.00000000000E+00 -0.00000000000E+00 -0.45593999997E+02  0.45594000000E+02  0.51100000000E-03 0. -1.
    9900012    2    1    2    0    0 -0.69302905014E+01 -0.13385129823E+02  0.11111822222E+02  0.72461996157E+02  0.70000554764E+02 0.  0.
         12    1    1    2    0    0  0.69302905014E+01  0.13385129823E+02 -0.11111822222E+02  0.18726003843E+02  0.00000000000E+00 0. -1.
         11    1    3    3    0    0 -0.17975581152E+01 -0.30449157633E+02 -0.42112282704E+01  0.30791506289E+02  0.51100000000E-03 0. -1.
        -11    1    3    3    0    0  0.10582220246E+02 -0.48891247926E+01  0.32920254186E+01  0.12112983043E+02  0.51100000000E-03 0.  1.
        -12    1    3    3    0    0 -0.15714952632E+02  0.21953152603E+02  0.12031025074E+02  0.29557506826E+02  0.00000000000E+00 0.  1.
</event>
<event>
 7    1  0.1465498E-013  0.7246153E+02  0.7816164E-02  0.1226708E+00
        -11   -1    0    0    0    0  0.00000000000E+00  0.00000000000E+00  0.45593999997E+02  0.45594000000E+02  0.51100000000E-03 0.  1.
         11   -1    0    0    0    0 -0.00000000000E+00 -0.00000000000E+00 -0.45593999997E+02  0.45594000000E+02  0.51100000000E-03 0. -1.
    9900012    2    1    2    0    0 -0.88275422104E+01  0.72121266945E+01  0.14857332250E+02  0.72461532246E+02  0.69999950435E+02 0.  0.
         12    1    1    2    0    0  0.88275422104E+01 -0.72121266945E+01 -0.14857332250E+02  0.18726467754E+02  0.00000000000E+00 0. -1.
         11    1    3    3    0    0 -0.11298920199E+02  0.52946456831E+01 -0.78166180250E+01  0.14724075122E+02  0.51100000000E-03 0. -1.
        -11    1    3    3    0    0  0.20812221587E+02  0.18184622494E+02  0.17407681073E+02  0.32662768150E+02  0.51100000000E-03 0.  1.
         12    1    3    3    0    0 -0.18340843598E+02 -0.16267141482E+02  0.52662692027E+01  0.25074688975E+02  0.00000000000E+00 0. -1.
</event>
<event>
 7    1  0.1705843E-013  0.7246157E+02  0.7816164E-02  0.1226708E+00
        -11   -1    0    0    0    0  0.00000000000E+00  0.00000000000E+00  0.45593999997E+02  0.45594000000E+02  0.51100000000E-03 0.  1.
         11   -1    0    0    0    0 -0.00000000000E+00 -0.00000000000E+00 -0.45593999997E+02  0.45594000000E+02  0.51100000000E-03 0. -1.
    9900012    2    1    2    0    0  0.87873151071E+01  0.14249900718E+02  0.83906245158E+01  0.72461570628E+02  0.70000000435E+02 0.  0.
         12    1    1    2    0    0 -0.87873151071E+01 -0.14249900718E+02 -0.83906245158E+01  0.18726429372E+02  0.00000000000E+00 0. -1.
         11    1    3    3    0    0  0.29314613206E+01  0.28733511826E+01 -0.23670270871E+02  0.24023557935E+02  0.51100000000E-03 0. -1.
        -11    1    3    3    0    0  0.90166523688E+01 -0.47478461251E+01 -0.22140397637E+01  0.10428040808E+02  0.51100000000E-03 0.  1.
        -12    1    3    3    0    0 -0.31607985823E+01  0.16124395660E+02  0.34274935150E+02  0.38009971884E+02  0.00000000000E+00 0.  1.
</event>
<event>
 7    1  0.1465498E-013  0.7246153E+02  0.7816164E-02  0.1226708E+00
        -11   -1    0    0    0    0  0.00000000000E+00  0.00000000000E+00  0.45593999997E+02  0.45594000000E+02  0.51100000000E-03 0.  1.
         11   -1    0    0    0    0 -0.00000000000E+00 -0.00000000000E+00 -0.45593999997E+02  0.45594000000E+02  0.51100000000E-03 0. -1.
    9900012    2    1    2    0    0 -0.16744179561E+02  0.45497226098E+01  0.70436521693E+01  0.72461533145E+02  0.69999951606E+02 0.  0.
         12    1    1    2    0    0  0.16744179561E+02 -0.45497226098E+01 -0.70436521693E+01  0.18726466855E+02  0.00000000000E+00 0. -1.
         11    1    3    3    0    0 -0.12633953734E+02 -0.13585306416E+02  0.14841925542E+02  0.23758368871E+02  0.51100000000E-03 0. -1.
        -11    1    3    3    0    0 -0.24238086510E+02  0.11544007759E+02 -0.32724607619E+01  0.27045479336E+02  0.51100000000E-03 0.  1.
        -12    1    3    3    0    0  0.20127860684E+02  0.65910212667E+01 -0.45258126108E+01  0.21657684937E+02  0.00000000000E+00 0.  1.
</event>
<event>
 7    1  0.1465498E-013  0.7246163E+02  0.7816164E-02  0.1226708E+00
        -11   -1    0    0    0    0  0.00000000000E+00  0.00000000000E+00  0.45593999997E+02  0.45594000000E+02  0.51100000000E-03 0.  1.
         11   -1    0    0    0    0 -0.00000000000E+00 -0.00000000000E+00 -0.45593999997E+02  0.45594000000E+02  0.51100000000E-03 0. -1.
    9900012    2    1    2    0    0  0.23226618074E+01 -0.17117256420E+02  0.72306148468E+01  0.72461627786E+02  0.70000074894E+02 0.  0.
         12    1    1    2    0    0 -0.23226618074E+01  0.17117256420E+02 -0.72306148468E+01  0.18726372214E+02  0.00000000000E+00 0. -1.
         11    1    3    3    0    0  0.10813982608E+01 -0.12450015988E+02 -0.21196218104E+02  0.24605933887E+02  0.51100000000E-03 0. -1.
        -11    1    3    3    0    0  0.17775799905E+02 -0.24467283863E+01  0.41799018054E+01  0.18423819404E+02  0.51100000000E-03 0.  1.
        -12    1    3    3    0    0 -0.16534536358E+02 -0.22205120465E+01  0.24246931145E+02  0.29431874495E+02  0.00000000000E+00 0.  1.
</event>
<event>
 7    1  0.1465498E-013  0.7246158E+02  0.7816164E-02  0.1226708E+00
        -11   -1    0    0    0    0  0.00000000000E+00  0.00000000000E+00  0.45593999997E+02  0.45594000000E+02  0.51100000000E-03 0.  1.
         11   -1    0    0    0    0 -0.00000000000E+00 -0.00000000000E+00 -0.45593999997E+02  0.45594000000E+02  0.51100000000E-03 0. -1.
    9900012    2    1    2    0    0  0.52083071915E+01  0.17152810651E+02  0.54160308238E+01  0.72461581044E+02  0.70000014004E+02 0.  0.
         12    1    1    2    0    0 -0.52083071915E+01 -0.17152810651E+02 -0.54160308238E+01  0.18726418956E+02  0.00000000000E+00 0. -1.
         11    1    3    3    0    0 -0.13753441100E+01  0.24384173810E+02  0.21259992258E+02  0.32380036672E+02  0.51100000000E-03 0. -1.
        -11    1    3    3    0    0  0.10630399652E+02  0.64975268574E+01 -0.21371893818E+02  0.24738251710E+02  0.51100000000E-03 0.  1.
        -12    1    3    3    0    0 -0.40467483507E+01 -0.13728890016E+02  0.55279323843E+01  0.15343292663E+02  0.00000000000E+00 0.  1.
</event>
<event>
 7    1  0.1465498E-013  0.7246170E+02  0.7816164E-02  0.1226708E+00
        -11   -1    0    0    0    0  0.00000000000E+00  0.00000000000E+00  0.45593999997E+02  0.45594000000E+02  0.51100000000E-03 0.  1.
         11   -1    0    0    0    0 -0.00000000000E+00 -0.00000000000E+00 -0.45593999997E+02  0.45594000000E+02  0.51100000000E-03 0. -1.
    9900012    2    1    2    0    0 -0.12021406422E+02 -0.13686848878E+02  0.43394006405E+01  0.72461696508E+02  0.70000164416E+02 0.  0.
         12    1    1    2    0    0  0.12021406422E+02  0.13686848878E+02 -0.43394006405E+01  0.18726303492E+02  0.00000000000E+00 0. -1.
         11    1    3    3    0    0  0.44711074210E+01 -0.57294124835E+01 -0.27556492039E+02  0.28498723178E+02  0.51100000000E-03 0. -1.
        -11    1    3    3    0    0  0.14839675901E+01 -0.52562556249E+01 -0.17374507133E+01  0.57314150299E+01  0.51100000000E-03 0.  1.
        -12    1    3    3    0    0 -0.17976481433E+02 -0.27011807693E+01  0.33633343393E+02  0.38231558300E+02  0.00000000000E+00 0.  1.
</event>
<event>
 7    1  0.1465498E-013  0.7246162E+02  0.7816164E-02  0.1226708E+00
        -11   -1    0    0    0    0  0.00000000000E+00  0.00000000000E+00  0.45593999997E+02  0.45594000000E+02  0.51100000000E-03 0.  1.
         11   -1    0    0    0    0 -0.00000000000E+00 -0.00000000000E+00 -0.45593999997E+02  0.45594000000E+02  0.51100000000E-03 0. -1.
    9900012    2    1    2    0    0  0.11600102032E+02 -0.87457578357E+01  0.11816376079E+02  0.72461617784E+02  0.70000061864E+02 0.  0.
         12    1    1    2    0    0 -0.11600102032E+02  0.87457578357E+01 -0.11816376079E+02  0.18726382216E+02  0.00000000000E+00 0. -1.
         11    1    3    3    0    0  0.10543874230E+02  0.29061995426E+01  0.56088235996E+01  0.12291386496E+02  0.51100000000E-03 0. -1.
        -11    1    3    3    0    0  0.58604262138E+01 -0.32684256121E+02  0.15542796629E+02  0.36663111173E+02  0.51100000000E-03 0.  1.
         12    1    3    3    0    0 -0.48041984119E+01  0.21032298742E+02 -0.93352441493E+01  0.23507120115E+02  0.00000000000E+00 0. -1.
</event>
<event>
 7    1  0.1465498E-013  0.7246162E+02  0.7816164E-02  0.1226708E+00
        -11   -1    0    0    0    0  0.00000000000E+00  0.00000000000E+00  0.45593999997E+02  0.45594000000E+02  0.51100000000E-03 0.  1.
         11   -1    0    0    0    0 -0.00000000000E+00 -0.00000000000E+00 -0.45593999997E+02  0.45594000000E+02  0.51100000000E-03 0. -1.
    9900012    2    1    2    0    0  0.31892794919E+01 -0.34451818763E+01  0.18128337486E+02  0.72461617492E+02  0.70000061484E+02 0.  0.
         12    1    1    2    0    0 -0.31892794919E+01  0.34451818763E+01 -0.18128337486E+02  0.18726382508E+02  0.00000000000E+00 0. -1.
         11    1    3    3    0    0  0.20364370814E+02  0.25593170023E+01  0.18097704152E+02  0.27363928775E+02  0.51100000000E-03 0. -1.
        -11    1    3    3    0    0 -0.13790835498E+02  0.76656296323E+01  0.16901431094E+02  0.23121578551E+02  0.51100000000E-03 0.  1.
        -12    1    3    3    0    0 -0.33842558234E+01 -0.13670128511E+02 -0.16870797760E+02  0.21976110166E+02  0.00000000000E+00 0.  1.
</event>
<event>
 7    1  0.1465498E-013  0.7246173E+02  0.7816164E-02  0.1226708E+00
        -11   -1    0    0    0    0  0.00000000000E+00  0.00000000000E+00  0.45593999997E+02  0.45594000000E+02  0.51100000000E-03 0.  1.
         11   -1    0    0    0    0 -0.00000000000E+00 -0.00000000000E+00 -0.45593999997E+02  0.45594000000E+02  0.51100000000E-03 0. -1.
    9900012    2    1    2    0    0  0.33967361279E+01 -0.11891418206E+02  0.14061632715E+02  0.72461730807E+02  0.70000209098E+02 0.  0.
         12    1    1    2    0    0 -0.33967361279E+01  0.11891418206E+02 -0.14061632715E+02  0.18726269193E+02  0.00000000000E+00 0. -1.
         11    1    3    3    0    0 -0.67206773097E+01 -0.10650275392E+02  0.14843014404E+02  0.19465635009E+02  0.51100000000E-03 0. -1.
        -11    1    3    3    0    0 -0.12305656856E+01 -0.44052683689E+01  0.24595928075E+02  0.25017600993E+02  0.51100000000E-03 0.  1.
         12    1    3    3    0    0  0.11347979123E+02  0.31641255556E+01 -0.25377309764E+02  0.27978494805E+02  0.00000000000E+00 0. -1.
</event>
<event>
 7    1  0.1465498E-013  0.7246153E+02  0.7816164E-02  0.1226708E+00
        -11   -1    0    0    0    0  0.00000000000E+00  0.00000000000E+00  0.45593999997E+02  0.45594000000E+02  0.51100000000E-03 0.  1.
         11   -1    0    0    0    0 -0.00000000000E+00 -0.00000000000E+00 -0.45593999997E+02  0.45594000000E+02  0.51100000000E-03 0. -1.
    9900012    2    1    2    0    0 -0.95643715626E+01 -0.77033268881E+01  0.14137269934E+02  0.72461525433E+02  0.69999941559E+02 0.  0.
         12    1    1    2    0    0  0.95643715626E+01  0.77033268881E+01 -0.14137269934E+02  0.18726474567E+02  0.00000000000E+00 0. -1.
         11    1    3    3    0    0  0.26733444387E+01 -0.25199723313E+02  0.19172324379E+02  0.31776577033E+02  0.51100000000E-03 0. -1.
        -11    1    3    3    0    0  0.15627393635E+01 -0.96329691035E+01  0.39390542683E+00  0.97668526053E+01  0.51100000000E-03 0.  1.
        -12    1    3    3    0    0 -0.13800455365E+02  0.27129365529E+02 -0.54289598717E+01  0.30918095795E+02  0.00000000000E+00 0.  1.
</event>
<event>
 7    1  0.1465498E-013  0.7246172E+02  0.7816164E-02  0.1226708E+00
        -11   -1    0    0    0    0  0.00000000000E+00  0.00000000000E+00  0.45593999997E+02  0.45594000000E+02  0.51100000000E-03 0. -1.
         11   -1    0    0    0    0 -0.00000000000E+00 -0.00000000000E+00 -0.45593999997E+02  0.45594000000E+02  0.51100000000E-03 0.  1.
    9900012    2    1    2    0    0  0.69950210395E+01  0.29405972265E+01 -0.17120050217E+02  0.72461720315E+02  0.70000195430E+02 0.  0.
         12    1    1    2    0    0 -0.69950210395E+01 -0.29405972265E+01  0.17120050217E+02  0.18726279685E+02  0.00000000000E+00 0. -1.
         11    1    3    3    0    0 -0.11230713517E+02 -0.73629776919E+01 -0.77901274498E+00  0.13451736977E+02  0.51100000000E-03 0. -1.
        -11    1    3    3    0    0 -0.17681281549E+02  0.90723543732E+01 -0.86880850186E+00  0.19891962185E+02  0.51100000000E-03 0.  1.
        -12    1    3    3    0    0  0.35907016105E+02  0.12312205451E+01 -0.15472228970E+02  0.39118021153E+02  0.00000000000E+00 0.  1.
</event>
<event>
 7    1  0.1465498E-013  0.7246163E+02  0.7816164E-02  0.1226708E+00
        -11   -1    0    0    0    0  0.00000000000E+00  0.00000000000E+00  0.45593999997E+02  0.45594000000E+02  0.51100000000E-03 0.  1.
         11   -1    0    0    0    0 -0.00000000000E+00 -0.00000000000E+00 -0.45593999997E+02  0.45594000000E+02  0.51100000000E-03 0. -1.
    9900012    2    1    2    0    0  0.18601898485E+02 -0.14285713280E+01 -0.16141074978E+01  0.72461633927E+02  0.70000082894E+02 0.  0.
         12    1    1    2    0    0 -0.18601898485E+02  0.14285713280E+01  0.16141074978E+01  0.18726366073E+02  0.00000000000E+00 0. -1.
         11    1    3    3    0    0  0.28712859188E+00  0.62685091465E+01 -0.16821501321E+02  0.17953817330E+02  0.51100000000E-03 0. -1.
        -11    1    3    3    0    0 -0.48460081576E+01  0.16476569497E+02  0.11841198679E+02  0.20860851466E+02  0.51100000000E-03 0.  1.
         12    1    3    3    0    0  0.23160778050E+02 -0.24173649972E+02  0.33661951446E+01  0.33646965132E+02  0.00000000000E+00 0. -1.
</event>
<event>
 7    1  0.1465498E-013  0.7246161E+02  0.7816164E-02  0.1226708E+00
        -11   -1    0    0    0    0  0.00000000000E+00  0.00000000000E+00  0.45593999997E+02  0.45594000000E+02  0.51100000000E-03 0.  1.
         11   -1    0    0    0    0 -0.00000000000E+00 -0.00000000000E+00 -0.45593999997E+02  0.45594000000E+02  0.51100000000E-03 0. -1.
    9900012    2    1    2    0    0 -0.51639239250E+01 -0.17987107691E+02  0.68956312363E+00  0.72461610848E+02  0.70000052829E+02 0.  0.
         12    1    1    2    0    0  0.51639239250E+01  0.17987107691E+02 -0.68956312363E+00  0.18726389152E+02  0.00000000000E+00 0. -1.
         11    1    3    3    0    0 -0.22023198831E+02 -0.25345761749E+02 -0.13139176988E+02  0.36056440446E+02  0.51100000000E-03 0. -1.
        -11    1    3    3    0    0  0.45166087153E+01 -0.89242250722E+01  0.12388644464E+02  0.15922313254E+02  0.51100000000E-03 0.  1.
        -12    1    3    3    0    0  0.12342666191E+02  0.16282879131E+02  0.14400956474E+01  0.20482857149E+02  0.00000000000E+00 0.  1.
</event>
<event>
 7    1  0.1465498E-013  0.7246159E+02  0.7816164E-02  0.1226708E+00
        -11   -1    0    0    0    0  0.00000000000E+00  0.00000000000E+00  0.45593999997E+02  0.45594000000E+02  0.51100000000E-03 0.  1.
         11   -1    0    0    0    0 -0.00000000000E+00 -0.00000000000E+00 -0.45593999997E+02  0.45594000000E+02  0.51100000000E-03 0. -1.
    9900012    2    1    2    0    0  0.73072652461E+00 -0.13462687134E+02  0.12996168881E+02  0.72461593198E+02  0.70000029837E+02 0.  0.
         12    1    1    2    0    0 -0.73072652461E+00  0.13462687134E+02 -0.12996168881E+02  0.18726406802E+02  0.00000000000E+00 0. -1.
         11    1    3    3    0    0 -0.17496279009E+02 -0.30555116259E+01  0.91986028525E+01  0.20001755552E+02  0.51100000000E-03 0. -1.
        -11    1    3    3    0    0 -0.10501576322E+02 -0.18265004724E+02  0.76781508778E+01  0.22424261504E+02  0.51100000000E-03 0.  1.
        -12    1    3    3    0    0  0.28728581856E+02  0.78578292158E+01 -0.38805848496E+01  0.30035576143E+02  0.00000000000E+00 0.  1.
</event>
<event>
 7    1  0.1465498E-013  0.7246167E+02  0.7816164E-02  0.1226708E+00
        -11   -1    0    0    0    0  0.00000000000E+00  0.00000000000E+00  0.45593999997E+02  0.45594000000E+02  0.51100000000E-03 0.  1.
         11   -1    0    0    0    0 -0.00000000000E+00 -0.00000000000E+00 -0.45593999997E+02  0.45594000000E+02  0.51100000000E-03 0. -1.
    9900012    2    1    2    0    0 -0.16594653361E+02  0.86711560381E+01  0.32255471673E+00  0.72461668038E+02  0.70000127330E+02 0.  0.
         12    1    1    2    0    0  0.16594653361E+02 -0.86711560381E+01 -0.32255471673E+00  0.18726331962E+02  0.00000000000E+00 0. -1.
         11    1    3    3    0    0 -0.10399225707E+02  0.19985887699E+02  0.19597727935E+01  0.22614603956E+02  0.51100000000E-03 0. -1.
        -11    1    3    3    0    0  0.15624266084E+02  0.85505659111E+01  0.69436866794E+01  0.19116606734E+02  0.51100000000E-03 0.  1.
         12    1    3    3    0    0 -0.21819693737E+02 -0.19865297572E+02 -0.85809047562E+01  0.30730457349E+02  0.00000000000E+00 0. -1.
</event>
<event>
 7    1  0.1465498E-013  0.7246161E+02  0.7816164E-02  0.1226708E+00
        -11   -1    0    0    0    0  0.00000000000E+00  0.00000000000E+00  0.45593999997E+02  0.45594000000E+02  0.51100000000E-03 0. -1.
         11   -1    0    0    0    0 -0.00000000000E+00 -0.00000000000E+00 -0.45593999997E+02  0.45594000000E+02  0.51100000000E-03 0.  1.
    9900012    2    1    2    0    0 -0.18583590252E+02  0.19265942514E+01 -0.12712059952E+01  0.72461613356E+02  0.70000056095E+02 0.  0.
         12    1    1    2    0    0  0.18583590252E+02 -0.19265942514E+01  0.12712059952E+01  0.18726386644E+02  0.00000000000E+00 0. -1.
         11    1    3    3    0    0  0.10651627686E+01 -0.11219274934E+02 -0.12419948477E+02  0.16770862297E+02  0.51100000000E-03 0. -1.
        -11    1    3    3    0    0 -0.51558691812E+01  0.67706228580E+01 -0.19454425565E+02  0.21234382384E+02  0.51100000000E-03 0.  1.
         12    1    3    3    0    0 -0.14492883839E+02  0.63752463274E+01  0.30603168047E+02  0.34456368674E+02  0.00000000000E+00 0. -1.
</event>
<event>
 7    1  0.1465498E-013  0.7246159E+02  0.7816164E-02  0.1226708E+00
        -11   -1    0    0    0    0  0.00000000000E+00  0.00000000000E+00  0.45593999997E+02  0.45594000000E+02  0.51100000000E-03 0.  1.
         11   -1    0    0    0    0 -0.00000000000E+00 -0.00000000000E+00 -0.45593999997E+02  0.45594000000E+02  0.51100000000E-03 0. -1.
    9900012    2    1    2    0    0 -0.15684341697E+02 -0.95491250305E+01  0.36734409508E+01  0.72461587324E+02  0.70000022184E+02 0.  0.
         12    1    1    2    0    0  0.15684341697E+02  0.95491250305E+01 -0.36734409508E+01  0.18726412676E+02  0.00000000000E+00 0. -1.
         11    1    3    3    0    0  0.11480778045E+02 -0.19168033893E+02 -0.98841767895E+01  0.24431920492E+02  0.51100000000E-03 0. -1.
        -11    1    3    3    0    0 -0.56912011214E+01 -0.52436889803E+01 -0.10146337511E+02  0.12760650825E+02  0.51100000000E-03 0.  1.
        -12    1    3    3    0    0 -0.21473918620E+02  0.14862597843E+02  0.23703955251E+02  0.35269016007E+02  0.00000000000E+00 0.  1.
</event>
<event>
 7    1  0.1465498E-013  0.7246156E+02  0.7816164E-02  0.1226708E+00
        -11   -1    0    0    0    0  0.00000000000E+00  0.00000000000E+00  0.45593999997E+02  0.45594000000E+02  0.51100000000E-03 0.  1.
         11   -1    0    0    0    0 -0.00000000000E+00 -0.00000000000E+00 -0.45593999997E+02  0.45594000000E+02  0.51100000000E-03 0. -1.
    9900012    2    1    2    0    0  0.15338864413E+02  0.42690505728E+01 -0.98576942855E+01  0.72461556373E+02  0.69999981865E+02 0.  0.
         12    1    1    2    0    0 -0.15338864413E+02 -0.42690505728E+01  0.98576942855E+01  0.18726443627E+02  0.00000000000E+00 0. -1.
         11    1    3    3    0    0 -0.14917932159E+02  0.99349122965E+00 -0.29588984611E+02  0.33151768208E+02  0.51100000000E-03 0. -1.
        -11    1    3    3    0    0  0.17437903400E+01  0.15776583403E+01 -0.22598671616E+01  0.32614123379E+01  0.51100000000E-03 0.  1.
        -12    1    3    3    0    0  0.28513006232E+02  0.16979010028E+01  0.21991157487E+02  0.36048375828E+02  0.00000000000E+00 0.  1.
</event>
<event>
 7    1  0.1465498E-013  0.7246187E+02  0.7816164E-02  0.1226707E+00
        -11   -1    0    0    0    0  0.00000000000E+00  0.00000000000E+00  0.45593999997E+02  0.45594000000E+02  0.51100000000E-03 0.  1.
         11   -1    0    0    0    0 -0.00000000000E+00 -0.00000000000E+00 -0.45593999997E+02  0.45594000000E+02  0.51100000000E-03 0. -1.
    9900012    2    1    2    0    0 -0.12172957850E+02  0.51153419039E+01  0.13278567803E+02  0.72461868832E+02  0.70000388900E+02 0.  0.
         12    1    1    2    0    0  0.12172957850E+02 -0.51153419039E+01 -0.13278567803E+02  0.18726131168E+02  0.00000000000E+00 0. -1.
         11    1    3    3    0    0 -0.27450581381E+00  0.13003336109E+02  0.12381408242E+02  0.17957209520E+02  0.51100000000E-03 0. -1.
        -11    1    3    3    0    0  0.12803953591E+01 -0.17224932231E+02  0.21974762897E+02  0.27950454509E+02  0.51100000000E-03 0.  1.
         12    1    3    3    0    0 -0.13178847395E+02  0.93369380260E+01 -0.21077603336E+02  0.26554204804E+02  0.00000000000E+00 0. -1.
</event>
<event>
 7    1  0.1465498E-013  0.7246159E+02  0.7816164E-02  0.1226708E+00
        -11   -1    0    0    0    0  0.00000000000E+00  0.00000000000E+00  0.45593999997E+02  0.45594000000E+02  0.51100000000E-03 0. -1.
         11   -1    0    0    0    0 -0.00000000000E+00 -0.00000000000E+00 -0.45593999997E+02  0.45594000000E+02  0.51100000000E-03 0.  1.
    9900012    2    1    2    0    0  0.11739167625E+02  0.13745979432E+02  0.48906648844E+01  0.72461585232E+02  0.70000019459E+02 0.  0.
         12    1    1    2    0    0 -0.11739167625E+02 -0.13745979432E+02 -0.48906648844E+01  0.18726414768E+02  0.00000000000E+00 0. -1.
         11    1    3    3    0    0  0.26501893410E+02 -0.26630895946E+01  0.16329336871E+02  0.31242433379E+02  0.51100000000E-03 0. -1.
        -11    1    3    3    0    0 -0.79120414896E+01  0.85236138814E+01  0.11287837026E+02  0.16207024993E+02  0.51100000000E-03 0.  1.
        -12    1    3    3    0    0 -0.68506842956E+01  0.78854551451E+01 -0.22726509013E+02  0.25012126860E+02  0.00000000000E+00 0.  1.
</event>
<event>
 7    1  0.1465498E-013  0.7246149E+02  0.7816164E-02  0.1226708E+00
        -11   -1    0    0    0    0  0.00000000000E+00  0.00000000000E+00  0.45593999997E+02  0.45594000000E+02  0.51100000000E-03 0. -1.
         11   -1    0    0    0    0 -0.00000000000E+00 -0.00000000000E+00 -0.45593999997E+02  0.45594000000E+02  0.51100000000E-03 0.  1.
    9900012    2    1    2    0    0 -0.15887121089E+02 -0.86657922544E+01 -0.48151354442E+01  0.72461492017E+02  0.69999898029E+02 0.  0.
         12    1    1    2    0    0  0.15887121089E+02  0.86657922544E+01  0.48151354442E+01  0.18726507983E+02  0.00000000000E+00 0. -1.
         11    1    3    3    0    0 -0.14537153155E+01 -0.77021582069E+01  0.64358311588E+00  0.78645234281E+01  0.51100000000E-03 0. -1.
        -11    1    3    3    0    0  0.16441564606E+02 -0.19664440215E+02 -0.11331802763E+02  0.28025435051E+02  0.51100000000E-03 0.  1.
         12    1    3    3    0    0 -0.30874970380E+02  0.18700806168E+02  0.58730842030E+01  0.36571533538E+02  0.00000000000E+00 0. -1.
</event>
<event>
 7    1  0.1465498E-013  0.7246160E+02  0.7816164E-02  0.1226708E+00
        -11   -1    0    0    0    0  0.00000000000E+00  0.00000000000E+00  0.45593999997E+02  0.45594000000E+02  0.51100000000E-03 0.  1.
         11   -1    0    0    0    0 -0.00000000000E+00 -0.00000000000E+00 -0.45593999997E+02  0.45594000000E+02  0.51100000000E-03 0. -1.
    9900012    2    1    2    0    0  0.99808082145E+01  0.12541651406E+02  0.96834182741E+01  0.72461597727E+02  0.70000035736E+02 0.  0.
         12    1    1    2    0    0 -0.99808082145E+01 -0.12541651406E+02 -0.96834182741E+01  0.18726402273E+02  0.00000000000E+00 0. -1.
         11    1    3    3    0    0  0.24817078623E+02  0.75592148849E+01 -0.25603626823E+01  0.26068843058E+02  0.51100000000E-03 0. -1.
        -11    1    3    3    0    0  0.37194402459E+01  0.10834505493E+02  0.21867458179E+02  0.24686159533E+02  0.51100000000E-03 0.  1.
        -12    1    3    3    0    0 -0.18555710654E+02 -0.58520689714E+01 -0.96236772223E+01  0.21706595136E+02  0.00000000000E+00 0.  1.
</event>
<event>
 7    1  0.1465498E-013  0.7246159E+02  0.7816164E-02  0.1226708E+00
        -11   -1    0    0    0    0  0.00000000000E+00  0.00000000000E+00  0.45593999997E+02  0.45594000000E+02  0.51100000000E-03 0.  1.
         11   -1    0    0    0    0 -0.00000000000E+00 -0.00000000000E+00 -0.45593999997E+02  0.45594000000E+02  0.51100000000E-03 0. -1.
    9900012    2    1    2    0    0  0.18150149665E+02  0.19406179119E+01 -0.41814667088E+01  0.72461585645E+02  0.70000019997E+02 0.  0.
         12    1    1    2    0    0 -0.18150149665E+02 -0.19406179119E+01  0.41814667088E+01  0.18726414355E+02  0.00000000000E+00 0. -1.
         11    1    3    3    0    0 -0.11092941887E+02 -0.47836147704E+00  0.16545887226E+02  0.19926077732E+02  0.51100000000E-03 0. -1.
        -11    1    3    3    0    0 -0.15991979240E+00  0.11934000248E+02  0.43844933048E+01  0.12714940741E+02  0.51100000000E-03 0.  1.
        -12    1    3    3    0    0  0.29403011345E+02 -0.95150208589E+01 -0.25111847240E+02  0.39820567172E+02  0.00000000000E+00 0.  1.
</event>
<event>
 7    1  0.1465498E-013  0.7246155E+02  0.7816164E-02  0.1226708E+00
        -11   -1    0    0    0    0  0.00000000000E+00  0.00000000000E+00  0.45593999997E+02  0.45594000000E+02  0.51100000000E-03 0.  1.
         11   -1    0    0    0    0 -0.00000000000E+00 -0.00000000000E+00 -0.45593999997E+02  0.45594000000E+02  0.51100000000E-03 0. -1.
    9900012    2    1    2    0    0 -0.63476367061E+01 -0.49829926188E+01  0.16898437623E+02  0.72461550756E+02  0.69999974547E+02 0.  0.
         12    1    1    2    0    0  0.63476367061E+01  0.49829926188E+01 -0.16898437623E+02  0.18726449244E+02  0.00000000000E+00 0. -1.
         11    1    3    3    0    0 -0.18322803565E+02 -0.86908913087E+01 -0.12751030546E+02  0.23955072583E+02  0.51100000000E-03 0. -1.
        -11    1    3    3    0    0 -0.12753533455E+02 -0.18917758439E+01  0.12002107445E+02  0.17614823724E+02  0.51100000000E-03 0.  1.
        -12    1    3    3    0    0  0.24728700313E+02  0.55996745339E+01  0.17647360724E+02  0.30891654449E+02  0.00000000000E+00 0.  1.
</event>
<event>
 7    1  0.1465498E-013  0.7246146E+02  0.7816164E-02  0.1226708E+00
        -11   -1    0    0    0    0  0.00000000000E+00  0.00000000000E+00  0.45593999997E+02  0.45594000000E+02  0.51100000000E-03 0.  1.
         11   -1    0    0    0    0 -0.00000000000E+00 -0.00000000000E+00 -0.45593999997E+02  0.45594000000E+02  0.51100000000E-03 0. -1.
    9900012    2    1    2    0    0 -0.11850762396E+02  0.69296717338E+01  0.12736654097E+02  0.72461460616E+02  0.69999857124E+02 0.  0.
         12    1    1    2    0    0  0.11850762396E+02 -0.69296717338E+01 -0.12736654097E+02  0.18726539384E+02  0.00000000000E+00 0. -1.
         11    1    3    3    0    0 -0.17545375942E+02 -0.18031326751E+02 -0.94282007743E+01  0.26867451153E+02  0.51100000000E-03 0. -1.
        -11    1    3    3    0    0 -0.12322855495E+02  0.80124282319E+01  0.11471675041E+02  0.18645404320E+02  0.51100000000E-03 0.  1.
        -12    1    3    3    0    0  0.18017469041E+02  0.16948570253E+02  0.10693179830E+02  0.26948605143E+02  0.00000000000E+00 0.  1.
</event>
<event>
 7    1  0.1465498E-013  0.7246193E+02  0.7816164E-02  0.1226707E+00
        -11   -1    0    0    0    0  0.00000000000E+00  0.00000000000E+00  0.45593999997E+02  0.45594000000E+02  0.51100000000E-03 0. -1.
         11   -1    0    0    0    0 -0.00000000000E+00 -0.00000000000E+00 -0.45593999997E+02  0.45594000000E+02  0.51100000000E-03 0.  1.
    9900012    2    1    2    0    0 -0.98811559239E+01 -0.10603933016E+02 -0.11856855913E+02  0.72461930740E+02  0.70000469546E+02 0.  0.
         12    1    1    2    0    0  0.98811559239E+01  0.10603933016E+02  0.11856855913E+02  0.18726069260E+02  0.00000000000E+00 0. -1.
         11    1    3    3    0    0  0.10334714960E+01  0.13098765824E+01 -0.12277758941E+02  0.12390609544E+02  0.51100000000E-03 0. -1.
        -11    1    3    3    0    0 -0.78598969663E+01 -0.34135141756E+02 -0.83118470656E+01  0.36001009498E+02  0.51100000000E-03 0.  1.
         12    1    3    3    0    0 -0.30547304536E+01  0.22221332158E+02  0.87327500940E+01  0.24070311697E+02  0.00000000000E+00 0. -1.
</event>
<event>
 7    1  0.1465498E-013  0.7246162E+02  0.7816164E-02  0.1226708E+00
        -11   -1    0    0    0    0  0.00000000000E+00  0.00000000000E+00  0.45593999997E+02  0.45594000000E+02  0.51100000000E-03 0.  1.
         11   -1    0    0    0    0 -0.00000000000E+00 -0.00000000000E+00 -0.45593999997E+02  0.45594000000E+02  0.51100000000E-03 0. -1.
    9900012    2    1    2    0    0 -0.10212449346E+02 -0.11527504467E+02  0.10653624668E+02  0.72461622895E+02  0.70000068522E+02 0.  0.
         12    1    1    2    0    0  0.10212449346E+02  0.11527504467E+02 -0.10653624668E+02  0.18726377105E+02  0.00000000000E+00 0. -1.
         11    1    3    3    0    0 -0.10913493718E+02 -0.28122922792E+02 -0.97001760797E+01  0.31687482509E+02  0.51100000000E-03 0. -1.
        -11    1    3    3    0    0 -0.82730056753E+01 -0.64624216824E+01  0.74159043359E+01  0.12853060114E+02  0.51100000000E-03 0.  1.
         12    1    3    3    0    0  0.89740500469E+01  0.23057840007E+02  0.12937896412E+02  0.27921080273E+02  0.00000000000E+00 0. -1.
</event>
<event>
 7    1  0.1465498E-013  0.7246203E+02  0.7816164E-02  0.1226707E+00
        -11   -1    0    0    0    0  0.00000000000E+00  0.00000000000E+00  0.45593999997E+02  0.45594000000E+02  0.51100000000E-03 0.  1.
         11   -1    0    0    0    0 -0.00000000000E+00 -0.00000000000E+00 -0.45593999997E+02  0.45594000000E+02  0.51100000000E-03 0. -1.
    9900012    2    1    2    0    0 -0.13391579544E+02  0.12904780496E+02  0.21895357442E+01  0.72462033294E+02  0.70000603140E+02 0.  0.
         12    1    1    2    0    0  0.13391579544E+02 -0.12904780496E+02 -0.21895357442E+01  0.18725966706E+02  0.00000000000E+00 0. -1.
         11    1    3    3    0    0 -0.36497587949E+02  0.18604569859E+02 -0.53820951030E+01  0.41317924605E+02  0.51100000000E-03 0. -1.
        -11    1    3    3    0    0  0.94142648975E+00 -0.40581852377E+01 -0.42661640158E+01  0.59628270921E+01  0.51100000000E-03 0.  1.
        -12    1    3    3    0    0  0.22164581916E+02 -0.16416041256E+01  0.11837794863E+02  0.25181281596E+02  0.00000000000E+00 0.  1.
</event>
<event>
 7    1  0.1465498E-013  0.7246154E+02  0.7816164E-02  0.1226708E+00
        -11   -1    0    0    0    0  0.00000000000E+00  0.00000000000E+00  0.45593999997E+02  0.45594000000E+02  0.51100000000E-03 0. -1.
         11   -1    0    0    0    0 -0.00000000000E+00 -0.00000000000E+00 -0.45593999997E+02  0.45594000000E+02  0.51100000000E-03 0.  1.
    9900012    2    1    2    0    0  0.71122453515E+01 -0.15997299297E+02  0.66470012288E+01  0.72461541603E+02  0.69999962625E+02 0.  0.
         12    1    1    2    0    0 -0.71122453515E+01  0.15997299297E+02 -0.66470012288E+01  0.18726458397E+02  0.00000000000E+00 0. -1.
         11    1    3    3    0    0 -0.13339941346E+02  0.18678057813E+02 -0.90753132025E+01  0.24681677187E+02  0.51100000000E-03 0. -1.
        -11    1    3    3    0    0  0.64658327315E+01  0.97632537717E+00  0.42598513670E+01  0.78042640963E+01  0.51100000000E-03 0.  1.
        -12    1    3    3    0    0  0.13986353966E+02 -0.35651682487E+02  0.11462463064E+02  0.39975600320E+02  0.00000000000E+00 0.  1.
</event>
<event>
 7    1  0.1465498E-013  0.7246170E+02  0.7816164E-02  0.1226708E+00
        -11   -1    0    0    0    0  0.00000000000E+00  0.00000000000E+00  0.45593999997E+02  0.45594000000E+02  0.51100000000E-03 0.  1.
         11   -1    0    0    0    0 -0.00000000000E+00 -0.00000000000E+00 -0.45593999997E+02  0.45594000000E+02  0.51100000000E-03 0. -1.
    9900012    2    1    2    0    0 -0.97534875474E+01 -0.11539110007E+02  0.11063124968E+02  0.72461699961E+02  0.70000168915E+02 0.  0.
         12    1    1    2    0    0  0.97534875474E+01  0.11539110007E+02 -0.11063124968E+02  0.18726300039E+02  0.00000000000E+00 0. -1.
         11    1    3    3    0    0  0.18958012647E+02 -0.19580307164E+02  0.29485497336E+01  0.27413292723E+02  0.51100000000E-03 0. -1.
        -11    1    3    3    0    0  0.31667790393E+01  0.11440468994E+02  0.48513795609E+01  0.12823755464E+02  0.51100000000E-03 0.  1.
        -12    1    3    3    0    0 -0.31878279234E+02 -0.33992718380E+01  0.32631956730E+01  0.32224651774E+02  0.00000000000E+00 0.  1.
</event>
<event>
 7    1  0.1465498E-013  0.7246165E+02  0.7816164E-02  0.1226708E+00
        -11   -1    0    0    0    0  0.00000000000E+00  0.00000000000E+00  0.45593999997E+02  0.45594000000E+02  0.51100000000E-03 0. -1.
         11   -1    0    0    0    0 -0.00000000000E+00 -0.00000000000E+00 -0.45593999997E+02  0.45594000000E+02  0.51100000000E-03 0.  1.
    9900012    2    1    2    0    0 -0.18452488285E+02 -0.12274712866E+01  0.29453870549E+01  0.72461646523E+02  0.70000099302E+02 0.  0.
         12    1    1    2    0    0  0.18452488285E+02  0.12274712866E+01 -0.29453870549E+01  0.18726353477E+02  0.00000000000E+00 0. -1.
         11    1    3    3    0    0  0.51265310737E+01 -0.16699971085E+02  0.14199072248E+02  0.22511863718E+02  0.51100000000E-03 0. -1.
        -11    1    3    3    0    0 -0.31622185912E+01 -0.12857604971E+02 -0.63567610999E+01  0.14687615325E+02  0.51100000000E-03 0.  1.
         12    1    3    3    0    0 -0.20416800767E+02  0.28330104769E+02 -0.48969240928E+01  0.35262167480E+02  0.00000000000E+00 0. -1.
</event>
<event>
 7    1  0.1465498E-013  0.7246171E+02  0.7816164E-02  0.1226708E+00
        -11   -1    0    0    0    0  0.00000000000E+00  0.00000000000E+00  0.45593999997E+02  0.45594000000E+02  0.51100000000E-03 0. -1.
         11   -1    0    0    0    0 -0.00000000000E+00 -0.00000000000E+00 -0.45593999997E+02  0.45594000000E+02  0.51100000000E-03 0.  1.
    9900012    2    1    2    0    0 -0.50801566155E+01 -0.17393349053E+02 -0.47262255092E+01  0.72461713927E+02  0.70000187108E+02 0.  0.
         12    1    1    2    0    0  0.50801566155E+01  0.17393349053E+02  0.47262255092E+01  0.18726286073E+02  0.00000000000E+00 0. -1.
         11    1    3    3    0    0 -0.14436357783E+01 -0.12019657046E+01  0.22344345926E+01  0.29191615277E+01  0.51100000000E-03 0. -1.
        -11    1    3    3    0    0  0.12314789743E+02 -0.23740622928E+02 -0.30214299227E+02  0.40350651810E+02  0.51100000000E-03 0.  1.
         12    1    3    3    0    0 -0.15951310580E+02  0.75492395797E+01  0.23253639125E+02  0.29191900589E+02  0.00000000000E+00 0. -1.
</event>
<event>
 7    1  0.1465498E-013  0.7246159E+02  0.7816164E-02  0.1226708E+00
        -11   -1    0    0    0    0  0.00000000000E+00  0.00000000000E+00  0.45593999997E+02  0.45594000000E+02  0.51100000000E-03 0. -1.
         11   -1    0    0    0    0 -0.00000000000E+00 -0.00000000000E+00 -0.45593999997E+02  0.45594000000E+02  0.51100000000E-03 0.  1.
    9900012    2    1    2    0    0  0.37518701826E+01 -0.11825103359E+02 -0.14027433594E+02  0.72461588369E+02  0.70000023546E+02 0.  0.
         12    1    1    2    0    0 -0.37518701826E+01  0.11825103359E+02  0.14027433594E+02  0.18726411631E+02  0.00000000000E+00 0. -1.
         11    1    3    3    0    0 -0.19389295721E+02  0.10792206099E+02 -0.10522568670E+02  0.24558928167E+02  0.51100000000E-03 0. -1.
        -11    1    3    3    0    0 -0.42232919470E+00 -0.24054714831E+02 -0.33825501943E+01  0.24295047101E+02  0.51100000000E-03 0.  1.
         12    1    3    3    0    0  0.23563495098E+02  0.14374053724E+01 -0.12231472963E+00  0.23607613101E+02  0.00000000000E+00 0. -1.
</event>
<event>
 7    1  0.1465498E-013  0.7246084E+02  0.7816164E-02  0.1226710E+00
        -11   -1    0    0    0    0  0.00000000000E+00  0.00000000000E+00  0.45593999997E+02  0.45594000000E+02  0.51100000000E-03 0. -1.
         11   -1    0    0    0    0 -0.00000000000E+00 -0.00000000000E+00 -0.45593999997E+02  0.45594000000E+02  0.51100000000E-03 0.  1.
    9900012    2    1    2    0    0 -0.85408048958E+01 -0.89801233743E+01 -0.14039893921E+02  0.72460838298E+02  0.69999046432E+02 0.  0.
         12    1    1    2    0    0  0.85408048958E+01  0.89801233743E+01  0.14039893921E+02  0.18727161702E+02  0.00000000000E+00 0. -1.
         11    1    3    3    0    0  0.34958401141E+01 -0.19021100595E+02 -0.11069037957E+02  0.22283329363E+02  0.51100000000E-03 0.  1.
        -11    1    3    3    0    0 -0.10667152803E+02  0.25222400244E+02  0.10989100058E+02  0.29507930177E+02  0.51100000000E-03 0. -1.
         12    1    3    3    0    0 -0.13694922075E+01 -0.15181423023E+02 -0.13959956022E+02  0.20669578759E+02  0.00000000000E+00 0. -1.
</event>
<event>
 7    1  0.1465498E-013  0.7246156E+02  0.7816164E-02  0.1226708E+00
        -11   -1    0    0    0    0  0.00000000000E+00  0.00000000000E+00  0.45593999997E+02  0.45594000000E+02  0.51100000000E-03 0.  1.
         11   -1    0    0    0    0 -0.00000000000E+00 -0.00000000000E+00 -0.45593999997E+02  0.45594000000E+02  0.51100000000E-03 0. -1.
    9900012    2    1    2    0    0  0.60658645654E+01 -0.15978801432E+02  0.76526339619E+01  0.72461558408E+02  0.69999984516E+02 0.  0.
         12    1    1    2    0    0 -0.60658645654E+01  0.15978801432E+02 -0.76526339619E+01  0.18726441592E+02  0.00000000000E+00 0. -1.
         11    1    3    3    0    0  0.65932788128E+01 -0.19691783753E+02  0.13027340033E+02  0.24514266489E+02  0.51100000000E-03 0. -1.
        -11    1    3    3    0    0  0.83320163253E+00  0.88948816950E+01  0.20057367775E+02  0.21957029573E+02  0.51100000000E-03 0.  1.
        -12    1    3    3    0    0 -0.13606158799E+01 -0.51818993746E+01 -0.25432073847E+02  0.25990262347E+02  0.00000000000E+00 0.  1.
</event>
<event>
 7    1  0.1465498E-013  0.7246152E+02  0.7816164E-02  0.1226708E+00
        -11   -1    0    0    0    0  0.00000000000E+00  0.00000000000E+00  0.45593999997E+02  0.45594000000E+02  0.51100000000E-03 0.  1.
         11   -1    0    0    0    0 -0.00000000000E+00 -0.00000000000E+00 -0.45593999997E+02  0.45594000000E+02  0.51100000000E-03 0. -1.
    9900012    2    1    2    0    0 -0.15083075936E+02 -0.28664181927E+01  0.10722189680E+02  0.72461524505E+02  0.69999940350E+02 0.  0.
         12    1    1    2    0    0  0.15083075936E+02  0.28664181927E+01 -0.10722189680E+02  0.18726475495E+02  0.00000000000E+00 0. -1.
         11    1    3    3    0    0 -0.26138509413E+02 -0.92947499190E+01 -0.29955211266E+01  0.27903175401E+02  0.51100000000E-03 0. -1.
        -11    1    3    3    0    0 -0.95401041350E+01  0.20907143786E+01  0.20282104438E+02  0.22511073591E+02  0.51100000000E-03 0.  1.
         12    1    3    3    0    0  0.20595537612E+02  0.43376173476E+01 -0.65643936312E+01  0.22047275513E+02  0.00000000000E+00 0. -1.
</event>
<event>
 7    1  0.1465498E-013  0.7246154E+02  0.7816164E-02  0.1226708E+00
        -11   -1    0    0    0    0  0.00000000000E+00  0.00000000000E+00  0.45593999997E+02  0.45594000000E+02  0.51100000000E-03 0.  1.
         11   -1    0    0    0    0 -0.00000000000E+00 -0.00000000000E+00 -0.45593999997E+02  0.45594000000E+02  0.51100000000E-03 0. -1.
    9900012    2    1    2    0    0  0.14428809712E+02 -0.10723607434E+02 -0.52434548655E+01  0.72461544782E+02  0.69999966766E+02 0.  0.
         12    1    1    2    0    0 -0.14428809712E+02  0.10723607434E+02  0.52434548655E+01  0.18726455218E+02  0.00000000000E+00 0. -1.
         11    1    3    3    0    0 -0.88475367145E+01  0.20408622373E+02 -0.53660146393E+01  0.22881977329E+02  0.51100000000E-03 0. -1.
        -11    1    3    3    0    0 -0.60932700023E+01 -0.27320242869E+01 -0.50855947386E+01  0.83937578075E+01  0.51100000000E-03 0.  1.
        -12    1    3    3    0    0  0.29369616429E+02 -0.28400205521E+02  0.52081545124E+01  0.41185809646E+02  0.00000000000E+00 0.  1.
</event>
<event>
 7    1  0.1465498E-013  0.7246158E+02  0.7816164E-02  0.1226708E+00
        -11   -1    0    0    0    0  0.00000000000E+00  0.00000000000E+00  0.45593999997E+02  0.45594000000E+02  0.51100000000E-03 0. -1.
         11   -1    0    0    0    0 -0.00000000000E+00 -0.00000000000E+00 -0.45593999997E+02  0.45594000000E+02  0.51100000000E-03 0.  1.
    9900012    2    1    2    0    0 -0.29402502346E+01  0.12995206840E+02 -0.13158962303E+02  0.72461581198E+02  0.70000014204E+02 0.  0.
         12    1    1    2    0    0  0.29402502346E+01 -0.12995206840E+02  0.13158962303E+02  0.18726418802E+02  0.00000000000E+00 0. -1.
         11    1    3    3    0    0 -0.87946397147E+01 -0.64680479653E-01 -0.13547291797E+01  0.88986045360E+01  0.51100000000E-03 0. -1.
        -11    1    3    3    0    0 -0.27586870052E+01  0.32957036006E+02 -0.21879860532E+02  0.39654821566E+02  0.51100000000E-03 0.  1.
         12    1    3    3    0    0  0.86130764853E+01 -0.19897148686E+02  0.10075627409E+02  0.23908155096E+02  0.00000000000E+00 0. -1.
</event>
<event>
 7    1  0.1465498E-013  0.7246157E+02  0.7816164E-02  0.1226708E+00
        -11   -1    0    0    0    0  0.00000000000E+00  0.00000000000E+00  0.45593999997E+02  0.45594000000E+02  0.51100000000E-03 0.  1.
         11   -1    0    0    0    0 -0.00000000000E+00 -0.00000000000E+00 -0.45593999997E+02  0.45594000000E+02  0.51100000000E-03 0. -1.
    9900012    2    1    2    0    0  0.69657157950E+01 -0.65272989665E+01  0.16110628655E+02  0.72461569908E+02  0.69999999496E+02 0.  0.
         12    1    1    2    0    0 -0.69657157950E+01  0.65272989665E+01 -0.16110628655E+02  0.18726430092E+02  0.00000000000E+00 0. -1.
         11    1    3    3    0    0 -0.92888024589E+01  0.92635383991E+01  0.20183271226E+01  0.13272853477E+02  0.51100000000E-03 0. -1.
        -11    1    3    3    0    0 -0.80378355349E+01  0.12340162554E+02  0.16284309515E+02  0.21955982068E+02  0.51100000000E-03 0.  1.
         12    1    3    3    0    0  0.24292353789E+02 -0.28130999920E+02 -0.21920079819E+01  0.37232734362E+02  0.00000000000E+00 0. -1.
</event>
<event>
 7    1  0.1465498E-013  0.7246157E+02  0.7816164E-02  0.1226708E+00
        -11   -1    0    0    0    0  0.00000000000E+00  0.00000000000E+00  0.45593999997E+02  0.45594000000E+02  0.51100000000E-03 0.  1.
         11   -1    0    0    0    0 -0.00000000000E+00 -0.00000000000E+00 -0.45593999997E+02  0.45594000000E+02  0.51100000000E-03 0. -1.
    9900012    2    1    2    0    0  0.24428663592E+00 -0.11026567129E+02  0.15133878217E+02  0.72461571390E+02  0.70000001427E+02 0.  0.
         12    1    1    2    0    0 -0.24428663592E+00  0.11026567129E+02 -0.15133878217E+02  0.18726428610E+02  0.00000000000E+00 0. -1.
         11    1    3    3    0    0 -0.10009275489E+02 -0.70828711057E+01  0.22415571913E+02  0.25550157012E+02  0.51100000000E-03 0. -1.
        -11    1    3    3    0    0 -0.75121985835E+00 -0.20701010856E+02  0.74708268314E+01  0.22020659290E+02  0.51100000000E-03 0.  1.
        -12    1    3    3    0    0  0.11004781983E+02  0.16757314833E+02 -0.14752520527E+02  0.24890755088E+02  0.00000000000E+00 0.  1.
</event>
<event>
 7    1  0.1465498E-013  0.7246158E+02  0.7816164E-02  0.1226708E+00
        -11   -1    0    0    0    0  0.00000000000E+00  0.00000000000E+00  0.45593999997E+02  0.45594000000E+02  0.51100000000E-03 0.  1.
         11   -1    0    0    0    0 -0.00000000000E+00 -0.00000000000E+00 -0.45593999997E+02  0.45594000000E+02  0.51100000000E-03 0. -1.
    9900012    2    1    2    0    0 -0.13272582490E+01 -0.16762030639E+02  0.82432697905E+01  0.72461580629E+02  0.70000013463E+02 0.  0.
         12    1    1    2    0    0  0.13272582490E+01  0.16762030639E+02 -0.82432697905E+01  0.18726419371E+02  0.00000000000E+00 0. -1.
         11    1    3    3    0    0  0.24627080928E+02  0.35085440356E+01 -0.19774039291E+01  0.24954220541E+02  0.51100000000E-03 0. -1.
        -11    1    3    3    0    0  0.42556005839E+01  0.51450606403E+01  0.32183763392E+01  0.74121340951E+01  0.51100000000E-03 0.  1.
        -12    1    3    3    0    0 -0.30209939760E+02 -0.25415635315E+02  0.70022973805E+01  0.40095225993E+02  0.00000000000E+00 0.  1.
</event>
<event>
 7    1  0.1465498E-013  0.7246152E+02  0.7816164E-02  0.1226708E+00
        -11   -1    0    0    0    0  0.00000000000E+00  0.00000000000E+00  0.45593999997E+02  0.45594000000E+02  0.51100000000E-03 0. -1.
         11   -1    0    0    0    0 -0.00000000000E+00 -0.00000000000E+00 -0.45593999997E+02  0.45594000000E+02  0.51100000000E-03 0.  1.
    9900012    2    1    2    0    0 -0.16453228790E+02 -0.45926677311E+01 -0.76733034765E+01  0.72461523536E+02  0.69999939089E+02 0.  0.
         12    1    1    2    0    0  0.16453228790E+02  0.45926677311E+01  0.76733034765E+01  0.18726476464E+02  0.00000000000E+00 0. -1.
         11    1    3    3    0    0  0.22474593361E+01 -0.60648448510E+01  0.18598321308E+02  0.19690885513E+02  0.51100000000E-03 0. -1.
        -11    1    3    3    0    0 -0.18726435465E+02  0.18121166438E+02 -0.63750472792E+01  0.26827174402E+02  0.51100000000E-03 0.  1.
         12    1    3    3    0    0  0.25747338947E-01 -0.16648989318E+02 -0.19896577506E+02  0.25943463622E+02  0.00000000000E+00 0. -1.
</event>
<event>
 7    1  0.1465498E-013  0.7246131E+02  0.7816164E-02  0.1226709E+00
        -11   -1    0    0    0    0  0.00000000000E+00  0.00000000000E+00  0.45593999997E+02  0.45594000000E+02  0.51100000000E-03 0.  1.
         11   -1    0    0    0    0 -0.00000000000E+00 -0.00000000000E+00 -0.45593999997E+02  0.45594000000E+02  0.51100000000E-03 0. -1.
    9900012    2    1    2    0    0  0.61936164726E+01 -0.23381684868E+01  0.17517444451E+02  0.72461313775E+02  0.69999665835E+02 0.  0.
         12    1    1    2    0    0 -0.61936164726E+01  0.23381684868E+01 -0.17517444451E+02  0.18726686225E+02  0.00000000000E+00 0. -1.
         11    1    3    3    0    0  0.16918869552E+01 -0.15157549804E+01  0.34692986525E+02  0.34767273533E+02  0.51100000000E-03 0. -1.
        -11    1    3    3    0    0  0.16057111792E+02  0.32728099585E+01  0.24860876757E+00  0.16389140634E+02  0.51100000000E-03 0.  1.
         12    1    3    3    0    0 -0.11555382275E+02 -0.40952234649E+01 -0.17424150842E+02  0.21304899608E+02  0.00000000000E+00 0. -1.
</event>
<event>
 7    1  0.1465498E-013  0.7246158E+02  0.7816164E-02  0.1226708E+00
        -11   -1    0    0    0    0  0.00000000000E+00  0.00000000000E+00  0.45593999997E+02  0.45594000000E+02  0.51100000000E-03 0.  1.
         11   -1    0    0    0    0 -0.00000000000E+00 -0.00000000000E+00 -0.45593999997E+02  0.45594000000E+02  0.51100000000E-03 0. -1.
    9900012    2    1    2    0    0  0.94106942700E+01 -0.82124194381E+01  0.13952552642E+02  0.72461582166E+02  0.70000015465E+02 0.  0.
         12    1    1    2    0    0 -0.94106942700E+01  0.82124194381E+01 -0.13952552642E+02  0.18726417834E+02  0.00000000000E+00 0. -1.
         11    1    3    3    0    0 -0.22686161494E+02 -0.78136719155E+01  0.14851982818E+02  0.28218731120E+02  0.51100000000E-03 0. -1.
        -11    1    3    3    0    0  0.62794009196E+01 -0.13462355104E+02  0.26574624933E+01  0.15090658965E+02  0.51100000000E-03 0.  1.
        -12    1    3    3    0    0  0.25817454844E+02  0.13063607581E+02 -0.35568926693E+01  0.29152192081E+02  0.00000000000E+00 0.  1.
</event>
<event>
 7    1  0.1465498E-013  0.7246143E+02  0.7816164E-02  0.1226708E+00
        -11   -1    0    0    0    0  0.00000000000E+00  0.00000000000E+00  0.45593999997E+02  0.45594000000E+02  0.51100000000E-03 0.  1.
         11   -1    0    0    0    0 -0.00000000000E+00 -0.00000000000E+00 -0.45593999997E+02  0.45594000000E+02  0.51100000000E-03 0. -1.
    9900012    2    1    2    0    0 -0.17898214616E+02  0.55055550122E+01  0.16475636482E+00  0.72461431518E+02  0.69999819218E+02 0.  0.
         12    1    1    2    0    0  0.17898214616E+02 -0.55055550122E+01 -0.16475636482E+00  0.18726568482E+02  0.00000000000E+00 0. -1.
         11    1    3    3    0    0 -0.12358156752E+01 -0.17714556065E+02 -0.26069511022E+01  0.17947950615E+02  0.51100000000E-03 0. -1.
        -11    1    3    3    0    0  0.45460791767E+01 -0.33694530302E+01  0.16796110246E+02  0.17723695136E+02  0.51100000000E-03 0.  1.
         12    1    3    3    0    0 -0.21208478118E+02  0.26589564108E+02 -0.14024402779E+02  0.36789785767E+02  0.00000000000E+00 0. -1.
</event>
<event>
 7    1  0.1465498E-013  0.7246100E+02  0.7816164E-02  0.1226710E+00
        -11   -1    0    0    0    0  0.00000000000E+00  0.00000000000E+00  0.45593999997E+02  0.45594000000E+02  0.51100000000E-03 0. -1.
         11   -1    0    0    0    0 -0.00000000000E+00 -0.00000000000E+00 -0.45593999997E+02  0.45594000000E+02  0.51100000000E-03 0.  1.
    9900012    2    1    2    0    0 -0.58590864493E+01 -0.27411333292E+01 -0.17574346212E+02  0.72461004760E+02  0.69999263283E+02 0.  0.
         12    1    1    2    0    0  0.58590864493E+01  0.27411333292E+01  0.17574346212E+02  0.18726995240E+02  0.00000000000E+00 0. -1.
         11    1    3    3    0    0 -0.70029059669E+01  0.52529369777E+01 -0.93945602236E+01  0.12841020245E+02  0.51100000000E-03 0. -1.
        -11    1    3    3    0    0 -0.27663141057E+02 -0.77592196443E+01 -0.10799068485E+02  0.30693236112E+02  0.51100000000E-03 0.  1.
         12    1    3    3    0    0  0.28806960575E+02 -0.23485066264E+00  0.26192824975E+01  0.28926748403E+02  0.00000000000E+00 0. -1.
</event>
<event>
 7    1  0.1465498E-013  0.7246155E+02  0.7816164E-02  0.1226708E+00
        -11   -1    0    0    0    0  0.00000000000E+00  0.00000000000E+00  0.45593999997E+02  0.45594000000E+02  0.51100000000E-03 0. -1.
         11   -1    0    0    0    0 -0.00000000000E+00 -0.00000000000E+00 -0.45593999997E+02  0.45594000000E+02  0.51100000000E-03 0.  1.
    9900012    2    1    2    0    0  0.14992694860E+01 -0.15927408200E+02 -0.97339470739E+01  0.72461551682E+02  0.69999975755E+02 0.  0.
         12    1    1    2    0    0 -0.14992694860E+01  0.15927408200E+02  0.97339470739E+01  0.18726448318E+02  0.00000000000E+00 0. -1.
         11    1    3    3    0    0  0.42571459873E+01 -0.17095334611E+01  0.10827022545E+02  0.11758835574E+02  0.51100000000E-03 0. -1.
        -11    1    3    3    0    0  0.27221331947E+00 -0.28381599784E+02 -0.31611923752E+02  0.42484150338E+02  0.51100000000E-03 0.  1.
         12    1    3    3    0    0 -0.30300898207E+01  0.14163725045E+02  0.11050954133E+02  0.18218565770E+02  0.00000000000E+00 0. -1.
</event>
<event>
 7    1  0.1465498E-013  0.7246158E+02  0.7816164E-02  0.1226708E+00
        -11   -1    0    0    0    0  0.00000000000E+00  0.00000000000E+00  0.45593999997E+02  0.45594000000E+02  0.51100000000E-03 0.  1.
         11   -1    0    0    0    0 -0.00000000000E+00 -0.00000000000E+00 -0.45593999997E+02  0.45594000000E+02  0.51100000000E-03 0. -1.
    9900012    2    1    2    0    0  0.15471831842E+02 -0.10004448061E+02 -0.33484695172E+01  0.72461579903E+02  0.70000012517E+02 0.  0.
         12    1    1    2    0    0 -0.15471831842E+02  0.10004448061E+02  0.33484695172E+01  0.18726420097E+02  0.00000000000E+00 0. -1.
         11    1    3    3    0    0  0.65379265440E+01  0.13624928858E+01  0.15554702054E+01  0.68571392125E+01  0.51100000000E-03 0. -1.
        -11    1    3    3    0    0  0.34262472823E+02  0.26193055437E+01  0.56148062942E+01  0.34818154108E+02  0.51100000000E-03 0.  1.
         12    1    3    3    0    0 -0.25328567525E+02 -0.13986246490E+02 -0.10518746017E+02  0.30786286583E+02  0.00000000000E+00 0. -1.
</event>
<event>
 7    1  0.1465498E-013  0.7246178E+02  0.7816164E-02  0.1226707E+00
        -11   -1    0    0    0    0  0.00000000000E+00  0.00000000000E+00  0.45593999997E+02  0.45594000000E+02  0.51100000000E-03 0.  1.
         11   -1    0    0    0    0 -0.00000000000E+00 -0.00000000000E+00 -0.45593999997E+02  0.45594000000E+02  0.51100000000E-03 0. -1.
    9900012    2    1    2    0    0 -0.13279008595E+02 -0.12886173299E+02  0.28784734213E+01  0.72461784664E+02  0.70000279256E+02 0.  0.
         12    1    1    2    0    0  0.13279008595E+02  0.12886173299E+02 -0.28784734213E+01  0.18726215336E+02  0.00000000000E+00 0. -1.
         11    1    3    3    0    0  0.66999851426E+00  0.12800090916E+00  0.73823079291E+00  0.10051204936E+01  0.51100000000E-03 0. -1.
        -11    1    3    3    0    0  0.23631100349E+02 -0.14650210900E+02  0.15139036379E+02  0.31658300742E+02  0.51100000000E-03 0.  1.
         12    1    3    3    0    0 -0.37580107458E+02  0.16360366914E+01 -0.12998793750E+02  0.39798363429E+02  0.00000000000E+00 0. -1.
</event>
<event>
 7    1  0.1465498E-013  0.7246158E+02  0.7816164E-02  0.1226708E+00
        -11   -1    0    0    0    0  0.00000000000E+00  0.00000000000E+00  0.45593999997E+02  0.45594000000E+02  0.51100000000E-03 0.  1.
         11   -1    0    0    0    0 -0.00000000000E+00 -0.00000000000E+00 -0.45593999997E+02  0.45594000000E+02  0.51100000000E-03 0. -1.
    9900012    2    1    2    0    0  0.11529786948E+01 -0.17951643472E+02  0.52045924632E+01  0.72461584275E+02  0.70000018212E+02 0.  0.
         12    1    1    2    0    0 -0.11529786948E+01  0.17951643472E+02 -0.52045924632E+01  0.18726415725E+02  0.00000000000E+00 0. -1.
         11    1    3    3    0    0 -0.20901581940E+02  0.55166159243E+01  0.13388027710E+02  0.25427317300E+02  0.51100000000E-03 0.  1.
        -11    1    3    3    0    0  0.98148799465E-01 -0.23084188068E+02 -0.96618151506E+01  0.25024788594E+02  0.51100000000E-03 0. -1.
        -12    1    3    3    0    0  0.21956411835E+02 -0.38407132823E+00  0.14783799037E+01  0.22009478381E+02  0.00000000000E+00 0.  1.
</event>
<event>
 7    1  0.1465498E-013  0.7246167E+02  0.7816164E-02  0.1226708E+00
        -11   -1    0    0    0    0  0.00000000000E+00  0.00000000000E+00  0.45593999997E+02  0.45594000000E+02  0.51100000000E-03 0. -1.
         11   -1    0    0    0    0 -0.00000000000E+00 -0.00000000000E+00 -0.45593999997E+02  0.45594000000E+02  0.51100000000E-03 0.  1.
    9900012    2    1    2    0    0 -0.13770071217E+02 -0.91063933585E+01  0.88393603313E+01  0.72461666873E+02  0.70000125812E+02 0.  0.
         12    1    1    2    0    0  0.13770071217E+02  0.91063933585E+01 -0.88393603313E+01  0.18726333127E+02  0.00000000000E+00 0. -1.
         11    1    3    3    0    0 -0.91711509309E+01 -0.20089365305E+02  0.17795897500E+02  0.28361709678E+02  0.51100000000E-03 0. -1.
        -11    1    3    3    0    0 -0.19688289119E+02 -0.20361191990E+00 -0.14571581376E+02  0.24494921316E+02  0.51100000000E-03 0.  1.
         12    1    3    3    0    0  0.15089368833E+02  0.11186583866E+02  0.56150442073E+01  0.19605035879E+02  0.00000000000E+00 0. -1.
</event>
<event>
 7    1  0.1465498E-013  0.7246155E+02  0.7816164E-02  0.1226708E+00
        -11   -1    0    0    0    0  0.00000000000E+00  0.00000000000E+00  0.45593999997E+02  0.45594000000E+02  0.51100000000E-03 0. -1.
         11   -1    0    0    0    0 -0.00000000000E+00 -0.00000000000E+00 -0.45593999997E+02  0.45594000000E+02  0.51100000000E-03 0.  1.
    9900012    2    1    2    0    0  0.85731653437E+01  0.34410329993E+01 -0.16289266734E+02  0.72461545909E+02  0.69999968233E+02 0.  0.
         12    1    1    2    0    0 -0.85731653437E+01 -0.34410329993E+01  0.16289266734E+02  0.18726454091E+02  0.00000000000E+00 0. -1.
         11    1    3    3    0    0  0.47775322191E+01 -0.14486401607E+02 -0.13140388472E+02  0.20133317041E+02  0.51100000000E-03 0. -1.
        -11    1    3    3    0    0 -0.17055237938E+02  0.43061658574E+00  0.12298095586E+02  0.21031160859E+02  0.51100000000E-03 0.  1.
         12    1    3    3    0    0  0.20850871063E+02  0.17496818021E+02 -0.15446973847E+02  0.31297068009E+02  0.00000000000E+00 0. -1.
</event>
<event>
 7    1  0.1465498E-013  0.7246150E+02  0.7816164E-02  0.1226708E+00
        -11   -1    0    0    0    0  0.00000000000E+00  0.00000000000E+00  0.45593999997E+02  0.45594000000E+02  0.51100000000E-03 0.  1.
         11   -1    0    0    0    0 -0.00000000000E+00 -0.00000000000E+00 -0.45593999997E+02  0.45594000000E+02  0.51100000000E-03 0. -1.
    9900012    2    1    2    0    0  0.34834900920E-01  0.12757744799E+02  0.13708408766E+02  0.72461501750E+02  0.69999910708E+02 0.  0.
         12    1    1    2    0    0 -0.34834900920E-01 -0.12757744799E+02 -0.13708408766E+02  0.18726498250E+02  0.00000000000E+00 0. -1.
         11    1    3    3    0    0  0.48697995068E+01 -0.29363918099E+00 -0.89622365575E+01  0.10204060740E+02  0.51100000000E-03 0. -1.
        -11    1    3    3    0    0 -0.15062293396E+02 -0.18731833803E+02  0.13777712714E+02  0.27705227807E+02  0.51100000000E-03 0.  1.
        -12    1    3    3    0    0  0.10227328790E+02  0.31783217783E+02  0.88929326094E+01  0.34552213203E+02  0.00000000000E+00 0.  1.
</event>
<event>
 7    1  0.1465498E-013  0.7246157E+02  0.7816164E-02  0.1226708E+00
        -11   -1    0    0    0    0  0.00000000000E+00  0.00000000000E+00  0.45593999997E+02  0.45594000000E+02  0.51100000000E-03 0. -1.
         11   -1    0    0    0    0 -0.00000000000E+00 -0.00000000000E+00 -0.45593999997E+02  0.45594000000E+02  0.51100000000E-03 0.  1.
    9900012    2    1    2    0    0 -0.18509678145E+02  0.27904192868E+01 -0.53326570900E+00  0.72461574897E+02  0.70000005995E+02 0.  0.
         12    1    1    2    0    0  0.18509678145E+02 -0.27904192868E+01  0.53326570900E+00  0.18726425103E+02  0.00000000000E+00 0. -1.
         11    1    3    3    0    0  0.82866902882E+01  0.67957622004E+01  0.56006600114E+01  0.12092105385E+02  0.51100000000E-03 0. -1.
        -11    1    3    3    0    0 -0.23572589422E+02  0.22947861747E+02 -0.40055026800E+01  0.33140841613E+02  0.51100000000E-03 0.  1.
         12    1    3    3    0    0 -0.32237790119E+01 -0.26953204661E+02 -0.21284230404E+01  0.27228627899E+02  0.00000000000E+00 0. -1.
</event>
<event>
 7    1  0.1465498E-013  0.7246158E+02  0.7816164E-02  0.1226708E+00
        -11   -1    0    0    0    0  0.00000000000E+00  0.00000000000E+00  0.45593999997E+02  0.45594000000E+02  0.51100000000E-03 0. -1.
         11   -1    0    0    0    0 -0.00000000000E+00 -0.00000000000E+00 -0.45593999997E+02  0.45594000000E+02  0.51100000000E-03 0.  1.
    9900012    2    1    2    0    0 -0.15790766970E+02  0.89078141614E+01  0.46884054351E+01  0.72461584962E+02  0.70000019108E+02 0.  0.
         12    1    1    2    0    0  0.15790766970E+02 -0.89078141614E+01 -0.46884054351E+01  0.18726415038E+02  0.00000000000E+00 0. -1.
         11    1    3    3    0    0  0.26440976137E+02  0.36499379488E+01  0.80128265982E+01  0.27868488593E+02  0.51100000000E-03 0. -1.
        -11    1    3    3    0    0 -0.26596700738E+01  0.13029946710E+01  0.31236822273E+01  0.43045360879E+01  0.51100000000E-03 0.  1.
        -12    1    3    3    0    0 -0.39572073034E+02  0.39548815417E+01 -0.64481033904E+01  0.40288560281E+02  0.00000000000E+00 0.  1.
</event>
<event>
 7    1  0.1465498E-013  0.7246156E+02  0.7816164E-02  0.1226708E+00
        -11   -1    0    0    0    0  0.00000000000E+00  0.00000000000E+00  0.45593999997E+02  0.45594000000E+02  0.51100000000E-03 0. -1.
         11   -1    0    0    0    0 -0.00000000000E+00 -0.00000000000E+00 -0.45593999997E+02  0.45594000000E+02  0.51100000000E-03 0.  1.
    9900012    2    1    2    0    0  0.57650806693E+01  0.57520120022E+01 -0.16862906890E+02  0.72461563447E+02  0.69999991080E+02 0.  0.
         12    1    1    2    0    0 -0.57650806693E+01 -0.57520120022E+01  0.16862906890E+02  0.18726436553E+02  0.00000000000E+00 0. -1.
         11    1    3    3    0    0 -0.36787217946E+01 -0.16015310381E+02  0.84999363463E+01  0.18500596715E+02  0.51100000000E-03 0. -1.
        -11    1    3    3    0    0 -0.10553700896E+02  0.17667037786E+02  0.10179896547E+01  0.20604395889E+02  0.51100000000E-03 0.  1.
         12    1    3    3    0    0  0.19997503360E+02  0.41002845978E+01 -0.26380832891E+02  0.33356570844E+02  0.00000000000E+00 0. -1.
</event>
<event>
 7    1  0.1465498E-013  0.7246155E+02  0.7816164E-02  0.1226708E+00
        -11   -1    0    0    0    0  0.00000000000E+00  0.00000000000E+00  0.45593999997E+02  0.45594000000E+02  0.51100000000E-03 0. -1.
         11   -1    0    0    0    0 -0.00000000000E+00 -0.00000000000E+00 -0.45593999997E+02  0.45594000000E+02  0.51100000000E-03 0.  1.
    9900012    2    1    2    0    0  0.16346709303E+02  0.75384671219E+01 -0.51610721944E+01  0.72461546578E+02  0.69999969105E+02 0.  0.
         12    1    1    2    0    0 -0.16346709303E+02 -0.75384671219E+01  0.51610721944E+01  0.18726453422E+02  0.00000000000E+00 0. -1.
         11    1    3    3    0    0  0.81538687925E+01  0.10564870685E+02 -0.28703226353E+01  0.13650671088E+02  0.51100000000E-03 0. -1.
        -11    1    3    3    0    0  0.27846174600E+02 -0.41749489026E+01 -0.18176069725E+02  0.33514312600E+02  0.51100000000E-03 0.  1.
         12    1    3    3    0    0 -0.19653334090E+02  0.11485453395E+01  0.15885320166E+02  0.25296562889E+02  0.00000000000E+00 0. -1.
</event>
<event>
 7    1  0.1465498E-013  0.7246156E+02  0.7816164E-02  0.1226708E+00
        -11   -1    0    0    0    0  0.00000000000E+00  0.00000000000E+00  0.45593999997E+02  0.45594000000E+02  0.51100000000E-03 0. -1.
         11   -1    0    0    0    0 -0.00000000000E+00 -0.00000000000E+00 -0.45593999997E+02  0.45594000000E+02  0.51100000000E-03 0.  1.
    9900012    2    1    2    0    0  0.11834661090E+02 -0.63890892743E+01 -0.13030728104E+02  0.72461560408E+02  0.69999987122E+02 0.  0.
         12    1    1    2    0    0 -0.11834661090E+02  0.63890892743E+01  0.13030728104E+02  0.18726439592E+02  0.00000000000E+00 0. -1.
         11    1    3    3    0    0 -0.41506747082E+01  0.44771798692E+00  0.17137417121E+02  0.17638583214E+02  0.51100000000E-03 0. -1.
        -11    1    3    3    0    0 -0.10566828527E+02 -0.12412699100E+02 -0.20110290591E+02  0.25887385962E+02  0.51100000000E-03 0.  1.
        -12    1    3    3    0    0  0.26552164325E+02  0.55758918383E+01 -0.10057854635E+02  0.28935591233E+02  0.00000000000E+00 0.  1.
</event>
<event>
 7    1  0.1465498E-013  0.7246157E+02  0.7816164E-02  0.1226708E+00
        -11   -1    0    0    0    0  0.00000000000E+00  0.00000000000E+00  0.45593999997E+02  0.45594000000E+02  0.51100000000E-03 0. -1.
         11   -1    0    0    0    0 -0.00000000000E+00 -0.00000000000E+00 -0.45593999997E+02  0.45594000000E+02  0.51100000000E-03 0.  1.
    9900012    2    1    2    0    0 -0.17288536606E+02 -0.67940297636E+01  0.23720715407E+01  0.72461573170E+02  0.70000003747E+02 0.  0.
         12    1    1    2    0    0  0.17288536606E+02  0.67940297636E+01 -0.23720715407E+01  0.18726426830E+02  0.00000000000E+00 0. -1.
         11    1    3    3    0    0 -0.68845630526E+01  0.67456104406E+01  0.62818672734E+01  0.11504882674E+02  0.51100000000E-03 0. -1.
        -11    1    3    3    0    0 -0.16861582340E+02  0.18480956584E+02 -0.11323755391E+02  0.27460629120E+02  0.51100000000E-03 0.  1.
         12    1    3    3    0    0  0.64576087859E+01 -0.32020596788E+02  0.74139596578E+01  0.33496061376E+02  0.00000000000E+00 0. -1.
</event>
<event>
 7    1  0.1465498E-013  0.7246159E+02  0.7816164E-02  0.1226708E+00
        -11   -1    0    0    0    0  0.00000000000E+00  0.00000000000E+00  0.45593999997E+02  0.45594000000E+02  0.51100000000E-03 0.  1.
         11   -1    0    0    0    0 -0.00000000000E+00 -0.00000000000E+00 -0.45593999997E+02  0.45594000000E+02  0.51100000000E-03 0. -1.
    9900012    2    1    2    0    0  0.14668044698E+02  0.97606032126E+01 -0.63448912212E+01  0.72461586704E+02  0.70000021376E+02 0.  0.
         12    1    1    2    0    0 -0.14668044698E+02 -0.97606032126E+01  0.63448912212E+01  0.18726413296E+02  0.00000000000E+00 0. -1.
         11    1    3    3    0    0  0.15390112186E+01  0.20550030670E+01  0.76667701384E+01  0.80852308410E+01  0.51100000000E-03 0. -1.
        -11    1    3    3    0    0 -0.11909351052E+02  0.14562707968E+02  0.15998831683E+02  0.24695500022E+02  0.51100000000E-03 0.  1.
         12    1    3    3    0    0  0.25038384531E+02 -0.68571078228E+01 -0.30010493042E+02  0.39680855841E+02  0.00000000000E+00 0. -1.
</event>
<event>
 7    1  0.1465498E-013  0.7246160E+02  0.7816164E-02  0.1226708E+00
        -11   -1    0    0    0    0  0.00000000000E+00  0.00000000000E+00  0.45593999997E+02  0.45594000000E+02  0.51100000000E-03 0.  1.
         11   -1    0    0    0    0 -0.00000000000E+00 -0.00000000000E+00 -0.45593999997E+02  0.45594000000E+02  0.51100000000E-03 0. -1.
    9900012    2    1    2    0    0 -0.26931389118E+01  0.85598515169E+01  0.16436361044E+02  0.72461600999E+02  0.70000039998E+02 0.  0.
         12    1    1    2    0    0  0.26931389118E+01 -0.85598515169E+01 -0.16436361044E+02  0.18726399001E+02  0.00000000000E+00 0. -1.
         11    1    3    3    0    0  0.28993461617E+01  0.52445526457E+01  0.45059325692E+01  0.74976642495E+01  0.51100000000E-03 0. -1.
        -11    1    3    3    0    0  0.17984676540E+02  0.25649532477E+02  0.72229684622E+01  0.32148380678E+02  0.51100000000E-03 0.  1.
         12    1    3    3    0    0 -0.23577161614E+02 -0.22334233606E+02  0.47074600124E+01  0.32815556071E+02  0.00000000000E+00 0. -1.
</event>
<event>
 7    1  0.1465498E-013  0.7246158E+02  0.7816164E-02  0.1226708E+00
        -11   -1    0    0    0    0  0.00000000000E+00  0.00000000000E+00  0.45593999997E+02  0.45594000000E+02  0.51100000000E-03 0.  1.
         11   -1    0    0    0    0 -0.00000000000E+00 -0.00000000000E+00 -0.45593999997E+02  0.45594000000E+02  0.51100000000E-03 0. -1.
    9900012    2    1    2    0    0  0.18260130415E+02 -0.40948851044E+01 -0.69160678027E+00  0.72461581049E+02  0.70000014009E+02 0.  0.
         12    1    1    2    0    0 -0.18260130415E+02  0.40948851044E+01  0.69160678027E+00  0.18726418951E+02  0.00000000000E+00 0. -1.
         11    1    3    3    0    0 -0.24421150522E+02 -0.10792779174E+02 -0.10200215088E+01  0.26719227520E+02  0.51100000000E-03 0. -1.
        -11    1    3    3    0    0  0.63942910563E+00 -0.13109171447E+01  0.24945827568E+01  0.28896914598E+01  0.51100000000E-03 0.  1.
        -12    1    3    3    0    0  0.42041851832E+02  0.80088112140E+01 -0.21661680283E+01  0.42852662069E+02  0.00000000000E+00 0.  1.
</event>
<event>
 7    1  0.1465498E-013  0.7246158E+02  0.7816164E-02  0.1226708E+00
        -11   -1    0    0    0    0  0.00000000000E+00  0.00000000000E+00  0.45593999997E+02  0.45594000000E+02  0.51100000000E-03 0.  1.
         11   -1    0    0    0    0 -0.00000000000E+00 -0.00000000000E+00 -0.45593999997E+02  0.45594000000E+02  0.51100000000E-03 0. -1.
    9900012    2    1    2    0    0  0.59702003684E+01  0.12931995696E+02  0.12157255636E+02  0.72461583639E+02  0.70000017384E+02 0.  0.
         12    1    1    2    0    0 -0.59702003684E+01 -0.12931995696E+02 -0.12157255636E+02  0.18726416361E+02  0.00000000000E+00 0. -1.
         11    1    3    3    0    0 -0.52036763486E+01  0.20354415367E+02 -0.11860682002E+02  0.24125841960E+02  0.51100000000E-03 0. -1.
        -11    1    3    3    0    0  0.20655325912E+02  0.31451749573E+01  0.26683404322E+02  0.33890097086E+02  0.51100000000E-03 0.  1.
         12    1    3    3    0    0 -0.94814491950E+01 -0.10567594628E+02 -0.26654666839E+01  0.14445644593E+02  0.00000000000E+00 0. -1.
</event>
<event>
 7    1  0.1465498E-013  0.7246137E+02  0.7816164E-02  0.1226709E+00
        -11   -1    0    0    0    0  0.00000000000E+00  0.00000000000E+00  0.45593999997E+02  0.45594000000E+02  0.51100000000E-03 0. -1.
         11   -1    0    0    0    0 -0.00000000000E+00 -0.00000000000E+00 -0.45593999997E+02  0.45594000000E+02  0.51100000000E-03 0.  1.
    9900012    2    1    2    0    0 -0.18345057320E+02 -0.23854323475E-02 -0.37610546154E+01  0.72461370149E+02  0.69999739273E+02 0.  0.
         12    1    1    2    0    0  0.18345057320E+02  0.23854323475E-02  0.37610546154E+01  0.18726629851E+02  0.00000000000E+00 0. -1.
         11    1    3    3    0    0  0.61792325831E+01 -0.83265004250E+00  0.14875650712E+02  0.16129513500E+02  0.51100000000E-03 0. -1.
        -11    1    3    3    0    0 -0.28311693760E+02  0.18217689885E+02 -0.18751369989E+02  0.38536347843E+02  0.51100000000E-03 0.  1.
         12    1    3    3    0    0  0.37874038575E+01 -0.17387425275E+02  0.11466466230E+00  0.17795508806E+02  0.00000000000E+00 0. -1.
</event>
<event>
 7    1  0.1465498E-013  0.7246154E+02  0.7816164E-02  0.1226708E+00
        -11   -1    0    0    0    0  0.00000000000E+00  0.00000000000E+00  0.45593999997E+02  0.45594000000E+02  0.51100000000E-03 0. -1.
         11   -1    0    0    0    0 -0.00000000000E+00 -0.00000000000E+00 -0.45593999997E+02  0.45594000000E+02  0.51100000000E-03 0.  1.
    9900012    2    1    2    0    0 -0.17860947473E+02  0.49517221732E+01  0.26734421624E+01  0.72461540374E+02  0.69999961024E+02 0.  0.
         12    1    1    2    0    0  0.17860947473E+02 -0.49517221732E+01 -0.26734421624E+01  0.18726459626E+02  0.00000000000E+00 0. -1.
         11    1    3    3    0    0 -0.26902996983E+02  0.10780014891E+02  0.20108473310E+02  0.35275071464E+02  0.51100000000E-03 0. -1.
        -11    1    3    3    0    0 -0.10525768609E+02 -0.47812330099E+01 -0.98742355855E+00  0.11602887548E+02  0.51100000000E-03 0.  1.
         12    1    3    3    0    0  0.19567818118E+02 -0.10470597080E+01 -0.16447607589E+02  0.25583581363E+02  0.00000000000E+00 0. -1.
</event>
<event>
 7    1  0.1465498E-013  0.7246161E+02  0.7816164E-02  0.1226708E+00
        -11   -1    0    0    0    0  0.00000000000E+00  0.00000000000E+00  0.45593999997E+02  0.45594000000E+02  0.51100000000E-03 0.  1.
         11   -1    0    0    0    0 -0.00000000000E+00 -0.00000000000E+00 -0.45593999997E+02  0.45594000000E+02  0.51100000000E-03 0. -1.
    9900012    2    1    2    0    0 -0.13276466634E+01 -0.87260075810E+01  0.16515805934E+02  0.72461609541E+02  0.70000051127E+02 0.  0.
         12    1    1    2    0    0  0.13276466634E+01  0.87260075810E+01 -0.16515805934E+02  0.18726390459E+02  0.00000000000E+00 0. -1.
         11    1    3    3    0    0 -0.90880506928E+00 -0.32253305085E+02  0.22440720865E+02  0.39302513517E+02  0.51100000000E-03 0. -1.
        -11    1    3    3    0    0 -0.10101457762E+01 -0.44706071584E+01 -0.13952627217E+01  0.47909791460E+01  0.51100000000E-03 0.  1.
        -12    1    3    3    0    0  0.59130418211E+00  0.27997904662E+02 -0.45296522093E+01  0.28368116879E+02  0.00000000000E+00 0.  1.
</event>
<event>
 7    1  0.1465498E-013  0.7246159E+02  0.7816164E-02  0.1226708E+00
        -11   -1    0    0    0    0  0.00000000000E+00  0.00000000000E+00  0.45593999997E+02  0.45594000000E+02  0.51100000000E-03 0.  1.
         11   -1    0    0    0    0 -0.00000000000E+00 -0.00000000000E+00 -0.45593999997E+02  0.45594000000E+02  0.51100000000E-03 0. -1.
    9900012    2    1    2    0    0  0.90044018832E+01  0.13146316228E+02  0.98373490856E+01  0.72461592959E+02  0.70000029525E+02 0.  0.
         12    1    1    2    0    0 -0.90044018832E+01 -0.13146316228E+02 -0.98373490856E+01  0.18726407041E+02  0.00000000000E+00 0. -1.
         11    1    3    3    0    0 -0.67667160084E+01  0.14815436407E+02 -0.21923495402E+02  0.27311632181E+02  0.51100000000E-03 0. -1.
        -11    1    3    3    0    0 -0.48142255667E+00  0.10090018000E+02  0.18574674128E+02  0.21143763860E+02  0.51100000000E-03 0.  1.
        -12    1    3    3    0    0  0.16252540448E+02 -0.11759138180E+02  0.13186170359E+02  0.24006196919E+02  0.00000000000E+00 0.  1.
</event>
<event>
 7    1  0.1465498E-013  0.7246155E+02  0.7816164E-02  0.1226708E+00
        -11   -1    0    0    0    0  0.00000000000E+00  0.00000000000E+00  0.45593999997E+02  0.45594000000E+02  0.51100000000E-03 0.  1.
         11   -1    0    0    0    0 -0.00000000000E+00 -0.00000000000E+00 -0.45593999997E+02  0.45594000000E+02  0.51100000000E-03 0. -1.
    9900012    2    1    2    0    0 -0.38609290982E+01  0.89547579390E+01  0.15987039315E+02  0.72461551076E+02  0.69999974964E+02 0.  0.
         12    1    1    2    0    0  0.38609290982E+01 -0.89547579390E+01 -0.15987039315E+02  0.18726448924E+02  0.00000000000E+00 0. -1.
         11    1    3    3    0    0 -0.22458077126E+02  0.75322931737E+01  0.39591788174E+01  0.24016156350E+02  0.51100000000E-03 0. -1.
        -11    1    3    3    0    0 -0.10877282821E+02 -0.89659925884E+01  0.96918525259E+01  0.17106615980E+02  0.51100000000E-03 0.  1.
        -12    1    3    3    0    0  0.29474430848E+02  0.10388457354E+02  0.23360079720E+01  0.31338778746E+02  0.00000000000E+00 0.  1.
</event>
<event>
 7    1  0.1465498E-013  0.7246157E+02  0.7816164E-02  0.1226708E+00
        -11   -1    0    0    0    0  0.00000000000E+00  0.00000000000E+00  0.45593999997E+02  0.45594000000E+02  0.51100000000E-03 0. -1.
         11   -1    0    0    0    0 -0.00000000000E+00 -0.00000000000E+00 -0.45593999997E+02  0.45594000000E+02  0.51100000000E-03 0.  1.
    9900012    2    1    2    0    0  0.17188852350E+02 -0.21223620716E+01 -0.71216753167E+01  0.72461566138E+02  0.69999994585E+02 0.  0.
         12    1    1    2    0    0 -0.17188852350E+02  0.21223620716E+01  0.71216753167E+01  0.18726433862E+02  0.00000000000E+00 0. -1.
         11    1    3    3    0    0 -0.61982267460E+01 -0.20451889049E+02  0.16084718997E+02  0.26747260905E+02  0.51100000000E-03 0. -1.
        -11    1    3    3    0    0 -0.57219553712E+01  0.24354541001E+01 -0.35079945856E+01  0.71399044964E+01  0.51100000000E-03 0.  1.
         12    1    3    3    0    0  0.29109034468E+02  0.15894072877E+02 -0.19698399728E+02  0.38574400736E+02  0.00000000000E+00 0. -1.
</event>
<event>
 7    1  0.1465498E-013  0.7246156E+02  0.7816164E-02  0.1226708E+00
        -11   -1    0    0    0    0  0.00000000000E+00  0.00000000000E+00  0.45593999997E+02  0.45594000000E+02  0.51100000000E-03 0. -1.
         11   -1    0    0    0    0 -0.00000000000E+00 -0.00000000000E+00 -0.45593999997E+02  0.45594000000E+02  0.51100000000E-03 0.  1.
    9900012    2    1    2    0    0 -0.23751384585E+00  0.96865218625E+01 -0.16024804042E+02  0.72461562453E+02  0.69999989785E+02 0.  0.
         12    1    1    2    0    0  0.23751384585E+00 -0.96865218625E+01  0.16024804042E+02  0.18726437547E+02  0.00000000000E+00 0. -1.
         11    1    3    3    0    0  0.19211528284E+02  0.22689498560E+02  0.23925547462E+01  0.29826506373E+02  0.51100000000E-03 0. -1.
        -11    1    3    3    0    0 -0.87934891032E+01 -0.23572398638E+01 -0.24692926964E+02  0.26317725447E+02  0.51100000000E-03 0.  1.
        -12    1    3    3    0    0 -0.10655553027E+02 -0.10645736834E+02  0.62755681759E+01  0.16317330633E+02  0.00000000000E+00 0.  1.
</event>
<event>
 7    1  0.1465498E-013  0.7246156E+02  0.7816164E-02  0.1226708E+00
        -11   -1    0    0    0    0  0.00000000000E+00  0.00000000000E+00  0.45593999997E+02  0.45594000000E+02  0.51100000000E-03 0. -1.
         11   -1    0    0    0    0 -0.00000000000E+00 -0.00000000000E+00 -0.45593999997E+02  0.45594000000E+02  0.51100000000E-03 0.  1.
    9900012    2    1    2    0    0 -0.16315720331E+02 -0.17717400500E+00  0.91894294578E+01  0.72461555214E+02  0.69999980355E+02 0.  0.
         12    1    1    2    0    0  0.16315720331E+02  0.17717400500E+00 -0.91894294578E+01  0.18726444786E+02  0.00000000000E+00 0. -1.
         11    1    3    3    0    0 -0.26020868719E+02 -0.12012845781E+01  0.18277040059E+02  0.31821044720E+02  0.51100000000E-03 0. -1.
        -11    1    3    3    0    0  0.48584213666E+01 -0.17041433424E+02  0.35426392462E+01  0.18071109662E+02  0.51100000000E-03 0.  1.
        -12    1    3    3    0    0  0.48467270208E+01  0.18065543997E+02 -0.12630249847E+02  0.22569400832E+02  0.00000000000E+00 0.  1.
</event>
<event>
 7    1  0.1465498E-013  0.7246157E+02  0.7816164E-02  0.1226708E+00
        -11   -1    0    0    0    0  0.00000000000E+00  0.00000000000E+00  0.45593999997E+02  0.45594000000E+02  0.51100000000E-03 0. -1.
         11   -1    0    0    0    0 -0.00000000000E+00 -0.00000000000E+00 -0.45593999997E+02  0.45594000000E+02  0.51100000000E-03 0.  1.
    9900012    2    1    2    0    0 -0.11222718510E+02  0.10126573278E+02 -0.11053601716E+02  0.72461574606E+02  0.70000005617E+02 0.  0.
         12    1    1    2    0    0  0.11222718510E+02 -0.10126573278E+02  0.11053601716E+02  0.18726425394E+02  0.00000000000E+00 0. -1.
         11    1    3    3    0    0 -0.34912234880E+01 -0.29895403069E+01  0.60612026100E+01  0.76068502042E+01  0.51100000000E-03 0. -1.
        -11    1    3    3    0    0  0.13627675397E+02 -0.99867910682E+01  0.12987662272E+02  0.21310300423E+02  0.51100000000E-03 0.  1.
        -12    1    3    3    0    0 -0.21359170419E+02  0.23102904654E+02 -0.30102466598E+02  0.43544423979E+02  0.00000000000E+00 0.  1.
</event>
<event>
 7    1  0.1465498E-013  0.7246156E+02  0.7816164E-02  0.1226708E+00
        -11   -1    0    0    0    0  0.00000000000E+00  0.00000000000E+00  0.45593999997E+02  0.45594000000E+02  0.51100000000E-03 0.  1.
         11   -1    0    0    0    0 -0.00000000000E+00 -0.00000000000E+00 -0.45593999997E+02  0.45594000000E+02  0.51100000000E-03 0. -1.
    9900012    2    1    2    0    0 -0.16184705560E+02 -0.92445625884E+01  0.18090735913E+01  0.72461564707E+02  0.69999992721E+02 0.  0.
         12    1    1    2    0    0  0.16184705560E+02  0.92445625884E+01 -0.18090735913E+01  0.18726435293E+02  0.00000000000E+00 0. -1.
         11    1    3    3    0    0 -0.10698858326E+02 -0.25653036483E+00 -0.19048549493E+02  0.21848995751E+02  0.51100000000E-03 0. -1.
        -11    1    3    3    0    0  0.13627527099E+02  0.10129377459E+02  0.15630305850E+02  0.23078566761E+02  0.51100000000E-03 0.  1.
         12    1    3    3    0    0 -0.19113374334E+02 -0.19117409682E+02  0.52273172338E+01  0.27534002194E+02  0.00000000000E+00 0. -1.
</event>
<event>
 7    1  0.1465498E-013  0.7246156E+02  0.7816164E-02  0.1226708E+00
        -11   -1    0    0    0    0  0.00000000000E+00  0.00000000000E+00  0.45593999997E+02  0.45594000000E+02  0.51100000000E-03 0.  1.
         11   -1    0    0    0    0 -0.00000000000E+00 -0.00000000000E+00 -0.45593999997E+02  0.45594000000E+02  0.51100000000E-03 0. -1.
    9900012    2    1    2    0    0 -0.12500570524E+02 -0.12081893393E+02  0.69601084865E+01  0.72461560896E+02  0.69999987756E+02 0.  0.
         12    1    1    2    0    0  0.12500570524E+02  0.12081893393E+02 -0.69601084865E+01  0.18726439104E+02  0.00000000000E+00 0. -1.
         11    1    3    3    0    0 -0.31044598621E+02  0.43904580921E+01 -0.77440911293E+01  0.32295729957E+02  0.51100000000E-03 0. -1.
        -11    1    3    3    0    0 -0.43324751968E+01  0.44848740614E+01  0.36796194708E+01  0.72404444883E+01  0.51100000000E-03 0.  1.
        -12    1    3    3    0    0  0.22876503293E+02 -0.20957225546E+02  0.11024580145E+02  0.32925386450E+02  0.00000000000E+00 0.  1.
</event>
<event>
 7    1  0.1465498E-013  0.7246163E+02  0.7816164E-02  0.1226708E+00
        -11   -1    0    0    0    0  0.00000000000E+00  0.00000000000E+00  0.45593999997E+02  0.45594000000E+02  0.51100000000E-03 0.  1.
         11   -1    0    0    0    0 -0.00000000000E+00 -0.00000000000E+00 -0.45593999997E+02  0.45594000000E+02  0.51100000000E-03 0. -1.
    9900012    2    1    2    0    0  0.90291544863E+01 -0.11203174274E+01  0.16367538535E+02  0.72461626630E+02  0.70000073388E+02 0.  0.
         12    1    1    2    0    0 -0.90291544863E+01  0.11203174274E+01 -0.16367538535E+02  0.18726373370E+02  0.00000000000E+00 0. -1.
         11    1    3    3    0    0 -0.64715459589E+01 -0.22991035142E+02 -0.99209474666E+01  0.25862981323E+02  0.51100000000E-03 0. -1.
        -11    1    3    3    0    0 -0.42390151202E+01  0.56737587358E+00 -0.30988858679E+01  0.52815015341E+01  0.51100000000E-03 0.  1.
        -12    1    3    3    0    0  0.19739715565E+02  0.21303341841E+02  0.29387371870E+02  0.41317143774E+02  0.00000000000E+00 0.  1.
</event>
<event>
 7    1  0.1465498E-013  0.7246157E+02  0.7816164E-02  0.1226708E+00
        -11   -1    0    0    0    0  0.00000000000E+00  0.00000000000E+00  0.45593999997E+02  0.45594000000E+02  0.51100000000E-03 0. -1.
         11   -1    0    0    0    0 -0.00000000000E+00 -0.00000000000E+00 -0.45593999997E+02  0.45594000000E+02  0.51100000000E-03 0.  1.
    9900012    2    1    2    0    0 -0.26078415246E+01 -0.16181641605E+02 -0.90572016443E+01  0.72461567770E+02  0.69999996711E+02 0.  0.
         12    1    1    2    0    0  0.26078415246E+01  0.16181641605E+02  0.90572016443E+01  0.18726432230E+02  0.00000000000E+00 0. -1.
         11    1    3    3    0    0  0.13938085538E+00 -0.14690486811E+01  0.86849389198E+00  0.17122537639E+01  0.51100000000E-03 0. -1.
        -11    1    3    3    0    0 -0.16754691425E+02 -0.57775283241E+01 -0.35830628424E+02  0.39974159801E+02  0.51100000000E-03 0.  1.
         12    1    3    3    0    0  0.14007469045E+02 -0.89350645999E+01  0.25904932887E+02  0.30775154205E+02  0.00000000000E+00 0. -1.
</event>
<event>
 7    1  0.1465498E-013  0.7246173E+02  0.7816164E-02  0.1226708E+00
        -11   -1    0    0    0    0  0.00000000000E+00  0.00000000000E+00  0.45593999997E+02  0.45594000000E+02  0.51100000000E-03 0. -1.
         11   -1    0    0    0    0 -0.00000000000E+00 -0.00000000000E+00 -0.45593999997E+02  0.45594000000E+02  0.51100000000E-03 0.  1.
    9900012    2    1    2    0    0  0.16533587548E+02  0.80762634819E+01 -0.34767416788E+01  0.72461727500E+02  0.70000204789E+02 0.  0.
         12    1    1    2    0    0 -0.16533587548E+02 -0.80762634819E+01  0.34767416788E+01  0.18726272500E+02  0.00000000000E+00 0. -1.
         11    1    3    3    0    0  0.63012502321E+01  0.99078465835E+01  0.19270610471E+02  0.22566072024E+02  0.51100000000E-03 0. -1.
        -11    1    3    3    0    0 -0.14755431124E+02 -0.33132379317E+01  0.13076575735E+01  0.15179270794E+02  0.51100000000E-03 0.  1.
        -12    1    3    3    0    0  0.24987768440E+02  0.14816548302E+01 -0.24055009723E+02  0.34716384682E+02  0.00000000000E+00 0.  1.
</event>
<event>
 7    1  0.1465498E-013  0.7246190E+02  0.7816164E-02  0.1226707E+00
        -11   -1    0    0    0    0  0.00000000000E+00  0.00000000000E+00  0.45593999997E+02  0.45594000000E+02  0.51100000000E-03 0.  1.
         11   -1    0    0    0    0 -0.00000000000E+00 -0.00000000000E+00 -0.45593999997E+02  0.45594000000E+02  0.51100000000E-03 0. -1.
    9900012    2    1    2    0    0  0.60802936657E+00  0.19804015502E+01  0.18611157549E+02  0.72461898555E+02  0.70000427620E+02 0.  0.
         12    1    1    2    0    0 -0.60802936657E+00 -0.19804015502E+01 -0.18611157549E+02  0.18726101445E+02  0.00000000000E+00 0. -1.
         11    1    3    3    0    0  0.54645418260E+01  0.10408323028E+02  0.16204300361E+01  0.11866768700E+02  0.51100000000E-03 0. -1.
        -11    1    3    3    0    0  0.44006165082E+01  0.23847363115E+02  0.39231733372E+01  0.24565289383E+02  0.51100000000E-03 0.  1.
         12    1    3    3    0    0 -0.92571289676E+01 -0.32275284593E+02  0.13067554175E+02  0.36029840472E+02  0.00000000000E+00 0. -1.
</event>
<event>
 7    1  0.1472566E-013  0.7246156E+02  0.7816164E-02  0.1226708E+00
        -11   -1    0    0    0    0  0.00000000000E+00  0.00000000000E+00  0.45593999997E+02  0.45594000000E+02  0.51100000000E-03 0. -1.
         11   -1    0    0    0    0 -0.00000000000E+00 -0.00000000000E+00 -0.45593999997E+02  0.45594000000E+02  0.51100000000E-03 0.  1.
    9900012    2    1    2    0    0  0.70979045333E+01 -0.12031643275E+02 -0.12471526025E+02  0.72461557464E+02  0.69999983286E+02 0.  0.
         12    1    1    2    0    0 -0.70979045333E+01  0.12031643275E+02  0.12471526025E+02  0.18726442536E+02  0.00000000000E+00 0. -1.
         11    1    3    3    0    0  0.12609484121E+02  0.12459478044E+02  0.93440094968E+01  0.20038667537E+02  0.51100000000E-03 0. -1.
        -11    1    3    3    0    0  0.11283052721E+02 -0.15858337085E+02  0.45549493413E+01  0.19988539156E+02  0.51100000000E-03 0.  1.
        -12    1    3    3    0    0 -0.16794632308E+02 -0.86327842337E+01 -0.26370484863E+02  0.32434350771E+02  0.00000000000E+00 0.  1.
</event>
<event>
 7    1  0.1465498E-013  0.7246156E+02  0.7816164E-02  0.1226708E+00
        -11   -1    0    0    0    0  0.00000000000E+00  0.00000000000E+00  0.45593999997E+02  0.45594000000E+02  0.51100000000E-03 0.  1.
         11   -1    0    0    0    0 -0.00000000000E+00 -0.00000000000E+00 -0.45593999997E+02  0.45594000000E+02  0.51100000000E-03 0. -1.
    9900012    2    1    2    0    0 -0.11346445914E+02  0.13062073881E+02  0.71638000507E+01  0.72461557729E+02  0.69999983631E+02 0.  0.
         12    1    1    2    0    0  0.11346445914E+02 -0.13062073881E+02 -0.71638000507E+01  0.18726442271E+02  0.00000000000E+00 0. -1.
         11    1    3    3    0    0 -0.93065729594E+01  0.19144947184E+02 -0.26833524712E+02  0.34251705821E+02  0.51100000000E-03 0. -1.
        -11    1    3    3    0    0  0.28899468445E+01 -0.17072916808E+01 -0.21964854296E+00  0.33637603052E+01  0.51100000000E-03 0.  1.
        -12    1    3    3    0    0 -0.49298197994E+01 -0.43755816219E+01  0.34216973306E+02  0.34846091603E+02  0.00000000000E+00 0.  1.
</event>
<event>
 7    1  0.1465498E-013  0.7246151E+02  0.7816164E-02  0.1226708E+00
        -11   -1    0    0    0    0  0.00000000000E+00  0.00000000000E+00  0.45593999997E+02  0.45594000000E+02  0.51100000000E-03 0. -1.
         11   -1    0    0    0    0 -0.00000000000E+00 -0.00000000000E+00 -0.45593999997E+02  0.45594000000E+02  0.51100000000E-03 0.  1.
    9900012    2    1    2    0    0  0.10695714302E+01  0.14896941264E+02 -0.11296847156E+02  0.72461505460E+02  0.69999915542E+02 0.  0.
         12    1    1    2    0    0 -0.10695714302E+01 -0.14896941264E+02  0.11296847156E+02  0.18726494540E+02  0.00000000000E+00 0. -1.
         11    1    3    3    0    0 -0.23642824131E+02 -0.94245687977E+00 -0.10620061000E+02  0.25935632897E+02  0.51100000000E-03 0. -1.
        -11    1    3    3    0    0 -0.35946571899E+01  0.74613322569E+01 -0.12275543854E+02  0.14808173977E+02  0.51100000000E-03 0.  1.
        -12    1    3    3    0    0  0.28307052751E+02  0.83780658871E+01  0.11598757698E+02  0.31717698586E+02  0.00000000000E+00 0.  1.
</event>
<event>
 7    1  0.1465498E-013  0.7246155E+02  0.7816164E-02  0.1226708E+00
        -11   -1    0    0    0    0  0.00000000000E+00  0.00000000000E+00  0.45593999997E+02  0.45594000000E+02  0.51100000000E-03 0. -1.
         11   -1    0    0    0    0 -0.00000000000E+00 -0.00000000000E+00 -0.45593999997E+02  0.45594000000E+02  0.51100000000E-03 0.  1.
    9900012    2    1    2    0    0  0.16744808145E+02  0.63211803261E+01 -0.55076270991E+01  0.72461551410E+02  0.69999975400E+02 0.  0.
         12    1    1    2    0    0 -0.16744808145E+02 -0.63211803261E+01  0.55076270991E+01  0.18726448590E+02  0.00000000000E+00 0. -1.
         11    1    3    3    0    0  0.11734394761E+02  0.40174076875E+01 -0.25653473400E+02  0.28494495656E+02  0.51100000000E-03 0. -1.
        -11    1    3    3    0    0 -0.32329579765E+01  0.44266355711E+01 -0.10670789945E+02  0.11996369370E+02  0.51100000000E-03 0.  1.
         12    1    3    3    0    0  0.82433713602E+01 -0.21228629325E+01  0.30816636245E+02  0.31970686384E+02  0.00000000000E+00 0. -1.
</event>
<event>
 7    1  0.1465498E-013  0.7246157E+02  0.7816164E-02  0.1226708E+00
        -11   -1    0    0    0    0  0.00000000000E+00  0.00000000000E+00  0.45593999997E+02  0.45594000000E+02  0.51100000000E-03 0.  1.
         11   -1    0    0    0    0 -0.00000000000E+00 -0.00000000000E+00 -0.45593999997E+02  0.45594000000E+02  0.51100000000E-03 0. -1.
    9900012    2    1    2    0    0 -0.13297142309E+02 -0.71480988912E+01  0.11080149716E+02  0.72461574044E+02  0.70000004884E+02 0.  0.
         12    1    1    2    0    0  0.13297142309E+02  0.71480988912E+01 -0.11080149716E+02  0.18726425956E+02  0.00000000000E+00 0. -1.
         11    1    3    3    0    0  0.76335781413E+01 -0.30956869019E+02  0.52006752104E+01  0.32305514662E+02  0.51100000000E-03 0. -1.
        -11    1    3    3    0    0 -0.17507379814E+01  0.46122424209E+01 -0.82114098399E+01  0.95794110178E+01  0.51100000000E-03 0.  1.
        -12    1    3    3    0    0 -0.19179982469E+02  0.19196527707E+02  0.14090884346E+02  0.30576648364E+02  0.00000000000E+00 0.  1.
</event>
<event>
 7    1  0.1465498E-013  0.7246157E+02  0.7816164E-02  0.1226708E+00
        -11   -1    0    0    0    0  0.00000000000E+00  0.00000000000E+00  0.45593999997E+02  0.45594000000E+02  0.51100000000E-03 0. -1.
         11   -1    0    0    0    0 -0.00000000000E+00 -0.00000000000E+00 -0.45593999997E+02  0.45594000000E+02  0.51100000000E-03 0.  1.
    9900012    2    1    2    0    0  0.13348311037E+02 -0.85141220169E+01  0.10000576437E+02  0.72461569205E+02  0.69999998581E+02 0.  0.
         12    1    1    2    0    0 -0.13348311037E+02  0.85141220169E+01 -0.10000576437E+02  0.18726430795E+02  0.00000000000E+00 0. -1.
         11    1    3    3    0    0  0.99180666101E+01 -0.12699248721E+02  0.14199178306E+02  0.21476862624E+02  0.51100000000E-03 0. -1.
        -11    1    3    3    0    0  0.20992556765E+02  0.15593691931E+02 -0.11820917490E+02  0.28698166459E+02  0.51100000000E-03 0.  1.
         12    1    3    3    0    0 -0.17562312338E+02 -0.11408565226E+02  0.76223156208E+01  0.22286540122E+02  0.00000000000E+00 0. -1.
</event>
<event>
 7    1  0.1465498E-013  0.7246156E+02  0.7816164E-02  0.1226708E+00
        -11   -1    0    0    0    0  0.00000000000E+00  0.00000000000E+00  0.45593999997E+02  0.45594000000E+02  0.51100000000E-03 0.  1.
         11   -1    0    0    0    0 -0.00000000000E+00 -0.00000000000E+00 -0.45593999997E+02  0.45594000000E+02  0.51100000000E-03 0. -1.
    9900012    2    1    2    0    0  0.13529700869E+02  0.47794765157E+01  0.12032591960E+02  0.72461562255E+02  0.69999989527E+02 0.  0.
         12    1    1    2    0    0 -0.13529700869E+02 -0.47794765157E+01 -0.12032591960E+02  0.18726437745E+02  0.00000000000E+00 0. -1.
         11    1    3    3    0    0 -0.93773733605E+01 -0.10407548920E+02 -0.93176356273E+01  0.16824700283E+02  0.51100000000E-03 0. -1.
        -11    1    3    3    0    0  0.23325816538E+02 -0.94389894480E+01  0.39275238465E+01  0.25467895138E+02  0.51100000000E-03 0.  1.
        -12    1    3    3    0    0 -0.41874230839E+00  0.24626014884E+02  0.17422703740E+02  0.30168966833E+02  0.00000000000E+00 0.  1.
</event>
<event>
 7    1  0.1465498E-013  0.7246154E+02  0.7816164E-02  0.1226708E+00
        -11   -1    0    0    0    0  0.00000000000E+00  0.00000000000E+00  0.45593999997E+02  0.45594000000E+02  0.51100000000E-03 0.  1.
         11   -1    0    0    0    0 -0.00000000000E+00 -0.00000000000E+00 -0.45593999997E+02  0.45594000000E+02  0.51100000000E-03 0. -1.
    9900012    2    1    2    0    0  0.16853300476E+02  0.80416552199E+01  0.14065270940E+01  0.72461540802E+02  0.69999961581E+02 0.  0.
         12    1    1    2    0    0 -0.16853300476E+02 -0.80416552199E+01 -0.14065270940E+01  0.18726459198E+02  0.00000000000E+00 0. -1.
         11    1    3    3    0    0  0.21308456535E+02 -0.14891817555E+01  0.15768967909E+02  0.26550486462E+02  0.51100000000E-03 0. -1.
        -11    1    3    3    0    0 -0.49171371667E+01 -0.31144295804E+01  0.13832301599E+02  0.15007014271E+02  0.51100000000E-03 0.  1.
        -12    1    3    3    0    0  0.46198110792E+00  0.12645266556E+02 -0.28194742414E+02  0.30904040069E+02  0.00000000000E+00 0.  1.
</event>
<event>
 7    1  0.1465498E-013  0.7246144E+02  0.7816164E-02  0.1226708E+00
        -11   -1    0    0    0    0  0.00000000000E+00  0.00000000000E+00  0.45593999997E+02  0.45594000000E+02  0.51100000000E-03 0. -1.
         11   -1    0    0    0    0 -0.00000000000E+00 -0.00000000000E+00 -0.45593999997E+02  0.45594000000E+02  0.51100000000E-03 0.  1.
    9900012    2    1    2    0    0 -0.56241415803E+01 -0.13558501358E+02 -0.11628419504E+02  0.72461439511E+02  0.69999829630E+02 0.  0.
         12    1    1    2    0    0  0.56241415803E+01  0.13558501358E+02  0.11628419504E+02  0.18726560489E+02  0.00000000000E+00 0. -1.
         11    1    3    3    0    0  0.16555652252E+01 -0.81264309068E+01 -0.13228448418E+02  0.15613187480E+02  0.51100000000E-03 0. -1.
        -11    1    3    3    0    0  0.12267615086E+02  0.64503340179E+01 -0.20693496446E+02  0.24906263957E+02  0.51100000000E-03 0.  1.
         12    1    3    3    0    0 -0.19547321892E+02 -0.11882404469E+02  0.22293525360E+02  0.31941988074E+02  0.00000000000E+00 0. -1.
</event>
<event>
 7    1  0.1465498E-013  0.7246157E+02  0.7816164E-02  0.1226708E+00
        -11   -1    0    0    0    0  0.00000000000E+00  0.00000000000E+00  0.45593999997E+02  0.45594000000E+02  0.51100000000E-03 0. -1.
         11   -1    0    0    0    0 -0.00000000000E+00 -0.00000000000E+00 -0.45593999997E+02  0.45594000000E+02  0.51100000000E-03 0.  1.
    9900012    2    1    2    0    0  0.94052287634E+01  0.49704330740E+01 -0.15411541570E+02  0.72461570907E+02  0.70000000798E+02 0.  0.
         12    1    1    2    0    0 -0.94052287634E+01 -0.49704330740E+01  0.15411541570E+02  0.18726429093E+02  0.00000000000E+00 0. -1.
         11    1    3    3    0    0  0.13738744127E+02 -0.63390832999E+00 -0.10565101242E+02  0.17342903289E+02  0.51100000000E-03 0. -1.
        -11    1    3    3    0    0  0.68523375061E+01 -0.84295810637E+01 -0.25523739163E+02  0.27739387653E+02  0.51100000000E-03 0.  1.
         12    1    3    3    0    0 -0.11185852870E+02  0.14033922468E+02  0.20677298836E+02  0.27379279965E+02  0.00000000000E+00 0. -1.
</event>
<event>
 7    1  0.1465498E-013  0.7246220E+02  0.7816164E-02  0.1226706E+00
        -11   -1    0    0    0    0  0.00000000000E+00  0.00000000000E+00  0.45593999997E+02  0.45594000000E+02  0.51100000000E-03 0.  1.
         11   -1    0    0    0    0 -0.00000000000E+00 -0.00000000000E+00 -0.45593999997E+02  0.45594000000E+02  0.51100000000E-03 0. -1.
    9900012    2    1    2    0    0 -0.16287137763E+02  0.91395016357E+01 -0.13616576689E+01  0.72462203401E+02  0.70000824734E+02 0.  0.
         12    1    1    2    0    0  0.16287137763E+02 -0.91395016357E+01  0.13616576689E+01  0.18725796599E+02  0.00000000000E+00 0. -1.
         11    1    3    3    0    0  0.36899164553E+01 -0.16291293324E+02  0.37973705892E+01  0.17130141426E+02  0.51100000000E-03 0. -1.
        -11    1    3    3    0    0 -0.20732749466E+02 -0.62642685925E+01  0.46366425317E+01  0.22149185440E+02  0.51100000000E-03 0.  1.
        -12    1    3    3    0    0  0.75569524737E+00  0.31695063553E+02 -0.97956707898E+01  0.33182876535E+02  0.00000000000E+00 0.  1.
</event>
<event>
 7    1  0.1465498E-013  0.7246139E+02  0.7816164E-02  0.1226708E+00
        -11   -1    0    0    0    0  0.00000000000E+00  0.00000000000E+00  0.45593999997E+02  0.45594000000E+02  0.51100000000E-03 0. -1.
         11   -1    0    0    0    0 -0.00000000000E+00 -0.00000000000E+00 -0.45593999997E+02  0.45594000000E+02  0.51100000000E-03 0.  1.
    9900012    2    1    2    0    0 -0.15327475469E+01 -0.25222175932E+01 -0.18492563900E+02  0.72461392826E+02  0.69999768814E+02 0.  0.
         12    1    1    2    0    0  0.15327475469E+01  0.25222175932E+01  0.18492563900E+02  0.18726607174E+02  0.00000000000E+00 0. -1.
         11    1    3    3    0    0 -0.16080846892E+02 -0.14245944800E+02  0.48331543363E+01  0.22020444163E+02  0.51100000000E-03 0. -1.
        -11    1    3    3    0    0 -0.58876520057E+01  0.16717609459E+02  0.16328366239E+01  0.17799131098E+02  0.51100000000E-03 0.  1.
        -12    1    3    3    0    0  0.20435751351E+02 -0.49938822515E+01 -0.24958554861E+02  0.32641817565E+02  0.00000000000E+00 0.  1.
</event>
<event>
 7    1  0.1465498E-013  0.7246154E+02  0.7816164E-02  0.1226708E+00
        -11   -1    0    0    0    0  0.00000000000E+00  0.00000000000E+00  0.45593999997E+02  0.45594000000E+02  0.51100000000E-03 0.  1.
         11   -1    0    0    0    0 -0.00000000000E+00 -0.00000000000E+00 -0.45593999997E+02  0.45594000000E+02  0.51100000000E-03 0. -1.
    9900012    2    1    2    0    0 -0.15075065289E+02 -0.37547549332E+01 -0.10455844485E+02  0.72461535786E+02  0.69999955046E+02 0.  0.
         12    1    1    2    0    0  0.15075065289E+02  0.37547549332E+01  0.10455844485E+02  0.18726464214E+02  0.00000000000E+00 0. -1.
         11    1    3    3    0    0 -0.11778036502E+02 -0.11020884889E+02 -0.15084582085E+02  0.22084534510E+02  0.51100000000E-03 0. -1.
        -11    1    3    3    0    0 -0.21190125881E+02 -0.11555442228E+02  0.10162019840E+01  0.24157449093E+02  0.51100000000E-03 0.  1.
        -12    1    3    3    0    0  0.17893097095E+02  0.18821572183E+02  0.36125356155E+01  0.26219552183E+02  0.00000000000E+00 0.  1.
</event>
<event>
 7    1  0.1631919E-013  0.7246150E+02  0.7816164E-02  0.1226708E+00
        -11   -1    0    0    0    0  0.00000000000E+00  0.00000000000E+00  0.45593999997E+02  0.45594000000E+02  0.51100000000E-03 0. -1.
         11   -1    0    0    0    0 -0.00000000000E+00 -0.00000000000E+00 -0.45593999997E+02  0.45594000000E+02  0.51100000000E-03 0.  1.
    9900012    2    1    2    0    0  0.21344653550E+01 -0.16250735823E+02 -0.90575585507E+01  0.72461502088E+02  0.69999911149E+02 0.  0.
         12    1    1    2    0    0 -0.21344653550E+01  0.16250735823E+02  0.90575585507E+01  0.18726497912E+02  0.00000000000E+00 0. -1.
         11    1    3    3    0    0 -0.12438849464E+01  0.19540495536E+02  0.95599640950E+01  0.21789243431E+02  0.51100000000E-03 0. -1.
        -11    1    3    3    0    0 -0.52156289919E+01 -0.44581821102E+00  0.50513428572E+01  0.72744487475E+01  0.51100000000E-03 0.  1.
        -12    1    3    3    0    0  0.85939792933E+01 -0.35345413148E+02 -0.23668865503E+02  0.43397809909E+02  0.00000000000E+00 0.  1.
</event>
<event>
 7    1  0.1465498E-013  0.7246157E+02  0.7816164E-02  0.1226708E+00
        -11   -1    0    0    0    0  0.00000000000E+00  0.00000000000E+00  0.45593999997E+02  0.45594000000E+02  0.51100000000E-03 0.  1.
         11   -1    0    0    0    0 -0.00000000000E+00 -0.00000000000E+00 -0.45593999997E+02  0.45594000000E+02  0.51100000000E-03 0. -1.
    9900012    2    1    2    0    0 -0.10573617841E+02 -0.68520299887E+01  0.13853787409E+02  0.72461571221E+02  0.70000001208E+02 0.  0.
         12    1    1    2    0    0  0.10573617841E+02  0.68520299887E+01 -0.13853787409E+02  0.18726428779E+02  0.00000000000E+00 0. -1.
         11    1    3    3    0    0 -0.10478254494E+02  0.13211580458E+01 -0.16219669403E+02  0.19355023938E+02  0.51100000000E-03 0. -1.
        -11    1    3    3    0    0  0.21094842196E+02 -0.24049166691E+01  0.10488430002E+02  0.23680860534E+02  0.51100000000E-03 0.  1.
        -12    1    3    3    0    0 -0.21190205543E+02 -0.57682713654E+01  0.19585026811E+02  0.29425686749E+02  0.00000000000E+00 0.  1.
</event>
<event>
 7    1  0.1465498E-013  0.7246082E+02  0.7816164E-02  0.1226710E+00
        -11   -1    0    0    0    0  0.00000000000E+00  0.00000000000E+00  0.45593999997E+02  0.45594000000E+02  0.51100000000E-03 0. -1.
         11   -1    0    0    0    0 -0.00000000000E+00 -0.00000000000E+00 -0.45593999997E+02  0.45594000000E+02  0.51100000000E-03 0.  1.
    9900012    2    1    2    0    0 -0.81262788634E+01  0.67591321903E+01 -0.15459144561E+02  0.72460815837E+02  0.69999017172E+02 0.  0.
         12    1    1    2    0    0  0.81262788634E+01 -0.67591321903E+01  0.15459144561E+02  0.18727184163E+02  0.00000000000E+00 0. -1.
         11    1    3    3    0    0 -0.16226467226E+02 -0.15098504951E+02 -0.15601107225E+02  0.27104568568E+02  0.51100000000E-03 0. -1.
        -11    1    3    3    0    0 -0.15552152747E+02  0.58675471742E+01 -0.19142238623E+01  0.16732059592E+02  0.51100000000E-03 0.  1.
         12    1    3    3    0    0  0.23652341110E+02  0.15990089967E+02  0.20561865262E+01  0.28624187677E+02  0.00000000000E+00 0. -1.
</event>
<event>
 7    1  0.1465498E-013  0.7246154E+02  0.7816164E-02  0.1226708E+00
        -11   -1    0    0    0    0  0.00000000000E+00  0.00000000000E+00  0.45593999997E+02  0.45594000000E+02  0.51100000000E-03 0. -1.
         11   -1    0    0    0    0 -0.00000000000E+00 -0.00000000000E+00 -0.45593999997E+02  0.45594000000E+02  0.51100000000E-03 0.  1.
    9900012    2    1    2    0    0  0.18284012740E+02 -0.39941808047E+01 -0.64936712375E+00  0.72461540648E+02  0.69999961380E+02 0.  0.
         12    1    1    2    0    0 -0.18284012740E+02  0.39941808047E+01  0.64936712375E+00  0.18726459352E+02  0.00000000000E+00 0. -1.
         11    1    3    3    0    0  0.82185915297E+01 -0.23167987023E+02 -0.10961765692E+02  0.26915816480E+02  0.51100000000E-03 0. -1.
        -11    1    3    3    0    0  0.25933068507E+01 -0.94221167781E+00 -0.13332522431E+02  0.13615034260E+02  0.51100000000E-03 0.  1.
         12    1    3    3    0    0  0.74721143599E+01  0.20116017896E+02  0.23644920999E+02  0.31930689909E+02  0.00000000000E+00 0. -1.
</event>
<event>
 7    1  0.1465498E-013  0.7246159E+02  0.7816164E-02  0.1226708E+00
        -11   -1    0    0    0    0  0.00000000000E+00  0.00000000000E+00  0.45593999997E+02  0.45594000000E+02  0.51100000000E-03 0.  1.
         11   -1    0    0    0    0 -0.00000000000E+00 -0.00000000000E+00 -0.45593999997E+02  0.45594000000E+02  0.51100000000E-03 0. -1.
    9900012    2    1    2    0    0  0.42834618637E+00 -0.13947690899E+02  0.12488262021E+02  0.72461594841E+02  0.70000031976E+02 0.  0.
         12    1    1    2    0    0 -0.42834618637E+00  0.13947690899E+02 -0.12488262021E+02  0.18726405159E+02  0.00000000000E+00 0. -1.
         11    1    3    3    0    0 -0.92082214088E+01  0.64402248612E+01 -0.22361859393E+02  0.25026397934E+02  0.51100000000E-03 0. -1.
        -11    1    3    3    0    0 -0.49780098563E+01  0.42657813603E+00  0.99993694275E+00  0.50953336678E+01  0.51100000000E-03 0.  1.
        -12    1    3    3    0    0  0.14614577451E+02 -0.20814493897E+02  0.33850184472E+02  0.42339863238E+02  0.00000000000E+00 0.  1.
</event>
<event>
 7    1  0.1465498E-013  0.7246231E+02  0.7816164E-02  0.1226706E+00
        -11   -1    0    0    0    0  0.00000000000E+00  0.00000000000E+00  0.45593999997E+02  0.45594000000E+02  0.51100000000E-03 0. -1.
         11   -1    0    0    0    0 -0.00000000000E+00 -0.00000000000E+00 -0.45593999997E+02  0.45594000000E+02  0.51100000000E-03 0.  1.
    9900012    2    1    2    0    0  0.12580057791E+02  0.13450610539E+02  0.33874434375E+01  0.72462307731E+02  0.70000960642E+02 0.  0.
         12    1    1    2    0    0 -0.12580057791E+02 -0.13450610539E+02 -0.33874434375E+01  0.18725692269E+02  0.00000000000E+00 0. -1.
         11    1    3    3    0    0 -0.26810704384E+02  0.74293101220E+01  0.72619932651E+01  0.28753174867E+02  0.51100000000E-03 0. -1.
        -11    1    3    3    0    0  0.33402896265E+01  0.39819257156E+01  0.42317044368E+01  0.67022824392E+01  0.51100000000E-03 0.  1.
        -12    1    3    3    0    0  0.36050472549E+02  0.20393747018E+01 -0.81062542644E+01  0.37006850425E+02  0.00000000000E+00 0.  1.
</event>
<event>
 7    1  0.1465498E-013  0.7246161E+02  0.7816164E-02  0.1226708E+00
        -11   -1    0    0    0    0  0.00000000000E+00  0.00000000000E+00  0.45593999997E+02  0.45594000000E+02  0.51100000000E-03 0. -1.
         11   -1    0    0    0    0 -0.00000000000E+00 -0.00000000000E+00 -0.45593999997E+02  0.45594000000E+02  0.51100000000E-03 0.  1.
    9900012    2    1    2    0    0 -0.10472464344E+02 -0.14870681677E+02 -0.44573552684E+01  0.72461609559E+02  0.70000051150E+02 0.  0.
         12    1    1    2    0    0  0.10472464344E+02  0.14870681677E+02  0.44573552684E+01  0.18726390441E+02  0.00000000000E+00 0. -1.
         11    1    3    3    0    0 -0.54101542264E+01  0.11221511231E+02  0.14857701286E+02  0.19389259162E+02  0.51100000000E-03 0. -1.
        -11    1    3    3    0    0  0.15611162716E+02 -0.59299397404E+01  0.24940583964E+01  0.16884694674E+02  0.51100000000E-03 0.  1.
         12    1    3    3    0    0 -0.20673472834E+02 -0.20162253167E+02 -0.21809114951E+02  0.36187655723E+02  0.00000000000E+00 0. -1.
</event>
<event>
 7    1  0.1465498E-013  0.7246144E+02  0.7816164E-02  0.1226708E+00
        -11   -1    0    0    0    0  0.00000000000E+00  0.00000000000E+00  0.45593999997E+02  0.45594000000E+02  0.51100000000E-03 0.  1.
         11   -1    0    0    0    0 -0.00000000000E+00 -0.00000000000E+00 -0.45593999997E+02  0.45594000000E+02  0.51100000000E-03 0. -1.
    9900012    2    1    2    0    0  0.12622601790E+02  0.34211396923E+01  0.13403349707E+02  0.72461439822E+02  0.69999830035E+02 0.  0.
         12    1    1    2    0    0 -0.12622601790E+02 -0.34211396923E+01 -0.13403349707E+02  0.18726560178E+02  0.00000000000E+00 0. -1.
         11    1    3    3    0    0  0.26589583362E+02  0.24061092134E+02  0.88958469405E+01  0.36946964572E+02  0.51100000000E-03 0. -1.
        -11    1    3    3    0    0 -0.18850865931E+01  0.91810466708E+00  0.99842891375E+01  0.10202082997E+02  0.51100000000E-03 0.  1.
        -12    1    3    3    0    0 -0.12081894979E+02 -0.21558057109E+02 -0.54767863712E+01  0.25312392253E+02  0.00000000000E+00 0.  1.
</event>
<event>
 7    1  0.1465498E-013  0.7246137E+02  0.7816164E-02  0.1226709E+00
        -11   -1    0    0    0    0  0.00000000000E+00  0.00000000000E+00  0.45593999997E+02  0.45594000000E+02  0.51100000000E-03 0.  1.
         11   -1    0    0    0    0 -0.00000000000E+00 -0.00000000000E+00 -0.45593999997E+02  0.45594000000E+02  0.51100000000E-03 0. -1.
    9900012    2    1    2    0    0  0.13164478197E+02 -0.13270767628E+02  0.11268299111E+01  0.72461374429E+02  0.69999744849E+02 0.  0.
         12    1    1    2    0    0 -0.13164478197E+02  0.13270767628E+02 -0.11268299111E+01  0.18726625571E+02  0.00000000000E+00 0. -1.
         11    1    3    3    0    0  0.83529807237E+00  0.11776128164E+01 -0.74984359319E+01  0.76361663485E+01  0.51100000000E-03 0. -1.
        -11    1    3    3    0    0  0.85521417424E+01 -0.30191933686E+02 -0.16101380090E+02  0.35269624738E+02  0.51100000000E-03 0.  1.
         12    1    3    3    0    0  0.37770383822E+01  0.15743553242E+02  0.24726645933E+02  0.29555583343E+02  0.00000000000E+00 0. -1.
</event>
<event>
 7    1  0.1465498E-013  0.7246149E+02  0.7816164E-02  0.1226708E+00
        -11   -1    0    0    0    0  0.00000000000E+00  0.00000000000E+00  0.45593999997E+02  0.45594000000E+02  0.51100000000E-03 0.  1.
         11   -1    0    0    0    0 -0.00000000000E+00 -0.00000000000E+00 -0.45593999997E+02  0.45594000000E+02  0.51100000000E-03 0. -1.
    9900012    2    1    2    0    0 -0.11246300269E+02 -0.48726585805E+01 -0.14158395930E+02  0.72461488134E+02  0.69999892970E+02 0.  0.
         12    1    1    2    0    0  0.11246300269E+02  0.48726585805E+01  0.14158395930E+02  0.18726511866E+02  0.00000000000E+00 0. -1.
         11    1    3    3    0    0  0.69341169145E+01  0.91967504427E+00  0.22696871541E+01  0.73538601843E+01  0.51100000000E-03 0. -1.
        -11    1    3    3    0    0 -0.98702977087E+01 -0.31194920720E+02  0.17798732167E+01  0.32767572454E+02  0.51100000000E-03 0.  1.
         12    1    3    3    0    0 -0.83101194746E+01  0.25402587095E+02 -0.18207956300E+02  0.32340055496E+02  0.00000000000E+00 0. -1.
</event>
<event>
 7    1  0.1465498E-013  0.7246163E+02  0.7816164E-02  0.1226708E+00
        -11   -1    0    0    0    0  0.00000000000E+00  0.00000000000E+00  0.45593999997E+02  0.45594000000E+02  0.51100000000E-03 0. -1.
         11   -1    0    0    0    0 -0.00000000000E+00 -0.00000000000E+00 -0.45593999997E+02  0.45594000000E+02  0.51100000000E-03 0.  1.
    9900012    2    1    2    0    0 -0.18666909711E+02 -0.40972503001E+00  0.14336785127E+01  0.72461632845E+02  0.70000081484E+02 0.  0.
         12    1    1    2    0    0  0.18666909711E+02  0.40972503001E+00 -0.14336785127E+01  0.18726367155E+02  0.00000000000E+00 0. -1.
         11    1    3    3    0    0 -0.71212196685E+01 -0.40234904546E+00  0.26592382596E+00  0.71375324913E+01  0.51100000000E-03 0. -1.
        -11    1    3    3    0    0 -0.21522704320E+02  0.50783434089E+01 -0.27065654640E+02  0.34950908920E+02  0.51100000000E-03 0.  1.
         12    1    3    3    0    0  0.99770142774E+01 -0.50857193934E+01  0.28233409327E+02  0.30373191433E+02  0.00000000000E+00 0. -1.
</event>
<event>
 7    1  0.1465498E-013  0.7246152E+02  0.7816164E-02  0.1226708E+00
        -11   -1    0    0    0    0  0.00000000000E+00  0.00000000000E+00  0.45593999997E+02  0.45594000000E+02  0.51100000000E-03 0.  1.
         11   -1    0    0    0    0 -0.00000000000E+00 -0.00000000000E+00 -0.45593999997E+02  0.45594000000E+02  0.51100000000E-03 0. -1.
    9900012    2    1    2    0    0  0.10472920498E+02  0.13636514296E+01  0.15464135687E+02  0.72461518709E+02  0.69999932801E+02 0.  0.
         12    1    1    2    0    0 -0.10472920498E+02 -0.13636514296E+01 -0.15464135687E+02  0.18726481291E+02  0.00000000000E+00 0. -1.
         11    1    3    3    0    0  0.15033261844E+02 -0.18492218527E+01 -0.14520188770E+02  0.20982241666E+02  0.51100000000E-03 0. -1.
        -11    1    3    3    0    0 -0.17167663222E+02  0.13304656462E+01 -0.17234253712E+01  0.17305172482E+02  0.51100000000E-03 0.  1.
         12    1    3    3    0    0  0.12607321876E+02  0.18824076361E+01  0.31707749829E+02  0.34174104562E+02  0.00000000000E+00 0. -1.
</event>
<event>
 7    1  0.1465498E-013  0.7246158E+02  0.7816164E-02  0.1226708E+00
        -11   -1    0    0    0    0  0.00000000000E+00  0.00000000000E+00  0.45593999997E+02  0.45594000000E+02  0.51100000000E-03 0.  1.
         11   -1    0    0    0    0 -0.00000000000E+00 -0.00000000000E+00 -0.45593999997E+02  0.45594000000E+02  0.51100000000E-03 0. -1.
    9900012    2    1    2    0    0  0.14973129717E+01 -0.10169627173E+02  0.15652968480E+02  0.72461583226E+02  0.70000016845E+02 0.  0.
         12    1    1    2    0    0 -0.14973129717E+01  0.10169627173E+02 -0.15652968480E+02  0.18726416774E+02  0.00000000000E+00 0. -1.
         11    1    3    3    0    0  0.11880405837E+02 -0.30082143439E+01  0.17116344065E+01  0.12374291454E+02  0.51100000000E-03 0. -1.
        -11    1    3    3    0    0 -0.73914810735E+01 -0.25068649195E+02  0.27111723990E+02  0.37657890845E+02  0.51100000000E-03 0.  1.
         12    1    3    3    0    0 -0.29916117920E+01  0.17907236366E+02 -0.13170389916E+02  0.22429400927E+02  0.00000000000E+00 0. -1.
</event>
<event>
 7    1  0.1537278E-013  0.7246157E+02  0.7816164E-02  0.1226708E+00
        -11   -1    0    0    0    0  0.00000000000E+00  0.00000000000E+00  0.45593999997E+02  0.45594000000E+02  0.51100000000E-03 0. -1.
         11   -1    0    0    0    0 -0.00000000000E+00 -0.00000000000E+00 -0.45593999997E+02  0.45594000000E+02  0.51100000000E-03 0.  1.
    9900012    2    1    2    0    0  0.68143928790E-01  0.14768301623E+02 -0.11513981788E+02  0.72461570734E+02  0.70000000573E+02 0.  0.
         12    1    1    2    0    0 -0.68143928790E-01 -0.14768301623E+02  0.11513981788E+02  0.18726429266E+02  0.00000000000E+00 0. -1.
         11    1    3    3    0    0 -0.98900706213E+01 -0.14103837276E+02  0.10080117382E+02  0.19958469117E+02  0.51100000000E-03 0. -1.
        -11    1    3    3    0    0  0.27102557986E+01 -0.89101579863E+01 -0.30847014991E+01  0.98107994289E+01  0.51100000000E-03 0.  1.
        -12    1    3    3    0    0  0.72479587515E+01  0.37782296885E+02 -0.18509397671E+02  0.42692302188E+02  0.00000000000E+00 0.  1.
</event>
<event>
 7    1  0.1465498E-013  0.7246159E+02  0.7816164E-02  0.1226708E+00
        -11   -1    0    0    0    0  0.00000000000E+00  0.00000000000E+00  0.45593999997E+02  0.45594000000E+02  0.51100000000E-03 0.  1.
         11   -1    0    0    0    0 -0.00000000000E+00 -0.00000000000E+00 -0.45593999997E+02  0.45594000000E+02  0.51100000000E-03 0. -1.
    9900012    2    1    2    0    0 -0.78217513713E+01  0.14363242873E+02  0.91211793724E+01  0.72461589413E+02  0.70000024905E+02 0.  0.
         12    1    1    2    0    0  0.78217513713E+01 -0.14363242873E+02 -0.91211793724E+01  0.18726410587E+02  0.00000000000E+00 0. -1.
         11    1    3    3    0    0  0.12695727324E+02  0.13382388678E+01 -0.74550038998E+01  0.14783418378E+02  0.51100000000E-03 0. -1.
        -11    1    3    3    0    0 -0.10876374372E+02  0.12252304409E+02 -0.16478832780E+02  0.23237177386E+02  0.51100000000E-03 0.  1.
        -12    1    3    3    0    0 -0.96411043233E+01  0.77269959591E+00  0.33055016052E+02  0.34440993648E+02  0.00000000000E+00 0.  1.
</event>
<event>
 7    1  0.1465498E-013  0.7246157E+02  0.7816164E-02  0.1226708E+00
        -11   -1    0    0    0    0  0.00000000000E+00  0.00000000000E+00  0.45593999997E+02  0.45594000000E+02  0.51100000000E-03 0.  1.
         11   -1    0    0    0    0 -0.00000000000E+00 -0.00000000000E+00 -0.45593999997E+02  0.45594000000E+02  0.51100000000E-03 0. -1.
    9900012    2    1    2    0    0 -0.49552704622E+01  0.11080658670E+02 -0.14259860716E+02  0.72461566022E+02  0.69999994434E+02 0.  0.
         12    1    1    2    0    0  0.49552704622E+01 -0.11080658670E+02  0.14259860716E+02  0.18726433978E+02  0.00000000000E+00 0. -1.
         11    1    3    3    0    0  0.83129767226E+01  0.33252906660E+02 -0.12219577764E+02  0.36389276777E+02  0.51100000000E-03 0. -1.
        -11    1    3    3    0    0  0.69026034858E+01 -0.33206744842E+01 -0.35071948533E+01  0.84245611109E+01  0.51100000000E-03 0.  1.
        -12    1    3    3    0    0 -0.20170850671E+02 -0.18851573506E+02  0.14669119013E+01  0.27647728134E+02  0.00000000000E+00 0.  1.
</event>
<event>
 7    1  0.1629149E-013  0.7246155E+02  0.7816164E-02  0.1226708E+00
        -11   -1    0    0    0    0  0.00000000000E+00  0.00000000000E+00  0.45593999997E+02  0.45594000000E+02  0.51100000000E-03 0. -1.
         11   -1    0    0    0    0 -0.00000000000E+00 -0.00000000000E+00 -0.45593999997E+02  0.45594000000E+02  0.51100000000E-03 0.  1.
    9900012    2    1    2    0    0 -0.75892540979E+00 -0.66523842938E+00 -0.18699234327E+02  0.72461551475E+02  0.69999975484E+02 0.  0.
         12    1    1    2    0    0  0.75892540979E+00  0.66523842938E+00  0.18699234327E+02  0.18726448525E+02  0.00000000000E+00 0. -1.
         11    1    3    3    0    0 -0.11887994010E+02  0.12876608509E+02  0.10406227519E+02  0.20381879690E+02  0.51100000000E-03 0. -1.
        -11    1    3    3    0    0 -0.12137107152E+02  0.26478506404E+01 -0.14988286075E+01  0.12512672396E+02  0.51100000000E-03 0.  1.
        -12    1    3    3    0    0  0.23266175752E+02 -0.16189697579E+02 -0.27606633239E+02  0.39566999388E+02  0.00000000000E+00 0.  1.
</event>
<event>
 7    1  0.1465498E-013  0.7246157E+02  0.7816164E-02  0.1226708E+00
        -11   -1    0    0    0    0  0.00000000000E+00  0.00000000000E+00  0.45593999997E+02  0.45594000000E+02  0.51100000000E-03 0. -1.
         11   -1    0    0    0    0 -0.00000000000E+00 -0.00000000000E+00 -0.45593999997E+02  0.45594000000E+02  0.51100000000E-03 0.  1.
    9900012    2    1    2    0    0 -0.15295259280E+02 -0.10757706858E+02  0.10030189101E+01  0.72461567873E+02  0.69999996846E+02 0.  0.
         12    1    1    2    0    0  0.15295259280E+02  0.10757706858E+02 -0.10030189101E+01  0.18726432127E+02  0.00000000000E+00 0. -1.
         11    1    3    3    0    0 -0.47725627812E+01 -0.62912754123E+01  0.20049826795E+02  0.21548852790E+02  0.51100000000E-03 0. -1.
        -11    1    3    3    0    0 -0.26934185464E+02 -0.11547019794E+02 -0.10850645688E+02  0.31249328391E+02  0.51100000000E-03 0.  1.
        -12    1    3    3    0    0  0.16411488966E+02  0.70805883491E+01 -0.81961621968E+01  0.19663386692E+02  0.00000000000E+00 0.  1.
</event>
<event>
 7    1  0.1465498E-013  0.7246156E+02  0.7816164E-02  0.1226708E+00
        -11   -1    0    0    0    0  0.00000000000E+00  0.00000000000E+00  0.45593999997E+02  0.45594000000E+02  0.51100000000E-03 0.  1.
         11   -1    0    0    0    0 -0.00000000000E+00 -0.00000000000E+00 -0.45593999997E+02  0.45594000000E+02  0.51100000000E-03 0. -1.
    9900012    2    1    2    0    0 -0.85393403305E+01 -0.79312489760E+01  0.14657922484E+02  0.72461555192E+02  0.69999980326E+02 0.  0.
         12    1    1    2    0    0  0.85393403305E+01  0.79312489760E+01 -0.14657922484E+02  0.18726444808E+02  0.00000000000E+00 0. -1.
         11    1    3    3    0    0  0.15967321191E+02 -0.53733279011E+01  0.22965330526E+02  0.28482176974E+02  0.51100000000E-03 0.  1.
        -11    1    3    3    0    0 -0.19177625598E+02 -0.13218969956E+02  0.72379084741E+01  0.24390773043E+02  0.51100000000E-03 0. -1.
        -12    1    3    3    0    0 -0.53290359232E+01  0.10661048881E+02 -0.15545316516E+02  0.19588605175E+02  0.00000000000E+00 0.  1.
</event>
<event>
 7    1  0.1465498E-013  0.7246156E+02  0.7816164E-02  0.1226708E+00
        -11   -1    0    0    0    0  0.00000000000E+00  0.00000000000E+00  0.45593999997E+02  0.45594000000E+02  0.51100000000E-03 0.  1.
         11   -1    0    0    0    0 -0.00000000000E+00 -0.00000000000E+00 -0.45593999997E+02  0.45594000000E+02  0.51100000000E-03 0. -1.
    9900012    2    1    2    0    0  0.68576249083E+01 -0.16554502699E+02  0.54406832285E+01  0.72461558453E+02  0.69999984575E+02 0.  0.
         12    1    1    2    0    0 -0.68576249083E+01  0.16554502699E+02 -0.54406832285E+01  0.18726441547E+02  0.00000000000E+00 0. -1.
         11    1    3    3    0    0  0.11273252121E+02 -0.41957563687E+02 -0.57107285432E+00  0.43449389966E+02  0.51100000000E-03 0.  1.
        -11    1    3    3    0    0 -0.73288160401E+01  0.15199070169E+02  0.71770820418E+01  0.18336678692E+02  0.51100000000E-03 0. -1.
        -12    1    3    3    0    0  0.29131888270E+01  0.10203990819E+02 -0.11653259590E+01  0.10675489795E+02  0.00000000000E+00 0.  1.
</event>
<event>
 7    1  0.1465498E-013  0.7246128E+02  0.7816164E-02  0.1226709E+00
        -11   -1    0    0    0    0  0.00000000000E+00  0.00000000000E+00  0.45593999997E+02  0.45594000000E+02  0.51100000000E-03 0.  1.
         11   -1    0    0    0    0 -0.00000000000E+00 -0.00000000000E+00 -0.45593999997E+02  0.45594000000E+02  0.51100000000E-03 0. -1.
    9900012    2    1    2    0    0 -0.12754057217E+02 -0.12986316704E+02  0.44022364372E+01  0.72461278913E+02  0.69999620421E+02 0.  0.
         12    1    1    2    0    0  0.12754057217E+02  0.12986316704E+02 -0.44022364372E+01  0.18726721087E+02  0.00000000000E+00 0. -1.
         11    1    3    3    0    0  0.44165685452E+01  0.96355653594E+01  0.24696207850E+02  0.26874762881E+02  0.51100000000E-03 0.  1.
        -11    1    3    3    0    0 -0.20977614989E+02 -0.35007410902E+01 -0.93942326745E+01  0.23250099496E+02  0.51100000000E-03 0. -1.
        -12    1    3    3    0    0  0.38069892262E+01 -0.19121140973E+02 -0.10899738738E+02  0.22336416535E+02  0.00000000000E+00 0.  1.
</event>
<event>
 7    1  0.1465498E-013  0.7246155E+02  0.7816164E-02  0.1226708E+00
        -11   -1    0    0    0    0  0.00000000000E+00  0.00000000000E+00  0.45593999997E+02  0.45594000000E+02  0.51100000000E-03 0.  1.
         11   -1    0    0    0    0 -0.00000000000E+00 -0.00000000000E+00 -0.45593999997E+02  0.45594000000E+02  0.51100000000E-03 0. -1.
    9900012    2    1    2    0    0 -0.16032527469E+02  0.96631114015E+01  0.51222134179E+00  0.72461547327E+02  0.69999970081E+02 0.  0.
         12    1    1    2    0    0  0.16032527469E+02 -0.96631114015E+01 -0.51222134179E+00  0.18726452673E+02  0.00000000000E+00 0. -1.
         11    1    3    3    0    0  0.15906386259E+01 -0.82995191786E+01  0.79919261820E+01  0.11631123514E+02  0.51100000000E-03 0. -1.
        -11    1    3    3    0    0 -0.58064018414E+01  0.24180196026E+01  0.23435644872E+02  0.24265007150E+02  0.51100000000E-03 0.  1.
        -12    1    3    3    0    0 -0.11816764254E+02  0.15544610977E+02 -0.30915349713E+02  0.36565416663E+02  0.00000000000E+00 0.  1.
</event>
<event>
 7    1  0.1465498E-013  0.7246158E+02  0.7816164E-02  0.1226708E+00
        -11   -1    0    0    0    0  0.00000000000E+00  0.00000000000E+00  0.45593999997E+02  0.45594000000E+02  0.51100000000E-03 0.  1.
         11   -1    0    0    0    0 -0.00000000000E+00 -0.00000000000E+00 -0.45593999997E+02  0.45594000000E+02  0.51100000000E-03 0. -1.
    9900012    2    1    2    0    0 -0.14960478663E+02 -0.11093487687E+02  0.19487402833E+01  0.72461575366E+02  0.70000006607E+02 0.  0.
         12    1    1    2    0    0  0.14960478663E+02  0.11093487687E+02 -0.19487402833E+01  0.18726424634E+02  0.00000000000E+00 0. -1.
         11    1    3    3    0    0 -0.14014183523E+02  0.15687041175E+02  0.90008258390E+01  0.22880023311E+02  0.51100000000E-03 0. -1.
        -11    1    3    3    0    0 -0.44024775438E+01 -0.40884976190E+01  0.15975429555E+02  0.17067863693E+02  0.51100000000E-03 0.  1.
         12    1    3    3    0    0  0.34561824042E+01 -0.22692031243E+02 -0.23027515111E+02  0.32513688363E+02  0.00000000000E+00 0. -1.
</event>
<event>
 7    1  0.1465498E-013  0.7246157E+02  0.7816164E-02  0.1226708E+00
        -11   -1    0    0    0    0  0.00000000000E+00  0.00000000000E+00  0.45593999997E+02  0.45594000000E+02  0.51100000000E-03 0. -1.
         11   -1    0    0    0    0 -0.00000000000E+00 -0.00000000000E+00 -0.45593999997E+02  0.45594000000E+02  0.51100000000E-03 0.  1.
    9900012    2    1    2    0    0 -0.17430149147E+02  0.32067360879E+01  0.60486429062E+01  0.72461565832E+02  0.69999994188E+02 0.  0.
         12    1    1    2    0    0  0.17430149147E+02 -0.32067360879E+01 -0.60486429062E+01  0.18726434168E+02  0.00000000000E+00 0. -1.
         11    1    3    3    0    0 -0.20619428911E+01  0.12061303878E+02  0.23169336050E+02  0.26201999790E+02  0.51100000000E-03 0. -1.
        -11    1    3    3    0    0 -0.14359852089E+01  0.14598127707E+02 -0.13026548671E+01  0.14726313050E+02  0.51100000000E-03 0.  1.
        -12    1    3    3    0    0 -0.13932221047E+02 -0.23452695497E+02 -0.15818038277E+02  0.31533252993E+02  0.00000000000E+00 0.  1.
</event>
<event>
 7    1  0.1465498E-013  0.7246149E+02  0.7816164E-02  0.1226708E+00
        -11   -1    0    0    0    0  0.00000000000E+00  0.00000000000E+00  0.45593999997E+02  0.45594000000E+02  0.51100000000E-03 0.  1.
         11   -1    0    0    0    0 -0.00000000000E+00 -0.00000000000E+00 -0.45593999997E+02  0.45594000000E+02  0.51100000000E-03 0. -1.
    9900012    2    1    2    0    0  0.65223017406E+01  0.11987245716E+02  0.12823719064E+02  0.72461488032E+02  0.69999892838E+02 0.  0.
         12    1    1    2    0    0 -0.65223017406E+01 -0.11987245716E+02 -0.12823719064E+02  0.18726511968E+02  0.00000000000E+00 0. -1.
         11    1    3    3    0    0 -0.46404996068E+01 -0.18068548595E+01 -0.66681931798E+01  0.83224853036E+01  0.51100000000E-03 0. -1.
        -11    1    3    3    0    0 -0.61362912802E+01 -0.21198030609E+02  0.67646163941E+01  0.23081824182E+02  0.51100000000E-03 0.  1.
         12    1    3    3    0    0  0.17299092628E+02  0.34992131184E+02  0.12727295850E+02  0.41057178546E+02  0.00000000000E+00 0. -1.
</event>
<event>
 7    1  0.1465498E-013  0.7246157E+02  0.7816164E-02  0.1226708E+00
        -11   -1    0    0    0    0  0.00000000000E+00  0.00000000000E+00  0.45593999997E+02  0.45594000000E+02  0.51100000000E-03 0. -1.
         11   -1    0    0    0    0 -0.00000000000E+00 -0.00000000000E+00 -0.45593999997E+02  0.45594000000E+02  0.51100000000E-03 0.  1.
    9900012    2    1    2    0    0  0.11394377283E+02  0.14544182937E+02 -0.30519119793E+01  0.72461567939E+02  0.69999996932E+02 0.  0.
         12    1    1    2    0    0 -0.11394377283E+02 -0.14544182937E+02  0.30519119793E+01  0.18726432061E+02  0.00000000000E+00 0. -1.
         11    1    3    3    0    0  0.14917046717E+02  0.16344554033E+01  0.65061524057E+01  0.16356030894E+02  0.51100000000E-03 0. -1.
        -11    1    3    3    0    0  0.18640437557E+02  0.18730725995E+02  0.75796707134E+01  0.27491042486E+02  0.51100000000E-03 0.  1.
         12    1    3    3    0    0 -0.22163106991E+02 -0.58209984610E+01 -0.17137735098E+02  0.28614494559E+02  0.00000000000E+00 0. -1.
</event>
<event>
 7    1  0.1465498E-013  0.7246147E+02  0.7816164E-02  0.1226708E+00
        -11   -1    0    0    0    0  0.00000000000E+00  0.00000000000E+00  0.45593999997E+02  0.45594000000E+02  0.51100000000E-03 0. -1.
         11   -1    0    0    0    0 -0.00000000000E+00 -0.00000000000E+00 -0.45593999997E+02  0.45594000000E+02  0.51100000000E-03 0.  1.
    9900012    2    1    2    0    0 -0.14745169079E+02  0.85687374489E+01 -0.77356094156E+01  0.72461470005E+02  0.69999869354E+02 0.  0.
         12    1    1    2    0    0  0.14745169079E+02 -0.85687374489E+01  0.77356094156E+01  0.18726529995E+02  0.00000000000E+00 0. -1.
         11    1    3    3    0    0  0.31239873634E+01  0.15038235512E+01 -0.18281456031E+02  0.18607321602E+02  0.51100000000E-03 0. -1.
        -11    1    3    3    0    0  0.15003638153E+02 -0.40688036432E+01 -0.42634701842E+01  0.16119599846E+02  0.51100000000E-03 0.  1.
         12    1    3    3    0    0 -0.32872794595E+02  0.11133717541E+02  0.14809316800E+02  0.37734548557E+02  0.00000000000E+00 0. -1.
</event>
<event>
 7    1  0.1465498E-013  0.7246143E+02  0.7816164E-02  0.1226708E+00
        -11   -1    0    0    0    0  0.00000000000E+00  0.00000000000E+00  0.45593999997E+02  0.45594000000E+02  0.51100000000E-03 0. -1.
         11   -1    0    0    0    0 -0.00000000000E+00 -0.00000000000E+00 -0.45593999997E+02  0.45594000000E+02  0.51100000000E-03 0.  1.
    9900012    2    1    2    0    0  0.14721897712E+01  0.21707610488E+01 -0.18541971510E+02  0.72461434545E+02  0.69999823161E+02 0.  0.
         12    1    1    2    0    0 -0.14721897712E+01 -0.21707610488E+01  0.18541971510E+02  0.18726565455E+02  0.00000000000E+00 0. -1.
         11    1    3    3    0    0  0.95207413400E+01  0.12763177273E+02  0.67220533481E+01  0.17283784633E+02  0.51100000000E-03 0. -1.
        -11    1    3    3    0    0 -0.63314483066E+01 -0.53307854256E+01  0.13600502674E+02  0.15920998215E+02  0.51100000000E-03 0.  1.
        -12    1    3    3    0    0 -0.17171032621E+01 -0.52616307982E+01 -0.38864527532E+02  0.39256651698E+02  0.00000000000E+00 0.  1.
</event>
<event>
 7    1  0.1465498E-013  0.7246155E+02  0.7816164E-02  0.1226708E+00
        -11   -1    0    0    0    0  0.00000000000E+00  0.00000000000E+00  0.45593999997E+02  0.45594000000E+02  0.51100000000E-03 0.  1.
         11   -1    0    0    0    0 -0.00000000000E+00 -0.00000000000E+00 -0.45593999997E+02  0.45594000000E+02  0.51100000000E-03 0. -1.
    9900012    2    1    2    0    0 -0.39214868108E+01 -0.32561427605E+01  0.18019416254E+02  0.72461551148E+02  0.69999975058E+02 0.  0.
         12    1    1    2    0    0  0.39214868108E+01  0.32561427605E+01 -0.18019416254E+02  0.18726448852E+02  0.00000000000E+00 0. -1.
         11    1    3    3    0    0  0.22644057407E+01 -0.14361994891E+02 -0.29585399439E+01  0.14837364640E+02  0.51100000000E-03 0. -1.
        -11    1    3    3    0    0  0.20057590198E+01 -0.19900477124E+02  0.15001399020E+02  0.25001880566E+02  0.51100000000E-03 0.  1.
         12    1    3    3    0    0 -0.81916515713E+01  0.31006329254E+02  0.59765571779E+01  0.32622305942E+02  0.00000000000E+00 0. -1.
</event>
<event>
 7    1  0.1465498E-013  0.7246158E+02  0.7816164E-02  0.1226708E+00
        -11   -1    0    0    0    0  0.00000000000E+00  0.00000000000E+00  0.45593999997E+02  0.45594000000E+02  0.51100000000E-03 0.  1.
         11   -1    0    0    0    0 -0.00000000000E+00 -0.00000000000E+00 -0.45593999997E+02  0.45594000000E+02  0.51100000000E-03 0. -1.
    9900012    2    1    2    0    0 -0.17925615136E+02 -0.29913360406E+01  0.45169563491E+01  0.72461583792E+02  0.70000017584E+02 0.  0.
         12    1    1    2    0    0  0.17925615136E+02  0.29913360406E+01 -0.45169563491E+01  0.18726416208E+02  0.00000000000E+00 0. -1.
         11    1    3    3    0    0 -0.26239928964E+01 -0.55711642529E+01  0.57780803956E+01  0.84444906994E+01  0.51100000000E-03 0. -1.
        -11    1    3    3    0    0  0.10699821304E+02 -0.19500590144E+02  0.14383721397E+02  0.26488688782E+02  0.51100000000E-03 0.  1.
         12    1    3    3    0    0 -0.26001443544E+02  0.22080418356E+02 -0.15644845444E+02  0.37528404311E+02  0.00000000000E+00 0. -1.
</event>
<event>
 7    1  0.1465498E-013  0.7246157E+02  0.7816164E-02  0.1226708E+00
        -11   -1    0    0    0    0  0.00000000000E+00  0.00000000000E+00  0.45593999997E+02  0.45594000000E+02  0.51100000000E-03 0. -1.
         11   -1    0    0    0    0 -0.00000000000E+00 -0.00000000000E+00 -0.45593999997E+02  0.45594000000E+02  0.51100000000E-03 0.  1.
    9900012    2    1    2    0    0  0.13183127973E+02  0.43893373880E+01 -0.12554597858E+02  0.72461572865E+02  0.70000003349E+02 0.  0.
         12    1    1    2    0    0 -0.13183127973E+02 -0.43893373880E+01  0.12554597858E+02  0.18726427135E+02  0.00000000000E+00 0. -1.
         11    1    3    3    0    0 -0.16196839840E+02  0.67077460657E+01 -0.43051939814E+01  0.18051763724E+02  0.51100000000E-03 0.  1.
        -11    1    3    3    0    0  0.22910755065E+02  0.18952844784E+02  0.22561161625E+01  0.29819508437E+02  0.51100000000E-03 0. -1.
         12    1    3    3    0    0  0.64692127482E+01 -0.21271253461E+02 -0.10505520039E+02  0.24590300704E+02  0.00000000000E+00 0. -1.
</event>
<event>
 7    1  0.1465498E-013  0.7246155E+02  0.7816164E-02  0.1226708E+00
        -11   -1    0    0    0    0  0.00000000000E+00  0.00000000000E+00  0.45593999997E+02  0.45594000000E+02  0.51100000000E-03 0.  1.
         11   -1    0    0    0    0 -0.00000000000E+00 -0.00000000000E+00 -0.45593999997E+02  0.45594000000E+02  0.51100000000E-03 0. -1.
    9900012    2    1    2    0    0 -0.12023089055E+02 -0.72755581907E-01  0.14356876402E+02  0.72461551756E+02  0.69999975851E+02 0.  0.
         12    1    1    2    0    0  0.12023089055E+02  0.72755581907E-01 -0.14356876402E+02  0.18726448244E+02  0.00000000000E+00 0. -1.
         11    1    3    3    0    0 -0.57489327687E+01  0.87166214199E+01  0.30370420087E+01  0.10874435221E+02  0.51100000000E-03 0. -1.
        -11    1    3    3    0    0  0.47917712594E+01  0.97996636835E+01  0.30676341388E+02  0.32558138787E+02  0.51100000000E-03 0.  1.
         12    1    3    3    0    0 -0.11065927546E+02 -0.18589040685E+02 -0.19356506995E+02  0.29028977748E+02  0.00000000000E+00 0. -1.
</event>
<event>
 7    1  0.1465498E-013  0.7246156E+02  0.7816164E-02  0.1226708E+00
        -11   -1    0    0    0    0  0.00000000000E+00  0.00000000000E+00  0.45593999997E+02  0.45594000000E+02  0.51100000000E-03 0. -1.
         11   -1    0    0    0    0 -0.00000000000E+00 -0.00000000000E+00 -0.45593999997E+02  0.45594000000E+02  0.51100000000E-03 0.  1.
    9900012    2    1    2    0    0 -0.10041978914E+02  0.15129381620E+02 -0.45760474045E+01  0.72461555101E+02  0.69999980207E+02 0.  0.
         12    1    1    2    0    0  0.10041978914E+02 -0.15129381620E+02  0.45760474045E+01  0.18726444899E+02  0.00000000000E+00 0. -1.
         11    1    3    3    0    0 -0.12986400351E+02 -0.18376681444E+02  0.16936599800E+02  0.28163760900E+02  0.51100000000E-03 0. -1.
        -11    1    3    3    0    0  0.81245361776E+01  0.81135346728E+01 -0.15523418877E+01  0.11586513651E+02  0.51100000000E-03 0.  1.
        -12    1    3    3    0    0 -0.51801147410E+01  0.25392528392E+02 -0.19960305317E+02  0.32711280550E+02  0.00000000000E+00 0.  1.
</event>
<event>
 7    1  0.1465498E-013  0.7246156E+02  0.7816164E-02  0.1226708E+00
        -11   -1    0    0    0    0  0.00000000000E+00  0.00000000000E+00  0.45593999997E+02  0.45594000000E+02  0.51100000000E-03 0.  1.
         11   -1    0    0    0    0 -0.00000000000E+00 -0.00000000000E+00 -0.45593999997E+02  0.45594000000E+02  0.51100000000E-03 0. -1.
    9900012    2    1    2    0    0 -0.11612224615E+02 -0.68748573822E+01 -0.12983527624E+02  0.72461563764E+02  0.69999991493E+02 0.  0.
         12    1    1    2    0    0  0.11612224615E+02  0.68748573822E+01  0.12983527624E+02  0.18726436236E+02  0.00000000000E+00 0. -1.
         11    1    3    3    0    0 -0.11212581235E+02 -0.11764433085E+02 -0.48459120036E+01  0.16958971878E+02  0.51100000000E-03 0. -1.
        -11    1    3    3    0    0 -0.18954178326E+02 -0.15153564658E+01 -0.23748513454E+02  0.30422838013E+02  0.51100000000E-03 0.  1.
        -12    1    3    3    0    0  0.18554534946E+02  0.64049321689E+01  0.15610897833E+02  0.25079753873E+02  0.00000000000E+00 0.  1.
</event>
<event>
 7    1  0.1465498E-013  0.7246153E+02  0.7816164E-02  0.1226708E+00
        -11   -1    0    0    0    0  0.00000000000E+00  0.00000000000E+00  0.45593999997E+02  0.45594000000E+02  0.51100000000E-03 0. -1.
         11   -1    0    0    0    0 -0.00000000000E+00 -0.00000000000E+00 -0.45593999997E+02  0.45594000000E+02  0.51100000000E-03 0.  1.
    9900012    2    1    2    0    0  0.11200146235E+02  0.10804803598E+02 -0.10416030725E+02  0.72461528027E+02  0.69999944939E+02 0.  0.
         12    1    1    2    0    0 -0.11200146235E+02 -0.10804803598E+02  0.10416030725E+02  0.18726471973E+02  0.00000000000E+00 0. -1.
         11    1    3    3    0    0  0.14611511999E+02 -0.51675526244E+01  0.16013804940E+01  0.15580895442E+02  0.51100000000E-03 0. -1.
        -11    1    3    3    0    0  0.14971074513E+02 -0.77016645769E+01 -0.19724537183E+02  0.25932722123E+02  0.51100000000E-03 0.  1.
         12    1    3    3    0    0 -0.18382440277E+02  0.23674020800E+02  0.77071259643E+01  0.30947910462E+02  0.00000000000E+00 0. -1.
</event>
<event>
 7    1  0.1465498E-013  0.7246155E+02  0.7816164E-02  0.1226708E+00
        -11   -1    0    0    0    0  0.00000000000E+00  0.00000000000E+00  0.45593999997E+02  0.45594000000E+02  0.51100000000E-03 0. -1.
         11   -1    0    0    0    0 -0.00000000000E+00 -0.00000000000E+00 -0.45593999997E+02  0.45594000000E+02  0.51100000000E-03 0.  1.
    9900012    2    1    2    0    0  0.24307424259E+00  0.73853215967E+01 -0.17206918850E+02  0.72461545010E+02  0.69999967062E+02 0.  0.
         12    1    1    2    0    0 -0.24307424259E+00 -0.73853215967E+01  0.17206918850E+02  0.18726454990E+02  0.00000000000E+00 0. -1.
         11    1    3    3    0    0  0.16487656046E+02  0.10217448578E+02 -0.43322395942E+01  0.19874792012E+02  0.51100000000E-03 0. -1.
        -11    1    3    3    0    0 -0.31597217296E+01  0.12230592953E+02 -0.25860367579E+02  0.28780720230E+02  0.51100000000E-03 0.  1.
         12    1    3    3    0    0 -0.13084860074E+02 -0.15062719934E+02  0.12985688323E+02  0.23806032768E+02  0.00000000000E+00 0. -1.
</event>
<event>
 7    1  0.1465498E-013  0.7246180E+02  0.7816164E-02  0.1226707E+00
        -11   -1    0    0    0    0  0.00000000000E+00  0.00000000000E+00  0.45593999997E+02  0.45594000000E+02  0.51100000000E-03 0. -1.
         11   -1    0    0    0    0 -0.00000000000E+00 -0.00000000000E+00 -0.45593999997E+02  0.45594000000E+02  0.51100000000E-03 0.  1.
    9900012    2    1    2    0    0 -0.15128966790E+02  0.73697710596E+01 -0.82141032965E+01  0.72461797647E+02  0.70000296168E+02 0.  0.
         12    1    1    2    0    0  0.15128966790E+02 -0.73697710596E+01  0.82141032965E+01  0.18726202353E+02  0.00000000000E+00 0. -1.
         11    1    3    3    0    0  0.55814588047E+01 -0.18553362126E+00  0.21770005696E+01  0.59938666030E+01  0.51100000000E-03 0. -1.
        -11    1    3    3    0    0 -0.17405669278E+02  0.32667054658E+01  0.25015537073E+02  0.30649727290E+02  0.51100000000E-03 0.  1.
         12    1    3    3    0    0 -0.33047563169E+01  0.42885992150E+01 -0.35406640939E+02  0.35818203754E+02  0.00000000000E+00 0. -1.
</event>
<event>
 7    1  0.1465498E-013  0.7246153E+02  0.7816164E-02  0.1226708E+00
        -11   -1    0    0    0    0  0.00000000000E+00  0.00000000000E+00  0.45593999997E+02  0.45594000000E+02  0.51100000000E-03 0. -1.
         11   -1    0    0    0    0 -0.00000000000E+00 -0.00000000000E+00 -0.45593999997E+02  0.45594000000E+02  0.51100000000E-03 0.  1.
    9900012    2    1    2    0    0  0.72747468470E+01 -0.91760136685E+01 -0.14613676270E+02  0.72461529359E+02  0.69999946674E+02 0.  0.
         12    1    1    2    0    0 -0.72747468470E+01  0.91760136685E+01  0.14613676270E+02  0.18726470641E+02  0.00000000000E+00 0. -1.
         11    1    3    3    0    0  0.70098706061E+01 -0.13749911793E+02 -0.18531213229E+01  0.15544530200E+02  0.51100000000E-03 0. -1.
        -11    1    3    3    0    0  0.24967674872E+02 -0.84045642415E+01 -0.12136336929E+02  0.29005381620E+02  0.51100000000E-03 0.  1.
        -12    1    3    3    0    0 -0.24702798631E+02  0.12978462366E+02 -0.62421801840E+00  0.27911617540E+02  0.00000000000E+00 0.  1.
</event>
<event>
 7    1  0.1465498E-013  0.7246162E+02  0.7816164E-02  0.1226708E+00
        -11   -1    0    0    0    0  0.00000000000E+00  0.00000000000E+00  0.45593999997E+02  0.45594000000E+02  0.51100000000E-03 0.  1.
         11   -1    0    0    0    0 -0.00000000000E+00 -0.00000000000E+00 -0.45593999997E+02  0.45594000000E+02  0.51100000000E-03 0. -1.
    9900012    2    1    2    0    0  0.15430459508E+02 -0.10452016782E+02 -0.18258295607E+01  0.72461617834E+02  0.70000061929E+02 0.  0.
         12    1    1    2    0    0 -0.15430459508E+02  0.10452016782E+02  0.18258295607E+01  0.18726382166E+02  0.00000000000E+00 0. -1.
         11    1    3    3    0    0 -0.21919902622E+01 -0.27540197538E-01 -0.15498472095E+02  0.15652738333E+02  0.51100000000E-03 0. -1.
        -11    1    3    3    0    0  0.12725209682E+02  0.19544576096E+02  0.12404718724E+02  0.26415875210E+02  0.51100000000E-03 0.  1.
         12    1    3    3    0    0  0.48972400879E+01 -0.29969052680E+02  0.12679238104E+01  0.30393004291E+02  0.00000000000E+00 0. -1.
</event>
<event>
 7    1  0.1465498E-013  0.7246155E+02  0.7816164E-02  0.1226708E+00
        -11   -1    0    0    0    0  0.00000000000E+00  0.00000000000E+00  0.45593999997E+02  0.45594000000E+02  0.51100000000E-03 0.  1.
         11   -1    0    0    0    0 -0.00000000000E+00 -0.00000000000E+00 -0.45593999997E+02  0.45594000000E+02  0.51100000000E-03 0. -1.
    9900012    2    1    2    0    0  0.52753812351E+01  0.70593797999E+00  0.17954161667E+02  0.72461550343E+02  0.69999974009E+02 0.  0.
         12    1    1    2    0    0 -0.52753812351E+01 -0.70593797999E+00 -0.17954161667E+02  0.18726449657E+02  0.00000000000E+00 0. -1.
         11    1    3    3    0    0 -0.33121054442E+01 -0.24454584545E+00 -0.55388580335E+01  0.64582345669E+01  0.51100000000E-03 0. -1.
        -11    1    3    3    0    0  0.14759882992E+02 -0.28226526717E+02  0.11698145043E+02  0.33932838876E+02  0.51100000000E-03 0.  1.
         12    1    3    3    0    0 -0.61723963124E+01  0.29177010543E+02  0.11794874657E+02  0.32070476900E+02  0.00000000000E+00 0. -1.
</event>
<event>
 7    1  0.1465498E-013  0.7246151E+02  0.7816164E-02  0.1226708E+00
        -11   -1    0    0    0    0  0.00000000000E+00  0.00000000000E+00  0.45593999997E+02  0.45594000000E+02  0.51100000000E-03 0. -1.
         11   -1    0    0    0    0 -0.00000000000E+00 -0.00000000000E+00 -0.45593999997E+02  0.45594000000E+02  0.51100000000E-03 0.  1.
    9900012    2    1    2    0    0 -0.31572787578E+01 -0.16440833458E+02 -0.83911956602E+01  0.72461505973E+02  0.69999916209E+02 0.  0.
         12    1    1    2    0    0  0.31572787578E+01  0.16440833458E+02  0.83911956602E+01  0.18726494027E+02  0.00000000000E+00 0. -1.
         11    1    3    3    0    0 -0.13909181610E+02  0.23068734096E+01  0.97855571164E+01  0.17162287910E+02  0.51100000000E-03 0. -1.
        -11    1    3    3    0    0 -0.19041451619E+01  0.14480534238E+02  0.14640313897E+01  0.14678386450E+02  0.51100000000E-03 0.  1.
        -12    1    3    3    0    0  0.12656048014E+02 -0.33228241105E+02 -0.19640784166E+02  0.40620831613E+02  0.00000000000E+00 0.  1.
</event>
<event>
 7    1  0.1465498E-013  0.7246156E+02  0.7816164E-02  0.1226708E+00
        -11   -1    0    0    0    0  0.00000000000E+00  0.00000000000E+00  0.45593999997E+02  0.45594000000E+02  0.51100000000E-03 0.  1.
         11   -1    0    0    0    0 -0.00000000000E+00 -0.00000000000E+00 -0.45593999997E+02  0.45594000000E+02  0.51100000000E-03 0. -1.
    9900012    2    1    2    0    0 -0.28781957284E+01 -0.15436631229E+00  0.18503290410E+02  0.72461558917E+02  0.69999985179E+02 0.  0.
         12    1    1    2    0    0  0.28781957284E+01  0.15436631229E+00 -0.18503290410E+02  0.18726441083E+02  0.00000000000E+00 0. -1.
         11    1    3    3    0    0  0.13477530459E+01 -0.17012182085E+02 -0.65539899187E+01  0.18280742919E+02  0.51100000000E-03 0. -1.
        -11    1    3    3    0    0  0.14310456927E+02  0.42830761754E-01  0.25397427201E+02  0.29151677836E+02  0.51100000000E-03 0.  1.
         12    1    3    3    0    0 -0.18536405701E+02  0.16814985011E+02 -0.34014687242E+00  0.25029138162E+02  0.00000000000E+00 0. -1.
</event>
<event>
 7    1  0.1465498E-013  0.7246156E+02  0.7816164E-02  0.1226708E+00
        -11   -1    0    0    0    0  0.00000000000E+00  0.00000000000E+00  0.45593999997E+02  0.45594000000E+02  0.51100000000E-03 0.  1.
         11   -1    0    0    0    0 -0.00000000000E+00 -0.00000000000E+00 -0.45593999997E+02  0.45594000000E+02  0.51100000000E-03 0. -1.
    9900012    2    1    2    0    0 -0.10619305816E+02 -0.94907046830E+01  0.12158796613E+02  0.72461562366E+02  0.69999989672E+02 0.  0.
         12    1    1    2    0    0  0.10619305816E+02  0.94907046830E+01 -0.12158796613E+02  0.18726437634E+02  0.00000000000E+00 0. -1.
         11    1    3    3    0    0 -0.73627957965E+01 -0.20117704106E+02  0.45269467536E+01  0.21895799314E+02  0.51100000000E-03 0. -1.
        -11    1    3    3    0    0  0.84682697824E+01  0.36657996778E+01  0.26057668220E+02  0.27643294914E+02  0.51100000000E-03 0.  1.
         12    1    3    3    0    0 -0.11724779802E+02  0.69611997451E+01 -0.18425818360E+02  0.22922468138E+02  0.00000000000E+00 0. -1.
</event>
<event>
 7    1  0.1465498E-013  0.7246169E+02  0.7816164E-02  0.1226708E+00
        -11   -1    0    0    0    0  0.00000000000E+00  0.00000000000E+00  0.45593999997E+02  0.45594000000E+02  0.51100000000E-03 0. -1.
         11   -1    0    0    0    0 -0.00000000000E+00 -0.00000000000E+00 -0.45593999997E+02  0.45594000000E+02  0.51100000000E-03 0.  1.
    9900012    2    1    2    0    0  0.15345293795E+02  0.10625412216E+02 -0.15156752534E+01  0.72461689688E+02  0.70000155532E+02 0.  0.
         12    1    1    2    0    0 -0.15345293795E+02 -0.10625412216E+02  0.15156752534E+01  0.18726310312E+02  0.00000000000E+00 0. -1.
         11    1    3    3    0    0  0.37618001665E+01  0.24738820205E+01 -0.91492657972E+01  0.10197072993E+02  0.51100000000E-03 0. -1.
        -11    1    3    3    0    0 -0.10756032385E+02 -0.18697985762E+02 -0.92495121522E+01  0.23470414984E+02  0.51100000000E-03 0.  1.
         12    1    3    3    0    0  0.22339526014E+02  0.26849515958E+02  0.16883102696E+02  0.38794201710E+02  0.00000000000E+00 0. -1.
</event>
<event>
 7    1  0.1465498E-013  0.7246161E+02  0.7816164E-02  0.1226708E+00
        -11   -1    0    0    0    0  0.00000000000E+00  0.00000000000E+00  0.45593999997E+02  0.45594000000E+02  0.51100000000E-03 0. -1.
         11   -1    0    0    0    0 -0.00000000000E+00 -0.00000000000E+00 -0.45593999997E+02  0.45594000000E+02  0.51100000000E-03 0.  1.
    9900012    2    1    2    0    0 -0.64069805638E+01  0.17179101858E+02 -0.38087956584E+01  0.72461605126E+02  0.70000045375E+02 0.  0.
         12    1    1    2    0    0  0.64069805638E+01 -0.17179101858E+02  0.38087956584E+01  0.18726394874E+02  0.00000000000E+00 0. -1.
         11    1    3    3    0    0  0.49554300495E+01  0.40137777520E+01  0.28915676457E+02  0.29610522523E+02  0.51100000000E-03 0. -1.
        -11    1    3    3    0    0  0.26637788435E+01 -0.27643839607E+01  0.86326494909E-02  0.38389596498E+01  0.51100000000E-03 0.  1.
        -12    1    3    3    0    0 -0.14026189457E+02  0.15929708067E+02 -0.32733104765E+02  0.39012122954E+02  0.00000000000E+00 0.  1.
</event>
<event>
 7    1  0.1465498E-013  0.7246159E+02  0.7816164E-02  0.1226708E+00
        -11   -1    0    0    0    0  0.00000000000E+00  0.00000000000E+00  0.45593999997E+02  0.45594000000E+02  0.51100000000E-03 0. -1.
         11   -1    0    0    0    0 -0.00000000000E+00 -0.00000000000E+00 -0.45593999997E+02  0.45594000000E+02  0.51100000000E-03 0.  1.
    9900012    2    1    2    0    0 -0.16058838206E+02 -0.41430355595E+01  0.86964085579E+01  0.72461586836E+02  0.70000021549E+02 0.  0.
         12    1    1    2    0    0  0.16058838206E+02  0.41430355595E+01 -0.86964085579E+01  0.18726413164E+02  0.00000000000E+00 0. -1.
         11    1    3    3    0    0  0.18884752255E+02 -0.11765621398E+02  0.12385451826E+02  0.25464939265E+02  0.51100000000E-03 0. -1.
        -11    1    3    3    0    0 -0.11184937013E+00 -0.88107318932E+00  0.89390647764E+01  0.89830774006E+01  0.51100000000E-03 0.  1.
        -12    1    3    3    0    0 -0.34831741091E+02  0.85036590278E+01 -0.12628108044E+02  0.38013570170E+02  0.00000000000E+00 0.  1.
</event>
<event>
 7    1  0.1465498E-013  0.7246162E+02  0.7816164E-02  0.1226708E+00
        -11   -1    0    0    0    0  0.00000000000E+00  0.00000000000E+00  0.45593999997E+02  0.45594000000E+02  0.51100000000E-03 0.  1.
         11   -1    0    0    0    0 -0.00000000000E+00 -0.00000000000E+00 -0.45593999997E+02  0.45594000000E+02  0.51100000000E-03 0. -1.
    9900012    2    1    2    0    0  0.10219521350E+02 -0.56390453257E+01  0.14643768787E+02  0.72461617191E+02  0.70000061092E+02 0.  0.
         12    1    1    2    0    0 -0.10219521350E+02  0.56390453257E+01 -0.14643768787E+02  0.18726382809E+02  0.00000000000E+00 0. -1.
         11    1    3    3    0    0  0.19526690861E+02 -0.10527989342E+00 -0.12780929868E+02  0.23337842839E+02  0.51100000000E-03 0. -1.
        -11    1    3    3    0    0  0.44856491595E+01 -0.77619762769E+01 -0.73849015001E+01  0.11614908288E+02  0.51100000000E-03 0.  1.
        -12    1    3    3    0    0 -0.13792818671E+02  0.22282108446E+01  0.34809600155E+02  0.37508866064E+02  0.00000000000E+00 0.  1.
</event>
<event>
 7    1  0.1465498E-013  0.7246152E+02  0.7816164E-02  0.1226708E+00
        -11   -1    0    0    0    0  0.00000000000E+00  0.00000000000E+00  0.45593999997E+02  0.45594000000E+02  0.51100000000E-03 0.  1.
         11   -1    0    0    0    0 -0.00000000000E+00 -0.00000000000E+00 -0.45593999997E+02  0.45594000000E+02  0.51100000000E-03 0. -1.
    9900012    2    1    2    0    0  0.11395821850E+02 -0.13388503732E+02  0.64470433630E+01  0.72461517256E+02  0.69999930908E+02 0.  0.
         12    1    1    2    0    0 -0.11395821850E+02  0.13388503732E+02 -0.64470433630E+01  0.18726482744E+02  0.00000000000E+00 0. -1.
         11    1    3    3    0    0 -0.65047077576E+01  0.12729825704E+02 -0.24483838975E+01  0.14503595052E+02  0.51100000000E-03 0. -1.
        -11    1    3    3    0    0  0.84849623920E+01 -0.35732610768E+01  0.26362618391E+02  0.27924011714E+02  0.51100000000E-03 0.  1.
         12    1    3    3    0    0  0.94155672158E+01 -0.22545068360E+02 -0.17467191130E+02  0.30033910490E+02  0.00000000000E+00 0. -1.
</event>
<event>
 7    1  0.1465498E-013  0.7246157E+02  0.7816164E-02  0.1226708E+00
        -11   -1    0    0    0    0  0.00000000000E+00  0.00000000000E+00  0.45593999997E+02  0.45594000000E+02  0.51100000000E-03 0. -1.
         11   -1    0    0    0    0 -0.00000000000E+00 -0.00000000000E+00 -0.45593999997E+02  0.45594000000E+02  0.51100000000E-03 0.  1.
    9900012    2    1    2    0    0 -0.17493468481E+02 -0.57535947213E+01 -0.33991177838E+01  0.72461566986E+02  0.69999995690E+02 0.  0.
         12    1    1    2    0    0  0.17493468481E+02  0.57535947213E+01  0.33991177838E+01  0.18726433014E+02  0.00000000000E+00 0. -1.
         11    1    3    3    0    0 -0.89963484063E+01 -0.25469834818E+02  0.19299876208E+02  0.33198373337E+02  0.51100000000E-03 0. -1.
        -11    1    3    3    0    0  0.78675756142E+01  0.49396687881E+01 -0.31888817754E+01  0.98218145483E+01  0.51100000000E-03 0.  1.
        -12    1    3    3    0    0 -0.16364695689E+02  0.14776571309E+02 -0.19510112216E+02  0.29441379101E+02  0.00000000000E+00 0.  1.
</event>
<event>
 7    1  0.1465498E-013  0.7246164E+02  0.7816164E-02  0.1226708E+00
        -11   -1    0    0    0    0  0.00000000000E+00  0.00000000000E+00  0.45593999997E+02  0.45594000000E+02  0.51100000000E-03 0. -1.
         11   -1    0    0    0    0 -0.00000000000E+00 -0.00000000000E+00 -0.45593999997E+02  0.45594000000E+02  0.51100000000E-03 0.  1.
    9900012    2    1    2    0    0 -0.10706784071E+02  0.14940279569E+02 -0.35818085031E+01  0.72461640746E+02  0.70000091777E+02 0.  0.
         12    1    1    2    0    0  0.10706784071E+02 -0.14940279569E+02  0.35818085031E+01  0.18726359254E+02  0.00000000000E+00 0. -1.
         11    1    3    3    0    0  0.12886174817E+02 -0.80837141900E+01  0.52238901734E-01  0.15211925114E+02  0.51100000000E-03 0. -1.
        -11    1    3    3    0    0  0.31194841940E+01  0.27178484051E+02 -0.10590732563E+02  0.29335384665E+02  0.51100000000E-03 0.  1.
         12    1    3    3    0    0 -0.26712443082E+02 -0.41544902920E+01  0.69566851585E+01  0.27914330968E+02  0.00000000000E+00 0. -1.
</event>
<event>
 7    1  0.1465498E-013  0.7246155E+02  0.7816164E-02  0.1226708E+00
        -11   -1    0    0    0    0  0.00000000000E+00  0.00000000000E+00  0.45593999997E+02  0.45594000000E+02  0.51100000000E-03 0.  1.
         11   -1    0    0    0    0 -0.00000000000E+00 -0.00000000000E+00 -0.45593999997E+02  0.45594000000E+02  0.51100000000E-03 0. -1.
    9900012    2    1    2    0    0 -0.14408594774E+02  0.10611877563E+02  0.55191046735E+01  0.72461546381E+02  0.69999968848E+02 0.  0.
         12    1    1    2    0    0  0.14408594774E+02 -0.10611877563E+02 -0.55191046735E+01  0.18726453619E+02  0.00000000000E+00 0. -1.
         11    1    3    3    0    0  0.15022171742E+02  0.69117865660E+01 -0.14936517211E+02  0.22283132276E+02  0.51100000000E-03 0. -1.
        -11    1    3    3    0    0 -0.81158945530E+01 -0.93604306013E+00 -0.98763329760E+01  0.12817405132E+02  0.51100000000E-03 0.  1.
        -12    1    3    3    0    0 -0.21314871962E+02  0.46361340567E+01  0.30331954861E+02  0.37361008973E+02  0.00000000000E+00 0.  1.
</event>
<event>
 7    1  0.1465498E-013  0.7246151E+02  0.7816164E-02  0.1226708E+00
        -11   -1    0    0    0    0  0.00000000000E+00  0.00000000000E+00  0.45593999997E+02  0.45594000000E+02  0.51100000000E-03 0. -1.
         11   -1    0    0    0    0 -0.00000000000E+00 -0.00000000000E+00 -0.45593999997E+02  0.45594000000E+02  0.51100000000E-03 0.  1.
    9900012    2    1    2    0    0 -0.12602237115E+02  0.13567985488E+02 -0.27883686582E+01  0.72461505126E+02  0.69999915106E+02 0.  0.
         12    1    1    2    0    0  0.12602237115E+02 -0.13567985488E+02  0.27883686582E+01  0.18726494874E+02  0.00000000000E+00 0. -1.
         11    1    3    3    0    0  0.43560597410E+01 -0.49525781492E+01 -0.14463670402E+02  0.15896573485E+02  0.51100000000E-03 0. -1.
        -11    1    3    3    0    0 -0.10346356301E+02  0.75666471929E+01 -0.19233037169E+02  0.23113004077E+02  0.51100000000E-03 0.  1.
         12    1    3    3    0    0 -0.66119405550E+01  0.10953916444E+02  0.30908338913E+02  0.33451927564E+02  0.00000000000E+00 0. -1.
</event>
<event>
 7    1  0.1465498E-013  0.7246157E+02  0.7816164E-02  0.1226708E+00
        -11   -1    0    0    0    0  0.00000000000E+00  0.00000000000E+00  0.45593999997E+02  0.45594000000E+02  0.51100000000E-03 0. -1.
         11   -1    0    0    0    0 -0.00000000000E+00 -0.00000000000E+00 -0.45593999997E+02  0.45594000000E+02  0.51100000000E-03 0.  1.
    9900012    2    1    2    0    0 -0.12794836377E+02 -0.72688313368E+01 -0.11581685099E+02  0.72461570105E+02  0.69999999753E+02 0.  0.
         12    1    1    2    0    0  0.12794836377E+02  0.72688313368E+01  0.11581685099E+02  0.18726429895E+02  0.00000000000E+00 0. -1.
         11    1    3    3    0    0  0.35250227958E+01  0.15227924481E+01 -0.22061466098E+01  0.44285173225E+01  0.51100000000E-03 0. -1.
        -11    1    3    3    0    0 -0.25365076037E+02  0.18167028528E+02 -0.20681793476E+02  0.37432133115E+02  0.51100000000E-03 0.  1.
         12    1    3    3    0    0  0.90452168644E+01 -0.26958652313E+02  0.11306254987E+02  0.30600919667E+02  0.00000000000E+00 0. -1.
</event>
<event>
 7    1  0.1465498E-013  0.7246136E+02  0.7816164E-02  0.1226709E+00
        -11   -1    0    0    0    0  0.00000000000E+00  0.00000000000E+00  0.45593999997E+02  0.45594000000E+02  0.51100000000E-03 0. -1.
         11   -1    0    0    0    0 -0.00000000000E+00 -0.00000000000E+00 -0.45593999997E+02  0.45594000000E+02  0.51100000000E-03 0.  1.
    9900012    2    1    2    0    0 -0.16205374751E+02 -0.76468397744E+01 -0.54404762114E+01  0.72461358263E+02  0.69999723789E+02 0.  0.
         12    1    1    2    0    0  0.16205374751E+02  0.76468397744E+01  0.54404762114E+01  0.18726641737E+02  0.00000000000E+00 0. -1.
         11    1    3    3    0    0  0.73462824506E+00  0.19728036669E+01  0.15493826081E+02  0.15636184953E+02  0.51100000000E-03 0. -1.
        -11    1    3    3    0    0 -0.26626091281E+02  0.91687015139E+01 -0.21886500864E+02  0.35665568055E+02  0.51100000000E-03 0.  1.
         12    1    3    3    0    0  0.96860882858E+01 -0.18788344955E+02  0.95219857098E+00  0.21159605255E+02  0.00000000000E+00 0. -1.
</event>
<event>
 7    1  0.1465498E-013  0.7246154E+02  0.7816164E-02  0.1226708E+00
        -11   -1    0    0    0    0  0.00000000000E+00  0.00000000000E+00  0.45593999997E+02  0.45594000000E+02  0.51100000000E-03 0.  1.
         11   -1    0    0    0    0 -0.00000000000E+00 -0.00000000000E+00 -0.45593999997E+02  0.45594000000E+02  0.51100000000E-03 0. -1.
    9900012    2    1    2    0    0  0.48494035846E+01  0.12013718600E+02 -0.13521617564E+02  0.72461540344E+02  0.69999960984E+02 0.  0.
         12    1    1    2    0    0 -0.48494035846E+01 -0.12013718600E+02  0.13521617564E+02  0.18726459656E+02  0.00000000000E+00 0. -1.
         11    1    3    3    0    0 -0.86359252729E+00 -0.18527830201E+01  0.19919898666E+02  0.20024508985E+02  0.51100000000E-03 0. -1.
        -11    1    3    3    0    0  0.11436875887E+02 -0.92639099586E+01 -0.54930885750E+01  0.15709747933E+02  0.51100000000E-03 0.  1.
         12    1    3    3    0    0 -0.57238797750E+01  0.23130411579E+02 -0.27948427654E+02  0.36727283426E+02  0.00000000000E+00 0. -1.
</event>
<event>
 7    1  0.1465498E-013  0.7246155E+02  0.7816164E-02  0.1226708E+00
        -11   -1    0    0    0    0  0.00000000000E+00  0.00000000000E+00  0.45593999997E+02  0.45594000000E+02  0.51100000000E-03 0.  1.
         11   -1    0    0    0    0 -0.00000000000E+00 -0.00000000000E+00 -0.45593999997E+02  0.45594000000E+02  0.51100000000E-03 0. -1.
    9900012    2    1    2    0    0 -0.15643893590E+02 -0.24926631123E+00 -0.10290112417E+02  0.72461549351E+02  0.69999972718E+02 0.  0.
         12    1    1    2    0    0  0.15643893590E+02  0.24926631123E+00  0.10290112417E+02  0.18726450649E+02  0.00000000000E+00 0. -1.
         11    1    3    3    0    0 -0.37574598909E+01  0.69783719826E+01  0.59825818616E+00  0.79482132255E+01  0.51100000000E-03 0. -1.
        -11    1    3    3    0    0 -0.34146835511E+02 -0.15021505782E+02  0.25077882567E+01  0.37389049380E+02  0.51100000000E-03 0.  1.
         12    1    3    3    0    0  0.22260401812E+02  0.77938674882E+01 -0.13396158860E+02  0.27124286745E+02  0.00000000000E+00 0. -1.
</event>
<event>
 7    1  0.1465498E-013  0.7246156E+02  0.7816164E-02  0.1226708E+00
        -11   -1    0    0    0    0  0.00000000000E+00  0.00000000000E+00  0.45593999997E+02  0.45594000000E+02  0.51100000000E-03 0.  1.
         11   -1    0    0    0    0 -0.00000000000E+00 -0.00000000000E+00 -0.45593999997E+02  0.45594000000E+02  0.51100000000E-03 0. -1.
    9900012    2    1    2    0    0  0.45323492762E+01 -0.26402039364E+01  0.17976839365E+02  0.72461558257E+02  0.69999984320E+02 0.  0.
         12    1    1    2    0    0 -0.45323492762E+01  0.26402039364E+01 -0.17976839365E+02  0.18726441743E+02  0.00000000000E+00 0. -1.
         11    1    3    3    0    0  0.25381666873E+01  0.11683156781E+02  0.41546970809E+01  0.12657011914E+02  0.51100000000E-03 0. -1.
        -11    1    3    3    0    0  0.21744085296E+02  0.31357539583E+01  0.23081322193E+02  0.31865116235E+02  0.51100000000E-03 0.  1.
         12    1    3    3    0    0 -0.19749902707E+02 -0.17459114675E+02 -0.92591799087E+01  0.27939430108E+02  0.00000000000E+00 0. -1.
</event>
<event>
 7    1  0.1465498E-013  0.7246156E+02  0.7816164E-02  0.1226708E+00
        -11   -1    0    0    0    0  0.00000000000E+00  0.00000000000E+00  0.45593999997E+02  0.45594000000E+02  0.51100000000E-03 0.  1.
         11   -1    0    0    0    0 -0.00000000000E+00 -0.00000000000E+00 -0.45593999997E+02  0.45594000000E+02  0.51100000000E-03 0. -1.
    9900012    2    1    2    0    0  0.41297795009E+01  0.16566226093E+02 -0.76931648226E+01  0.72461555845E+02  0.69999981178E+02 0.  0.
         12    1    1    2    0    0 -0.41297795009E+01 -0.16566226093E+02  0.76931648226E+01  0.18726444155E+02  0.00000000000E+00 0. -1.
         11    1    3    3    0    0 -0.82975077144E+01  0.24439898151E+01 -0.29597092921E+02  0.30835201152E+02  0.51100000000E-03 0. -1.
        -11    1    3    3    0    0  0.97598274869E+01  0.10363878720E+02 -0.44165898681E+01  0.14905384296E+02  0.51100000000E-03 0.  1.
        -12    1    3    3    0    0  0.26674597284E+01  0.37583575578E+01  0.26320517966E+02  0.26720970397E+02  0.00000000000E+00 0.  1.
</event>
<event>
 7    1  0.1465498E-013  0.7246157E+02  0.7816164E-02  0.1226708E+00
        -11   -1    0    0    0    0  0.00000000000E+00  0.00000000000E+00  0.45593999997E+02  0.45594000000E+02  0.51100000000E-03 0.  1.
         11   -1    0    0    0    0 -0.00000000000E+00 -0.00000000000E+00 -0.45593999997E+02  0.45594000000E+02  0.51100000000E-03 0. -1.
    9900012    2    1    2    0    0 -0.12408271247E+02 -0.13872487237E+02 -0.20659210319E+01  0.72461571425E+02  0.70000001473E+02 0.  0.
         12    1    1    2    0    0  0.12408271247E+02  0.13872487237E+02  0.20659210319E+01  0.18726428575E+02  0.00000000000E+00 0. -1.
         11    1    3    3    0    0  0.13803630384E+02  0.15663050179E+02  0.17166292426E+01  0.20947987228E+02  0.51100000000E-03 0. -1.
        -11    1    3    3    0    0  0.51376966713E+01 -0.35542198659E+01  0.70112683037E+01  0.93907555302E+01  0.51100000000E-03 0.  1.
         12    1    3    3    0    0 -0.31349598302E+02 -0.25981317550E+02 -0.10793818578E+02  0.42122828666E+02  0.00000000000E+00 0. -1.
</event>
<event>
 7    1  0.1465498E-013  0.7246143E+02  0.7816164E-02  0.1226708E+00
        -11   -1    0    0    0    0  0.00000000000E+00  0.00000000000E+00  0.45593999997E+02  0.45594000000E+02  0.51100000000E-03 0.  1.
         11   -1    0    0    0    0 -0.00000000000E+00 -0.00000000000E+00 -0.45593999997E+02  0.45594000000E+02  0.51100000000E-03 0. -1.
    9900012    2    1    2    0    0 -0.10202796120E+00  0.12197790473E+02  0.14208727111E+02  0.72461429886E+02  0.69999817092E+02 0.  0.
         12    1    1    2    0    0  0.10202796120E+00 -0.12197790473E+02 -0.14208727111E+02  0.18726570114E+02  0.00000000000E+00 0. -1.
         11    1    3    3    0    0 -0.11645143989E+02 -0.57523198187E+01 -0.19066598048E+02  0.23070191226E+02  0.51100000000E-03 0. -1.
        -11    1    3    3    0    0  0.51536035731E+01  0.16524371414E+02  0.19843371832E+01  0.17422745901E+02  0.51100000000E-03 0.  1.
        -12    1    3    3    0    0  0.63895124543E+01  0.14257388771E+01  0.31290987976E+02  0.31968492759E+02  0.00000000000E+00 0.  1.
</event>
<event>
 7    1  0.1465498E-013  0.7246160E+02  0.7816164E-02  0.1226708E+00
        -11   -1    0    0    0    0  0.00000000000E+00  0.00000000000E+00  0.45593999997E+02  0.45594000000E+02  0.51100000000E-03 0.  1.
         11   -1    0    0    0    0 -0.00000000000E+00 -0.00000000000E+00 -0.45593999997E+02  0.45594000000E+02  0.51100000000E-03 0. -1.
    9900012    2    1    2    0    0 -0.63237416635E+01  0.17516923444E+02 -0.19610963948E+01  0.72461595790E+02  0.70000033212E+02 0.  0.
         12    1    1    2    0    0  0.63237416635E+01 -0.17516923444E+02  0.19610963948E+01  0.18726404210E+02  0.00000000000E+00 0. -1.
         11    1    3    3    0    0  0.25823718388E+02  0.23721748003E+01  0.24294710870E+01  0.26045997287E+02  0.51100000000E-03 0. -1.
        -11    1    3    3    0    0  0.29561363917E+01  0.10336920487E+02 -0.16668281957E+01  0.10879751101E+02  0.51100000000E-03 0.  1.
         12    1    3    3    0    0 -0.35103596443E+02  0.48078281570E+01 -0.27237392862E+01  0.35535847401E+02  0.00000000000E+00 0. -1.
</event>
<event>
 7    1  0.1465498E-013  0.7246150E+02  0.7816164E-02  0.1226708E+00
        -11   -1    0    0    0    0  0.00000000000E+00  0.00000000000E+00  0.45593999997E+02  0.45594000000E+02  0.51100000000E-03 0. -1.
         11   -1    0    0    0    0 -0.00000000000E+00 -0.00000000000E+00 -0.45593999997E+02  0.45594000000E+02  0.51100000000E-03 0.  1.
    9900012    2    1    2    0    0  0.94797396266E+01 -0.76514020836E+01 -0.14222254326E+02  0.72461496447E+02  0.69999903799E+02 0.  0.
         12    1    1    2    0    0 -0.94797396266E+01  0.76514020836E+01  0.14222254326E+02  0.18726503553E+02  0.00000000000E+00 0. -1.
         11    1    3    3    0    0 -0.88608905302E+01  0.14195022760E+02 -0.94002847636E+01  0.19193212499E+02  0.51100000000E-03 0. -1.
        -11    1    3    3    0    0 -0.16277867942E+01  0.16778098836E+01  0.15918391781E+02  0.16089124681E+02  0.51100000000E-03 0.  1.
        -12    1    3    3    0    0  0.19968416951E+02 -0.23524234727E+02 -0.20740361343E+02  0.37179159266E+02  0.00000000000E+00 0.  1.
</event>
<event>
 7    1  0.1465498E-013  0.7246155E+02  0.7816164E-02  0.1226708E+00
        -11   -1    0    0    0    0  0.00000000000E+00  0.00000000000E+00  0.45593999997E+02  0.45594000000E+02  0.51100000000E-03 0.  1.
         11   -1    0    0    0    0 -0.00000000000E+00 -0.00000000000E+00 -0.45593999997E+02  0.45594000000E+02  0.51100000000E-03 0. -1.
    9900012    2    1    2    0    0 -0.14371537872E+02 -0.10507129077E+02 -0.58085371743E+01  0.72461549019E+02  0.69999972284E+02 0.  0.
         12    1    1    2    0    0  0.14371537872E+02  0.10507129077E+02  0.58085371743E+01  0.18726450981E+02  0.00000000000E+00 0. -1.
         11    1    3    3    0    0  0.14034836368E+01 -0.11977513029E+02 -0.56228868776E+01  0.13305917547E+02  0.51100000000E-03 0. -1.
        -11    1    3    3    0    0  0.19098979775E+02  0.11473914940E+02  0.39926413053E+01  0.22635435435E+02  0.51100000000E-03 0.  1.
         12    1    3    3    0    0 -0.34874001284E+02 -0.10003530988E+02 -0.41782916020E+01  0.36520196036E+02  0.00000000000E+00 0. -1.
</event>
<event>
 7    1  0.1465498E-013  0.7246153E+02  0.7816164E-02  0.1226708E+00
        -11   -1    0    0    0    0  0.00000000000E+00  0.00000000000E+00  0.45593999997E+02  0.45594000000E+02  0.51100000000E-03 0.  1.
         11   -1    0    0    0    0 -0.00000000000E+00 -0.00000000000E+00 -0.45593999997E+02  0.45594000000E+02  0.51100000000E-03 0. -1.
    9900012    2    1    2    0    0 -0.42360247078E+01  0.17329788516E+02  0.56934394602E+01  0.72461528677E+02  0.69999945786E+02 0.  0.
         12    1    1    2    0    0  0.42360247078E+01 -0.17329788516E+02 -0.56934394602E+01  0.18726471323E+02  0.00000000000E+00 0. -1.
         11    1    3    3    0    0  0.12852320266E+02  0.72282731193E+01  0.37381063371E+00  0.14750247562E+02  0.51100000000E-03 0.  1.
        -11    1    3    3    0    0 -0.14705302034E+02 -0.21045151828E+02  0.63834045980E+01  0.26455475386E+02  0.51100000000E-03 0. -1.
         12    1    3    3    0    0 -0.23830429399E+01  0.31146667225E+02 -0.10637757715E+01  0.31255805729E+02  0.00000000000E+00 0. -1.
</event>
<event>
 7    1  0.1465498E-013  0.7246156E+02  0.7816164E-02  0.1226708E+00
        -11   -1    0    0    0    0  0.00000000000E+00  0.00000000000E+00  0.45593999997E+02  0.45594000000E+02  0.51100000000E-03 0. -1.
         11   -1    0    0    0    0 -0.00000000000E+00 -0.00000000000E+00 -0.45593999997E+02  0.45594000000E+02  0.51100000000E-03 0.  1.
    9900012    2    1    2    0    0 -0.80778337509E+01 -0.15816965187E+02  0.59373146665E+01  0.72461561703E+02  0.69999988808E+02 0.  0.
         12    1    1    2    0    0  0.80778337509E+01  0.15816965187E+02 -0.59373146665E+01  0.18726438297E+02  0.00000000000E+00 0. -1.
         11    1    3    3    0    0 -0.16393383807E+02  0.14944501614E+02  0.62242406893E+01  0.23039581887E+02  0.51100000000E-03 0. -1.
        -11    1    3    3    0    0 -0.91140096513E+01 -0.42687324023E+01  0.11778163706E+02  0.15492333227E+02  0.51100000000E-03 0.  1.
        -12    1    3    3    0    0  0.17429559707E+02 -0.26492734398E+02 -0.12065089729E+02  0.33929646589E+02  0.00000000000E+00 0.  1.
</event>
<event>
 7    1  0.1465498E-013  0.7246159E+02  0.7816164E-02  0.1226708E+00
        -11   -1    0    0    0    0  0.00000000000E+00  0.00000000000E+00  0.45593999997E+02  0.45594000000E+02  0.51100000000E-03 0.  1.
         11   -1    0    0    0    0 -0.00000000000E+00 -0.00000000000E+00 -0.45593999997E+02  0.45594000000E+02  0.51100000000E-03 0. -1.
    9900012    2    1    2    0    0  0.82279477884E+01 -0.14888525523E+02  0.78301334811E+01  0.72461593313E+02  0.70000029987E+02 0.  0.
         12    1    1    2    0    0 -0.82279477884E+01  0.14888525523E+02 -0.78301334811E+01  0.18726406687E+02  0.00000000000E+00 0. -1.
         11    1    3    3    0    0  0.39867385233E+01  0.33977387292E+01 -0.16951903767E+02  0.17742766247E+02  0.51100000000E-03 0. -1.
        -11    1    3    3    0    0  0.21508221557E+02  0.83090971805E+00  0.46407579371E+01  0.22018870089E+02  0.51100000000E-03 0.  1.
        -12    1    3    3    0    0 -0.17267012291E+02 -0.19117173970E+02  0.20141279311E+02  0.32699956978E+02  0.00000000000E+00 0.  1.
</event>
<event>
 7    1  0.1465498E-013  0.7246161E+02  0.7816164E-02  0.1226708E+00
        -11   -1    0    0    0    0  0.00000000000E+00  0.00000000000E+00  0.45593999997E+02  0.45594000000E+02  0.51100000000E-03 0.  1.
         11   -1    0    0    0    0 -0.00000000000E+00 -0.00000000000E+00 -0.45593999997E+02  0.45594000000E+02  0.51100000000E-03 0. -1.
    9900012    2    1    2    0    0 -0.16870160934E+02  0.82042352821E+00 -0.80871740363E+01  0.72461606631E+02  0.70000047336E+02 0.  0.
         12    1    1    2    0    0  0.16870160934E+02 -0.82042352821E+00  0.80871740363E+01  0.18726393369E+02  0.00000000000E+00 0. -1.
         11    1    3    3    0    0 -0.11728107912E+01 -0.54678893251E+01 -0.20238739909E+02  0.20997140095E+02  0.51100000000E-03 0. -1.
        -11    1    3    3    0    0 -0.57890490172E+01  0.19494821720E+02 -0.10928840790E+02  0.23086808435E+02  0.51100000000E-03 0.  1.
        -12    1    3    3    0    0 -0.99083011254E+01 -0.13206508867E+02  0.23080406662E+02  0.28377658102E+02  0.00000000000E+00 0.  1.
</event>
<event>
 7    1  0.1465498E-013  0.7246156E+02  0.7816164E-02  0.1226708E+00
        -11   -1    0    0    0    0  0.00000000000E+00  0.00000000000E+00  0.45593999997E+02  0.45594000000E+02  0.51100000000E-03 0. -1.
         11   -1    0    0    0    0 -0.00000000000E+00 -0.00000000000E+00 -0.45593999997E+02  0.45594000000E+02  0.51100000000E-03 0.  1.
    9900012    2    1    2    0    0 -0.79856292756E+01  0.72531671591E+01 -0.15306884965E+02  0.72461563176E+02  0.69999990728E+02 0.  0.
         12    1    1    2    0    0  0.79856292756E+01 -0.72531671591E+01  0.15306884965E+02  0.18726436824E+02  0.00000000000E+00 0. -1.
         11    1    3    3    0    0  0.10742571878E+02  0.26076575143E+02 -0.10159306143E+02  0.29976693002E+02  0.51100000000E-03 0.  1.
        -11    1    3    3    0    0  0.88432815098E+01 -0.92891506044E+01 -0.33520093010E+01  0.13256240547E+02  0.51100000000E-03 0. -1.
         12    1    3    3    0    0 -0.27571482663E+02 -0.95342573798E+01 -0.17955695208E+01  0.29228629628E+02  0.00000000000E+00 0. -1.
</event>
<event>
 7    1  0.1465498E-013  0.7246156E+02  0.7816164E-02  0.1226708E+00
        -11   -1    0    0    0    0  0.00000000000E+00  0.00000000000E+00  0.45593999997E+02  0.45594000000E+02  0.51100000000E-03 0. -1.
         11   -1    0    0    0    0 -0.00000000000E+00 -0.00000000000E+00 -0.45593999997E+02  0.45594000000E+02  0.51100000000E-03 0.  1.
    9900012    2    1    2    0    0  0.13533524078E+02  0.86835546059E+01 -0.95978815902E+01  0.72461555447E+02  0.69999980659E+02 0.  0.
         12    1    1    2    0    0 -0.13533524078E+02 -0.86835546059E+01  0.95978815902E+01  0.18726444553E+02  0.00000000000E+00 0. -1.
         11    1    3    3    0    0  0.14457656480E+02  0.60992326508E+01  0.12408297321E+02  0.20004757246E+02  0.51100000000E-03 0. -1.
        -11    1    3    3    0    0  0.23735616326E+01  0.24076728437E+02 -0.18446080174E+02  0.30423354863E+02  0.51100000000E-03 0.  1.
         12    1    3    3    0    0 -0.32976940343E+01 -0.21492406482E+02 -0.35600987378E+01  0.22033443338E+02  0.00000000000E+00 0. -1.
</event>
<event>
 7    1  0.1465498E-013  0.7246154E+02  0.7816164E-02  0.1226708E+00
        -11   -1    0    0    0    0  0.00000000000E+00  0.00000000000E+00  0.45593999997E+02  0.45594000000E+02  0.51100000000E-03 0.  1.
         11   -1    0    0    0    0 -0.00000000000E+00 -0.00000000000E+00 -0.45593999997E+02  0.45594000000E+02  0.51100000000E-03 0. -1.
    9900012    2    1    2    0    0 -0.37003070663E+01  0.16049189563E+02  0.89113166530E+01  0.72461539509E+02  0.69999959896E+02 0.  0.
         12    1    1    2    0    0  0.37003070663E+01 -0.16049189563E+02 -0.89113166530E+01  0.18726460491E+02  0.00000000000E+00 0. -1.
         11    1    3    3    0    0  0.62211767144E+01 -0.12099848039E+02 -0.14648264200E+02  0.19992023575E+02  0.51100000000E-03 0. -1.
        -11    1    3    3    0    0  0.27020353830E+01 -0.20419390495E+01 -0.69487633306E+01  0.77301890260E+01  0.51100000000E-03 0.  1.
        -12    1    3    3    0    0 -0.12623519164E+02  0.30190976652E+02  0.30508344184E+02  0.44739326908E+02  0.00000000000E+00 0.  1.
</event>
<event>
 7    1  0.1465498E-013  0.7246160E+02  0.7816164E-02  0.1226708E+00
        -11   -1    0    0    0    0  0.00000000000E+00  0.00000000000E+00  0.45593999997E+02  0.45594000000E+02  0.51100000000E-03 0.  1.
         11   -1    0    0    0    0 -0.00000000000E+00 -0.00000000000E+00 -0.45593999997E+02  0.45594000000E+02  0.51100000000E-03 0. -1.
    9900012    2    1    2    0    0  0.10946870446E+02  0.13251461379E+02  0.74325504760E+01  0.72461601312E+02  0.70000040406E+02 0.  0.
         12    1    1    2    0    0 -0.10946870446E+02 -0.13251461379E+02 -0.74325504760E+01  0.18726398688E+02  0.00000000000E+00 0. -1.
         11    1    3    3    0    0  0.21541244201E+02  0.19602957612E+02  0.29365377784E+01  0.29273271141E+02  0.51100000000E-03 0. -1.
        -11    1    3    3    0    0 -0.12897520991E+02 -0.74833954833E+01 -0.16382608205E+02  0.22152586926E+02  0.51100000000E-03 0.  1.
         12    1    3    3    0    0  0.23031472349E+01  0.11318992504E+01  0.20878620903E+02  0.21035743245E+02  0.00000000000E+00 0. -1.
</event>
<event>
 7    1  0.1465498E-013  0.7246156E+02  0.7816164E-02  0.1226708E+00
        -11   -1    0    0    0    0  0.00000000000E+00  0.00000000000E+00  0.45593999997E+02  0.45594000000E+02  0.51100000000E-03 0.  1.
         11   -1    0    0    0    0 -0.00000000000E+00 -0.00000000000E+00 -0.45593999997E+02  0.45594000000E+02  0.51100000000E-03 0. -1.
    9900012    2    1    2    0    0  0.71779095645E+01 -0.16289923734E+02 -0.58134037606E+01  0.72461557084E+02  0.69999982792E+02 0.  0.
         12    1    1    2    0    0 -0.71779095645E+01  0.16289923734E+02  0.58134037606E+01  0.18726442916E+02  0.00000000000E+00 0. -1.
         11    1    3    3    0    0 -0.19096547031E+01  0.20017179750E+01  0.23222274067E+01  0.36119795578E+01  0.51100000000E-03 0. -1.
        -11    1    3    3    0    0  0.33787874272E+02 -0.15000264008E+00  0.72504382502E+01  0.34557369745E+02  0.51100000000E-03 0.  1.
         12    1    3    3    0    0 -0.24700310004E+02 -0.18141639069E+02 -0.15386069418E+02  0.34292207782E+02  0.00000000000E+00 0. -1.
</event>
<event>
 7    1  0.1465498E-013  0.7246158E+02  0.7816164E-02  0.1226708E+00
        -11   -1    0    0    0    0  0.00000000000E+00  0.00000000000E+00  0.45593999997E+02  0.45594000000E+02  0.51100000000E-03 0. -1.
         11   -1    0    0    0    0 -0.00000000000E+00 -0.00000000000E+00 -0.45593999997E+02  0.45594000000E+02  0.51100000000E-03 0.  1.
    9900012    2    1    2    0    0 -0.16385255289E+02 -0.64111252382E+01 -0.64108908078E+01  0.72461584468E+02  0.70000018464E+02 0.  0.
         12    1    1    2    0    0  0.16385255289E+02  0.64111252382E+01  0.64108908078E+01  0.18726415532E+02  0.00000000000E+00 0. -1.
         11    1    3    3    0    0 -0.72161617333E+01 -0.72396730475E+01  0.25139354355E+01  0.10526429957E+02  0.51100000000E-03 0. -1.
        -11    1    3    3    0    0 -0.21368486037E+02 -0.23383112573E+02  0.39507924432E+01  0.31921637025E+02  0.51100000000E-03 0.  1.
         12    1    3    3    0    0  0.12199392482E+02  0.24211660383E+02 -0.12875618686E+02  0.30013517487E+02  0.00000000000E+00 0. -1.
</event>
<event>
 7    1  0.1465498E-013  0.7246160E+02  0.7816164E-02  0.1226708E+00
        -11   -1    0    0    0    0  0.00000000000E+00  0.00000000000E+00  0.45593999997E+02  0.45594000000E+02  0.51100000000E-03 0.  1.
         11   -1    0    0    0    0 -0.00000000000E+00 -0.00000000000E+00 -0.45593999997E+02  0.45594000000E+02  0.51100000000E-03 0. -1.
    9900012    2    1    2    0    0  0.15277886276E+02  0.10254158421E+02 -0.34808601455E+01  0.72461602553E+02  0.70000042023E+02 0.  0.
         12    1    1    2    0    0 -0.15277886276E+02 -0.10254158421E+02  0.34808601455E+01  0.18726397447E+02  0.00000000000E+00 0. -1.
         11    1    3    3    0    0 -0.15602757309E+02 -0.11625470357E+02  0.28871136010E+01  0.19670613155E+02  0.51100000000E-03 0. -1.
        -11    1    3    3    0    0 -0.40068654911E+01  0.16288473758E+02 -0.46948820339E+01  0.17418704486E+02  0.51100000000E-03 0.  1.
        -12    1    3    3    0    0  0.34887509077E+02  0.55911550199E+01 -0.16730917126E+01  0.35372284912E+02  0.00000000000E+00 0.  1.
</event>
<event>
 7    1  0.1465498E-013  0.7246155E+02  0.7816164E-02  0.1226708E+00
        -11   -1    0    0    0    0  0.00000000000E+00  0.00000000000E+00  0.45593999997E+02  0.45594000000E+02  0.51100000000E-03 0. -1.
         11   -1    0    0    0    0 -0.00000000000E+00 -0.00000000000E+00 -0.45593999997E+02  0.45594000000E+02  0.51100000000E-03 0.  1.
    9900012    2    1    2    0    0  0.86153911773E+01 -0.88796860474E+01 -0.14057247976E+02  0.72461547851E+02  0.69999970763E+02 0.  0.
         12    1    1    2    0    0 -0.86153911773E+01  0.88796860474E+01  0.14057247976E+02  0.18726452149E+02  0.00000000000E+00 0. -1.
         11    1    3    3    0    0 -0.67545547610E+01 -0.14428421174E+02 -0.50205099098E+01  0.16703558531E+02  0.51100000000E-03 0. -1.
        -11    1    3    3    0    0  0.23040040575E+02 -0.14525090139E+02 -0.17814597103E+02  0.32545070033E+02  0.51100000000E-03 0.  1.
         12    1    3    3    0    0 -0.76700946369E+01  0.20073825266E+02  0.87778590369E+01  0.23212919286E+02  0.00000000000E+00 0. -1.
</event>
<event>
 7    1  0.1769353E-013  0.7246160E+02  0.7816164E-02  0.1226708E+00
        -11   -1    0    0    0    0  0.00000000000E+00  0.00000000000E+00  0.45593999997E+02  0.45594000000E+02  0.51100000000E-03 0. -1.
         11   -1    0    0    0    0 -0.00000000000E+00 -0.00000000000E+00 -0.45593999997E+02  0.45594000000E+02  0.51100000000E-03 0.  1.
    9900012    2    1    2    0    0 -0.29440043557E+01 -0.65836542757E+01 -0.17281966174E+02  0.72461600984E+02  0.70000039980E+02 0.  0.
         12    1    1    2    0    0  0.29440043557E+01  0.65836542757E+01  0.17281966174E+02  0.18726399016E+02  0.00000000000E+00 0. -1.
         11    1    3    3    0    0  0.42964154602E+01  0.13817358675E+02  0.12390020165E+02  0.19049703055E+02  0.51100000000E-03 0. -1.
        -11    1    3    3    0    0  0.13887995092E+02  0.75674237147E+00 -0.54768248592E+01  0.14948066012E+02  0.51100000000E-03 0.  1.
        -12    1    3    3    0    0 -0.21128414908E+02 -0.21157755322E+02 -0.24195161479E+02  0.38463831917E+02  0.00000000000E+00 0.  1.
</event>
<event>
 7    1  0.1465498E-013  0.7246148E+02  0.7816164E-02  0.1226708E+00
        -11   -1    0    0    0    0  0.00000000000E+00  0.00000000000E+00  0.45593999997E+02  0.45594000000E+02  0.51100000000E-03 0.  1.
         11   -1    0    0    0    0 -0.00000000000E+00 -0.00000000000E+00 -0.45593999997E+02  0.45594000000E+02  0.51100000000E-03 0. -1.
    9900012    2    1    2    0    0 -0.25105613760E+01 -0.42327816311E+01  0.18068289566E+02  0.72461482795E+02  0.69999886016E+02 0.  0.
         12    1    1    2    0    0  0.25105613760E+01  0.42327816311E+01 -0.18068289566E+02  0.18726517205E+02  0.00000000000E+00 0. -1.
         11    1    3    3    0    0  0.11482578116E+02 -0.26071806268E+02  0.52878731487E+01  0.28974994133E+02  0.51100000000E-03 0. -1.
        -11    1    3    3    0    0  0.20665924994E+01  0.50785188273E+01  0.18736151749E+02  0.19521924615E+02  0.51100000000E-03 0.  1.
         12    1    3    3    0    0 -0.16059731992E+02  0.16760505810E+02 -0.59557353315E+01  0.23964564048E+02  0.00000000000E+00 0. -1.
</event>
<event>
 7    1  0.1465498E-013  0.7246156E+02  0.7816164E-02  0.1226708E+00
        -11   -1    0    0    0    0  0.00000000000E+00  0.00000000000E+00  0.45593999997E+02  0.45594000000E+02  0.51100000000E-03 0. -1.
         11   -1    0    0    0    0 -0.00000000000E+00 -0.00000000000E+00 -0.45593999997E+02  0.45594000000E+02  0.51100000000E-03 0.  1.
    9900012    2    1    2    0    0 -0.12777270695E+02 -0.12211348953E+02 -0.61890133733E+01  0.72461559436E+02  0.69999985855E+02 0.  0.
         12    1    1    2    0    0  0.12777270695E+02  0.12211348953E+02  0.61890133733E+01  0.18726440564E+02  0.00000000000E+00 0. -1.
         11    1    3    3    0    0 -0.11134760585E+02  0.17271535655E+02 -0.45225550548E+00  0.20554643574E+02  0.51100000000E-03 0. -1.
        -11    1    3    3    0    0 -0.16596566204E+02 -0.30506971083E+02  0.24722523486E+01  0.34817141272E+02  0.51100000000E-03 0.  1.
         12    1    3    3    0    0  0.14954056094E+02  0.10240864745E+01 -0.82090102164E+01  0.17089774589E+02  0.00000000000E+00 0. -1.
</event>
<event>
 7    1  0.1465498E-013  0.7246143E+02  0.7816164E-02  0.1226708E+00
        -11   -1    0    0    0    0  0.00000000000E+00  0.00000000000E+00  0.45593999997E+02  0.45594000000E+02  0.51100000000E-03 0.  1.
         11   -1    0    0    0    0 -0.00000000000E+00 -0.00000000000E+00 -0.45593999997E+02  0.45594000000E+02  0.51100000000E-03 0. -1.
    9900012    2    1    2    0    0 -0.86147424587E+01 -0.83935348565E+01  0.14353369952E+02  0.72461429465E+02  0.69999816544E+02 0.  0.
         12    1    1    2    0    0  0.86147424587E+01  0.83935348565E+01 -0.14353369952E+02  0.18726570535E+02  0.00000000000E+00 0. -1.
         11    1    3    3    0    0 -0.45338088534E+01 -0.40760182345E+01  0.10709021493E+02  0.12322844192E+02  0.51100000000E-03 0. -1.
        -11    1    3    3    0    0 -0.31967222795E+02 -0.17788930031E+01  0.24855613884E+01  0.32113016196E+02  0.51100000000E-03 0.  1.
         12    1    3    3    0    0  0.27886289190E+02 -0.25386236189E+01  0.11587870703E+01  0.28025569077E+02  0.00000000000E+00 0. -1.
</event>
<event>
 7    1  0.1465498E-013  0.7246159E+02  0.7816164E-02  0.1226708E+00
        -11   -1    0    0    0    0  0.00000000000E+00  0.00000000000E+00  0.45593999997E+02  0.45594000000E+02  0.51100000000E-03 0. -1.
         11   -1    0    0    0    0 -0.00000000000E+00 -0.00000000000E+00 -0.45593999997E+02  0.45594000000E+02  0.51100000000E-03 0.  1.
    9900012    2    1    2    0    0  0.13700776187E+01 -0.10172662401E+02 -0.15662641539E+02  0.72461587824E+02  0.70000022836E+02 0.  0.
         12    1    1    2    0    0 -0.13700776187E+01  0.10172662401E+02  0.15662641539E+02  0.18726412176E+02  0.00000000000E+00 0. -1.
         11    1    3    3    0    0 -0.50585875625E+01  0.91574138720E+01  0.40256495706E+01  0.11209522366E+02  0.51100000000E-03 0. -1.
        -11    1    3    3    0    0  0.23095799875E+01 -0.46550757762E+01 -0.37471780469E+02  0.37830387547E+02  0.51100000000E-03 0.  1.
         12    1    3    3    0    0  0.41190851937E+01 -0.14675000496E+02  0.17783489359E+02  0.23421677911E+02  0.00000000000E+00 0. -1.
</event>
<event>
 7    1  0.1465498E-013  0.7246165E+02  0.7816164E-02  0.1226708E+00
        -11   -1    0    0    0    0  0.00000000000E+00  0.00000000000E+00  0.45593999997E+02  0.45594000000E+02  0.51100000000E-03 0.  1.
         11   -1    0    0    0    0 -0.00000000000E+00 -0.00000000000E+00 -0.45593999997E+02  0.45594000000E+02  0.51100000000E-03 0. -1.
    9900012    2    1    2    0    0 -0.16315433478E+02  0.66131105562E+01  0.63835368581E+01  0.72461651087E+02  0.70000105247E+02 0.  0.
         12    1    1    2    0    0  0.16315433478E+02 -0.66131105562E+01 -0.63835368581E+01  0.18726348913E+02  0.00000000000E+00 0. -1.
         11    1    3    3    0    0 -0.15684926930E+02 -0.12870964417E+01 -0.33885879630E+01  0.16098325338E+02  0.51100000000E-03 0. -1.
        -11    1    3    3    0    0  0.13177777055E+02 -0.20151288764E+02  0.20937441461E+01  0.24168409375E+02  0.51100000000E-03 0.  1.
         12    1    3    3    0    0 -0.13808283603E+02  0.28051495761E+02  0.76783806750E+01  0.32194916373E+02  0.00000000000E+00 0. -1.
</event>
<event>
 7    1  0.1465498E-013  0.7246155E+02  0.7816164E-02  0.1226708E+00
        -11   -1    0    0    0    0  0.00000000000E+00  0.00000000000E+00  0.45593999997E+02  0.45594000000E+02  0.51100000000E-03 0.  1.
         11   -1    0    0    0    0 -0.00000000000E+00 -0.00000000000E+00 -0.45593999997E+02  0.45594000000E+02  0.51100000000E-03 0. -1.
    9900012    2    1    2    0    0  0.32121537568E+00  0.18430415961E+02  0.33009910671E+01  0.72461549353E+02  0.69999972720E+02 0.  0.
         12    1    1    2    0    0 -0.32121537568E+00 -0.18430415961E+02 -0.33009910671E+01  0.18726450647E+02  0.00000000000E+00 0. -1.
         11    1    3    3    0    0  0.61507943130E+01  0.28180626493E+02  0.77251734012E+01  0.29860647758E+02  0.51100000000E-03 0. -1.
        -11    1    3    3    0    0 -0.49832798254E+01  0.13451589666E+02  0.78356953540E+01  0.16345533466E+02  0.51100000000E-03 0.  1.
         12    1    3    3    0    0 -0.84629911196E+00 -0.23201800198E+02 -0.12259877688E+02  0.26255368128E+02  0.00000000000E+00 0. -1.
</event>
<event>
 7    1  0.1465498E-013  0.7246154E+02  0.7816164E-02  0.1226708E+00
        -11   -1    0    0    0    0  0.00000000000E+00  0.00000000000E+00  0.45593999997E+02  0.45594000000E+02  0.51100000000E-03 0. -1.
         11   -1    0    0    0    0 -0.00000000000E+00 -0.00000000000E+00 -0.45593999997E+02  0.45594000000E+02  0.51100000000E-03 0.  1.
    9900012    2    1    2    0    0  0.12314826666E+02 -0.54454249273E+01 -0.13014326509E+02  0.72461540032E+02  0.69999960578E+02 0.  0.
         12    1    1    2    0    0 -0.12314826666E+02  0.54454249273E+01  0.13014326509E+02  0.18726459968E+02  0.00000000000E+00 0. -1.
         11    1    3    3    0    0 -0.59352122180E+01 -0.66165112235E+01  0.10108913652E+02  0.13460872940E+02  0.51100000000E-03 0. -1.
        -11    1    3    3    0    0 -0.13269092517E+02  0.14049388504E+02 -0.13647365273E+02  0.23658079227E+02  0.51100000000E-03 0.  1.
        -12    1    3    3    0    0  0.31519131401E+02 -0.12878302208E+02 -0.94758748878E+01  0.35342587864E+02  0.00000000000E+00 0.  1.
</event>
<event>
 7    1  0.1465498E-013  0.7246145E+02  0.7816164E-02  0.1226708E+00
        -11   -1    0    0    0    0  0.00000000000E+00  0.00000000000E+00  0.45593999997E+02  0.45594000000E+02  0.51100000000E-03 0.  1.
         11   -1    0    0    0    0 -0.00000000000E+00 -0.00000000000E+00 -0.45593999997E+02  0.45594000000E+02  0.51100000000E-03 0. -1.
    9900012    2    1    2    0    0  0.56637914819E+01 -0.51833571829E+01  0.17080339461E+02  0.72461448749E+02  0.69999841665E+02 0.  0.
         12    1    1    2    0    0 -0.56637914819E+01  0.51833571829E+01 -0.17080339461E+02  0.18726551251E+02  0.00000000000E+00 0. -1.
         11    1    3    3    0    0  0.16895283123E+02 -0.22355638762E+02  0.53529143698E+01  0.28528562333E+02  0.51100000000E-03 0. -1.
        -11    1    3    3    0    0  0.12112587665E+02 -0.16500627548E+01  0.18669681655E+01  0.12366206267E+02  0.51100000000E-03 0.  1.
         12    1    3    3    0    0 -0.23344079306E+02  0.18822344334E+02  0.98604569259E+01  0.31566680150E+02  0.00000000000E+00 0. -1.
</event>
<event>
 7    1  0.1465498E-013  0.7246154E+02  0.7816164E-02  0.1226708E+00
        -11   -1    0    0    0    0  0.00000000000E+00  0.00000000000E+00  0.45593999997E+02  0.45594000000E+02  0.51100000000E-03 0.  1.
         11   -1    0    0    0    0 -0.00000000000E+00 -0.00000000000E+00 -0.45593999997E+02  0.45594000000E+02  0.51100000000E-03 0. -1.
    9900012    2    1    2    0    0 -0.57992650436E+00  0.32010081746E+01  0.18441730313E+02  0.72461543180E+02  0.69999964679E+02 0.  0.
         12    1    1    2    0    0  0.57992650436E+00 -0.32010081746E+01 -0.18441730313E+02  0.18726456820E+02  0.00000000000E+00 0. -1.
         11    1    3    3    0    0 -0.15908371981E+02  0.25540959015E+02  0.62311806272E+01  0.30728561612E+02  0.51100000000E-03 0. -1.
        -11    1    3    3    0    0 -0.79867600367E+01 -0.12290920012E+01  0.48710793112E+01  0.94353811237E+01  0.51100000000E-03 0.  1.
        -12    1    3    3    0    0  0.23315205514E+02 -0.21110858839E+02  0.73394703746E+01  0.32297600444E+02  0.00000000000E+00 0.  1.
</event>
<event>
 7    1  0.1465498E-013  0.7246105E+02  0.7816164E-02  0.1226709E+00
        -11   -1    0    0    0    0  0.00000000000E+00  0.00000000000E+00  0.45593999997E+02  0.45594000000E+02  0.51100000000E-03 0. -1.
         11   -1    0    0    0    0 -0.00000000000E+00 -0.00000000000E+00 -0.45593999997E+02  0.45594000000E+02  0.51100000000E-03 0.  1.
    9900012    2    1    2    0    0 -0.77105651688E+01  0.15907390781E+02 -0.61806814636E+01  0.72461048298E+02  0.69999320000E+02 0.  0.
         12    1    1    2    0    0  0.77105651688E+01 -0.15907390781E+02  0.61806814636E+01  0.18726951702E+02  0.00000000000E+00 0. -1.
         11    1    3    3    0    0 -0.21992727743E+02  0.57203530615E+01  0.62833540596E+01  0.23577172249E+02  0.51100000000E-03 0. -1.
        -11    1    3    3    0    0 -0.66146952281E+01  0.38447338747E+01  0.13156341634E+02  0.15219247583E+02  0.51100000000E-03 0.  1.
        -12    1    3    3    0    0  0.20896857803E+02  0.63423038451E+01 -0.25620377158E+02  0.33664628466E+02  0.00000000000E+00 0.  1.
</event>
<event>
 7    1  0.1465498E-013  0.7246194E+02  0.7816164E-02  0.1226707E+00
        -11   -1    0    0    0    0  0.00000000000E+00  0.00000000000E+00  0.45593999997E+02  0.45594000000E+02  0.51100000000E-03 0.  1.
         11   -1    0    0    0    0 -0.00000000000E+00 -0.00000000000E+00 -0.45593999997E+02  0.45594000000E+02  0.51100000000E-03 0. -1.
    9900012    2    1    2    0    0 -0.55533316459E+01  0.43729127533E+00  0.17878325188E+02  0.72461942552E+02  0.70000484933E+02 0.  0.
         12    1    1    2    0    0  0.55533316459E+01 -0.43729127533E+00 -0.17878325188E+02  0.18726057448E+02  0.00000000000E+00 0. -1.
         11    1    3    3    0    0  0.14464022073E+02 -0.98961031019E+01  0.11686935748E+02  0.21064787171E+02  0.51100000000E-03 0. -1.
        -11    1    3    3    0    0 -0.48187679717E+01 -0.15322762025E+02 -0.84796893432E+01  0.18163498905E+02  0.51100000000E-03 0.  1.
        -12    1    3    3    0    0 -0.15198585748E+02  0.25656156403E+02  0.14671078783E+02  0.33233656476E+02  0.00000000000E+00 0.  1.
</event>
<event>
 7    1  0.1465498E-013  0.7246157E+02  0.7816164E-02  0.1226708E+00
        -11   -1    0    0    0    0  0.00000000000E+00  0.00000000000E+00  0.45593999997E+02  0.45594000000E+02  0.51100000000E-03 0.  1.
         11   -1    0    0    0    0 -0.00000000000E+00 -0.00000000000E+00 -0.45593999997E+02  0.45594000000E+02  0.51100000000E-03 0. -1.
    9900012    2    1    2    0    0  0.15348148040E-02  0.73448561021E+01  0.17225913381E+02  0.72461574678E+02  0.70000005711E+02 0.  0.
         12    1    1    2    0    0 -0.15348148040E-02 -0.73448561021E+01 -0.17225913381E+02  0.18726425322E+02  0.00000000000E+00 0. -1.
         11    1    3    3    0    0 -0.21618275865E+01 -0.55718462842E+01 -0.22474486126E+02  0.23255569149E+02  0.51100000000E-03 0. -1.
        -11    1    3    3    0    0 -0.37112446966E+01  0.74435659114E+01 -0.38309512717E+00  0.83262700420E+01  0.51100000000E-03 0.  1.
        -12    1    3    3    0    0  0.58746070980E+01  0.54731364748E+01  0.40083494634E+02  0.40879735488E+02  0.00000000000E+00 0.  1.
</event>
<event>
 7    1  0.1465498E-013  0.7246157E+02  0.7816164E-02  0.1226708E+00
        -11   -1    0    0    0    0  0.00000000000E+00  0.00000000000E+00  0.45593999997E+02  0.45594000000E+02  0.51100000000E-03 0. -1.
         11   -1    0    0    0    0 -0.00000000000E+00 -0.00000000000E+00 -0.45593999997E+02  0.45594000000E+02  0.51100000000E-03 0.  1.
    9900012    2    1    2    0    0  0.72822618363E+01  0.53640633668E+01 -0.16397396213E+02  0.72461571728E+02  0.70000001868E+02 0.  0.
         12    1    1    2    0    0 -0.72822618363E+01 -0.53640633668E+01  0.16397396213E+02  0.18726428272E+02  0.00000000000E+00 0. -1.
         11    1    3    3    0    0  0.12929684759E+01  0.90746060691E+01 -0.12855575670E+02  0.15788795675E+02  0.51100000000E-03 0. -1.
        -11    1    3    3    0    0  0.26425079036E+02 -0.88110998070E+01 -0.16077271773E+02  0.32162073157E+02  0.51100000000E-03 0.  1.
        -12    1    3    3    0    0 -0.20435785675E+02  0.51005571047E+01  0.12535451230E+02  0.24510702897E+02  0.00000000000E+00 0.  1.
</event>
<event>
 7    1  0.1465498E-013  0.7246210E+02  0.7816164E-02  0.1226707E+00
        -11   -1    0    0    0    0  0.00000000000E+00  0.00000000000E+00  0.45593999997E+02  0.45594000000E+02  0.51100000000E-03 0.  1.
         11   -1    0    0    0    0 -0.00000000000E+00 -0.00000000000E+00 -0.45593999997E+02  0.45594000000E+02  0.51100000000E-03 0. -1.
    9900012    2    1    2    0    0  0.10213049980E+02 -0.74588342025E+01  0.13810091900E+02  0.72462102536E+02  0.70000693340E+02 0.  0.
         12    1    1    2    0    0 -0.10213049980E+02  0.74588342025E+01 -0.13810091900E+02  0.18725897464E+02  0.00000000000E+00 0. -1.
         11    1    3    3    0    0 -0.18054524978E+02  0.36522554031E+01 -0.70895106671E+01  0.19737426465E+02  0.51100000000E-03 0. -1.
        -11    1    3    3    0    0  0.36377007347E+01  0.43426210941E+01 -0.92447430242E+01  0.10842347460E+02  0.51100000000E-03 0.  1.
        -12    1    3    3    0    0  0.24629874224E+02 -0.15453710700E+02  0.30144345591E+02  0.41882328610E+02  0.00000000000E+00 0.  1.
</event>
<event>
 7    1  0.1465498E-013  0.7246158E+02  0.7816164E-02  0.1226708E+00
        -11   -1    0    0    0    0  0.00000000000E+00  0.00000000000E+00  0.45593999997E+02  0.45594000000E+02  0.51100000000E-03 0.  1.
         11   -1    0    0    0    0 -0.00000000000E+00 -0.00000000000E+00 -0.45593999997E+02  0.45594000000E+02  0.51100000000E-03 0. -1.
    9900012    2    1    2    0    0 -0.12356514318E+02 -0.19514404471E+01  0.13935104985E+02  0.72461582381E+02  0.70000015745E+02 0.  0.
         12    1    1    2    0    0  0.12356514318E+02  0.19514404471E+01 -0.13935104985E+02  0.18726417619E+02  0.00000000000E+00 0. -1.
         11    1    3    3    0    0 -0.30203672976E+02  0.46808833310E+01  0.73612544998E+00  0.30573099466E+02  0.51100000000E-03 0. -1.
        -11    1    3    3    0    0 -0.98297027681E+01  0.17715850193E+01 -0.24744723763E+00  0.99911360909E+01  0.51100000000E-03 0.  1.
        -12    1    3    3    0    0  0.27676861426E+02 -0.84039087974E+01  0.13446426772E+02  0.31897346824E+02  0.00000000000E+00 0.  1.
</event>
<event>
 7    1  0.1465498E-013  0.7246136E+02  0.7816164E-02  0.1226709E+00
        -11   -1    0    0    0    0  0.00000000000E+00  0.00000000000E+00  0.45593999997E+02  0.45594000000E+02  0.51100000000E-03 0. -1.
         11   -1    0    0    0    0 -0.00000000000E+00 -0.00000000000E+00 -0.45593999997E+02  0.45594000000E+02  0.51100000000E-03 0.  1.
    9900012    2    1    2    0    0  0.56815421814E+01 -0.95806517709E+01 -0.15053844219E+02  0.72461360267E+02  0.69999726400E+02 0.  0.
         12    1    1    2    0    0 -0.56815421814E+01  0.95806517709E+01  0.15053844219E+02  0.18726639733E+02  0.00000000000E+00 0. -1.
         11    1    3    3    0    0 -0.36281589394E+01  0.10616658706E+02 -0.82152730960E+01  0.13905671206E+02  0.51100000000E-03 0. -1.
        -11    1    3    3    0    0 -0.14173972748E+02  0.65544144397E+00 -0.19984661785E+02  0.24509545363E+02  0.51100000000E-03 0.  1.
        -12    1    3    3    0    0  0.23483673869E+02 -0.20852751921E+02  0.13146090662E+02  0.34046143699E+02  0.00000000000E+00 0.  1.
</event>
<event>
 7    1  0.1465498E-013  0.7246161E+02  0.7816164E-02  0.1226708E+00
        -11   -1    0    0    0    0  0.00000000000E+00  0.00000000000E+00  0.45593999997E+02  0.45594000000E+02  0.51100000000E-03 0. -1.
         11   -1    0    0    0    0 -0.00000000000E+00 -0.00000000000E+00 -0.45593999997E+02  0.45594000000E+02  0.51100000000E-03 0.  1.
    9900012    2    1    2    0    0 -0.13362486465E+02 -0.11944508929E+02  0.54268131076E+01  0.72461611170E+02  0.70000053249E+02 0.  0.
         12    1    1    2    0    0  0.13362486465E+02  0.11944508929E+02 -0.54268131076E+01  0.18726388830E+02  0.00000000000E+00 0. -1.
         11    1    3    3    0    0 -0.14556905350E+02 -0.59954491351E+01 -0.14346507201E+02  0.21299558043E+02  0.51100000000E-03 0. -1.
        -11    1    3    3    0    0 -0.91579215692E+01  0.97098638289E+01 -0.95029354430E+01  0.16384589264E+02  0.51100000000E-03 0.  1.
         12    1    3    3    0    0  0.10352340454E+02 -0.15658923623E+02  0.29276255752E+02  0.34777463863E+02  0.00000000000E+00 0. -1.
</event>
<event>
 7    1  0.1465498E-013  0.7246154E+02  0.7816164E-02  0.1226708E+00
        -11   -1    0    0    0    0  0.00000000000E+00  0.00000000000E+00  0.45593999997E+02  0.45594000000E+02  0.51100000000E-03 0.  1.
         11   -1    0    0    0    0 -0.00000000000E+00 -0.00000000000E+00 -0.45593999997E+02  0.45594000000E+02  0.51100000000E-03 0. -1.
    9900012    2    1    2    0    0 -0.16489355126E+02 -0.54591549936E+01  0.69984975425E+01  0.72461543486E+02  0.69999965077E+02 0.  0.
         12    1    1    2    0    0  0.16489355126E+02  0.54591549936E+01 -0.69984975425E+01  0.18726456514E+02  0.00000000000E+00 0. -1.
         11    1    3    3    0    0 -0.23625168933E+02  0.16777821542E+01 -0.48089967661E+01  0.24167954201E+02  0.51100000000E-03 0. -1.
        -11    1    3    3    0    0  0.31305547684E+01  0.17627795556E+02  0.14532705486E+02  0.23059468301E+02  0.51100000000E-03 0.  1.
         12    1    3    3    0    0  0.40052590390E+01 -0.24764732704E+02 -0.27252111777E+01  0.25234120984E+02  0.00000000000E+00 0. -1.
</event>
<event>
 7    1  0.1465498E-013  0.7246157E+02  0.7816164E-02  0.1226708E+00
        -11   -1    0    0    0    0  0.00000000000E+00  0.00000000000E+00  0.45593999997E+02  0.45594000000E+02  0.51100000000E-03 0.  1.
         11   -1    0    0    0    0 -0.00000000000E+00 -0.00000000000E+00 -0.45593999997E+02  0.45594000000E+02  0.51100000000E-03 0. -1.
    9900012    2    1    2    0    0 -0.90233826754E+01  0.10273074443E+02  0.12795379037E+02  0.72461568996E+02  0.69999998309E+02 0.  0.
         12    1    1    2    0    0  0.90233826754E+01 -0.10273074443E+02 -0.12795379037E+02  0.18726431004E+02  0.00000000000E+00 0. -1.
         11    1    3    3    0    0  0.91281181085E+01 -0.12684237984E+02 -0.43703695515E+01  0.16226908631E+02  0.51100000000E-03 0. -1.
        -11    1    3    3    0    0  0.14286990628E+02  0.45031572953E+01  0.10575694036E+02  0.18336898086E+02  0.51100000000E-03 0.  1.
         12    1    3    3    0    0 -0.32438491412E+02  0.18454155133E+02  0.65900545527E+01  0.37897762279E+02  0.00000000000E+00 0. -1.
</event>
<event>
 7    1  0.1465498E-013  0.7246154E+02  0.7816164E-02  0.1226708E+00
        -11   -1    0    0    0    0  0.00000000000E+00  0.00000000000E+00  0.45593999997E+02  0.45594000000E+02  0.51100000000E-03 0.  1.
         11   -1    0    0    0    0 -0.00000000000E+00 -0.00000000000E+00 -0.45593999997E+02  0.45594000000E+02  0.51100000000E-03 0. -1.
    9900012    2    1    2    0    0  0.14922418177E+02  0.85595257679E+01  0.73983839209E+01  0.72461544642E+02  0.69999966583E+02 0.  0.
         12    1    1    2    0    0 -0.14922418177E+02 -0.85595257679E+01 -0.73983839209E+01  0.18726455358E+02  0.00000000000E+00 0. -1.
         11    1    3    3    0    0 -0.74683858750E+01  0.15366403024E+02 -0.12737785950E+02  0.21310896759E+02  0.51100000000E-03 0. -1.
        -11    1    3    3    0    0 -0.10746173541E+02 -0.14237898334E+01 -0.18829988342E+01  0.11002413741E+02  0.51100000000E-03 0.  1.
         12    1    3    3    0    0  0.33136977593E+02 -0.53830874230E+01  0.22019168706E+02  0.40148234142E+02  0.00000000000E+00 0. -1.
</event>
<event>
 7    1  0.1465498E-013  0.7246190E+02  0.7816164E-02  0.1226707E+00
        -11   -1    0    0    0    0  0.00000000000E+00  0.00000000000E+00  0.45593999997E+02  0.45594000000E+02  0.51100000000E-03 0. -1.
         11   -1    0    0    0    0 -0.00000000000E+00 -0.00000000000E+00 -0.45593999997E+02  0.45594000000E+02  0.51100000000E-03 0.  1.
    9900012    2    1    2    0    0  0.27503147153E+01  0.99109057698E+01 -0.15648527995E+02  0.72461902900E+02  0.70000433279E+02 0.  0.
         12    1    1    2    0    0 -0.27503147153E+01 -0.99109057698E+01  0.15648527995E+02  0.18726097100E+02  0.00000000000E+00 0. -1.
         11    1    3    3    0    0 -0.29041753303E+01 -0.11877260353E+01  0.41117549081E+01  0.51721809877E+01  0.51100000000E-03 0. -1.
        -11    1    3    3    0    0 -0.38580412906E+01 -0.11176475252E+02  0.18530503081E+02  0.21981301744E+02  0.51100000000E-03 0.  1.
        -12    1    3    3    0    0  0.95125313362E+01  0.22275107057E+02 -0.38290785984E+02  0.45308420168E+02  0.00000000000E+00 0.  1.
</event>
<event>
 7    1  0.1465498E-013  0.7246156E+02  0.7816164E-02  0.1226708E+00
        -11   -1    0    0    0    0  0.00000000000E+00  0.00000000000E+00  0.45593999997E+02  0.45594000000E+02  0.51100000000E-03 0.  1.
         11   -1    0    0    0    0 -0.00000000000E+00 -0.00000000000E+00 -0.45593999997E+02  0.45594000000E+02  0.51100000000E-03 0. -1.
    9900012    2    1    2    0    0  0.11445927668E+01 -0.18687794033E+02  0.36862602102E+00  0.72461558171E+02  0.69999984207E+02 0.  0.
         12    1    1    2    0    0 -0.11445927668E+01  0.18687794033E+02 -0.36862602102E+00  0.18726441829E+02  0.00000000000E+00 0. -1.
         11    1    3    3    0    0  0.62873159115E+01 -0.34682029693E+01 -0.40205966818E+01  0.82294575244E+01  0.51100000000E-03 0. -1.
        -11    1    3    3    0    0  0.27448619231E+02 -0.15092644638E+02 -0.15854909061E+00  0.31324746734E+02  0.51100000000E-03 0.  1.
         12    1    3    3    0    0 -0.32591342376E+02 -0.12694642614E+00  0.45477717935E+01  0.32907353913E+02  0.00000000000E+00 0. -1.
</event>
<event>
 7    1  0.1465498E-013  0.7246124E+02  0.7816164E-02  0.1226709E+00
        -11   -1    0    0    0    0  0.00000000000E+00  0.00000000000E+00  0.45593999997E+02  0.45594000000E+02  0.51100000000E-03 0.  1.
         11   -1    0    0    0    0 -0.00000000000E+00 -0.00000000000E+00 -0.45593999997E+02  0.45594000000E+02  0.51100000000E-03 0. -1.
    9900012    2    1    2    0    0 -0.54438141807E+01 -0.74775909416E+01  0.16283181477E+02  0.72461241654E+02  0.69999571884E+02 0.  0.
         12    1    1    2    0    0  0.54438141807E+01  0.74775909416E+01 -0.16283181477E+02  0.18726758346E+02  0.00000000000E+00 0. -1.
         11    1    3    3    0    0  0.92317110580E+01 -0.70023093179E+01  0.16347894067E+02  0.20037726057E+02  0.51100000000E-03 0. -1.
        -11    1    3    3    0    0 -0.93184525465E+01 -0.10255578215E+02  0.22973172044E+02  0.26828661473E+02  0.51100000000E-03 0.  1.
         12    1    3    3    0    0 -0.53570726922E+01  0.97802965916E+01 -0.23037884634E+02  0.25594854125E+02  0.00000000000E+00 0. -1.
</event>
<event>
 7    1  0.1465498E-013  0.7246168E+02  0.7816164E-02  0.1226708E+00
        -11   -1    0    0    0    0  0.00000000000E+00  0.00000000000E+00  0.45593999997E+02  0.45594000000E+02  0.51100000000E-03 0.  1.
         11   -1    0    0    0    0 -0.00000000000E+00 -0.00000000000E+00 -0.45593999997E+02  0.45594000000E+02  0.51100000000E-03 0. -1.
    9900012    2    1    2    0    0  0.18356911808E+02 -0.18326483327E+01  0.32156390871E+01  0.72461677730E+02  0.70000139954E+02 0.  0.
         12    1    1    2    0    0 -0.18356911808E+02  0.18326483327E+01 -0.32156390871E+01  0.18726322270E+02  0.00000000000E+00 0. -1.
         11    1    3    3    0    0 -0.57610523483E+01  0.37670064371E+01  0.35154402670E-01  0.68834074229E+01  0.51100000000E-03 0. -1.
        -11    1    3    3    0    0 -0.12822182937E+02 -0.18492729412E+02  0.11954017444E+02  0.25481129286E+02  0.51100000000E-03 0.  1.
         12    1    3    3    0    0  0.36940147093E+02  0.12893074642E+02 -0.87735327593E+01  0.40097141021E+02  0.00000000000E+00 0. -1.
</event>
<event>
 7    1  0.1465498E-013  0.7246148E+02  0.7816164E-02  0.1226708E+00
        -11   -1    0    0    0    0  0.00000000000E+00  0.00000000000E+00  0.45593999997E+02  0.45594000000E+02  0.51100000000E-03 0. -1.
         11   -1    0    0    0    0 -0.00000000000E+00 -0.00000000000E+00 -0.45593999997E+02  0.45594000000E+02  0.51100000000E-03 0.  1.
    9900012    2    1    2    0    0  0.41270703161E+01  0.15551539630E+02  0.95812112220E+01  0.72461475957E+02  0.69999877107E+02 0.  0.
         12    1    1    2    0    0 -0.41270703161E+01 -0.15551539630E+02 -0.95812112220E+01  0.18726524043E+02  0.00000000000E+00 0. -1.
         11    1    3    3    0    0 -0.44973257356E+01  0.10161025233E+02  0.22486947590E+02  0.25082567347E+02  0.51100000000E-03 0. -1.
        -11    1    3    3    0    0 -0.35955699720E+01  0.96250761752E+01 -0.26616594700E+02  0.28530918816E+02  0.51100000000E-03 0.  1.
         12    1    3    3    0    0  0.12219966024E+02 -0.42345617779E+01  0.13710858332E+02  0.18847989794E+02  0.00000000000E+00 0. -1.
</event>
<event>
 7    1  0.1465498E-013  0.7246148E+02  0.7816164E-02  0.1226708E+00
        -11   -1    0    0    0    0  0.00000000000E+00  0.00000000000E+00  0.45593999997E+02  0.45594000000E+02  0.51100000000E-03 0. -1.
         11   -1    0    0    0    0 -0.00000000000E+00 -0.00000000000E+00 -0.45593999997E+02  0.45594000000E+02  0.51100000000E-03 0.  1.
    9900012    2    1    2    0    0  0.16656268677E+02 -0.39102742797E+01 -0.76132123915E+01  0.72461480459E+02  0.69999882973E+02 0.  0.
         12    1    1    2    0    0 -0.16656268677E+02  0.39102742797E+01  0.76132123915E+01  0.18726519541E+02  0.00000000000E+00 0. -1.
         11    1    3    3    0    0  0.24492742190E+02 -0.13004038965E+02  0.11798626253E+02  0.30136473435E+02  0.51100000000E-03 0. -1.
        -11    1    3    3    0    0  0.11363914928E+02 -0.60203788792E+01 -0.93458672147E+01  0.15897445034E+02  0.51100000000E-03 0.  1.
        -12    1    3    3    0    0 -0.19200388441E+02  0.15114143564E+02 -0.10065971430E+02  0.26427561991E+02  0.00000000000E+00 0.  1.
</event>
<event>
 7    1  0.1465498E-013  0.7246158E+02  0.7816164E-02  0.1226708E+00
        -11   -1    0    0    0    0  0.00000000000E+00  0.00000000000E+00  0.45593999997E+02  0.45594000000E+02  0.51100000000E-03 0.  1.
         11   -1    0    0    0    0 -0.00000000000E+00 -0.00000000000E+00 -0.45593999997E+02  0.45594000000E+02  0.51100000000E-03 0. -1.
    9900012    2    1    2    0    0 -0.11199437132E+02  0.11037543407E+02  0.10169761752E+02  0.72461579877E+02  0.70000012483E+02 0.  0.
         12    1    1    2    0    0  0.11199437132E+02 -0.11037543407E+02 -0.10169761752E+02  0.18726420123E+02  0.00000000000E+00 0. -1.
         11    1    3    3    0    0 -0.13379852669E+02  0.63652007043E+01 -0.10700909853E+02  0.18276917394E+02  0.51100000000E-03 0. -1.
        -11    1    3    3    0    0  0.18328475008E+02  0.16862102017E+01 -0.87012665697E+01  0.20358986741E+02  0.51100000000E-03 0.  1.
         12    1    3    3    0    0 -0.16148059470E+02  0.29861325005E+01  0.29571938175E+02  0.33825675742E+02  0.00000000000E+00 0. -1.
</event>
<event>
 7    1  0.1465498E-013  0.7246155E+02  0.7816164E-02  0.1226708E+00
        -11   -1    0    0    0    0  0.00000000000E+00  0.00000000000E+00  0.45593999997E+02  0.45594000000E+02  0.51100000000E-03 0. -1.
         11   -1    0    0    0    0 -0.00000000000E+00 -0.00000000000E+00 -0.45593999997E+02  0.45594000000E+02  0.51100000000E-03 0.  1.
    9900012    2    1    2    0    0  0.16623033633E+02  0.85170348858E+01  0.13470989792E+01  0.72461553299E+02  0.69999977860E+02 0.  0.
         12    1    1    2    0    0 -0.16623033633E+02 -0.85170348858E+01 -0.13470989792E+01  0.18726446701E+02  0.00000000000E+00 0. -1.
         11    1    3    3    0    0 -0.17036601220E+02  0.49465994095E+01  0.44216325713E+01  0.18282928149E+02  0.51100000000E-03 0. -1.
        -11    1    3    3    0    0  0.13882108605E+02  0.21873096860E+02 -0.72695645073E+01  0.26907097092E+02  0.51100000000E-03 0.  1.
        -12    1    3    3    0    0  0.19777526248E+02 -0.18302661383E+02  0.41950309153E+01  0.27271528057E+02  0.00000000000E+00 0.  1.
</event>
<event>
 7    1  0.1465498E-013  0.7246159E+02  0.7816164E-02  0.1226708E+00
        -11   -1    0    0    0    0  0.00000000000E+00  0.00000000000E+00  0.45593999997E+02  0.45594000000E+02  0.51100000000E-03 0.  1.
         11   -1    0    0    0    0 -0.00000000000E+00 -0.00000000000E+00 -0.45593999997E+02  0.45594000000E+02  0.51100000000E-03 0. -1.
    9900012    2    1    2    0    0  0.13686707187E+02 -0.38990046345E+01  0.12171701652E+02  0.72461587854E+02  0.70000022875E+02 0.  0.
         12    1    1    2    0    0 -0.13686707187E+02  0.38990046345E+01 -0.12171701652E+02  0.18726412146E+02  0.00000000000E+00 0. -1.
         11    1    3    3    0    0  0.17522317321E+02  0.13389212736E+02 -0.24871745694E+01  0.22192085517E+02  0.51100000000E-03 0. -1.
        -11    1    3    3    0    0  0.63897082839E+01 -0.13496615484E+02 -0.13463841984E+02  0.20106268742E+02  0.51100000000E-03 0.  1.
        -12    1    3    3    0    0 -0.10225318418E+02 -0.37916018873E+01  0.28122718206E+02  0.30163233595E+02  0.00000000000E+00 0.  1.
</event>
<event>
 7    1  0.1636341E-013  0.7246143E+02  0.7816164E-02  0.1226708E+00
        -11   -1    0    0    0    0  0.00000000000E+00  0.00000000000E+00  0.45593999997E+02  0.45594000000E+02  0.51100000000E-03 0. -1.
         11   -1    0    0    0    0 -0.00000000000E+00 -0.00000000000E+00 -0.45593999997E+02  0.45594000000E+02  0.51100000000E-03 0.  1.
    9900012    2    1    2    0    0 -0.71322825881E+01  0.64953836674E+01 -0.16050701920E+02  0.72461428076E+02  0.69999814734E+02 0.  0.
         12    1    1    2    0    0  0.71322825881E+01 -0.64953836674E+01  0.16050701920E+02  0.18726571924E+02  0.00000000000E+00 0. -1.
         11    1    3    3    0    0 -0.27920781495E+01 -0.10069989928E+01  0.20210870541E+02  0.20427653699E+02  0.51100000000E-03 0. -1.
        -11    1    3    3    0    0  0.11184022772E+02 -0.65191140485E+01 -0.39369777986E+01  0.13530743061E+02  0.51100000000E-03 0.  1.
        -12    1    3    3    0    0 -0.15524227210E+02  0.14021496709E+02 -0.32324594662E+02  0.38503031316E+02  0.00000000000E+00 0.  1.
</event>
<event>
 7    1  0.1465498E-013  0.7246159E+02  0.7816164E-02  0.1226708E+00
        -11   -1    0    0    0    0  0.00000000000E+00  0.00000000000E+00  0.45593999997E+02  0.45594000000E+02  0.51100000000E-03 0.  1.
         11   -1    0    0    0    0 -0.00000000000E+00 -0.00000000000E+00 -0.45593999997E+02  0.45594000000E+02  0.51100000000E-03 0. -1.
    9900012    2    1    2    0    0 -0.70807593820E+01  0.17259500737E+02  0.16281649650E+01  0.72461589766E+02  0.70000025365E+02 0.  0.
         12    1    1    2    0    0  0.70807593820E+01 -0.17259500737E+02 -0.16281649650E+01  0.18726410234E+02  0.00000000000E+00 0. -1.
         11    1    3    3    0    0  0.35227268872E+01  0.11990033084E+02 -0.10138441611E+02  0.16092187441E+02  0.51100000000E-03 0. -1.
        -11    1    3    3    0    0  0.17117989608E+02  0.10645913105E+02 -0.82241342110E+01  0.21771481755E+02  0.51100000000E-03 0.  1.
        -12    1    3    3    0    0 -0.27721475877E+02 -0.53764454522E+01  0.19990740787E+02  0.34597920569E+02  0.00000000000E+00 0.  1.
</event>
<event>
 7    1  0.1465498E-013  0.7246161E+02  0.7816164E-02  0.1226708E+00
        -11   -1    0    0    0    0  0.00000000000E+00  0.00000000000E+00  0.45593999997E+02  0.45594000000E+02  0.51100000000E-03 0. -1.
         11   -1    0    0    0    0 -0.00000000000E+00 -0.00000000000E+00 -0.45593999997E+02  0.45594000000E+02  0.51100000000E-03 0.  1.
    9900012    2    1    2    0    0  0.29353097458E+01 -0.15245560965E+02 -0.10470657068E+02  0.72461606010E+02  0.70000046526E+02 0.  0.
         12    1    1    2    0    0 -0.29353097458E+01  0.15245560965E+02  0.10470657068E+02  0.18726393990E+02  0.00000000000E+00 0. -1.
         11    1    3    3    0    0  0.98942688316E+01  0.19271923961E+02  0.42503749461E+01  0.22076442112E+02  0.51100000000E-03 0. -1.
        -11    1    3    3    0    0  0.12084294185E+02 -0.22811817336E+02 -0.85856324982E+01  0.27205188141E+02  0.51100000000E-03 0.  1.
        -12    1    3    3    0    0 -0.19043253271E+02 -0.11705667591E+02 -0.61353995157E+01  0.23179975757E+02  0.00000000000E+00 0.  1.
</event>
<event>
 7    1  0.1465498E-013  0.7246160E+02  0.7816164E-02  0.1226708E+00
        -11   -1    0    0    0    0  0.00000000000E+00  0.00000000000E+00  0.45593999997E+02  0.45594000000E+02  0.51100000000E-03 0.  1.
         11   -1    0    0    0    0 -0.00000000000E+00 -0.00000000000E+00 -0.45593999997E+02  0.45594000000E+02  0.51100000000E-03 0. -1.
    9900012    2    1    2    0    0  0.10959340503E+02 -0.49387003813E+01  0.14358980244E+02  0.72461595664E+02  0.70000033048E+02 0.  0.
         12    1    1    2    0    0 -0.10959340503E+02  0.49387003813E+01 -0.14358980244E+02  0.18726404336E+02  0.00000000000E+00 0. -1.
         11    1    3    3    0    0 -0.67741479408E+01  0.27431941407E+01  0.97825604197E+01  0.12211170421E+02  0.51100000000E-03 0. -1.
        -11    1    3    3    0    0  0.23641510992E+02 -0.65020775096E+01  0.27327605290E+02  0.36715065914E+02  0.51100000000E-03 0.  1.
         12    1    3    3    0    0 -0.59080225481E+01 -0.11798170124E+01 -0.22751185466E+02  0.23535359329E+02  0.00000000000E+00 0. -1.
</event>
<event>
 7    1  0.1465498E-013  0.7246157E+02  0.7816164E-02  0.1226708E+00
        -11   -1    0    0    0    0  0.00000000000E+00  0.00000000000E+00  0.45593999997E+02  0.45594000000E+02  0.51100000000E-03 0.  1.
         11   -1    0    0    0    0 -0.00000000000E+00 -0.00000000000E+00 -0.45593999997E+02  0.45594000000E+02  0.51100000000E-03 0. -1.
    9900012    2    1    2    0    0 -0.18445509300E+01 -0.12596226136E+02  0.13733598452E+02  0.72461574622E+02  0.70000005638E+02 0.  0.
         12    1    1    2    0    0  0.18445509300E+01  0.12596226136E+02 -0.13733598452E+02  0.18726425378E+02  0.00000000000E+00 0. -1.
         11    1    3    3    0    0  0.11231466546E+02  0.46394628504E+01  0.74594401599E+01  0.14258811454E+02  0.51100000000E-03 0. -1.
        -11    1    3    3    0    0 -0.99428329398E+01  0.23339617968E+01  0.27396514246E+02  0.29238267692E+02  0.51100000000E-03 0.  1.
        -12    1    3    3    0    0 -0.31331845362E+01 -0.19569650783E+02 -0.21122355954E+02  0.28964495476E+02  0.00000000000E+00 0.  1.
</event>
<event>
 7    1  0.1465498E-013  0.7246157E+02  0.7816164E-02  0.1226708E+00
        -11   -1    0    0    0    0  0.00000000000E+00  0.00000000000E+00  0.45593999997E+02  0.45594000000E+02  0.51100000000E-03 0.  1.
         11   -1    0    0    0    0 -0.00000000000E+00 -0.00000000000E+00 -0.45593999997E+02  0.45594000000E+02  0.51100000000E-03 0. -1.
    9900012    2    1    2    0    0 -0.14747264877E+02 -0.11307020866E+02  0.23126738685E+01  0.72461574750E+02  0.70000005805E+02 0.  0.
         12    1    1    2    0    0  0.14747264877E+02  0.11307020866E+02 -0.23126738685E+01  0.18726425250E+02  0.00000000000E+00 0. -1.
         11    1    3    3    0    0 -0.38804753138E+01  0.45284766758E+01 -0.57413156358E+01  0.82781577151E+01  0.51100000000E-03 0. -1.
        -11    1    3    3    0    0 -0.34226880908E+02 -0.39327031462E+01 -0.51392092378E+01  0.34833274359E+02  0.51100000000E-03 0.  1.
         12    1    3    3    0    0  0.23360091345E+02 -0.11902794395E+02  0.13193198742E+02  0.29350142676E+02  0.00000000000E+00 0. -1.
</event>
<event>
 7    1  0.1465498E-013  0.7246153E+02  0.7816164E-02  0.1226708E+00
        -11   -1    0    0    0    0  0.00000000000E+00  0.00000000000E+00  0.45593999997E+02  0.45594000000E+02  0.51100000000E-03 0.  1.
         11   -1    0    0    0    0 -0.00000000000E+00 -0.00000000000E+00 -0.45593999997E+02  0.45594000000E+02  0.51100000000E-03 0. -1.
    9900012    2    1    2    0    0  0.10643544472E+02 -0.15015445428E+02 -0.34543020977E+01  0.72461525604E+02  0.69999941782E+02 0.  0.
         12    1    1    2    0    0 -0.10643544472E+02  0.15015445428E+02  0.34543020977E+01  0.18726474396E+02  0.00000000000E+00 0. -1.
         11    1    3    3    0    0  0.21110882928E+01  0.42645641095E+00 -0.32847807628E+01  0.39278930448E+01  0.51100000000E-03 0. -1.
        -11    1    3    3    0    0 -0.13903471807E+02 -0.31986746905E+02 -0.13793152753E+02  0.37506127086E+02  0.51100000000E-03 0.  1.
         12    1    3    3    0    0  0.22435927986E+02  0.16544845066E+02  0.13623631419E+02  0.31027505473E+02  0.00000000000E+00 0. -1.
</event>
<event>
 7    1  0.1465498E-013  0.7246157E+02  0.7816164E-02  0.1226708E+00
        -11   -1    0    0    0    0  0.00000000000E+00  0.00000000000E+00  0.45593999997E+02  0.45594000000E+02  0.51100000000E-03 0.  1.
         11   -1    0    0    0    0 -0.00000000000E+00 -0.00000000000E+00 -0.45593999997E+02  0.45594000000E+02  0.51100000000E-03 0. -1.
    9900012    2    1    2    0    0 -0.10567905248E+02 -0.69371683791E+01  0.13815729386E+02  0.72461566679E+02  0.69999995291E+02 0.  0.
         12    1    1    2    0    0  0.10567905248E+02  0.69371683791E+01 -0.13815729386E+02  0.18726433321E+02  0.00000000000E+00 0. -1.
         11    1    3    3    0    0 -0.10953020526E+02 -0.45071722320E+01 -0.23366124872E+02  0.26196546566E+02  0.51100000000E-03 0. -1.
        -11    1    3    3    0    0  0.24847994606E+01  0.56467701928E+01 -0.17788074698E+01  0.64206228861E+01  0.51100000000E-03 0.  1.
         12    1    3    3    0    0 -0.20996841824E+01 -0.80767663399E+01  0.38960661728E+02  0.39844397228E+02  0.00000000000E+00 0. -1.
</event>
<event>
 7    1  0.1465498E-013  0.7246157E+02  0.7816164E-02  0.1226708E+00
        -11   -1    0    0    0    0  0.00000000000E+00  0.00000000000E+00  0.45593999997E+02  0.45594000000E+02  0.51100000000E-03 0.  1.
         11   -1    0    0    0    0 -0.00000000000E+00 -0.00000000000E+00 -0.45593999997E+02  0.45594000000E+02  0.51100000000E-03 0. -1.
    9900012    2    1    2    0    0  0.19036533318E+01 -0.91647721911E+01  0.16219198656E+02  0.72461565466E+02  0.69999993710E+02 0.  0.
         12    1    1    2    0    0 -0.19036533318E+01  0.91647721911E+01 -0.16219198656E+02  0.18726434534E+02  0.00000000000E+00 0. -1.
         11    1    3    3    0    0  0.62853315365E+01 -0.80631636748E+01  0.12660799635E+02  0.16273163449E+02  0.51100000000E-03 0. -1.
        -11    1    3    3    0    0  0.24202187048E+02 -0.18179558519E+01  0.10994385856E+02  0.26644461751E+02  0.51100000000E-03 0.  1.
         12    1    3    3    0    0 -0.28583865252E+02  0.71634733562E+00 -0.74359868350E+01  0.29543940267E+02  0.00000000000E+00 0. -1.
</event>
<event>
 7    1  0.1465498E-013  0.7246166E+02  0.7816164E-02  0.1226708E+00
        -11   -1    0    0    0    0  0.00000000000E+00  0.00000000000E+00  0.45593999997E+02  0.45594000000E+02  0.51100000000E-03 0. -1.
         11   -1    0    0    0    0 -0.00000000000E+00 -0.00000000000E+00 -0.45593999997E+02  0.45594000000E+02  0.51100000000E-03 0.  1.
    9900012    2    1    2    0    0 -0.47112747406E+00 -0.18720315137E+02 -0.59676361240E-01  0.72461662366E+02  0.70000119940E+02 0.  0.
         12    1    1    2    0    0  0.47112747406E+00  0.18720315137E+02  0.59676361240E-01  0.18726337634E+02  0.00000000000E+00 0. -1.
         11    1    3    3    0    0  0.17498486776E+01 -0.12846977993E+02  0.11106033809E+02  0.17071930212E+02  0.51100000000E-03 0. -1.
        -11    1    3    3    0    0  0.22753695931E+02 -0.10761444200E+02  0.44091084142E+01  0.25553465461E+02  0.51100000000E-03 0.  1.
        -12    1    3    3    0    0 -0.24974672082E+02  0.48881070560E+01 -0.15574818584E+02  0.29836266693E+02  0.00000000000E+00 0.  1.
</event>
<event>
 7    1  0.1465498E-013  0.7246155E+02  0.7816164E-02  0.1226708E+00
        -11   -1    0    0    0    0  0.00000000000E+00  0.00000000000E+00  0.45593999997E+02  0.45594000000E+02  0.51100000000E-03 0.  1.
         11   -1    0    0    0    0 -0.00000000000E+00 -0.00000000000E+00 -0.45593999997E+02  0.45594000000E+02  0.51100000000E-03 0. -1.
    9900012    2    1    2    0    0 -0.71257363068E+01  0.38778270634E+00  0.17313390155E+02  0.72461548868E+02  0.69999972089E+02 0.  0.
         12    1    1    2    0    0  0.71257363068E+01 -0.38778270634E+00 -0.17313390155E+02  0.18726451132E+02  0.00000000000E+00 0. -1.
         11    1    3    3    0    0 -0.11199305139E+02  0.21197418468E+02 -0.12729287000E+02  0.27143871004E+02  0.51100000000E-03 0. -1.
        -11    1    3    3    0    0  0.35521578359E+01  0.60756528049E+01  0.62768222173E+01  0.94302640316E+01  0.51100000000E-03 0.  1.
        -12    1    3    3    0    0  0.52141099664E+00 -0.26885288566E+02  0.23765854937E+02  0.35887413833E+02  0.00000000000E+00 0.  1.
</event>
<event>
 7    1  0.1465498E-013  0.7246164E+02  0.7816164E-02  0.1226708E+00
        -11   -1    0    0    0    0  0.00000000000E+00  0.00000000000E+00  0.45593999997E+02  0.45594000000E+02  0.51100000000E-03 0.  1.
         11   -1    0    0    0    0 -0.00000000000E+00 -0.00000000000E+00 -0.45593999997E+02  0.45594000000E+02  0.51100000000E-03 0. -1.
    9900012    2    1    2    0    0  0.14724308346E+02  0.19946739399E+01  0.11397045511E+02  0.72461638187E+02  0.70000088442E+02 0.  0.
         12    1    1    2    0    0 -0.14724308346E+02 -0.19946739399E+01 -0.11397045511E+02  0.18726361813E+02  0.00000000000E+00 0. -1.
         11    1    3    3    0    0 -0.54442498988E+01 -0.34851995705E+01 -0.92032515915E+01  0.11246613407E+02  0.51100000000E-03 0. -1.
        -11    1    3    3    0    0 -0.83833491335E+01 -0.15025267255E+02 -0.47806736705E+01  0.17857604537E+02  0.51100000000E-03 0.  1.
        -12    1    3    3    0    0  0.28551907378E+02  0.20505140766E+02  0.25380970773E+02  0.43357420243E+02  0.00000000000E+00 0.  1.
</event>
<event>
 7    1  0.1465498E-013  0.7246151E+02  0.7816164E-02  0.1226708E+00
        -11   -1    0    0    0    0  0.00000000000E+00  0.00000000000E+00  0.45593999997E+02  0.45594000000E+02  0.51100000000E-03 0. -1.
         11   -1    0    0    0    0 -0.00000000000E+00 -0.00000000000E+00 -0.45593999997E+02  0.45594000000E+02  0.51100000000E-03 0.  1.
    9900012    2    1    2    0    0 -0.17553618361E+02 -0.43253804815E+01 -0.48829411255E+01  0.72461506791E+02  0.69999917275E+02 0.  0.
         12    1    1    2    0    0  0.17553618361E+02  0.43253804815E+01  0.48829411255E+01  0.18726493209E+02  0.00000000000E+00 0. -1.
         11    1    3    3    0    0 -0.47175726379E+01  0.38946020384E+01  0.29606899747E+02  0.30232299442E+02  0.51100000000E-03 0. -1.
        -11    1    3    3    0    0 -0.40209546988E+01  0.60613462995E+01 -0.75072345150E+01  0.10453064908E+02  0.51100000000E-03 0.  1.
        -12    1    3    3    0    0 -0.88150910241E+01 -0.14281328819E+02 -0.26982606358E+02  0.31776142441E+02  0.00000000000E+00 0.  1.
</event>
<event>
 7    1  0.1465498E-013  0.7246152E+02  0.7816164E-02  0.1226708E+00
        -11   -1    0    0    0    0  0.00000000000E+00  0.00000000000E+00  0.45593999997E+02  0.45594000000E+02  0.51100000000E-03 0. -1.
         11   -1    0    0    0    0 -0.00000000000E+00 -0.00000000000E+00 -0.45593999997E+02  0.45594000000E+02  0.51100000000E-03 0.  1.
    9900012    2    1    2    0    0  0.17106134721E+02 -0.46421112241E+01 -0.60425087075E+01  0.72461522670E+02  0.69999937960E+02 0.  0.
         12    1    1    2    0    0 -0.17106134721E+02  0.46421112241E+01  0.60425087075E+01  0.18726477330E+02  0.00000000000E+00 0. -1.
         11    1    3    3    0    0 -0.14647987476E+02 -0.62552474645E+01 -0.12683560789E+02  0.20360853924E+02  0.51100000000E-03 0.  1.
        -11    1    3    3    0    0 -0.85626752491E+01  0.52730006162E+01 -0.29843394385E+01  0.10489529306E+02  0.51100000000E-03 0. -1.
        -12    1    3    3    0    0  0.40316797446E+02 -0.36598643757E+01  0.96253915201E+01  0.41611139440E+02  0.00000000000E+00 0.  1.
</event>
<event>
 7    1  0.1465498E-013  0.7246125E+02  0.7816164E-02  0.1226709E+00
        -11   -1    0    0    0    0  0.00000000000E+00  0.00000000000E+00  0.45593999997E+02  0.45594000000E+02  0.51100000000E-03 0.  1.
         11   -1    0    0    0    0 -0.00000000000E+00 -0.00000000000E+00 -0.45593999997E+02  0.45594000000E+02  0.51100000000E-03 0. -1.
    9900012    2    1    2    0    0  0.18180427384E+02  0.35481756114E+01  0.27520406608E+01  0.72461248604E+02  0.69999580938E+02 0.  0.
         12    1    1    2    0    0 -0.18180427384E+02 -0.35481756114E+01 -0.27520406608E+01  0.18726751396E+02  0.00000000000E+00 0. -1.
         11    1    3    3    0    0  0.36890612442E+02  0.66303128667E+01 -0.61417830159E+01  0.37981572294E+02  0.51100000000E-03 0. -1.
        -11    1    3    3    0    0  0.58113278052E+01  0.91458136276E+00  0.75865855944E+01  0.96002224542E+01  0.51100000000E-03 0.  1.
         12    1    3    3    0    0 -0.24521512863E+02 -0.39967186180E+01  0.13072380823E+01  0.24879453856E+02  0.00000000000E+00 0. -1.
</event>
<event>
 7    1  0.1465498E-013  0.7246156E+02  0.7816164E-02  0.1226708E+00
        -11   -1    0    0    0    0  0.00000000000E+00  0.00000000000E+00  0.45593999997E+02  0.45594000000E+02  0.51100000000E-03 0.  1.
         11   -1    0    0    0    0 -0.00000000000E+00 -0.00000000000E+00 -0.45593999997E+02  0.45594000000E+02  0.51100000000E-03 0. -1.
    9900012    2    1    2    0    0 -0.15149651243E+02  0.44785924127E+01  0.10055332215E+02  0.72461563373E+02  0.69999990984E+02 0.  0.
         12    1    1    2    0    0  0.15149651243E+02 -0.44785924127E+01 -0.10055332215E+02  0.18726436627E+02  0.00000000000E+00 0. -1.
         11    1    3    3    0    0 -0.47124060461E+01  0.11558552950E+02  0.17363515616E+02  0.21384540955E+02  0.51100000000E-03 0. -1.
        -11    1    3    3    0    0 -0.22039140798E+02  0.13565375167E+02 -0.88349621644E+01  0.27345926337E+02  0.51100000000E-03 0.  1.
         12    1    3    3    0    0  0.11601895601E+02 -0.20645335704E+02  0.15267787632E+01  0.23731096082E+02  0.00000000000E+00 0. -1.
</event>
<event>
 7    1  0.1465498E-013  0.7246152E+02  0.7816164E-02  0.1226708E+00
        -11   -1    0    0    0    0  0.00000000000E+00  0.00000000000E+00  0.45593999997E+02  0.45594000000E+02  0.51100000000E-03 0.  1.
         11   -1    0    0    0    0 -0.00000000000E+00 -0.00000000000E+00 -0.45593999997E+02  0.45594000000E+02  0.51100000000E-03 0. -1.
    9900012    2    1    2    0    0 -0.13944430723E+02  0.12397257152E+02  0.15942884404E+01  0.72461524391E+02  0.69999940203E+02 0.  0.
         12    1    1    2    0    0  0.13944430723E+02 -0.12397257152E+02 -0.15942884404E+01  0.18726475609E+02  0.00000000000E+00 0. -1.
         11    1    3    3    0    0  0.47611988381E+01  0.22343055304E+02 -0.11533276645E+02  0.25590967256E+02  0.51100000000E-03 0. -1.
        -11    1    3    3    0    0 -0.78944453560E+01 -0.13043027437E+02 -0.11960143814E+02  0.19377509451E+02  0.51100000000E-03 0.  1.
         12    1    3    3    0    0 -0.10811184205E+02  0.30972292853E+01  0.25087708899E+02  0.27493047684E+02  0.00000000000E+00 0. -1.
</event>
<event>
 7    1  0.1465498E-013  0.7246156E+02  0.7816164E-02  0.1226708E+00
        -11   -1    0    0    0    0  0.00000000000E+00  0.00000000000E+00  0.45593999997E+02  0.45594000000E+02  0.51100000000E-03 0. -1.
         11   -1    0    0    0    0 -0.00000000000E+00 -0.00000000000E+00 -0.45593999997E+02  0.45594000000E+02  0.51100000000E-03 0.  1.
    9900012    2    1    2    0    0  0.16745733641E+01 -0.13972754308E+02  0.12354654677E+02  0.72461560106E+02  0.69999986728E+02 0.  0.
         12    1    1    2    0    0 -0.16745733641E+01  0.13972754308E+02 -0.12354654677E+02  0.18726439894E+02  0.00000000000E+00 0. -1.
         11    1    3    3    0    0 -0.11650104864E+00 -0.83239075076E+00 -0.52973268770E+01  0.53635920015E+01  0.51100000000E-03 0. -1.
        -11    1    3    3    0    0  0.95903574164E+01 -0.28877870595E+02 -0.11938812059E+02  0.32687024935E+02  0.51100000000E-03 0.  1.
         12    1    3    3    0    0 -0.77992830037E+01  0.15737507038E+02  0.29590793613E+02  0.34410943169E+02  0.00000000000E+00 0. -1.
</event>
<event>
 7    1  0.1465498E-013  0.7246131E+02  0.7816164E-02  0.1226709E+00
        -11   -1    0    0    0    0  0.00000000000E+00  0.00000000000E+00  0.45593999997E+02  0.45594000000E+02  0.51100000000E-03 0.  1.
         11   -1    0    0    0    0 -0.00000000000E+00 -0.00000000000E+00 -0.45593999997E+02  0.45594000000E+02  0.51100000000E-03 0. -1.
    9900012    2    1    2    0    0 -0.10807210883E+02 -0.11237276790E+02  0.10373852503E+02  0.72461307487E+02  0.69999657644E+02 0.  0.
         12    1    1    2    0    0  0.10807210883E+02  0.11237276790E+02 -0.10373852503E+02  0.18726692513E+02  0.00000000000E+00 0. -1.
         11    1    3    3    0    0  0.20966748607E+01 -0.23148917868E+02  0.98743418947E+01  0.25254129802E+02  0.51100000000E-03 0. -1.
        -11    1    3    3    0    0  0.12403006456E+02 -0.78308225862E+01  0.31449094918E+01  0.15001560169E+02  0.51100000000E-03 0.  1.
         12    1    3    3    0    0 -0.25306892199E+02  0.19742463665E+02 -0.26453988832E+01  0.32205617516E+02  0.00000000000E+00 0. -1.
</event>
<event>
 7    1  0.1465498E-013  0.7246159E+02  0.7816164E-02  0.1226708E+00
        -11   -1    0    0    0    0  0.00000000000E+00  0.00000000000E+00  0.45593999997E+02  0.45594000000E+02  0.51100000000E-03 0. -1.
         11   -1    0    0    0    0 -0.00000000000E+00 -0.00000000000E+00 -0.45593999997E+02  0.45594000000E+02  0.51100000000E-03 0.  1.
    9900012    2    1    2    0    0 -0.38486483723E+01  0.15436022734E+02 -0.98790445813E+01  0.72461590468E+02  0.70000026279E+02 0.  0.
         12    1    1    2    0    0  0.38486483723E+01 -0.15436022734E+02  0.98790445813E+01  0.18726409532E+02  0.00000000000E+00 0. -1.
         11    1    3    3    0    0  0.40149171439E+01 -0.50363455211E+01  0.23131081549E+02  0.24011065569E+02  0.51100000000E-03 0. -1.
        -11    1    3    3    0    0 -0.16305606171E+01  0.73793308716E+01  0.41070835997E+01  0.86012433981E+01  0.51100000000E-03 0.  1.
        -12    1    3    3    0    0 -0.62330048990E+01  0.13093037384E+02 -0.37117209730E+02  0.39849281501E+02  0.00000000000E+00 0.  1.
</event>
<event>
 7    1  0.1465498E-013  0.7246157E+02  0.7816164E-02  0.1226708E+00
        -11   -1    0    0    0    0  0.00000000000E+00  0.00000000000E+00  0.45593999997E+02  0.45594000000E+02  0.51100000000E-03 0. -1.
         11   -1    0    0    0    0 -0.00000000000E+00 -0.00000000000E+00 -0.45593999997E+02  0.45594000000E+02  0.51100000000E-03 0.  1.
    9900012    2    1    2    0    0  0.11897986152E+02  0.89255861602E+01  0.11377655555E+02  0.72461569249E+02  0.69999998638E+02 0.  0.
         12    1    1    2    0    0 -0.11897986152E+02 -0.89255861602E+01 -0.11377655555E+02  0.18726430751E+02  0.00000000000E+00 0. -1.
         11    1    3    3    0    0 -0.17853247775E+01 -0.21547244902E+02  0.10764774694E+02  0.24152671114E+02  0.51100000000E-03 0. -1.
        -11    1    3    3    0    0  0.14652466042E+02 -0.25598995984E+01  0.30071450587E+01  0.15175334222E+02  0.51100000000E-03 0.  1.
        -12    1    3    3    0    0 -0.96915511304E+00  0.33032730661E+02 -0.23942641983E+01  0.33133563913E+02  0.00000000000E+00 0.  1.
</event>
<event>
 7    1  0.1465498E-013  0.7246161E+02  0.7816164E-02  0.1226708E+00
        -11   -1    0    0    0    0  0.00000000000E+00  0.00000000000E+00  0.45593999997E+02  0.45594000000E+02  0.51100000000E-03 0.  1.
         11   -1    0    0    0    0 -0.00000000000E+00 -0.00000000000E+00 -0.45593999997E+02  0.45594000000E+02  0.51100000000E-03 0. -1.
    9900012    2    1    2    0    0  0.39569433413E+01  0.16301530461E+02  0.83234919992E+01  0.72461606460E+02  0.70000047112E+02 0.  0.
         12    1    1    2    0    0 -0.39569433413E+01 -0.16301530461E+02 -0.83234919992E+01  0.18726393540E+02  0.00000000000E+00 0. -1.
         11    1    3    3    0    0  0.75933967467E+01 -0.76853655351E+01  0.16271328707E+02  0.19531529784E+02  0.51100000000E-03 0. -1.
        -11    1    3    3    0    0 -0.52303687329E+01  0.25253207967E+02  0.15038611838E+02  0.29853661685E+02  0.51100000000E-03 0.  1.
         12    1    3    3    0    0  0.15939153275E+01 -0.12663119718E+01 -0.22986448546E+02  0.23076414991E+02  0.00000000000E+00 0. -1.
</event>
<event>
 7    1  0.1465498E-013  0.7246156E+02  0.7816164E-02  0.1226708E+00
        -11   -1    0    0    0    0  0.00000000000E+00  0.00000000000E+00  0.45593999997E+02  0.45594000000E+02  0.51100000000E-03 0.  1.
         11   -1    0    0    0    0 -0.00000000000E+00 -0.00000000000E+00 -0.45593999997E+02  0.45594000000E+02  0.51100000000E-03 0. -1.
    9900012    2    1    2    0    0 -0.17475181553E+02  0.41273737442E+01  0.53162389774E+01  0.72461559302E+02  0.69999985681E+02 0.  0.
         12    1    1    2    0    0  0.17475181553E+02 -0.41273737442E+01 -0.53162389774E+01  0.18726440698E+02  0.00000000000E+00 0. -1.
         11    1    3    3    0    0  0.19028683405E+02  0.18704071488E+01 -0.59355364565E+01  0.20020484717E+02  0.51100000000E-03 0. -1.
        -11    1    3    3    0    0  0.49592846752E+01 -0.60882506455E+01 -0.20289328122E+01  0.81103556660E+01  0.51100000000E-03 0.  1.
        -12    1    3    3    0    0 -0.41463149634E+02  0.83452172409E+01  0.13280708246E+02  0.44330718919E+02  0.00000000000E+00 0.  1.
</event>
<event>
 7    1  0.1472087E-013  0.7246159E+02  0.7816164E-02  0.1226708E+00
        -11   -1    0    0    0    0  0.00000000000E+00  0.00000000000E+00  0.45593999997E+02  0.45594000000E+02  0.51100000000E-03 0. -1.
         11   -1    0    0    0    0 -0.00000000000E+00 -0.00000000000E+00 -0.45593999997E+02  0.45594000000E+02  0.51100000000E-03 0.  1.
    9900012    2    1    2    0    0 -0.13582072337E+02  0.55938411942E+01 -0.11615276402E+02  0.72461590996E+02  0.70000026968E+02 0.  0.
         12    1    1    2    0    0  0.13582072337E+02 -0.55938411942E+01  0.11615276402E+02  0.18726409004E+02  0.00000000000E+00 0. -1.
         11    1    3    3    0    0  0.13408788334E+02  0.14201276414E+02  0.13628051257E+02  0.23815869451E+02  0.51100000000E-03 0. -1.
        -11    1    3    3    0    0 -0.10451730902E+01 -0.14081109276E+02 -0.40184926634E+01  0.14680541842E+02  0.51100000000E-03 0.  1.
        -12    1    3    3    0    0 -0.25945687581E+02  0.54736740556E+01 -0.21224834995E+02  0.33965179704E+02  0.00000000000E+00 0.  1.
</event>
<event>
 7    1  0.1465498E-013  0.7246157E+02  0.7816164E-02  0.1226708E+00
        -11   -1    0    0    0    0  0.00000000000E+00  0.00000000000E+00  0.45593999997E+02  0.45594000000E+02  0.51100000000E-03 0. -1.
         11   -1    0    0    0    0 -0.00000000000E+00 -0.00000000000E+00 -0.45593999997E+02  0.45594000000E+02  0.51100000000E-03 0.  1.
    9900012    2    1    2    0    0  0.18532415625E+02 -0.24461508053E+01  0.11158876911E+01  0.72461567131E+02  0.69999995879E+02 0.  0.
         12    1    1    2    0    0 -0.18532415625E+02  0.24461508053E+01 -0.11158876911E+01  0.18726432869E+02  0.00000000000E+00 0. -1.
         11    1    3    3    0    0  0.86357320702E+01  0.22006372049E+02  0.10809294639E+02  0.25994174925E+02  0.51100000000E-03 0. -1.
        -11    1    3    3    0    0 -0.75782176028E+01  0.64394237902E+01 -0.24927298526E+01  0.10252280876E+02  0.51100000000E-03 0.  1.
        -12    1    3    3    0    0  0.17474901158E+02 -0.30891946645E+02 -0.72006770952E+01  0.36215111330E+02  0.00000000000E+00 0.  1.
</event>
<event>
 7    1  0.1465498E-013  0.7246153E+02  0.7816164E-02  0.1226708E+00
        -11   -1    0    0    0    0  0.00000000000E+00  0.00000000000E+00  0.45593999997E+02  0.45594000000E+02  0.51100000000E-03 0.  1.
         11   -1    0    0    0    0 -0.00000000000E+00 -0.00000000000E+00 -0.45593999997E+02  0.45594000000E+02  0.51100000000E-03 0. -1.
    9900012    2    1    2    0    0 -0.18334473470E+02  0.19490438107E+01  0.32754964095E+01  0.72461533010E+02  0.69999951430E+02 0.  0.
         12    1    1    2    0    0  0.18334473470E+02 -0.19490438107E+01 -0.32754964095E+01  0.18726466990E+02  0.00000000000E+00 0. -1.
         11    1    3    3    0    0  0.10571413591E+02  0.74027078796E+01 -0.14502905766E+02  0.19413632972E+02  0.51100000000E-03 0. -1.
        -11    1    3    3    0    0  0.93349311267E+01 -0.37715363424E+01  0.95892183172E+01  0.13903903542E+02  0.51100000000E-03 0.  1.
        -12    1    3    3    0    0 -0.38240818188E+02 -0.16821277265E+01  0.81891838582E+01  0.39143996495E+02  0.00000000000E+00 0.  1.
</event>
<event>
 7    1  0.1465498E-013  0.7246145E+02  0.7816164E-02  0.1226708E+00
        -11   -1    0    0    0    0  0.00000000000E+00  0.00000000000E+00  0.45593999997E+02  0.45594000000E+02  0.51100000000E-03 0.  1.
         11   -1    0    0    0    0 -0.00000000000E+00 -0.00000000000E+00 -0.45593999997E+02  0.45594000000E+02  0.51100000000E-03 0. -1.
    9900012    2    1    2    0    0  0.17063158591E+01  0.81739319208E+01  0.16761832857E+02  0.72461448860E+02  0.69999841809E+02 0.  0.
         12    1    1    2    0    0 -0.17063158591E+01 -0.81739319208E+01 -0.16761832857E+02  0.18726551140E+02  0.00000000000E+00 0. -1.
         11    1    3    3    0    0  0.19152502607E+02  0.28753742924E+02 -0.15427501447E+01  0.34582888349E+02  0.51100000000E-03 0. -1.
        -11    1    3    3    0    0  0.14828686011E+01 -0.13553610007E+00 -0.26341551270E+01  0.30258953744E+01  0.51100000000E-03 0.  1.
        -12    1    3    3    0    0 -0.18929055349E+02 -0.20444274903E+02  0.20938738129E+02  0.34852665137E+02  0.00000000000E+00 0.  1.
</event>
<event>
 7    1  0.1465498E-013  0.7246152E+02  0.7816164E-02  0.1226708E+00
        -11   -1    0    0    0    0  0.00000000000E+00  0.00000000000E+00  0.45593999997E+02  0.45594000000E+02  0.51100000000E-03 0.  1.
         11   -1    0    0    0    0 -0.00000000000E+00 -0.00000000000E+00 -0.45593999997E+02  0.45594000000E+02  0.51100000000E-03 0. -1.
    9900012    2    1    2    0    0  0.34173488737E+01 -0.84892183552E+01  0.16338175587E+02  0.72461519201E+02  0.69999933441E+02 0.  0.
         12    1    1    2    0    0 -0.34173488737E+01  0.84892183552E+01 -0.16338175587E+02  0.18726480799E+02  0.00000000000E+00 0. -1.
         11    1    3    3    0    0  0.81626513422E+01 -0.10392894710E+02  0.11659057303E+02  0.17623131244E+02  0.51100000000E-03 0. -1.
        -11    1    3    3    0    0  0.12654614647E+02 -0.12038056449E+01  0.24914796603E+02  0.27970261170E+02  0.51100000000E-03 0.  1.
         12    1    3    3    0    0 -0.17399917115E+02  0.31074819998E+01 -0.20235678319E+02  0.26868126787E+02  0.00000000000E+00 0. -1.
</event>
<event>
 7    1  0.1465498E-013  0.7246141E+02  0.7816164E-02  0.1226708E+00
        -11   -1    0    0    0    0  0.00000000000E+00  0.00000000000E+00  0.45593999997E+02  0.45594000000E+02  0.51100000000E-03 0.  1.
         11   -1    0    0    0    0 -0.00000000000E+00 -0.00000000000E+00 -0.45593999997E+02  0.45594000000E+02  0.51100000000E-03 0. -1.
    9900012    2    1    2    0    0  0.62938477685E+00  0.36704297851E+01  0.18352569843E+02  0.72461414624E+02  0.69999797210E+02 0.  0.
         12    1    1    2    0    0 -0.62938477685E+00 -0.36704297851E+01 -0.18352569843E+02  0.18726585376E+02  0.00000000000E+00 0. -1.
         11    1    3    3    0    0  0.53200621584E+00 -0.32869503978E+02  0.58725082548E+01  0.33394216203E+02  0.51100000000E-03 0. -1.
        -11    1    3    3    0    0 -0.29098966878E+01  0.16652383666E+02  0.58928548828E+01  0.17902377480E+02  0.51100000000E-03 0.  1.
        -12    1    3    3    0    0  0.30072752488E+01  0.19887550096E+02  0.65872067058E+01  0.21164820941E+02  0.00000000000E+00 0.  1.
</event>
<event>
 7    1  0.1465498E-013  0.7246159E+02  0.7816164E-02  0.1226708E+00
        -11   -1    0    0    0    0  0.00000000000E+00  0.00000000000E+00  0.45593999997E+02  0.45594000000E+02  0.51100000000E-03 0.  1.
         11   -1    0    0    0    0 -0.00000000000E+00 -0.00000000000E+00 -0.45593999997E+02  0.45594000000E+02  0.51100000000E-03 0. -1.
    9900012    2    1    2    0    0  0.97575041236E+01 -0.10591576310E+02  0.11970291138E+02  0.72461594969E+02  0.70000032143E+02 0.  0.
         12    1    1    2    0    0 -0.97575041236E+01  0.10591576310E+02 -0.11970291138E+02  0.18726405031E+02  0.00000000000E+00 0. -1.
         11    1    3    3    0    0  0.67483586014E+01  0.39058778822E+01 -0.63189084734E+01  0.10036176085E+02  0.51100000000E-03 0. -1.
        -11    1    3    3    0    0 -0.25488638915E+02 -0.13470949722E+02  0.53597542278E+00  0.28834432022E+02  0.51100000000E-03 0.  1.
         12    1    3    3    0    0  0.28497784437E+02 -0.10265044709E+01  0.17753224189E+02  0.33590986862E+02  0.00000000000E+00 0. -1.
</event>
<event>
 7    1  0.1465498E-013  0.7246104E+02  0.7816164E-02  0.1226709E+00
        -11   -1    0    0    0    0  0.00000000000E+00  0.00000000000E+00  0.45593999997E+02  0.45594000000E+02  0.51100000000E-03 0.  1.
         11   -1    0    0    0    0 -0.00000000000E+00 -0.00000000000E+00 -0.45593999997E+02  0.45594000000E+02  0.51100000000E-03 0. -1.
    9900012    2    1    2    0    0  0.30414146641E+01  0.17750714124E+02  0.51343019331E+01  0.72461037849E+02  0.69999306387E+02 0.  0.
         12    1    1    2    0    0 -0.30414146641E+01 -0.17750714124E+02 -0.51343019331E+01  0.18726962151E+02  0.00000000000E+00 0. -1.
         11    1    3    3    0    0 -0.18973824318E+02 -0.59284217827E+01  0.13781946708E+01  0.19926154041E+02  0.51100000000E-03 0. -1.
        -11    1    3    3    0    0  0.68864206508E+00 -0.50561567018E+01 -0.12297541407E+02  0.13314220721E+02  0.51100000000E-03 0.  1.
        -12    1    3    3    0    0  0.21326596917E+02  0.28735292609E+02  0.16053648669E+02  0.39220663086E+02  0.00000000000E+00 0.  1.
</event>
<event>
 7    1  0.1465498E-013  0.7246158E+02  0.7816164E-02  0.1226708E+00
        -11   -1    0    0    0    0  0.00000000000E+00  0.00000000000E+00  0.45593999997E+02  0.45594000000E+02  0.51100000000E-03 0. -1.
         11   -1    0    0    0    0 -0.00000000000E+00 -0.00000000000E+00 -0.45593999997E+02  0.45594000000E+02  0.51100000000E-03 0.  1.
    9900012    2    1    2    0    0  0.11786422095E+02  0.11394581482E+00 -0.14551496852E+02  0.72461580425E+02  0.70000013197E+02 0.  0.
         12    1    1    2    0    0 -0.11786422095E+02 -0.11394581482E+00  0.14551496852E+02  0.18726419575E+02  0.00000000000E+00 0. -1.
         11    1    3    3    0    0  0.46600095387E+01  0.87445163854E+01 -0.16498149515E+02  0.19245030356E+02  0.51100000000E-03 0. -1.
        -11    1    3    3    0    0 -0.53133956957E+01  0.17425426325E+02 -0.11312805367E+02  0.21444281801E+02  0.51100000000E-03 0.  1.
         12    1    3    3    0    0  0.12439808252E+02 -0.26055996896E+02  0.13259458031E+02  0.31772268268E+02  0.00000000000E+00 0. -1.
</event>
<event>
 7    1  0.1465498E-013  0.7246155E+02  0.7816164E-02  0.1226708E+00
        -11   -1    0    0    0    0  0.00000000000E+00  0.00000000000E+00  0.45593999997E+02  0.45594000000E+02  0.51100000000E-03 0. -1.
         11   -1    0    0    0    0 -0.00000000000E+00 -0.00000000000E+00 -0.45593999997E+02  0.45594000000E+02  0.51100000000E-03 0.  1.
    9900012    2    1    2    0    0  0.16583751291E+02  0.16593786548E+01 -0.85384864110E+01  0.72461545595E+02  0.69999967824E+02 0.  0.
         12    1    1    2    0    0 -0.16583751291E+02 -0.16593786548E+01  0.85384864110E+01  0.18726454405E+02  0.00000000000E+00 0. -1.
         11    1    3    3    0    0 -0.13874785715E+02  0.44558874725E+01  0.57323373634E+01  0.15659639323E+02  0.51100000000E-03 0. -1.
        -11    1    3    3    0    0  0.17658720719E+02 -0.24204413141E+02 -0.62991449653E+01  0.30616388757E+02  0.51100000000E-03 0.  1.
         12    1    3    3    0    0  0.12799816287E+02  0.21407904324E+02 -0.79716788090E+01  0.26185517516E+02  0.00000000000E+00 0. -1.
</event>
<event>
 7    1  0.1465498E-013  0.7246156E+02  0.7816164E-02  0.1226708E+00
        -11   -1    0    0    0    0  0.00000000000E+00  0.00000000000E+00  0.45593999997E+02  0.45594000000E+02  0.51100000000E-03 0.  1.
         11   -1    0    0    0    0 -0.00000000000E+00 -0.00000000000E+00 -0.45593999997E+02  0.45594000000E+02  0.51100000000E-03 0. -1.
    9900012    2    1    2    0    0 -0.12837156425E+02  0.91701013056E+01  0.10089408677E+02  0.72461561191E+02  0.69999988141E+02 0.  0.
         12    1    1    2    0    0  0.12837156425E+02 -0.91701013056E+01 -0.10089408677E+02  0.18726438809E+02  0.00000000000E+00 0. -1.
         11    1    3    3    0    0 -0.49857003808E+01 -0.86624224010E+01 -0.14283735924E+02  0.17433298091E+02  0.51100000000E-03 0. -1.
        -11    1    3    3    0    0 -0.59300416776E+01  0.51234843394E+01 -0.13181352251E+02  0.15335042664E+02  0.51100000000E-03 0.  1.
        -12    1    3    3    0    0 -0.19214143665E+01  0.12709039367E+02  0.37554496851E+02  0.39693220436E+02  0.00000000000E+00 0.  1.
</event>
<event>
 7    1  0.1465498E-013  0.7246163E+02  0.7816164E-02  0.1226708E+00
        -11   -1    0    0    0    0  0.00000000000E+00  0.00000000000E+00  0.45593999997E+02  0.45594000000E+02  0.51100000000E-03 0.  1.
         11   -1    0    0    0    0 -0.00000000000E+00 -0.00000000000E+00 -0.45593999997E+02  0.45594000000E+02  0.51100000000E-03 0. -1.
    9900012    2    1    2    0    0  0.92506974110E+01  0.24233520762E+01  0.16100584777E+02  0.72461631745E+02  0.70000080050E+02 0.  0.
         12    1    1    2    0    0 -0.92506974110E+01 -0.24233520762E+01 -0.16100584777E+02  0.18726368255E+02  0.00000000000E+00 0. -1.
         11    1    3    3    0    0 -0.16200146356E+02 -0.18817853304E+02 -0.87494738703E+01  0.26326975485E+02  0.51100000000E-03 0. -1.
        -11    1    3    3    0    0  0.10367800844E+02 -0.19129762293E+01  0.10955960903E+02  0.15204731237E+02  0.51100000000E-03 0.  1.
        -12    1    3    3    0    0  0.15083042922E+02  0.23154181610E+02  0.13894097744E+02  0.30929925023E+02  0.00000000000E+00 0.  1.
</event>
<event>
 7    1  0.1465498E-013  0.7246141E+02  0.7816164E-02  0.1226708E+00
        -11   -1    0    0    0    0  0.00000000000E+00  0.00000000000E+00  0.45593999997E+02  0.45594000000E+02  0.51100000000E-03 0.  1.
         11   -1    0    0    0    0 -0.00000000000E+00 -0.00000000000E+00 -0.45593999997E+02  0.45594000000E+02  0.51100000000E-03 0. -1.
    9900012    2    1    2    0    0 -0.15719596522E+02 -0.10085907733E+02 -0.13615923147E+01  0.72461409727E+02  0.69999790831E+02 0.  0.
         12    1    1    2    0    0  0.15719596522E+02  0.10085907733E+02  0.13615923147E+01  0.18726590273E+02  0.00000000000E+00 0. -1.
         11    1    3    3    0    0  0.52908901729E+01  0.48822071094E+01 -0.46422381282E+01  0.85662033702E+01  0.51100000000E-03 0. -1.
        -11    1    3    3    0    0  0.25705660091E+00  0.21079368859E+01  0.27402203478E+02  0.27484363404E+02  0.51100000000E-03 0.  1.
        -12    1    3    3    0    0 -0.21267543295E+02 -0.17076051729E+02 -0.24121557664E+02  0.36410842954E+02  0.00000000000E+00 0.  1.
</event>
<event>
 7    1  0.1465498E-013  0.7246164E+02  0.7816164E-02  0.1226708E+00
        -11   -1    0    0    0    0  0.00000000000E+00  0.00000000000E+00  0.45593999997E+02  0.45594000000E+02  0.51100000000E-03 0. -1.
         11   -1    0    0    0    0 -0.00000000000E+00 -0.00000000000E+00 -0.45593999997E+02  0.45594000000E+02  0.51100000000E-03 0.  1.
    9900012    2    1    2    0    0 -0.29535981307E+01  0.35499123285E+01 -0.18148027846E+02  0.72461640659E+02  0.70000091663E+02 0.  0.
         12    1    1    2    0    0  0.29535981307E+01 -0.35499123285E+01  0.18148027846E+02  0.18726359341E+02  0.00000000000E+00 0. -1.
         11    1    3    3    0    0 -0.91060240747E+01  0.89446529182E+01 -0.10631922483E+02  0.16612172231E+02  0.51100000000E-03 0. -1.
        -11    1    3    3    0    0  0.22873692582E+02  0.15843589753E+02 -0.12054746722E+00  0.27825162722E+02  0.51100000000E-03 0.  1.
        -12    1    3    3    0    0 -0.16721266638E+02 -0.21238330342E+02 -0.73955578954E+01  0.28024305706E+02  0.00000000000E+00 0.  1.
</event>
<event>
 7    1  0.1465498E-013  0.7246165E+02  0.7816164E-02  0.1226708E+00
        -11   -1    0    0    0    0  0.00000000000E+00  0.00000000000E+00  0.45593999997E+02  0.45594000000E+02  0.51100000000E-03 0. -1.
         11   -1    0    0    0    0 -0.00000000000E+00 -0.00000000000E+00 -0.45593999997E+02  0.45594000000E+02  0.51100000000E-03 0.  1.
    9900012    2    1    2    0    0 -0.12534082027E+02  0.10709083890E+02 -0.88819185976E+01  0.72461650436E+02  0.70000104399E+02 0.  0.
         12    1    1    2    0    0  0.12534082027E+02 -0.10709083890E+02  0.88819185976E+01  0.18726349564E+02  0.00000000000E+00 0. -1.
         11    1    3    3    0    0  0.59131440199E+01  0.96274108029E+01 -0.87723540896E+01  0.14304073109E+02  0.51100000000E-03 0.  1.
        -11    1    3    3    0    0 -0.30745003062E+02  0.49042457131E+01  0.17979702958E+02  0.35952420754E+02  0.51100000000E-03 0. -1.
         12    1    3    3    0    0  0.12297777016E+02 -0.38225726262E+01 -0.18089267466E+02  0.22205156574E+02  0.00000000000E+00 0. -1.
</event>
<event>
 7    1  0.1465498E-013  0.7246158E+02  0.7816164E-02  0.1226708E+00
        -11   -1    0    0    0    0  0.00000000000E+00  0.00000000000E+00  0.45593999997E+02  0.45594000000E+02  0.51100000000E-03 0.  1.
         11   -1    0    0    0    0 -0.00000000000E+00 -0.00000000000E+00 -0.45593999997E+02  0.45594000000E+02  0.51100000000E-03 0. -1.
    9900012    2    1    2    0    0  0.29419858136E+01 -0.75282860837E+01  0.16892255613E+02  0.72461583589E+02  0.70000017319E+02 0.  0.
         12    1    1    2    0    0 -0.29419858136E+01  0.75282860837E+01 -0.16892255613E+02  0.18726416411E+02  0.00000000000E+00 0. -1.
         11    1    3    3    0    0  0.13608346386E+02  0.27509871566E+01 -0.14995461051E+02  0.20435725436E+02  0.51100000000E-03 0. -1.
        -11    1    3    3    0    0  0.75860773189E+01 -0.16249726776E+02  0.43501968618E+01  0.18453357483E+02  0.51100000000E-03 0.  1.
        -12    1    3    3    0    0 -0.18252437891E+02  0.59704535361E+01  0.27537519803E+02  0.33572500671E+02  0.00000000000E+00 0.  1.
</event>
<event>
 7    1  0.1465498E-013  0.7246166E+02  0.7816164E-02  0.1226708E+00
        -11   -1    0    0    0    0  0.00000000000E+00  0.00000000000E+00  0.45593999997E+02  0.45594000000E+02  0.51100000000E-03 0. -1.
         11   -1    0    0    0    0 -0.00000000000E+00 -0.00000000000E+00 -0.45593999997E+02  0.45594000000E+02  0.51100000000E-03 0.  1.
    9900012    2    1    2    0    0 -0.16733617795E+02 -0.24784614265E+01 -0.80323719878E+01  0.72461661989E+02  0.70000119449E+02 0.  0.
         12    1    1    2    0    0  0.16733617795E+02  0.24784614265E+01  0.80323719878E+01  0.18726338011E+02  0.00000000000E+00 0. -1.
         11    1    3    3    0    0 -0.13336322366E+02  0.22617585018E+01  0.23290302979E+02  0.26933459839E+02  0.51100000000E-03 0. -1.
        -11    1    3    3    0    0 -0.64326440266E+01 -0.56395028439E+01  0.44313476531E+01  0.96343003785E+01  0.51100000000E-03 0.  1.
        -12    1    3    3    0    0  0.30353485971E+01  0.89928291565E+00 -0.35754022620E+02  0.35893901772E+02  0.00000000000E+00 0.  1.
</event>
<event>
 7    1  0.1465498E-013  0.7246157E+02  0.7816164E-02  0.1226708E+00
        -11   -1    0    0    0    0  0.00000000000E+00  0.00000000000E+00  0.45593999997E+02  0.45594000000E+02  0.51100000000E-03 0.  1.
         11   -1    0    0    0    0 -0.00000000000E+00 -0.00000000000E+00 -0.45593999997E+02  0.45594000000E+02  0.51100000000E-03 0. -1.
    9900012    2    1    2    0    0  0.14774522468E+02 -0.62351080738E+01  0.96703656856E+01  0.72461573236E+02  0.70000003832E+02 0.  0.
         12    1    1    2    0    0 -0.14774522468E+02  0.62351080738E+01 -0.96703656856E+01  0.18726426764E+02  0.00000000000E+00 0. -1.
         11    1    3    3    0    0  0.20186951532E+02 -0.50336843963E+01  0.72307034580E+00  0.20817632472E+02  0.51100000000E-03 0. -1.
        -11    1    3    3    0    0  0.67377186947E+01 -0.14359605496E+02  0.23646930124E+02  0.28474065880E+02  0.51100000000E-03 0.  1.
        -12    1    3    3    0    0 -0.12150147759E+02  0.13158181818E+02 -0.14699634784E+02  0.23169874883E+02  0.00000000000E+00 0.  1.
</event>
<event>
 7    1  0.1465498E-013  0.7246156E+02  0.7816164E-02  0.1226708E+00
        -11   -1    0    0    0    0  0.00000000000E+00  0.00000000000E+00  0.45593999997E+02  0.45594000000E+02  0.51100000000E-03 0.  1.
         11   -1    0    0    0    0 -0.00000000000E+00 -0.00000000000E+00 -0.45593999997E+02  0.45594000000E+02  0.51100000000E-03 0. -1.
    9900012    2    1    2    0    0 -0.10504463544E+02 -0.10991506144E+02  0.10932633604E+02  0.72461563095E+02  0.69999990621E+02 0.  0.
         12    1    1    2    0    0  0.10504463544E+02  0.10991506144E+02 -0.10932633604E+02  0.18726436905E+02  0.00000000000E+00 0. -1.
         11    1    3    3    0    0 -0.16432469245E+01 -0.17940358199E+02 -0.79031517700E+01  0.19672735471E+02  0.51100000000E-03 0. -1.
        -11    1    3    3    0    0  0.18436432739E+02  0.79063657624E+01  0.83746890951E+00  0.20077699723E+02  0.51100000000E-03 0.  1.
        -12    1    3    3    0    0 -0.27297649358E+02 -0.95751370751E+00  0.17998316464E+02  0.32711127901E+02  0.00000000000E+00 0.  1.
</event>
<event>
 7    1  0.1465498E-013  0.7246158E+02  0.7816164E-02  0.1226708E+00
        -11   -1    0    0    0    0  0.00000000000E+00  0.00000000000E+00  0.45593999997E+02  0.45594000000E+02  0.51100000000E-03 0.  1.
         11   -1    0    0    0    0 -0.00000000000E+00 -0.00000000000E+00 -0.45593999997E+02  0.45594000000E+02  0.51100000000E-03 0. -1.
    9900012    2    1    2    0    0  0.53264992492E+01  0.45485813531E+01  0.17367140551E+02  0.72461581295E+02  0.70000014330E+02 0.  0.
         12    1    1    2    0    0 -0.53264992492E+01 -0.45485813531E+01 -0.17367140551E+02  0.18726418705E+02  0.00000000000E+00 0. -1.
         11    1    3    3    0    0  0.11182284014E+02 -0.93859015446E+01  0.24336539808E+02  0.28379672191E+02  0.51100000000E-03 0. -1.
        -11    1    3    3    0    0  0.67456362568E+01 -0.11842881202E+02  0.25209610625E+01  0.13860472164E+02  0.51100000000E-03 0.  1.
         12    1    3    3    0    0 -0.12601421022E+02  0.25777364100E+02 -0.94903603190E+01  0.30221436940E+02  0.00000000000E+00 0. -1.
</event>
<event>
 7    1  0.1465498E-013  0.7246158E+02  0.7816164E-02  0.1226708E+00
        -11   -1    0    0    0    0  0.00000000000E+00  0.00000000000E+00  0.45593999997E+02  0.45594000000E+02  0.51100000000E-03 0.  1.
         11   -1    0    0    0    0 -0.00000000000E+00 -0.00000000000E+00 -0.45593999997E+02  0.45594000000E+02  0.51100000000E-03 0. -1.
    9900012    2    1    2    0    0 -0.10110966199E+02 -0.15029901002E+02 -0.47485873920E+01  0.72461584330E+02  0.70000018284E+02 0.  0.
         12    1    1    2    0    0  0.10110966199E+02  0.15029901002E+02  0.47485873920E+01  0.18726415670E+02  0.00000000000E+00 0. -1.
         11    1    3    3    0    0 -0.44941454633E+01 -0.17915176401E+01  0.14923901594E+02  0.15688521854E+02  0.51100000000E-03 0. -1.
        -11    1    3    3    0    0  0.39782421917E+01  0.49539639854E+01  0.15094894978E+02  0.16377546360E+02  0.51100000000E-03 0.  1.
         12    1    3    3    0    0 -0.95950629278E+01 -0.18192347348E+02 -0.34767383964E+02  0.40395516117E+02  0.00000000000E+00 0. -1.
</event>
<event>
 7    1  0.1465498E-013  0.7246158E+02  0.7816164E-02  0.1226708E+00
        -11   -1    0    0    0    0  0.00000000000E+00  0.00000000000E+00  0.45593999997E+02  0.45594000000E+02  0.51100000000E-03 0.  1.
         11   -1    0    0    0    0 -0.00000000000E+00 -0.00000000000E+00 -0.45593999997E+02  0.45594000000E+02  0.51100000000E-03 0. -1.
    9900012    2    1    2    0    0  0.35087604734E+00 -0.17949269587E+02  0.53272447270E+01  0.72461576714E+02  0.70000008362E+02 0.  0.
         12    1    1    2    0    0 -0.35087604734E+00  0.17949269587E+02 -0.53272447270E+01  0.18726423286E+02  0.00000000000E+00 0. -1.
         11    1    3    3    0    0  0.95139400733E+01 -0.68189616368E+01 -0.16969962516E+02  0.20615356451E+02  0.51100000000E-03 0. -1.
        -11    1    3    3    0    0  0.10429810132E+02 -0.21896549706E+02  0.13972476717E+02  0.27990532940E+02  0.51100000000E-03 0.  1.
        -12    1    3    3    0    0 -0.19592874158E+02  0.10766241756E+02  0.83247305265E+01  0.23855687323E+02  0.00000000000E+00 0.  1.
</event>
<event>
 7    1  0.1465498E-013  0.7246163E+02  0.7816164E-02  0.1226708E+00
        -11   -1    0    0    0    0  0.00000000000E+00  0.00000000000E+00  0.45593999997E+02  0.45594000000E+02  0.51100000000E-03 0.  1.
         11   -1    0    0    0    0 -0.00000000000E+00 -0.00000000000E+00 -0.45593999997E+02  0.45594000000E+02  0.51100000000E-03 0. -1.
    9900012    2    1    2    0    0 -0.14477741972E+02 -0.34497127942E+01  0.11365352927E+02  0.72461634146E+02  0.70000083178E+02 0.  0.
         12    1    1    2    0    0  0.14477741972E+02  0.34497127942E+01 -0.11365352927E+02  0.18726365854E+02  0.00000000000E+00 0. -1.
         11    1    3    3    0    0  0.21870708252E+01 -0.97483387644E+01 -0.12295976347E+02  0.15843119076E+02  0.51100000000E-03 0. -1.
        -11    1    3    3    0    0 -0.21777940267E+02  0.70480529066E+01 -0.82198817827E+01  0.24321188064E+02  0.51100000000E-03 0.  1.
        -12    1    3    3    0    0  0.51131274702E+01 -0.74942693640E+00  0.31881211057E+02  0.32297327006E+02  0.00000000000E+00 0.  1.
</event>
<event>
 7    1  0.1465498E-013  0.7246157E+02  0.7816164E-02  0.1226708E+00
        -11   -1    0    0    0    0  0.00000000000E+00  0.00000000000E+00  0.45593999997E+02  0.45594000000E+02  0.51100000000E-03 0.  1.
         11   -1    0    0    0    0 -0.00000000000E+00 -0.00000000000E+00 -0.45593999997E+02  0.45594000000E+02  0.51100000000E-03 0. -1.
    9900012    2    1    2    0    0 -0.16391494854E+02  0.18497745879E+01  0.88643413364E+01  0.72461566360E+02  0.69999994874E+02 0.  0.
         12    1    1    2    0    0  0.16391494854E+02 -0.18497745879E+01 -0.88643413364E+01  0.18726433640E+02  0.00000000000E+00 0. -1.
         11    1    3    3    0    0 -0.65031558997E+01  0.51786089049E+01  0.10726430294E+02  0.13570752888E+02  0.51100000000E-03 0. -1.
        -11    1    3    3    0    0 -0.30601838745E+02 -0.11269164675E+02  0.95008508143E+01  0.33966642070E+02  0.51100000000E-03 0.  1.
         12    1    3    3    0    0  0.20713499791E+02  0.79403303580E+01 -0.11362939772E+02  0.24924171401E+02  0.00000000000E+00 0. -1.
</event>
<event>
 7    1  0.1465498E-013  0.7246160E+02  0.7816164E-02  0.1226708E+00
        -11   -1    0    0    0    0  0.00000000000E+00  0.00000000000E+00  0.45593999997E+02  0.45594000000E+02  0.51100000000E-03 0.  1.
         11   -1    0    0    0    0 -0.00000000000E+00 -0.00000000000E+00 -0.45593999997E+02  0.45594000000E+02  0.51100000000E-03 0. -1.
    9900012    2    1    2    0    0  0.12001391063E+01  0.12141454514E+02  0.14206440338E+02  0.72461596216E+02  0.70000033768E+02 0.  0.
         12    1    1    2    0    0 -0.12001391063E+01 -0.12141454514E+02 -0.14206440338E+02  0.18726403784E+02  0.00000000000E+00 0. -1.
         11    1    3    3    0    0  0.58292301813E+01  0.60145360937E+01  0.21636979163E+00  0.83786266820E+01  0.51100000000E-03 0. -1.
        -11    1    3    3    0    0  0.19697504009E+02  0.11334224812E+02  0.27578939274E+02  0.35735895232E+02  0.51100000000E-03 0.  1.
         12    1    3    3    0    0 -0.24326595084E+02 -0.52073063913E+01 -0.13588868728E+02  0.28347074303E+02  0.00000000000E+00 0. -1.
</event>
<event>
 7    1  0.1465498E-013  0.7246156E+02  0.7816164E-02  0.1226708E+00
        -11   -1    0    0    0    0  0.00000000000E+00  0.00000000000E+00  0.45593999997E+02  0.45594000000E+02  0.51100000000E-03 0.  1.
         11   -1    0    0    0    0 -0.00000000000E+00 -0.00000000000E+00 -0.45593999997E+02  0.45594000000E+02  0.51100000000E-03 0. -1.
    9900012    2    1    2    0    0 -0.24293862608E+00 -0.11054358182E+02  0.15113628189E+02  0.72461558506E+02  0.69999984644E+02 0.  0.
         12    1    1    2    0    0  0.24293862608E+00  0.11054358182E+02 -0.15113628189E+02  0.18726441494E+02  0.00000000000E+00 0. -1.
         11    1    3    3    0    0 -0.13386380707E+01  0.21713833158E+01 -0.55650123545E+01  0.61217824328E+01  0.51100000000E-03 0. -1.
        -11    1    3    3    0    0 -0.27877164036E+02  0.30362185853E+01  0.17287349451E+02  0.32942485475E+02  0.51100000000E-03 0.  1.
         12    1    3    3    0    0  0.28972863481E+02 -0.16261960083E+02  0.33912910919E+01  0.33397290598E+02  0.00000000000E+00 0. -1.
</event>
<event>
 7    1  0.1465498E-013  0.7246157E+02  0.7816164E-02  0.1226708E+00
        -11   -1    0    0    0    0  0.00000000000E+00  0.00000000000E+00  0.45593999997E+02  0.45594000000E+02  0.51100000000E-03 0.  1.
         11   -1    0    0    0    0 -0.00000000000E+00 -0.00000000000E+00 -0.45593999997E+02  0.45594000000E+02  0.51100000000E-03 0. -1.
    9900012    2    1    2    0    0  0.27290346905E+01  0.17567198458E+02  0.58843123467E+01  0.72461568845E+02  0.69999998112E+02 0.  0.
         12    1    1    2    0    0 -0.27290346905E+01 -0.17567198458E+02 -0.58843123467E+01  0.18726431155E+02  0.00000000000E+00 0. -1.
         11    1    3    3    0    0  0.70510240789E+01 -0.16681142953E+02  0.13628513655E+02  0.22665256572E+02  0.51100000000E-03 0.  1.
        -11    1    3    3    0    0  0.13274212824E+02  0.35636454762E+01 -0.94421414598E+00  0.13776640948E+02  0.51100000000E-03 0. -1.
         12    1    3    3    0    0 -0.17596202213E+02  0.30684695935E+02 -0.67999871619E+01  0.36019671325E+02  0.00000000000E+00 0. -1.
</event>
<event>
 7    1  0.1465498E-013  0.7246152E+02  0.7816164E-02  0.1226708E+00
        -11   -1    0    0    0    0  0.00000000000E+00  0.00000000000E+00  0.45593999997E+02  0.45594000000E+02  0.51100000000E-03 0. -1.
         11   -1    0    0    0    0 -0.00000000000E+00 -0.00000000000E+00 -0.45593999997E+02  0.45594000000E+02  0.51100000000E-03 0.  1.
    9900012    2    1    2    0    0 -0.17611634034E+02 -0.56931953979E+01  0.28458535869E+01  0.72461521158E+02  0.69999935991E+02 0.  0.
         12    1    1    2    0    0  0.17611634034E+02  0.56931953979E+01 -0.28458535869E+01  0.18726478842E+02  0.00000000000E+00 0. -1.
         11    1    3    3    0    0 -0.16902935129E+02  0.25186191325E+00  0.23744196815E+02  0.29147204549E+02  0.51100000000E-03 0. -1.
        -11    1    3    3    0    0 -0.15139435195E+02 -0.45913378195E+01  0.22734208827E+01  0.15982844670E+02  0.51100000000E-03 0.  1.
        -12    1    3    3    0    0  0.14430736290E+02 -0.13537194916E+01 -0.23171764111E+02  0.27331471939E+02  0.00000000000E+00 0.  1.
</event>
<event>
 7    1  0.1465498E-013  0.7246157E+02  0.7816164E-02  0.1226708E+00
        -11   -1    0    0    0    0  0.00000000000E+00  0.00000000000E+00  0.45593999997E+02  0.45594000000E+02  0.51100000000E-03 0.  1.
         11   -1    0    0    0    0 -0.00000000000E+00 -0.00000000000E+00 -0.45593999997E+02  0.45594000000E+02  0.51100000000E-03 0. -1.
    9900012    2    1    2    0    0  0.39629901618E+01  0.11673185628E+02  0.14096471660E+02  0.72461573032E+02  0.70000003566E+02 0.  0.
         12    1    1    2    0    0 -0.39629901618E+01 -0.11673185628E+02 -0.14096471660E+02  0.18726426968E+02  0.00000000000E+00 0. -1.
         11    1    3    3    0    0 -0.62373066769E+01  0.18552805341E+01  0.11196559024E+02  0.12950250758E+02  0.51100000000E-03 0. -1.
        -11    1    3    3    0    0  0.27140043460E+02  0.20387401229E+02  0.13940353846E+02  0.36695524979E+02  0.51100000000E-03 0.  1.
         12    1    3    3    0    0 -0.16939746621E+02 -0.10569496135E+02 -0.11040441210E+02  0.22815797296E+02  0.00000000000E+00 0. -1.
</event>
<event>
 7    1  0.1506315E-013  0.7246157E+02  0.7816164E-02  0.1226708E+00
        -11   -1    0    0    0    0  0.00000000000E+00  0.00000000000E+00  0.45593999997E+02  0.45594000000E+02  0.51100000000E-03 0.  1.
         11   -1    0    0    0    0 -0.00000000000E+00 -0.00000000000E+00 -0.45593999997E+02  0.45594000000E+02  0.51100000000E-03 0. -1.
    9900012    2    1    2    0    0 -0.15218937848E+02 -0.90132156369E+01  0.61502181990E+01  0.72461566564E+02  0.69999995141E+02 0.  0.
         12    1    1    2    0    0  0.15218937848E+02  0.90132156369E+01 -0.61502181990E+01  0.18726433436E+02  0.00000000000E+00 0. -1.
         11    1    3    3    0    0  0.15034175472E+02  0.86826008928E+01 -0.89953849789E+01  0.19553284674E+02  0.51100000000E-03 0. -1.
        -11    1    3    3    0    0 -0.91794366056E+01  0.25376438998E+01 -0.10398798692E+02  0.14100947041E+02  0.51100000000E-03 0.  1.
        -12    1    3    3    0    0 -0.21073676714E+02 -0.20233460430E+02  0.25544401870E+02  0.38807334849E+02  0.00000000000E+00 0.  1.
</event>
<event>
 7    1  0.1465498E-013  0.7246176E+02  0.7816164E-02  0.1226707E+00
        -11   -1    0    0    0    0  0.00000000000E+00  0.00000000000E+00  0.45593999997E+02  0.45594000000E+02  0.51100000000E-03 0.  1.
         11   -1    0    0    0    0 -0.00000000000E+00 -0.00000000000E+00 -0.45593999997E+02  0.45594000000E+02  0.51100000000E-03 0. -1.
    9900012    2    1    2    0    0  0.15367383981E+02 -0.82630200304E+01  0.67998463148E+01  0.72461764384E+02  0.70000252838E+02 0.  0.
         12    1    1    2    0    0 -0.15367383981E+02  0.82630200304E+01 -0.67998463148E+01  0.18726235616E+02  0.00000000000E+00 0. -1.
         11    1    3    3    0    0 -0.16768107199E+02 -0.97443642522E+01 -0.10236584704E+02  0.21929653905E+02  0.51100000000E-03 0. -1.
        -11    1    3    3    0    0 -0.28474876306E+01  0.16048823919E+01 -0.72448225249E+01  0.79480366744E+01  0.51100000000E-03 0.  1.
        -12    1    3    3    0    0  0.34982978811E+02 -0.12353817000E+00  0.24281253544E+02  0.42584073805E+02  0.00000000000E+00 0.  1.
</event>
<event>
 7    1  0.1465498E-013  0.7246152E+02  0.7816164E-02  0.1226708E+00
        -11   -1    0    0    0    0  0.00000000000E+00  0.00000000000E+00  0.45593999997E+02  0.45594000000E+02  0.51100000000E-03 0. -1.
         11   -1    0    0    0    0 -0.00000000000E+00 -0.00000000000E+00 -0.45593999997E+02  0.45594000000E+02  0.51100000000E-03 0.  1.
    9900012    2    1    2    0    0  0.16400311184E+02 -0.79473863180E+01  0.43069538834E+01  0.72461521207E+02  0.69999936055E+02 0.  0.
         12    1    1    2    0    0 -0.16400311184E+02  0.79473863180E+01 -0.43069538834E+01  0.18726478793E+02  0.00000000000E+00 0. -1.
         11    1    3    3    0    0 -0.37681444636E+01 -0.74169158947E+01 -0.43409452418E+01  0.93836751831E+01  0.51100000000E-03 0. -1.
        -11    1    3    3    0    0 -0.97347565707E+01  0.92165883302E+00  0.26482328012E+02  0.28229924507E+02  0.51100000000E-03 0.  1.
         12    1    3    3    0    0  0.29903212218E+02 -0.14521292563E+01 -0.17834428886E+02  0.34847921517E+02  0.00000000000E+00 0. -1.
</event>
<event>
 7    1  0.1465498E-013  0.7246159E+02  0.7816164E-02  0.1226708E+00
        -11   -1    0    0    0    0  0.00000000000E+00  0.00000000000E+00  0.45593999997E+02  0.45594000000E+02  0.51100000000E-03 0. -1.
         11   -1    0    0    0    0 -0.00000000000E+00 -0.00000000000E+00 -0.45593999997E+02  0.45594000000E+02  0.51100000000E-03 0.  1.
    9900012    2    1    2    0    0  0.14903578508E+02 -0.78128763493E+00 -0.11311565195E+02  0.72461586305E+02  0.70000020857E+02 0.  0.
         12    1    1    2    0    0 -0.14903578508E+02  0.78128763493E+00  0.11311565195E+02  0.18726413695E+02  0.00000000000E+00 0. -1.
         11    1    3    3    0    0 -0.10399285132E+02  0.12321078843E+02  0.64084823224E+01  0.17350007523E+02  0.51100000000E-03 0. -1.
        -11    1    3    3    0    0 -0.49767588030E+01  0.92063339733E+01 -0.13768319476E+02  0.17294257280E+02  0.51100000000E-03 0.  1.
        -12    1    3    3    0    0  0.30279622443E+02 -0.22308700451E+02 -0.39517280410E+01  0.37817321502E+02  0.00000000000E+00 0.  1.
</event>
<event>
 7    1  0.1465498E-013  0.7246177E+02  0.7816164E-02  0.1226707E+00
        -11   -1    0    0    0    0  0.00000000000E+00  0.00000000000E+00  0.45593999997E+02  0.45594000000E+02  0.51100000000E-03 0.  1.
         11   -1    0    0    0    0 -0.00000000000E+00 -0.00000000000E+00 -0.45593999997E+02  0.45594000000E+02  0.51100000000E-03 0. -1.
    9900012    2    1    2    0    0  0.57506409992E-02  0.18383607222E+02  0.35657412975E+01  0.72461773510E+02  0.70000264725E+02 0.  0.
         12    1    1    2    0    0 -0.57506409992E-02 -0.18383607222E+02 -0.35657412975E+01  0.18726226490E+02  0.00000000000E+00 0. -1.
         11    1    3    3    0    0 -0.11599888932E+02  0.87568668617E+00  0.11167388273E+02  0.16125594920E+02  0.51100000000E-03 0. -1.
        -11    1    3    3    0    0  0.29908277427E+01 -0.18302672801E+02 -0.59129649332E+01  0.19465252035E+02  0.51100000000E-03 0.  1.
         12    1    3    3    0    0  0.86148118307E+01  0.35810593336E+02 -0.16886820419E+01  0.36870926555E+02  0.00000000000E+00 0. -1.
</event>
<event>
 7    1  0.1465498E-013  0.7246146E+02  0.7816164E-02  0.1226708E+00
        -11   -1    0    0    0    0  0.00000000000E+00  0.00000000000E+00  0.45593999997E+02  0.45594000000E+02  0.51100000000E-03 0.  1.
         11   -1    0    0    0    0 -0.00000000000E+00 -0.00000000000E+00 -0.45593999997E+02  0.45594000000E+02  0.51100000000E-03 0. -1.
    9900012    2    1    2    0    0 -0.67757585035E+01 -0.17457352786E+02  0.11517956705E+00  0.72461459051E+02  0.69999855084E+02 0.  0.
         12    1    1    2    0    0  0.67757585035E+01  0.17457352786E+02 -0.11517956705E+00  0.18726540949E+02  0.00000000000E+00 0. -1.
         11    1    3    3    0    0 -0.14383555474E+02 -0.39179251694E+01 -0.21569931250E+02  0.26220197179E+02  0.51100000000E-03 0. -1.
        -11    1    3    3    0    0  0.11952783220E+02 -0.36271404942E+01 -0.78722674816E+01  0.14764747558E+02  0.51100000000E-03 0.  1.
        -12    1    3    3    0    0 -0.43449862495E+01 -0.99122871225E+01  0.29557378298E+02  0.31476514314E+02  0.00000000000E+00 0.  1.
</event>
<event>
 7    1  0.1465498E-013  0.7246163E+02  0.7816164E-02  0.1226708E+00
        -11   -1    0    0    0    0  0.00000000000E+00  0.00000000000E+00  0.45593999997E+02  0.45594000000E+02  0.51100000000E-03 0.  1.
         11   -1    0    0    0    0 -0.00000000000E+00 -0.00000000000E+00 -0.45593999997E+02  0.45594000000E+02  0.51100000000E-03 0. -1.
    9900012    2    1    2    0    0  0.80922745089E+00 -0.16462970416E+02 -0.88877791883E+01  0.72461631882E+02  0.70000080229E+02 0.  0.
         12    1    1    2    0    0 -0.80922745089E+00  0.16462970416E+02  0.88877791883E+01  0.18726368118E+02  0.00000000000E+00 0. -1.
         11    1    3    3    0    0 -0.36948507675E+01  0.19796070259E+02 -0.21159356917E+02  0.29210523879E+02  0.51100000000E-03 0. -1.
        -11    1    3    3    0    0  0.11755950638E+02 -0.24834027695E+02  0.51327500284E+01  0.27951322510E+02  0.51100000000E-03 0.  1.
        -12    1    3    3    0    0 -0.72518724195E+01 -0.11425012980E+02  0.71388276999E+01  0.15299785492E+02  0.00000000000E+00 0.  1.
</event>
<event>
 7    1  0.1465498E-013  0.7246109E+02  0.7816164E-02  0.1226709E+00
        -11   -1    0    0    0    0  0.00000000000E+00  0.00000000000E+00  0.45593999997E+02  0.45594000000E+02  0.51100000000E-03 0.  1.
         11   -1    0    0    0    0 -0.00000000000E+00 -0.00000000000E+00 -0.45593999997E+02  0.45594000000E+02  0.51100000000E-03 0. -1.
    9900012    2    1    2    0    0  0.24502514382E+01 -0.15396728859E+02 -0.10374689952E+02  0.72461089330E+02  0.69999373451E+02 0.  0.
         12    1    1    2    0    0 -0.24502514382E+01  0.15396728859E+02  0.10374689952E+02  0.18726910670E+02  0.00000000000E+00 0. -1.
         11    1    3    3    0    0  0.15222221419E+02  0.15357861872E+02  0.98257521725E+01  0.23751323168E+02  0.51100000000E-03 0. -1.
        -11    1    3    3    0    0  0.13760983556E+00 -0.67319214889E+01 -0.20352752417E+02  0.21437635938E+02  0.51100000000E-03 0.  1.
        -12    1    3    3    0    0 -0.12909579816E+02 -0.24022669242E+02  0.15231029252E+00  0.27272130224E+02  0.00000000000E+00 0.  1.
</event>
<event>
 7    1  0.1465498E-013  0.7246152E+02  0.7816164E-02  0.1226708E+00
        -11   -1    0    0    0    0  0.00000000000E+00  0.00000000000E+00  0.45593999997E+02  0.45594000000E+02  0.51100000000E-03 0.  1.
         11   -1    0    0    0    0 -0.00000000000E+00 -0.00000000000E+00 -0.45593999997E+02  0.45594000000E+02  0.51100000000E-03 0. -1.
    9900012    2    1    2    0    0  0.85993390022E+01  0.13879072842E+02  0.91708079642E+01  0.72461521074E+02  0.69999935882E+02 0.  0.
         12    1    1    2    0    0 -0.85993390022E+01 -0.13879072842E+02 -0.91708079642E+01  0.18726478926E+02  0.00000000000E+00 0. -1.
         11    1    3    3    0    0  0.15158069592E+02  0.74674852580E+01 -0.60009556857E+01  0.17931588866E+02  0.51100000000E-03 0. -1.
        -11    1    3    3    0    0  0.16729130684E+02  0.18383458859E+02  0.12814653323E+01  0.24888903686E+02  0.51100000000E-03 0.  1.
        -12    1    3    3    0    0 -0.23287861274E+02 -0.11971871275E+02  0.13890298318E+02  0.29641028523E+02  0.00000000000E+00 0.  1.
</event>
<event>
 7    1  0.1465498E-013  0.7246157E+02  0.7816164E-02  0.1226708E+00
        -11   -1    0    0    0    0  0.00000000000E+00  0.00000000000E+00  0.45593999997E+02  0.45594000000E+02  0.51100000000E-03 0.  1.
         11   -1    0    0    0    0 -0.00000000000E+00 -0.00000000000E+00 -0.45593999997E+02  0.45594000000E+02  0.51100000000E-03 0. -1.
    9900012    2    1    2    0    0 -0.16833414909E+02 -0.34597950152E+01  0.74394197018E+01  0.72461574699E+02  0.70000005738E+02 0.  0.
         12    1    1    2    0    0  0.16833414909E+02  0.34597950152E+01 -0.74394197018E+01  0.18726425301E+02  0.00000000000E+00 0. -1.
         11    1    3    3    0    0 -0.41823507116E+01 -0.93959496483E+01 -0.10795746720E+02  0.14910535697E+02  0.51100000000E-03 0. -1.
        -11    1    3    3    0    0 -0.26786435327E+02  0.20479265632E+02  0.72595341645E+01  0.34490785362E+02  0.51100000000E-03 0.  1.
         12    1    3    3    0    0  0.14135371130E+02 -0.14543110999E+02  0.10975632258E+02  0.23060253640E+02  0.00000000000E+00 0. -1.
</event>
<event>
 7    1  0.1465498E-013  0.7246156E+02  0.7816164E-02  0.1226708E+00
        -11   -1    0    0    0    0  0.00000000000E+00  0.00000000000E+00  0.45593999997E+02  0.45594000000E+02  0.51100000000E-03 0. -1.
         11   -1    0    0    0    0 -0.00000000000E+00 -0.00000000000E+00 -0.45593999997E+02  0.45594000000E+02  0.51100000000E-03 0.  1.
    9900012    2    1    2    0    0 -0.13647557415E+02  0.79394425778E+00 -0.12798171918E+02  0.72461564800E+02  0.69999992842E+02 0.  0.
         12    1    1    2    0    0  0.13647557415E+02 -0.79394425778E+00  0.12798171918E+02  0.18726435200E+02  0.00000000000E+00 0. -1.
         11    1    3    3    0    0  0.28176529527E+01 -0.10202665282E+02 -0.34794712711E+02  0.36369019507E+02  0.51100000000E-03 0. -1.
        -11    1    3    3    0    0 -0.11040878877E+02  0.78132395337E+01  0.32812055416E+00  0.13529796072E+02  0.51100000000E-03 0.  1.
        -12    1    3    3    0    0 -0.54243314907E+01  0.31833700061E+01  0.21668420239E+02  0.22562749220E+02  0.00000000000E+00 0.  1.
</event>
<event>
 7    1  0.1465498E-013  0.7246193E+02  0.7816164E-02  0.1226707E+00
        -11   -1    0    0    0    0  0.00000000000E+00  0.00000000000E+00  0.45593999997E+02  0.45594000000E+02  0.51100000000E-03 0.  1.
         11   -1    0    0    0    0 -0.00000000000E+00 -0.00000000000E+00 -0.45593999997E+02  0.45594000000E+02  0.51100000000E-03 0. -1.
    9900012    2    1    2    0    0 -0.13662524587E+01  0.16602971113E+02  0.85522124490E+01  0.72461931717E+02  0.70000470819E+02 0.  0.
         12    1    1    2    0    0  0.13662524587E+01 -0.16602971113E+02 -0.85522124490E+01  0.18726068283E+02  0.00000000000E+00 0. -1.
         11    1    3    3    0    0 -0.49232991624E+01  0.15969697557E+02 -0.39304184720E+01  0.17167361601E+02  0.51100000000E-03 0. -1.
        -11    1    3    3    0    0 -0.43892640656E+01  0.15484007151E+02 -0.15686435245E+02  0.22474082127E+02  0.51100000000E-03 0.  1.
        -12    1    3    3    0    0  0.79463107694E+01 -0.14850733596E+02  0.28169066166E+02  0.32820487989E+02  0.00000000000E+00 0.  1.
</event>
<event>
 7    1  0.1465498E-013  0.7246143E+02  0.7816164E-02  0.1226708E+00
        -11   -1    0    0    0    0  0.00000000000E+00  0.00000000000E+00  0.45593999997E+02  0.45594000000E+02  0.51100000000E-03 0.  1.
         11   -1    0    0    0    0 -0.00000000000E+00 -0.00000000000E+00 -0.45593999997E+02  0.45594000000E+02  0.51100000000E-03 0. -1.
    9900012    2    1    2    0    0 -0.85678015753E+01  0.62799312470E+01  0.15422056718E+02  0.72461425468E+02  0.69999811336E+02 0.  0.
         12    1    1    2    0    0  0.85678015753E+01 -0.62799312470E+01 -0.15422056718E+02  0.18726574532E+02  0.00000000000E+00 0. -1.
         11    1    3    3    0    0 -0.14922989425E+02  0.45467187842E+01 -0.12093160623E+02  0.19738611887E+02  0.51100000000E-03 0. -1.
        -11    1    3    3    0    0  0.25236695108E+01 -0.56056960775E+01 -0.11391802777E+02  0.12944725068E+02  0.51100000000E-03 0.  1.
        -12    1    3    3    0    0  0.38315183392E+01  0.73389085403E+01  0.38907020118E+02  0.39778088514E+02  0.00000000000E+00 0.  1.
</event>
<event>
 7    1  0.1465498E-013  0.7246161E+02  0.7816164E-02  0.1226708E+00
        -11   -1    0    0    0    0  0.00000000000E+00  0.00000000000E+00  0.45593999997E+02  0.45594000000E+02  0.51100000000E-03 0. -1.
         11   -1    0    0    0    0 -0.00000000000E+00 -0.00000000000E+00 -0.45593999997E+02  0.45594000000E+02  0.51100000000E-03 0.  1.
    9900012    2    1    2    0    0  0.27977306824E+01  0.44790503504E+01 -0.17966316565E+02  0.72461608999E+02  0.70000050420E+02 0.  0.
         12    1    1    2    0    0 -0.27977306824E+01 -0.44790503504E+01  0.17966316565E+02  0.18726391001E+02  0.00000000000E+00 0. -1.
         11    1    3    3    0    0  0.11368437251E+02  0.82332249050E+01 -0.17868638831E+02  0.22722579338E+02  0.51100000000E-03 0. -1.
        -11    1    3    3    0    0  0.17078234544E+02 -0.67856945944E+01 -0.11314734054E+02  0.21580893245E+02  0.51100000000E-03 0.  1.
         12    1    3    3    0    0 -0.25648941112E+02  0.30315200398E+01  0.11217056320E+02  0.28158136416E+02  0.00000000000E+00 0. -1.
</event>
<event>
 7    1  0.1465498E-013  0.7246164E+02  0.7816164E-02  0.1226708E+00
        -11   -1    0    0    0    0  0.00000000000E+00  0.00000000000E+00  0.45593999997E+02  0.45594000000E+02  0.51100000000E-03 0.  1.
         11   -1    0    0    0    0 -0.00000000000E+00 -0.00000000000E+00 -0.45593999997E+02  0.45594000000E+02  0.51100000000E-03 0. -1.
    9900012    2    1    2    0    0  0.85926335968E+01 -0.14396571237E+01  0.16576208519E+02  0.72461637470E+02  0.70000087508E+02 0.  0.
         12    1    1    2    0    0 -0.85926335968E+01  0.14396571237E+01 -0.16576208519E+02  0.18726362530E+02  0.00000000000E+00 0. -1.
         11    1    3    3    0    0 -0.17261613847E+02 -0.11232155556E+02  0.10859647034E+02  0.23282108259E+02  0.51100000000E-03 0. -1.
        -11    1    3    3    0    0  0.20981976656E+02 -0.72617399799E+01  0.17168974778E+02  0.28066882747E+02  0.51100000000E-03 0.  1.
         12    1    3    3    0    0  0.48722707881E+01  0.17054238412E+02 -0.11452413294E+02  0.21112646463E+02  0.00000000000E+00 0. -1.
</event>
<event>
 7    1  0.1465498E-013  0.7246159E+02  0.7816164E-02  0.1226708E+00
        -11   -1    0    0    0    0  0.00000000000E+00  0.00000000000E+00  0.45593999997E+02  0.45594000000E+02  0.51100000000E-03 0.  1.
         11   -1    0    0    0    0 -0.00000000000E+00 -0.00000000000E+00 -0.45593999997E+02  0.45594000000E+02  0.51100000000E-03 0. -1.
    9900012    2    1    2    0    0  0.82541461576E+01  0.55224489186E+01  0.15876088935E+02  0.72461586282E+02  0.70000020827E+02 0.  0.
         12    1    1    2    0    0 -0.82541461576E+01 -0.55224489186E+01 -0.15876088935E+02  0.18726413718E+02  0.00000000000E+00 0. -1.
         11    1    3    3    0    0  0.24427041945E+02  0.24867785047E+02 -0.82128609336E+01  0.35812542444E+02  0.51100000000E-03 0. -1.
        -11    1    3    3    0    0 -0.57585913694E+01 -0.21739428031E+01  0.13317574853E+01  0.62976964147E+01  0.51100000000E-03 0.  1.
        -12    1    3    3    0    0 -0.10414304418E+02 -0.17171393326E+02  0.22757192383E+02  0.30351347424E+02  0.00000000000E+00 0.  1.
</event>
<event>
 7    1  0.1465498E-013  0.7246160E+02  0.7816164E-02  0.1226708E+00
        -11   -1    0    0    0    0  0.00000000000E+00  0.00000000000E+00  0.45593999997E+02  0.45594000000E+02  0.51100000000E-03 0.  1.
         11   -1    0    0    0    0 -0.00000000000E+00 -0.00000000000E+00 -0.45593999997E+02  0.45594000000E+02  0.51100000000E-03 0. -1.
    9900012    2    1    2    0    0  0.22431160645E+01 -0.16533539587E+02  0.85022766867E+01  0.72461595919E+02  0.70000033381E+02 0.  0.
         12    1    1    2    0    0 -0.22431160645E+01  0.16533539587E+02 -0.85022766867E+01  0.18726404081E+02  0.00000000000E+00 0. -1.
         11    1    3    3    0    0 -0.18001462444E+02 -0.64848248201E+01 -0.81620124184E+01  0.20802020336E+02  0.51100000000E-03 0. -1.
        -11    1    3    3    0    0 -0.46705469990E+01  0.12409405376E+02 -0.17830297422E+01  0.13378585365E+02  0.51100000000E-03 0.  1.
        -12    1    3    3    0    0  0.24915125508E+02 -0.22458120142E+02  0.18447318847E+02  0.38280990218E+02  0.00000000000E+00 0.  1.
</event>
<event>
 7    1  0.1465498E-013  0.7246155E+02  0.7816164E-02  0.1226708E+00
        -11   -1    0    0    0    0  0.00000000000E+00  0.00000000000E+00  0.45593999997E+02  0.45594000000E+02  0.51100000000E-03 0. -1.
         11   -1    0    0    0    0 -0.00000000000E+00 -0.00000000000E+00 -0.45593999997E+02  0.45594000000E+02  0.51100000000E-03 0.  1.
    9900012    2    1    2    0    0 -0.67867670788E+01  0.17160163226E+02 -0.31856900711E+01  0.72461547305E+02  0.69999970052E+02 0.  0.
         12    1    1    2    0    0  0.67867670788E+01 -0.17160163226E+02  0.31856900711E+01  0.18726452695E+02  0.00000000000E+00 0. -1.
         11    1    3    3    0    0  0.50073932661E+00 -0.12381800220E+02 -0.17780739944E+02  0.21672896202E+02  0.51100000000E-03 0. -1.
        -11    1    3    3    0    0 -0.14106354577E+02 -0.17483325982E+01 -0.25839691451E+01  0.14447242059E+02  0.51100000000E-03 0.  1.
        -12    1    3    3    0    0  0.68188481711E+01  0.31290296044E+02  0.17179019018E+02  0.36341409044E+02  0.00000000000E+00 0.  1.
</event>
<event>
 7    1  0.1465498E-013  0.7246159E+02  0.7816164E-02  0.1226708E+00
        -11   -1    0    0    0    0  0.00000000000E+00  0.00000000000E+00  0.45593999997E+02  0.45594000000E+02  0.51100000000E-03 0.  1.
         11   -1    0    0    0    0 -0.00000000000E+00 -0.00000000000E+00 -0.45593999997E+02  0.45594000000E+02  0.51100000000E-03 0. -1.
    9900012    2    1    2    0    0  0.28134416064E+01  0.16652108736E+02  0.80913766752E+01  0.72461586688E+02  0.70000021355E+02 0.  0.
         12    1    1    2    0    0 -0.28134416064E+01 -0.16652108736E+02 -0.80913766752E+01  0.18726413312E+02  0.00000000000E+00 0. -1.
         11    1    3    3    0    0  0.16320936538E+01 -0.45559617050E+01  0.27595631384E+02  0.28016769773E+02  0.51100000000E-03 0. -1.
        -11    1    3    3    0    0 -0.14214385499E+02  0.36073756652E+01 -0.14311835215E+02  0.20491230851E+02  0.51100000000E-03 0.  1.
        -12    1    3    3    0    0  0.15395733452E+02  0.17600694776E+02 -0.51924194940E+01  0.23953586064E+02  0.00000000000E+00 0.  1.
</event>
<event>
 7    1  0.1465498E-013  0.7246164E+02  0.7816164E-02  0.1226708E+00
        -11   -1    0    0    0    0  0.00000000000E+00  0.00000000000E+00  0.45593999997E+02  0.45594000000E+02  0.51100000000E-03 0. -1.
         11   -1    0    0    0    0 -0.00000000000E+00 -0.00000000000E+00 -0.45593999997E+02  0.45594000000E+02  0.51100000000E-03 0.  1.
    9900012    2    1    2    0    0 -0.89876202419E+01  0.83417423809E+01 -0.14153248524E+02  0.72461643511E+02  0.70000095379E+02 0.  0.
         12    1    1    2    0    0  0.89876202419E+01 -0.83417423809E+01  0.14153248524E+02  0.18726356489E+02  0.00000000000E+00 0. -1.
         11    1    3    3    0    0 -0.25267242832E+02  0.82249316138E+01 -0.84778620508E+01  0.27891884225E+02  0.51100000000E-03 0. -1.
        -11    1    3    3    0    0  0.90227727963E+01 -0.29157007334E+01 -0.23362144379E+02  0.25213122178E+02  0.51100000000E-03 0.  1.
        -12    1    3    3    0    0  0.72568497943E+01  0.30325115005E+01  0.17686757906E+02  0.19356637109E+02  0.00000000000E+00 0.  1.
</event>
<event>
 7    1  0.1814207E-013  0.7246155E+02  0.7816164E-02  0.1226708E+00
        -11   -1    0    0    0    0  0.00000000000E+00  0.00000000000E+00  0.45593999997E+02  0.45594000000E+02  0.51100000000E-03 0. -1.
         11   -1    0    0    0    0 -0.00000000000E+00 -0.00000000000E+00 -0.45593999997E+02  0.45594000000E+02  0.51100000000E-03 0.  1.
    9900012    2    1    2    0    0 -0.20394034075E+01 -0.32102315162E+01 -0.18336169943E+02  0.72461551302E+02  0.69999975259E+02 0.  0.
         12    1    1    2    0    0  0.20394034075E+01  0.32102315162E+01  0.18336169943E+02  0.18726448698E+02  0.00000000000E+00 0. -1.
         11    1    3    3    0    0 -0.17535228455E+02  0.15701040767E+00  0.58851519322E+01  0.18497132285E+02  0.51100000000E-03 0. -1.
        -11    1    3    3    0    0  0.71879136503E+01 -0.19740812982E+02  0.29048568364E+01  0.21208583011E+02  0.51100000000E-03 0.  1.
        -12    1    3    3    0    0  0.83079113972E+01  0.16373571058E+02 -0.27126178712E+02  0.32755836006E+02  0.00000000000E+00 0.  1.
</event>
<event>
 7    1  0.1465498E-013  0.7246200E+02  0.7816164E-02  0.1226707E+00
        -11   -1    0    0    0    0  0.00000000000E+00  0.00000000000E+00  0.45593999997E+02  0.45594000000E+02  0.51100000000E-03 0.  1.
         11   -1    0    0    0    0 -0.00000000000E+00 -0.00000000000E+00 -0.45593999997E+02  0.45594000000E+02  0.51100000000E-03 0. -1.
    9900012    2    1    2    0    0 -0.67498797502E+01 -0.17411662061E+02  0.13915152194E+01  0.72461997571E+02  0.70000556605E+02 0.  0.
         12    1    1    2    0    0  0.67498797502E+01  0.17411662061E+02 -0.13915152194E+01  0.18726002429E+02  0.00000000000E+00 0. -1.
         11    1    3    3    0    0 -0.25464719338E+02 -0.11153115683E+02 -0.14082375633E+02  0.31163395581E+02  0.51100000000E-03 0. -1.
        -11    1    3    3    0    0 -0.73127602333E+01 -0.63103969295E+01  0.11420111613E+02  0.14957156186E+02  0.51100000000E-03 0.  1.
        -12    1    3    3    0    0  0.26027599821E+02  0.51850551766E-01  0.40537792393E+01  0.26341445804E+02  0.00000000000E+00 0.  1.
</event>
<event>
 7    1  0.1465498E-013  0.7246159E+02  0.7816164E-02  0.1226708E+00
        -11   -1    0    0    0    0  0.00000000000E+00  0.00000000000E+00  0.45593999997E+02  0.45594000000E+02  0.51100000000E-03 0.  1.
         11   -1    0    0    0    0 -0.00000000000E+00 -0.00000000000E+00 -0.45593999997E+02  0.45594000000E+02  0.51100000000E-03 0. -1.
    9900012    2    1    2    0    0  0.39773682728E+01  0.60976098927E+01  0.17253354269E+02  0.72461587147E+02  0.70000021954E+02 0.  0.
         12    1    1    2    0    0 -0.39773682728E+01 -0.60976098927E+01 -0.17253354269E+02  0.18726412853E+02  0.00000000000E+00 0. -1.
         11    1    3    3    0    0 -0.10557526555E+02  0.81363136636E+01  0.19844912212E+00  0.13330429450E+02  0.51100000000E-03 0. -1.
        -11    1    3    3    0    0 -0.19655204812E+01  0.18273545028E+02 -0.10469414233E+02  0.21151698591E+02  0.51100000000E-03 0.  1.
        -12    1    3    3    0    0  0.16500415309E+02 -0.20312248799E+02  0.27524319380E+02  0.37979459106E+02  0.00000000000E+00 0.  1.
</event>
<event>
 7    1  0.1465498E-013  0.7246156E+02  0.7816164E-02  0.1226708E+00
        -11   -1    0    0    0    0  0.00000000000E+00  0.00000000000E+00  0.45593999997E+02  0.45594000000E+02  0.51100000000E-03 0. -1.
         11   -1    0    0    0    0 -0.00000000000E+00 -0.00000000000E+00 -0.45593999997E+02  0.45594000000E+02  0.51100000000E-03 0.  1.
    9900012    2    1    2    0    0  0.48822941729E+01  0.13483863625E+02  0.12042758883E+02  0.72461563709E+02  0.69999991421E+02 0.  0.
         12    1    1    2    0    0 -0.48822941729E+01 -0.13483863625E+02 -0.12042758883E+02  0.18726436291E+02  0.00000000000E+00 0. -1.
         11    1    3    3    0    0 -0.17013042001E+02  0.90986495557E+01  0.25573734348E+02  0.32035057525E+02  0.51100000000E-03 0. -1.
        -11    1    3    3    0    0 -0.11927097401E+01 -0.66315458611E+01  0.53729613500E+01  0.86179273008E+01  0.51100000000E-03 0.  1.
        -12    1    3    3    0    0  0.23088045913E+02  0.11016759930E+02 -0.18903936815E+02  0.31808578883E+02  0.00000000000E+00 0.  1.
</event>
<event>
 7    1  0.1465498E-013  0.7246158E+02  0.7816164E-02  0.1226708E+00
        -11   -1    0    0    0    0  0.00000000000E+00  0.00000000000E+00  0.45593999997E+02  0.45594000000E+02  0.51100000000E-03 0.  1.
         11   -1    0    0    0    0 -0.00000000000E+00 -0.00000000000E+00 -0.45593999997E+02  0.45594000000E+02  0.51100000000E-03 0. -1.
    9900012    2    1    2    0    0 -0.10556076884E+02 -0.15211969626E+02 -0.28007414544E+01  0.72461576642E+02  0.70000008269E+02 0.  0.
         12    1    1    2    0    0  0.10556076884E+02  0.15211969626E+02  0.28007414544E+01  0.18726423358E+02  0.00000000000E+00 0. -1.
         11    1    3    3    0    0 -0.64961611639E+01  0.88441019287E+01 -0.14950236496E+01  0.11074897054E+02  0.51100000000E-03 0. -1.
        -11    1    3    3    0    0  0.35141178927E+01  0.15347372701E+02  0.11241508883E+02  0.19345862494E+02  0.51100000000E-03 0.  1.
         12    1    3    3    0    0 -0.75740336130E+01 -0.39403444256E+02 -0.12547226688E+02  0.42040817094E+02  0.00000000000E+00 0. -1.
</event>
<event>
 7    1  0.1465498E-013  0.7246150E+02  0.7816164E-02  0.1226708E+00
        -11   -1    0    0    0    0  0.00000000000E+00  0.00000000000E+00  0.45593999997E+02  0.45594000000E+02  0.51100000000E-03 0.  1.
         11   -1    0    0    0    0 -0.00000000000E+00 -0.00000000000E+00 -0.45593999997E+02  0.45594000000E+02  0.51100000000E-03 0. -1.
    9900012    2    1    2    0    0 -0.15276938784E+02  0.10577314967E+02 -0.23275132919E+01  0.72461500898E+02  0.69999909598E+02 0.  0.
         12    1    1    2    0    0  0.15276938784E+02 -0.10577314967E+02  0.23275132919E+01  0.18726499102E+02  0.00000000000E+00 0. -1.
         11    1    3    3    0    0 -0.12791714976E+02  0.31279654400E+02 -0.19924188540E+02  0.39230320425E+02  0.51100000000E-03 0.  1.
        -11    1    3    3    0    0  0.19318906085E+01  0.19916138733E+01  0.75112338871E+01  0.80073317598E+01  0.51100000000E-03 0. -1.
        -12    1    3    3    0    0 -0.44171144156E+01 -0.22693953306E+02  0.10085441361E+02  0.25223848713E+02  0.00000000000E+00 0.  1.
</event>
<event>
 7    1  0.1465498E-013  0.7246153E+02  0.7816164E-02  0.1226708E+00
        -11   -1    0    0    0    0  0.00000000000E+00  0.00000000000E+00  0.45593999997E+02  0.45594000000E+02  0.51100000000E-03 0.  1.
         11   -1    0    0    0    0 -0.00000000000E+00 -0.00000000000E+00 -0.45593999997E+02  0.45594000000E+02  0.51100000000E-03 0. -1.
    9900012    2    1    2    0    0 -0.76823206692E+01  0.14680867469E+02 -0.87255300279E+01  0.72461526900E+02  0.69999943470E+02 0.  0.
         12    1    1    2    0    0  0.76823206692E+01 -0.14680867469E+02  0.87255300279E+01  0.18726473100E+02  0.00000000000E+00 0. -1.
         11    1    3    3    0    0  0.12251663475E+02  0.13809007418E+02 -0.15724030484E+01  0.18527395807E+02  0.51100000000E-03 0. -1.
        -11    1    3    3    0    0  0.13326094345E+02 -0.34115639185E+01 -0.14087823362E+02  0.19689853382E+02  0.51100000000E-03 0.  1.
        -12    1    3    3    0    0 -0.33260078489E+02  0.42834239702E+01  0.69346963824E+01  0.34244277711E+02  0.00000000000E+00 0.  1.
</event>
<event>
 7    1  0.1465498E-013  0.7246159E+02  0.7816164E-02  0.1226708E+00
        -11   -1    0    0    0    0  0.00000000000E+00  0.00000000000E+00  0.45593999997E+02  0.45594000000E+02  0.51100000000E-03 0.  1.
         11   -1    0    0    0    0 -0.00000000000E+00 -0.00000000000E+00 -0.45593999997E+02  0.45594000000E+02  0.51100000000E-03 0. -1.
    9900012    2    1    2    0    0 -0.10592657066E+02 -0.15441748973E+02  0.16289923415E+00  0.72461587337E+02  0.70000022201E+02 0.  0.
         12    1    1    2    0    0  0.10592657066E+02  0.15441748973E+02 -0.16289923415E+00  0.18726412663E+02  0.00000000000E+00 0. -1.
         11    1    3    3    0    0 -0.76554556822E-01 -0.21410939415E+01  0.34264016720E+01  0.40410855652E+01  0.51100000000E-03 0. -1.
        -11    1    3    3    0    0  0.28304118672E+01 -0.25260339613E+02  0.24546798935E+02  0.35336119297E+02  0.51100000000E-03 0.  1.
         12    1    3    3    0    0 -0.13346514377E+02  0.11959684581E+02 -0.27810301373E+02  0.33084382475E+02  0.00000000000E+00 0. -1.
</event>
<event>
 7    1  0.1465498E-013  0.7246197E+02  0.7816164E-02  0.1226707E+00
        -11   -1    0    0    0    0  0.00000000000E+00  0.00000000000E+00  0.45593999997E+02  0.45594000000E+02  0.51100000000E-03 0.  1.
         11   -1    0    0    0    0 -0.00000000000E+00 -0.00000000000E+00 -0.45593999997E+02  0.45594000000E+02  0.51100000000E-03 0. -1.
    9900012    2    1    2    0    0 -0.15315087371E+00  0.15646830838E+02 -0.10286757154E+02  0.72461971504E+02  0.70000522648E+02 0.  0.
         12    1    1    2    0    0  0.15315087371E+00 -0.15646830838E+02  0.10286757154E+02  0.18726028496E+02  0.00000000000E+00 0. -1.
         11    1    3    3    0    0  0.83473645666E+01  0.24873562847E+02 -0.21111896786E+02  0.33676175704E+02  0.51100000000E-03 0. -1.
        -11    1    3    3    0    0  0.21470791793E+01  0.12339362798E+02  0.72454761584E+01  0.14469510990E+02  0.51100000000E-03 0.  1.
        -12    1    3    3    0    0 -0.10647594620E+02 -0.21566094806E+02  0.35796634737E+01  0.24316284810E+02  0.00000000000E+00 0.  1.
</event>
<event>
 7    1  0.1465498E-013  0.7246156E+02  0.7816164E-02  0.1226708E+00
        -11   -1    0    0    0    0  0.00000000000E+00  0.00000000000E+00  0.45593999997E+02  0.45594000000E+02  0.51100000000E-03 0. -1.
         11   -1    0    0    0    0 -0.00000000000E+00 -0.00000000000E+00 -0.45593999997E+02  0.45594000000E+02  0.51100000000E-03 0.  1.
    9900012    2    1    2    0    0  0.63763266256E+01 -0.16298732577E+02 -0.66613295047E+01  0.72461560519E+02  0.69999987266E+02 0.  0.
         12    1    1    2    0    0 -0.63763266256E+01  0.16298732577E+02  0.66613295047E+01  0.18726439481E+02  0.00000000000E+00 0. -1.
         11    1    3    3    0    0 -0.17544384508E+02  0.62706931426E+01 -0.99395350446E+01  0.21116850557E+02  0.51100000000E-03 0. -1.
        -11    1    3    3    0    0  0.15343880957E+02 -0.30727297889E+00 -0.14870048146E+02  0.21369310509E+02  0.51100000000E-03 0.  1.
         12    1    3    3    0    0  0.85768301773E+01 -0.22262152741E+02  0.18148253686E+02  0.29975399454E+02  0.00000000000E+00 0. -1.
</event>
<event>
 7    1  0.1465498E-013  0.7246157E+02  0.7816164E-02  0.1226708E+00
        -11   -1    0    0    0    0  0.00000000000E+00  0.00000000000E+00  0.45593999997E+02  0.45594000000E+02  0.51100000000E-03 0.  1.
         11   -1    0    0    0    0 -0.00000000000E+00 -0.00000000000E+00 -0.45593999997E+02  0.45594000000E+02  0.51100000000E-03 0. -1.
    9900012    2    1    2    0    0  0.11674025460E+01 -0.25973016934E+01  0.18508652108E+02  0.72461574617E+02  0.70000005631E+02 0.  0.
         12    1    1    2    0    0 -0.11674025460E+01  0.25973016934E+01 -0.18508652108E+02  0.18726425383E+02  0.00000000000E+00 0. -1.
         11    1    3    3    0    0  0.32068860498E+01  0.42692839254E+01  0.94256601929E+01  0.10833003910E+02  0.51100000000E-03 0. -1.
        -11    1    3    3    0    0  0.25272307964E+01  0.18316583961E+02  0.25294754452E+02  0.31332231751E+02  0.51100000000E-03 0.  1.
         12    1    3    3    0    0 -0.45667143002E+01 -0.25183169579E+02 -0.16211762537E+02  0.30296338956E+02  0.00000000000E+00 0. -1.
</event>
<event>
 7    1  0.1465498E-013  0.7246150E+02  0.7816164E-02  0.1226708E+00
        -11   -1    0    0    0    0  0.00000000000E+00  0.00000000000E+00  0.45593999997E+02  0.45594000000E+02  0.51100000000E-03 0. -1.
         11   -1    0    0    0    0 -0.00000000000E+00 -0.00000000000E+00 -0.45593999997E+02  0.45594000000E+02  0.51100000000E-03 0.  1.
    9900012    2    1    2    0    0 -0.57632109677E+01 -0.11305399809E+01 -0.17781708424E+02  0.72461498036E+02  0.69999905871E+02 0.  0.
         12    1    1    2    0    0  0.57632109677E+01  0.11305399809E+01  0.17781708424E+02  0.18726501964E+02  0.00000000000E+00 0. -1.
         11    1    3    3    0    0  0.22988073885E+01 -0.21437923942E+02 -0.75647495102E+01  0.22849388039E+02  0.51100000000E-03 0. -1.
        -11    1    3    3    0    0  0.12844144937E+02  0.21241829134E+02 -0.13768426560E+02  0.28385857999E+02  0.51100000000E-03 0.  1.
         12    1    3    3    0    0 -0.20906163294E+02 -0.93444517348E+00  0.35514676464E+01  0.21226251998E+02  0.00000000000E+00 0. -1.
</event>
<event>
 7    1  0.1465498E-013  0.7246157E+02  0.7816164E-02  0.1226708E+00
        -11   -1    0    0    0    0  0.00000000000E+00  0.00000000000E+00  0.45593999997E+02  0.45594000000E+02  0.51100000000E-03 0.  1.
         11   -1    0    0    0    0 -0.00000000000E+00 -0.00000000000E+00 -0.45593999997E+02  0.45594000000E+02  0.51100000000E-03 0. -1.
    9900012    2    1    2    0    0  0.39141629125E+00 -0.18425021939E+02  0.33233233351E+01  0.72461571666E+02  0.70000001787E+02 0.  0.
         12    1    1    2    0    0 -0.39141629125E+00  0.18425021939E+02 -0.33233233351E+01  0.18726428334E+02  0.00000000000E+00 0. -1.
         11    1    3    3    0    0  0.14074176221E+02 -0.40599521096E+01  0.10735259849E+02  0.18160711762E+02  0.51100000000E-03 0. -1.
        -11    1    3    3    0    0  0.11134035311E+02 -0.19653209967E+02  0.87426292257E+01  0.24220837524E+02  0.51100000000E-03 0.  1.
         12    1    3    3    0    0 -0.24816795241E+02  0.52881401373E+01 -0.16154565740E+02  0.30080022380E+02  0.00000000000E+00 0. -1.
</event>
<event>
 7    1  0.1465498E-013  0.7246159E+02  0.7816164E-02  0.1226708E+00
        -11   -1    0    0    0    0  0.00000000000E+00  0.00000000000E+00  0.45593999997E+02  0.45594000000E+02  0.51100000000E-03 0. -1.
         11   -1    0    0    0    0 -0.00000000000E+00 -0.00000000000E+00 -0.45593999997E+02  0.45594000000E+02  0.51100000000E-03 0.  1.
    9900012    2    1    2    0    0 -0.52692219095E+01 -0.17919428592E+02 -0.13445666522E+01  0.72461588703E+02  0.70000023980E+02 0.  0.
         12    1    1    2    0    0  0.52692219095E+01  0.17919428592E+02  0.13445666522E+01  0.18726411297E+02  0.00000000000E+00 0. -1.
         11    1    3    3    0    0 -0.21827868327E+01 -0.21583303841E+02 -0.26874111660E+00  0.21695063611E+02  0.51100000000E-03 0. -1.
        -11    1    3    3    0    0 -0.39272919564E+01 -0.19989450256E+02  0.12083796794E+02  0.23685858416E+02  0.51100000000E-03 0.  1.
        -12    1    3    3    0    0  0.84085687962E+00  0.23653325505E+02 -0.13159622330E+02  0.27080666676E+02  0.00000000000E+00 0.  1.
</event>
<event>
 7    1  0.1465498E-013  0.7246159E+02  0.7816164E-02  0.1226708E+00
        -11   -1    0    0    0    0  0.00000000000E+00  0.00000000000E+00  0.45593999997E+02  0.45594000000E+02  0.51100000000E-03 0. -1.
         11   -1    0    0    0    0 -0.00000000000E+00 -0.00000000000E+00 -0.45593999997E+02  0.45594000000E+02  0.51100000000E-03 0.  1.
    9900012    2    1    2    0    0 -0.85705714677E+01 -0.15796210933E+02 -0.52633910621E+01  0.72461594563E+02  0.70000031614E+02 0.  0.
         12    1    1    2    0    0  0.85705714677E+01  0.15796210933E+02  0.52633910621E+01  0.18726405437E+02  0.00000000000E+00 0. -1.
         11    1    3    3    0    0  0.22303287419E+02 -0.17486642711E+02  0.15244026960E+02  0.32180734318E+02  0.51100000000E-03 0. -1.
        -11    1    3    3    0    0 -0.44900814175E+00  0.39767258518E+01 -0.12147025914E+01  0.41822792181E+01  0.51100000000E-03 0.  1.
        -12    1    3    3    0    0 -0.30424850745E+02 -0.22862940740E+01 -0.19292715430E+02  0.36098581027E+02  0.00000000000E+00 0.  1.
</event>
<event>
 7    1  0.1465498E-013  0.7246132E+02  0.7816164E-02  0.1226709E+00
        -11   -1    0    0    0    0  0.00000000000E+00  0.00000000000E+00  0.45593999997E+02  0.45594000000E+02  0.51100000000E-03 0.  1.
         11   -1    0    0    0    0 -0.00000000000E+00 -0.00000000000E+00 -0.45593999997E+02  0.45594000000E+02  0.51100000000E-03 0. -1.
    9900012    2    1    2    0    0  0.18713614527E+02  0.67892859370E+00 -0.16786350208E+00  0.72461321414E+02  0.69999675787E+02 0.  0.
         12    1    1    2    0    0 -0.18713614527E+02 -0.67892859370E+00  0.16786350208E+00  0.18726678586E+02  0.00000000000E+00 0. -1.
         11    1    3    3    0    0  0.22787749197E+02  0.14671423676E+02 -0.27749150390E+01  0.27243941343E+02  0.51100000000E-03 0. -1.
        -11    1    3    3    0    0 -0.87585139292E+01  0.14038979077E+02  0.28804620401E+01  0.16795879304E+02  0.51100000000E-03 0.  1.
         12    1    3    3    0    0  0.46843792592E+01 -0.28031474159E+02 -0.27341050313E+00  0.28421500768E+02  0.00000000000E+00 0. -1.
</event>
<event>
 7    1  0.1465498E-013  0.7246161E+02  0.7816164E-02  0.1226708E+00
        -11   -1    0    0    0    0  0.00000000000E+00  0.00000000000E+00  0.45593999997E+02  0.45594000000E+02  0.51100000000E-03 0.  1.
         11   -1    0    0    0    0 -0.00000000000E+00 -0.00000000000E+00 -0.45593999997E+02  0.45594000000E+02  0.51100000000E-03 0. -1.
    9900012    2    1    2    0    0  0.84352459741E+01 -0.13728446335E+02  0.95422341943E+01  0.72461605610E+02  0.70000046005E+02 0.  0.
         12    1    1    2    0    0 -0.84352459741E+01  0.13728446335E+02 -0.95422341943E+01  0.18726394390E+02  0.00000000000E+00 0. -1.
         11    1    3    3    0    0 -0.60206195234E+01 -0.14076071006E+01  0.50238697804E+01  0.79667110545E+01  0.51100000000E-03 0. -1.
        -11    1    3    3    0    0  0.58123655516E+01 -0.30490963514E+02  0.21832990886E+02  0.37949465617E+02  0.51100000000E-03 0.  1.
         12    1    3    3    0    0  0.86434999459E+01  0.18170124280E+02 -0.17314626472E+02  0.26545428938E+02  0.00000000000E+00 0. -1.
</event>
<event>
 7    1  0.1465498E-013  0.7246155E+02  0.7816164E-02  0.1226708E+00
        -11   -1    0    0    0    0  0.00000000000E+00  0.00000000000E+00  0.45593999997E+02  0.45594000000E+02  0.51100000000E-03 0.  1.
         11   -1    0    0    0    0 -0.00000000000E+00 -0.00000000000E+00 -0.45593999997E+02  0.45594000000E+02  0.51100000000E-03 0. -1.
    9900012    2    1    2    0    0 -0.86013448220E+01  0.56237761491E+00  0.16624694309E+02  0.72461551799E+02  0.69999975907E+02 0.  0.
         12    1    1    2    0    0  0.86013448220E+01 -0.56237761491E+00 -0.16624694309E+02  0.18726448201E+02  0.00000000000E+00 0. -1.
         11    1    3    3    0    0  0.71069796010E+01 -0.52751115104E+01 -0.11803145941E+02  0.14752973086E+02  0.51100000000E-03 0. -1.
        -11    1    3    3    0    0  0.12763305472E+02 -0.11145039921E+02  0.77149214020E+01  0.18618106615E+02  0.51100000000E-03 0.  1.
         12    1    3    3    0    0 -0.28471629895E+02  0.16982529046E+02  0.20712918849E+02  0.39090472099E+02  0.00000000000E+00 0. -1.
</event>
<event>
 7    1  0.1465498E-013  0.7246161E+02  0.7816164E-02  0.1226708E+00
        -11   -1    0    0    0    0  0.00000000000E+00  0.00000000000E+00  0.45593999997E+02  0.45594000000E+02  0.51100000000E-03 0. -1.
         11   -1    0    0    0    0 -0.00000000000E+00 -0.00000000000E+00 -0.45593999997E+02  0.45594000000E+02  0.51100000000E-03 0.  1.
    9900012    2    1    2    0    0  0.91765260373E+01  0.16303789616E+02 -0.80952032099E+00  0.72461614628E+02  0.70000057753E+02 0.  0.
         12    1    1    2    0    0 -0.91765260373E+01 -0.16303789616E+02  0.80952032099E+00  0.18726385372E+02  0.00000000000E+00 0. -1.
         11    1    3    3    0    0 -0.10981349664E+02 -0.10750592247E+01  0.66971895114E+01  0.12907290203E+02  0.51100000000E-03 0. -1.
        -11    1    3    3    0    0 -0.17424709898E+02  0.69981292951E+00  0.13601716492E+01  0.17491721480E+02  0.51100000000E-03 0.  1.
         12    1    3    3    0    0  0.37582585599E+02  0.16679035911E+02 -0.88668814816E+01  0.42062602944E+02  0.00000000000E+00 0. -1.
</event>
<event>
 7    1  0.1465498E-013  0.7246156E+02  0.7816164E-02  0.1226708E+00
        -11   -1    0    0    0    0  0.00000000000E+00  0.00000000000E+00  0.45593999997E+02  0.45594000000E+02  0.51100000000E-03 0.  1.
         11   -1    0    0    0    0 -0.00000000000E+00 -0.00000000000E+00 -0.45593999997E+02  0.45594000000E+02  0.51100000000E-03 0. -1.
    9900012    2    1    2    0    0 -0.39605165965E+01  0.16608011448E+02 -0.76920691991E+01  0.72461557077E+02  0.69999982782E+02 0.  0.
         12    1    1    2    0    0  0.39605165965E+01 -0.16608011448E+02  0.76920691991E+01  0.18726442923E+02  0.00000000000E+00 0. -1.
         11    1    3    3    0    0  0.88348204044E+01 -0.15472852624E+01 -0.39519857250E+01  0.98013435147E+01  0.51100000000E-03 0. -1.
        -11    1    3    3    0    0  0.14240131186E+02  0.13946582470E+02 -0.22060985170E+02  0.29731726585E+02  0.51100000000E-03 0.  1.
        -12    1    3    3    0    0 -0.27035468187E+02  0.42087142407E+01  0.18320901696E+02  0.32928486977E+02  0.00000000000E+00 0.  1.
</event>
<event>
 7    1  0.1465498E-013  0.7246144E+02  0.7816164E-02  0.1226708E+00
        -11   -1    0    0    0    0  0.00000000000E+00  0.00000000000E+00  0.45593999997E+02  0.45594000000E+02  0.51100000000E-03 0.  1.
         11   -1    0    0    0    0 -0.00000000000E+00 -0.00000000000E+00 -0.45593999997E+02  0.45594000000E+02  0.51100000000E-03 0. -1.
    9900012    2    1    2    0    0  0.81712227619E+01  0.47826679907E+01  0.16156770768E+02  0.72461440354E+02  0.69999830729E+02 0.  0.
         12    1    1    2    0    0 -0.81712227619E+01 -0.47826679907E+01 -0.16156770768E+02  0.18726559646E+02  0.00000000000E+00 0. -1.
         11    1    3    3    0    0 -0.17343154819E+01  0.31274732637E+02  0.51153703271E+01  0.31737734096E+02  0.51100000000E-03 0. -1.
        -11    1    3    3    0    0  0.49117093768E+01  0.47456818997E+01 -0.94440902470E+00  0.68948019813E+01  0.51100000000E-03 0.  1.
        -12    1    3    3    0    0  0.49938288670E+01 -0.31237746546E+02  0.11985809465E+02  0.33828904277E+02  0.00000000000E+00 0.  1.
</event>
<event>
 7    1  0.1465498E-013  0.7246156E+02  0.7816164E-02  0.1226708E+00
        -11   -1    0    0    0    0  0.00000000000E+00  0.00000000000E+00  0.45593999997E+02  0.45594000000E+02  0.51100000000E-03 0. -1.
         11   -1    0    0    0    0 -0.00000000000E+00 -0.00000000000E+00 -0.45593999997E+02  0.45594000000E+02  0.51100000000E-03 0.  1.
    9900012    2    1    2    0    0  0.18694524500E+02 -0.10446809763E+01 -0.32069689116E+00  0.72461562775E+02  0.69999990205E+02 0.  0.
         12    1    1    2    0    0 -0.18694524500E+02  0.10446809763E+01  0.32069689116E+00  0.18726437225E+02  0.00000000000E+00 0. -1.
         11    1    3    3    0    0  0.14864865504E+02 -0.59346511218E+00  0.72484453909E+01  0.16548606833E+02  0.51100000000E-03 0. -1.
        -11    1    3    3    0    0  0.28054531190E+02 -0.90110642794E+01 -0.66312199728E+01  0.30203130273E+02  0.51100000000E-03 0.  1.
        -12    1    3    3    0    0 -0.24224872193E+02  0.85598484153E+01 -0.93792230926E+00  0.25709825669E+02  0.00000000000E+00 0.  1.
</event>
<event>
 7    1  0.1465498E-013  0.7246159E+02  0.7816164E-02  0.1226708E+00
        -11   -1    0    0    0    0  0.00000000000E+00  0.00000000000E+00  0.45593999997E+02  0.45594000000E+02  0.51100000000E-03 0.  1.
         11   -1    0    0    0    0 -0.00000000000E+00 -0.00000000000E+00 -0.45593999997E+02  0.45594000000E+02  0.51100000000E-03 0. -1.
    9900012    2    1    2    0    0 -0.15197698673E+02 -0.39465282572E+01  0.10204571801E+02  0.72461590416E+02  0.70000026213E+02 0.  0.
         12    1    1    2    0    0  0.15197698673E+02  0.39465282572E+01 -0.10204571801E+02  0.18726409584E+02  0.00000000000E+00 0. -1.
         11    1    3    3    0    0 -0.16543810970E+02 -0.22471977497E+02  0.10943846771E+02  0.29974242884E+02  0.51100000000E-03 0. -1.
        -11    1    3    3    0    0  0.16219751576E+02  0.37726714038E+01  0.94976078109E+01  0.19170757552E+02  0.51100000000E-03 0.  1.
         12    1    3    3    0    0 -0.14873639279E+02  0.14752777836E+02 -0.10236882780E+02  0.23316589981E+02  0.00000000000E+00 0. -1.
</event>
<event>
 7    1  0.1465498E-013  0.7246156E+02  0.7816164E-02  0.1226708E+00
        -11   -1    0    0    0    0  0.00000000000E+00  0.00000000000E+00  0.45593999997E+02  0.45594000000E+02  0.51100000000E-03 0. -1.
         11   -1    0    0    0    0 -0.00000000000E+00 -0.00000000000E+00 -0.45593999997E+02  0.45594000000E+02  0.51100000000E-03 0.  1.
    9900012    2    1    2    0    0 -0.81581682273E+01  0.13823818661E+02  0.96449844087E+01  0.72461564262E+02  0.69999992142E+02 0.  0.
         12    1    1    2    0    0  0.81581682273E+01 -0.13823818661E+02 -0.96449844087E+01  0.18726435738E+02  0.00000000000E+00 0. -1.
         11    1    3    3    0    0 -0.19322262735E+01  0.95292107663E+01  0.32756720481E+02  0.34169315081E+02  0.51100000000E-03 0. -1.
        -11    1    3    3    0    0  0.96896834515E+01  0.13443639912E+01  0.34969133478E+00  0.97887468157E+01  0.51100000000E-03 0.  1.
        -12    1    3    3    0    0 -0.15915625405E+02  0.29502439035E+01 -0.23461427407E+02  0.28503502365E+02  0.00000000000E+00 0.  1.
</event>
<event>
 7    1  0.1465498E-013  0.7246150E+02  0.7816164E-02  0.1226708E+00
        -11   -1    0    0    0    0  0.00000000000E+00  0.00000000000E+00  0.45593999997E+02  0.45594000000E+02  0.51100000000E-03 0.  1.
         11   -1    0    0    0    0 -0.00000000000E+00 -0.00000000000E+00 -0.45593999997E+02  0.45594000000E+02  0.51100000000E-03 0. -1.
    9900012    2    1    2    0    0 -0.51273998753E+01 -0.10298858691E+02  0.14775825408E+02  0.72461501761E+02  0.69999910723E+02 0.  0.
         12    1    1    2    0    0  0.51273998753E+01  0.10298858691E+02 -0.14775825408E+02  0.18726498239E+02  0.00000000000E+00 0. -1.
         11    1    3    3    0    0  0.19726522753E+01 -0.85001888259E+01 -0.20014597534E+02  0.21834117381E+02  0.51100000000E-03 0. -1.
        -11    1    3    3    0    0 -0.52185569276E+01  0.38310766458E+01 -0.63456857826E+01  0.90652199635E+01  0.51100000000E-03 0.  1.
        -12    1    3    3    0    0 -0.18814952230E+01 -0.56297465104E+01  0.41136108724E+02  0.41562164417E+02  0.00000000000E+00 0.  1.
</event>
<event>
 7    1  0.1465498E-013  0.7246154E+02  0.7816164E-02  0.1226708E+00
        -11   -1    0    0    0    0  0.00000000000E+00  0.00000000000E+00  0.45593999997E+02  0.45594000000E+02  0.51100000000E-03 0.  1.
         11   -1    0    0    0    0 -0.00000000000E+00 -0.00000000000E+00 -0.45593999997E+02  0.45594000000E+02  0.51100000000E-03 0. -1.
    9900012    2    1    2    0    0 -0.51009379144E+01 -0.59880218707E+01  0.16994243797E+02  0.72461540224E+02  0.69999960827E+02 0.  0.
         12    1    1    2    0    0  0.51009379144E+01  0.59880218707E+01 -0.16994243797E+02  0.18726459776E+02  0.00000000000E+00 0. -1.
         11    1    3    3    0    0 -0.87538878917E+01 -0.21635489708E+01 -0.41376932563E+01  0.99212903956E+01  0.51100000000E-03 0. -1.
        -11    1    3    3    0    0  0.88010303877E+01  0.18210991976E+02 -0.11166247839E+02  0.23103754147E+02  0.51100000000E-03 0.  1.
         12    1    3    3    0    0 -0.51480804103E+01 -0.22035464876E+02  0.32298184892E+02  0.39436495681E+02  0.00000000000E+00 0. -1.
</event>
<event>
 7    1  0.1465498E-013  0.7246156E+02  0.7816164E-02  0.1226708E+00
        -11   -1    0    0    0    0  0.00000000000E+00  0.00000000000E+00  0.45593999997E+02  0.45594000000E+02  0.51100000000E-03 0.  1.
         11   -1    0    0    0    0 -0.00000000000E+00 -0.00000000000E+00 -0.45593999997E+02  0.45594000000E+02  0.51100000000E-03 0. -1.
    9900012    2    1    2    0    0 -0.16102940352E+02  0.92336434657E+01 -0.24727712886E+01  0.72461562606E+02  0.69999989985E+02 0.  0.
         12    1    1    2    0    0  0.16102940352E+02 -0.92336434657E+01  0.24727712886E+01  0.18726437394E+02  0.00000000000E+00 0. -1.
         11    1    3    3    0    0 -0.10302667894E+02  0.23266539094E+02 -0.29135097511E+02  0.38682434184E+02  0.51100000000E-03 0. -1.
        -11    1    3    3    0    0  0.16109476325E+01 -0.29168138638E+01 -0.63098789256E+00  0.33913273761E+01  0.51100000000E-03 0.  1.
        -12    1    3    3    0    0 -0.74112200901E+01 -0.11116081765E+02  0.27293314115E+02  0.30387801046E+02  0.00000000000E+00 0.  1.
</event>
<event>
 7    1  0.1465498E-013  0.7246150E+02  0.7816164E-02  0.1226708E+00
        -11   -1    0    0    0    0  0.00000000000E+00  0.00000000000E+00  0.45593999997E+02  0.45594000000E+02  0.51100000000E-03 0. -1.
         11   -1    0    0    0    0 -0.00000000000E+00 -0.00000000000E+00 -0.45593999997E+02  0.45594000000E+02  0.51100000000E-03 0.  1.
    9900012    2    1    2    0    0 -0.60954606504E+01 -0.13971599925E+02 -0.10877578258E+02  0.72461495955E+02  0.69999903159E+02 0.  0.
         12    1    1    2    0    0  0.60954606504E+01  0.13971599925E+02  0.10877578258E+02  0.18726504045E+02  0.00000000000E+00 0. -1.
         11    1    3    3    0    0 -0.43966662859E+00 -0.98516378500E+01 -0.43084087909E+01  0.10761526920E+02  0.51100000000E-03 0. -1.
        -11    1    3    3    0    0  0.15315752033E+02 -0.14241777505E+02 -0.24570993301E+02  0.32266611209E+02  0.51100000000E-03 0.  1.
         12    1    3    3    0    0 -0.20971546055E+02  0.10121815430E+02  0.18001823834E+02  0.29433357826E+02  0.00000000000E+00 0. -1.
</event>
<event>
 7    1  0.1465498E-013  0.7246148E+02  0.7816164E-02  0.1226708E+00
        -11   -1    0    0    0    0  0.00000000000E+00  0.00000000000E+00  0.45593999997E+02  0.45594000000E+02  0.51100000000E-03 0. -1.
         11   -1    0    0    0    0 -0.00000000000E+00 -0.00000000000E+00 -0.45593999997E+02  0.45594000000E+02  0.51100000000E-03 0.  1.
    9900012    2    1    2    0    0  0.56609723430E+01  0.14167839307E+02 -0.10858565378E+02  0.72461475481E+02  0.69999876488E+02 0.  0.
         12    1    1    2    0    0 -0.56609723430E+01 -0.14167839307E+02  0.10858565378E+02  0.18726524519E+02  0.00000000000E+00 0. -1.
         11    1    3    3    0    0  0.72581432403E+01  0.23470835840E+02  0.72375429580E+01  0.25611380413E+02  0.51100000000E-03 0. -1.
        -11    1    3    3    0    0  0.11541054757E+02  0.47648934211E+01  0.76958055204E+01  0.14667159816E+02  0.51100000000E-03 0.  1.
        -12    1    3    3    0    0 -0.13138225654E+02 -0.14067889954E+02 -0.25791913856E+02  0.32182935252E+02  0.00000000000E+00 0.  1.
</event>
<event>
 7    1  0.1465498E-013  0.7246156E+02  0.7816164E-02  0.1226708E+00
        -11   -1    0    0    0    0  0.00000000000E+00  0.00000000000E+00  0.45593999997E+02  0.45594000000E+02  0.51100000000E-03 0.  1.
         11   -1    0    0    0    0 -0.00000000000E+00 -0.00000000000E+00 -0.45593999997E+02  0.45594000000E+02  0.51100000000E-03 0. -1.
    9900012    2    1    2    0    0 -0.24360441379E+01 -0.16646830391E+02  0.82236452822E+01  0.72461558404E+02  0.69999984511E+02 0.  0.
         12    1    1    2    0    0  0.24360441379E+01  0.16646830391E+02 -0.82236452822E+01  0.18726441596E+02  0.00000000000E+00 0. -1.
         11    1    3    3    0    0  0.72142428813E+01 -0.50476379322E+01  0.26287830715E+02  0.27723167081E+02  0.51100000000E-03 0. -1.
        -11    1    3    3    0    0 -0.17787612831E+02 -0.17786515368E+02 -0.14063141803E+01  0.25193987755E+02  0.51100000000E-03 0.  1.
        -12    1    3    3    0    0  0.81373258121E+01  0.61873229089E+01 -0.16657871253E+02  0.19544403568E+02  0.00000000000E+00 0.  1.
</event>
<event>
 7    1  0.1465498E-013  0.7246156E+02  0.7816164E-02  0.1226708E+00
        -11   -1    0    0    0    0  0.00000000000E+00  0.00000000000E+00  0.45593999997E+02  0.45594000000E+02  0.51100000000E-03 0.  1.
         11   -1    0    0    0    0 -0.00000000000E+00 -0.00000000000E+00 -0.45593999997E+02  0.45594000000E+02  0.51100000000E-03 0. -1.
    9900012    2    1    2    0    0  0.14342014977E+02  0.37812851524E+01  0.11431887504E+02  0.72461559791E+02  0.69999986318E+02 0.  0.
         12    1    1    2    0    0 -0.14342014977E+02 -0.37812851524E+01 -0.11431887504E+02  0.18726440209E+02  0.00000000000E+00 0. -1.
         11    1    3    3    0    0 -0.54646196217E+01  0.98666369795E+01  0.19143524419E+01  0.11440163392E+02  0.51100000000E-03 0. -1.
        -11    1    3    3    0    0  0.23292521708E+01 -0.28656388899E+01  0.32084857315E+02  0.32296677400E+02  0.51100000000E-03 0.  1.
         12    1    3    3    0    0  0.17477382428E+02 -0.32197129372E+01 -0.22567322253E+02  0.28724718999E+02  0.00000000000E+00 0. -1.
</event>
<event>
 7    1  0.1465498E-013  0.7246156E+02  0.7816164E-02  0.1226708E+00
        -11   -1    0    0    0    0  0.00000000000E+00  0.00000000000E+00  0.45593999997E+02  0.45594000000E+02  0.51100000000E-03 0. -1.
         11   -1    0    0    0    0 -0.00000000000E+00 -0.00000000000E+00 -0.45593999997E+02  0.45594000000E+02  0.51100000000E-03 0.  1.
    9900012    2    1    2    0    0  0.10517821680E+02 -0.13184090671E+02  0.81384811155E+01  0.72461556275E+02  0.69999981737E+02 0.  0.
         12    1    1    2    0    0 -0.10517821680E+02  0.13184090671E+02 -0.81384811155E+01  0.18726443725E+02  0.00000000000E+00 0. -1.
         11    1    3    3    0    0  0.66384358534E+01  0.12439742885E+02  0.13206454576E+02  0.19319070277E+02  0.51100000000E-03 0. -1.
        -11    1    3    3    0    0 -0.49591032594E+01  0.59927552528E+01  0.13386383779E+02  0.15482283152E+02  0.51100000000E-03 0.  1.
        -12    1    3    3    0    0  0.88384890861E+01 -0.31616588809E+02 -0.18454357240E+02  0.37660202846E+02  0.00000000000E+00 0.  1.
</event>
<event>
 7    1  0.1465498E-013  0.7246158E+02  0.7816164E-02  0.1226708E+00
        -11   -1    0    0    0    0  0.00000000000E+00  0.00000000000E+00  0.45593999997E+02  0.45594000000E+02  0.51100000000E-03 0.  1.
         11   -1    0    0    0    0 -0.00000000000E+00 -0.00000000000E+00 -0.45593999997E+02  0.45594000000E+02  0.51100000000E-03 0. -1.
    9900012    2    1    2    0    0 -0.44906363512E+01 -0.14103105842E+02  0.11472373296E+02  0.72461581275E+02  0.70000014304E+02 0.  0.
         12    1    1    2    0    0  0.44906363512E+01  0.14103105842E+02 -0.11472373296E+02  0.18726418725E+02  0.00000000000E+00 0. -1.
         11    1    3    3    0    0  0.87442978451E+01 -0.45982262388E+01  0.96107840222E+00  0.99262329866E+01  0.51100000000E-03 0. -1.
        -11    1    3    3    0    0  0.17578751674E+02  0.13982375667E+02  0.28210608715E+00  0.22463279454E+02  0.51100000000E-03 0.  1.
         12    1    3    3    0    0 -0.30813685870E+02 -0.23487255270E+02  0.10229188806E+02  0.40072068835E+02  0.00000000000E+00 0. -1.
</event>
<event>
 7    1  0.1465498E-013  0.7246170E+02  0.7816164E-02  0.1226708E+00
        -11   -1    0    0    0    0  0.00000000000E+00  0.00000000000E+00  0.45593999997E+02  0.45594000000E+02  0.51100000000E-03 0.  1.
         11   -1    0    0    0    0 -0.00000000000E+00 -0.00000000000E+00 -0.45593999997E+02  0.45594000000E+02  0.51100000000E-03 0. -1.
    9900012    2    1    2    0    0  0.29934588405E-01  0.18555207267E+02 -0.25254191484E+01  0.72461698852E+02  0.70000167470E+02 0.  0.
         12    1    1    2    0    0 -0.29934588405E-01 -0.18555207267E+02  0.25254191484E+01  0.18726301148E+02  0.00000000000E+00 0. -1.
         11    1    3    3    0    0 -0.11330947008E+02  0.37284697822E+01  0.12524555776E+02  0.17296136698E+02  0.51100000000E-03 0. -1.
        -11    1    3    3    0    0  0.72837726908E+01 -0.11699623928E+02  0.11098836199E+02  0.17695160635E+02  0.51100000000E-03 0.  1.
         12    1    3    3    0    0  0.40771089055E+01  0.26526361413E+02 -0.26148811123E+02  0.37470401519E+02  0.00000000000E+00 0. -1.
</event>
<event>
 7    1  0.1465498E-013  0.7246157E+02  0.7816164E-02  0.1226708E+00
        -11   -1    0    0    0    0  0.00000000000E+00  0.00000000000E+00  0.45593999997E+02  0.45594000000E+02  0.51100000000E-03 0. -1.
         11   -1    0    0    0    0 -0.00000000000E+00 -0.00000000000E+00 -0.45593999997E+02  0.45594000000E+02  0.51100000000E-03 0.  1.
    9900012    2    1    2    0    0  0.11373956355E+02  0.10167945794E+01 -0.14841777574E+02  0.72461571725E+02  0.70000001864E+02 0.  0.
         12    1    1    2    0    0 -0.11373956355E+02 -0.10167945794E+01  0.14841777574E+02  0.18726428275E+02  0.00000000000E+00 0. -1.
         11    1    3    3    0    0  0.79252491603E+01  0.22510552191E+02 -0.27432044824E+01  0.24022067048E+02  0.51100000000E-03 0.  1.
        -11    1    3    3    0    0  0.15202487910E+02  0.60600495149E+01 -0.67660099790E+00  0.16379793282E+02  0.51100000000E-03 0. -1.
         12    1    3    3    0    0 -0.11753780715E+02 -0.27553807126E+02 -0.11421972093E+02  0.32059711395E+02  0.00000000000E+00 0. -1.
</event>
<event>
 7    1  0.1465498E-013  0.7246160E+02  0.7816164E-02  0.1226708E+00
        -11   -1    0    0    0    0  0.00000000000E+00  0.00000000000E+00  0.45593999997E+02  0.45594000000E+02  0.51100000000E-03 0. -1.
         11   -1    0    0    0    0 -0.00000000000E+00 -0.00000000000E+00 -0.45593999997E+02  0.45594000000E+02  0.51100000000E-03 0.  1.
    9900012    2    1    2    0    0 -0.17109315457E+02  0.17286184776E+01 -0.74135920045E+01  0.72461597685E+02  0.70000035681E+02 0.  0.
         12    1    1    2    0    0  0.17109315457E+02 -0.17286184776E+01  0.74135920045E+01  0.18726402315E+02  0.00000000000E+00 0. -1.
         11    1    3    3    0    0  0.64527993377E+01  0.12154641622E+02 -0.12601985874E+02  0.18659688649E+02  0.51100000000E-03 0. -1.
        -11    1    3    3    0    0  0.98585715448E+01 -0.16165115037E+02 -0.23050444226E+01  0.19073951010E+02  0.51100000000E-03 0.  1.
        -12    1    3    3    0    0 -0.33420686340E+02  0.57390918928E+01  0.74934382920E+01  0.34727958026E+02  0.00000000000E+00 0.  1.
</event>
<event>
 7    1  0.1465498E-013  0.7246158E+02  0.7816164E-02  0.1226708E+00
        -11   -1    0    0    0    0  0.00000000000E+00  0.00000000000E+00  0.45593999997E+02  0.45594000000E+02  0.51100000000E-03 0.  1.
         11   -1    0    0    0    0 -0.00000000000E+00 -0.00000000000E+00 -0.45593999997E+02  0.45594000000E+02  0.51100000000E-03 0. -1.
    9900012    2    1    2    0    0 -0.12811762836E+00  0.14930000119E+02  0.11302980591E+02  0.72461583153E+02  0.70000016751E+02 0.  0.
         12    1    1    2    0    0  0.12811762836E+00 -0.14930000119E+02 -0.11302980591E+02  0.18726416847E+02  0.00000000000E+00 0. -1.
         11    1    3    3    0    0 -0.18298359445E+01 -0.17127215037E+00 -0.66426992614E+01  0.68922483612E+01  0.51100000000E-03 0. -1.
        -11    1    3    3    0    0  0.87683849921E+01 -0.16483776511E+02 -0.11403696528E+02  0.21877928563E+02  0.51100000000E-03 0.  1.
        -12    1    3    3    0    0 -0.70666666760E+01  0.31585048780E+02  0.29349376381E+02  0.43691406229E+02  0.00000000000E+00 0.  1.
</event>
<event>
 7    1  0.1465498E-013  0.7246158E+02  0.7816164E-02  0.1226708E+00
        -11   -1    0    0    0    0  0.00000000000E+00  0.00000000000E+00  0.45593999997E+02  0.45594000000E+02  0.51100000000E-03 0.  1.
         11   -1    0    0    0    0 -0.00000000000E+00 -0.00000000000E+00 -0.45593999997E+02  0.45594000000E+02  0.51100000000E-03 0. -1.
    9900012    2    1    2    0    0  0.15810414901E+02  0.87876227357E+01  0.48463600381E+01  0.72461581808E+02  0.70000014998E+02 0.  0.
         12    1    1    2    0    0 -0.15810414901E+02 -0.87876227357E+01 -0.48463600381E+01  0.18726418192E+02  0.00000000000E+00 0. -1.
         11    1    3    3    0    0 -0.11456879576E+02  0.87726945442E+01  0.49240466155E+00  0.14438238182E+02  0.51100000000E-03 0. -1.
        -11    1    3    3    0    0 -0.46093629016E+01  0.14625429929E+02  0.14925391901E+02  0.21398989477E+02  0.51100000000E-03 0.  1.
        -12    1    3    3    0    0  0.31876657378E+02 -0.14610501738E+02 -0.10571436525E+02  0.36624354149E+02  0.00000000000E+00 0.  1.
</event>
<event>
 7    1  0.1465498E-013  0.7246158E+02  0.7816164E-02  0.1226708E+00
        -11   -1    0    0    0    0  0.00000000000E+00  0.00000000000E+00  0.45593999997E+02  0.45594000000E+02  0.51100000000E-03 0.  1.
         11   -1    0    0    0    0 -0.00000000000E+00 -0.00000000000E+00 -0.45593999997E+02  0.45594000000E+02  0.51100000000E-03 0. -1.
    9900012    2    1    2    0    0  0.20930980031E+01 -0.13625559783E+02  0.12674456248E+02  0.72461580699E+02  0.70000013554E+02 0.  0.
         12    1    1    2    0    0 -0.20930980031E+01  0.13625559783E+02 -0.12674456248E+02  0.18726419301E+02  0.00000000000E+00 0. -1.
         11    1    3    3    0    0 -0.12155271744E+02 -0.86740015981E+01 -0.14316845517E+02  0.20687218293E+02  0.51100000000E-03 0. -1.
        -11    1    3    3    0    0 -0.97913478543E+01  0.95873147274E+01  0.14055319799E+01  0.13775435271E+02  0.51100000000E-03 0.  1.
         12    1    3    3    0    0  0.24039717602E+02 -0.14538872912E+02  0.25585769785E+02  0.37998927135E+02  0.00000000000E+00 0. -1.
</event>
<event>
 7    1  0.1465498E-013  0.7246160E+02  0.7816164E-02  0.1226708E+00
        -11   -1    0    0    0    0  0.00000000000E+00  0.00000000000E+00  0.45593999997E+02  0.45594000000E+02  0.51100000000E-03 0.  1.
         11   -1    0    0    0    0 -0.00000000000E+00 -0.00000000000E+00 -0.45593999997E+02  0.45594000000E+02  0.51100000000E-03 0. -1.
    9900012    2    1    2    0    0 -0.74518528536E+00  0.15154384191E+02  0.10975761204E+02  0.72461601646E+02  0.70000040841E+02 0.  0.
         12    1    1    2    0    0  0.74518528536E+00 -0.15154384191E+02 -0.10975761204E+02  0.18726398354E+02  0.00000000000E+00 0. -1.
         11    1    3    3    0    0 -0.33579605135E+01 -0.51498757187E+01  0.12542026307E+02  0.13967803795E+02  0.51100000000E-03 0. -1.
        -11    1    3    3    0    0 -0.17206733986E+02 -0.86535995276E+00  0.16884179005E+02  0.24122521494E+02  0.51100000000E-03 0.  1.
         12    1    3    3    0    0  0.19819509215E+02  0.21169619862E+02 -0.18450444107E+02  0.34371276356E+02  0.00000000000E+00 0. -1.
</event>
<event>
 7    1  0.1465498E-013  0.7246155E+02  0.7816164E-02  0.1226708E+00
        -11   -1    0    0    0    0  0.00000000000E+00  0.00000000000E+00  0.45593999997E+02  0.45594000000E+02  0.51100000000E-03 0. -1.
         11   -1    0    0    0    0 -0.00000000000E+00 -0.00000000000E+00 -0.45593999997E+02  0.45594000000E+02  0.51100000000E-03 0.  1.
    9900012    2    1    2    0    0  0.13524101679E+02  0.10291655154E+02 -0.78651294150E+01  0.72461554722E+02  0.69999979714E+02 0.  0.
         12    1    1    2    0    0 -0.13524101679E+02 -0.10291655154E+02  0.78651294150E+01  0.18726445278E+02  0.00000000000E+00 0. -1.
         11    1    3    3    0    0  0.98776174173E+01 -0.94278052458E+00  0.16025849068E+02  0.18848978741E+02  0.51100000000E-03 0. -1.
        -11    1    3    3    0    0  0.12439250978E+01 -0.17159547560E+02 -0.13093069145E+01  0.17254324297E+02  0.51100000000E-03 0.  1.
        -12    1    3    3    0    0  0.24025591639E+01  0.28393983238E+02 -0.22581671569E+02  0.36358251684E+02  0.00000000000E+00 0.  1.
</event>
<event>
 7    1  0.1465498E-013  0.7246192E+02  0.7816164E-02  0.1226707E+00
        -11   -1    0    0    0    0  0.00000000000E+00  0.00000000000E+00  0.45593999997E+02  0.45594000000E+02  0.51100000000E-03 0. -1.
         11   -1    0    0    0    0 -0.00000000000E+00 -0.00000000000E+00 -0.45593999997E+02  0.45594000000E+02  0.51100000000E-03 0.  1.
    9900012    2    1    2    0    0  0.15733712760E+02 -0.94053223670E+01  0.38283365841E+01  0.72461922807E+02  0.70000459211E+02 0.  0.
         12    1    1    2    0    0 -0.15733712760E+02  0.94053223670E+01 -0.38283365841E+01  0.18726077193E+02  0.00000000000E+00 0. -1.
         11    1    3    3    0    0 -0.12158072875E+02  0.15836752197E+02 -0.10176522610E+02  0.22409441512E+02  0.51100000000E-03 0. -1.
        -11    1    3    3    0    0 -0.42838367044E+01 -0.88003047699E+01 -0.28321871277E+01  0.10189107181E+02  0.51100000000E-03 0.  1.
        -12    1    3    3    0    0  0.32175622340E+02 -0.16441769794E+02  0.16837046322E+02  0.39863374114E+02  0.00000000000E+00 0.  1.
</event>
<event>
 7    1  0.1465498E-013  0.7246156E+02  0.7816164E-02  0.1226708E+00
        -11   -1    0    0    0    0  0.00000000000E+00  0.00000000000E+00  0.45593999997E+02  0.45594000000E+02  0.51100000000E-03 0. -1.
         11   -1    0    0    0    0 -0.00000000000E+00 -0.00000000000E+00 -0.45593999997E+02  0.45594000000E+02  0.51100000000E-03 0.  1.
    9900012    2    1    2    0    0 -0.66427692379E+01  0.10365705375E+02 -0.14110465027E+02  0.72461562690E+02  0.69999990093E+02 0.  0.
         12    1    1    2    0    0  0.66427692379E+01 -0.10365705375E+02  0.14110465027E+02  0.18726437310E+02  0.00000000000E+00 0. -1.
         11    1    3    3    0    0 -0.29542269295E+01 -0.23136690540E+02 -0.11959558129E+02  0.26211923561E+02  0.51100000000E-03 0. -1.
        -11    1    3    3    0    0  0.38367112005E+01 -0.14531700647E+01  0.80769312483E+01  0.90591873103E+01  0.51100000000E-03 0.  1.
         12    1    3    3    0    0 -0.75252535089E+01  0.34955565979E+02 -0.10227838146E+02  0.37190451818E+02  0.00000000000E+00 0. -1.
</event>
<event>
 7    1  0.1465498E-013  0.7246155E+02  0.7816164E-02  0.1226708E+00
        -11   -1    0    0    0    0  0.00000000000E+00  0.00000000000E+00  0.45593999997E+02  0.45594000000E+02  0.51100000000E-03 0.  1.
         11   -1    0    0    0    0 -0.00000000000E+00 -0.00000000000E+00 -0.45593999997E+02  0.45594000000E+02  0.51100000000E-03 0. -1.
    9900012    2    1    2    0    0  0.12204989441E+02  0.38276454719E+01  0.13677256688E+02  0.72461548451E+02  0.69999971544E+02 0.  0.
         12    1    1    2    0    0 -0.12204989441E+02 -0.38276454719E+01 -0.13677256688E+02  0.18726451549E+02  0.00000000000E+00 0. -1.
         11    1    3    3    0    0  0.23022131178E+01  0.11314645751E+02  0.57168014602E+01  0.12884223411E+02  0.51100000000E-03 0. -1.
        -11    1    3    3    0    0  0.24222011427E+01  0.21709234756E+02 -0.10497132843E+02  0.24235257998E+02  0.51100000000E-03 0.  1.
         12    1    3    3    0    0  0.74805751804E+01 -0.29196235035E+02  0.18457588072E+02  0.35342067041E+02  0.00000000000E+00 0. -1.
</event>
<event>
 7    1  0.1465498E-013  0.7246160E+02  0.7816164E-02  0.1226708E+00
        -11   -1    0    0    0    0  0.00000000000E+00  0.00000000000E+00  0.45593999997E+02  0.45594000000E+02  0.51100000000E-03 0. -1.
         11   -1    0    0    0    0 -0.00000000000E+00 -0.00000000000E+00 -0.45593999997E+02  0.45594000000E+02  0.51100000000E-03 0.  1.
    9900012    2    1    2    0    0 -0.14939404579E+02  0.47298026666E+01 -0.10252869923E+02  0.72461596605E+02  0.70000034275E+02 0.  0.
         12    1    1    2    0    0  0.14939404579E+02 -0.47298026666E+01  0.10252869923E+02  0.18726403395E+02  0.00000000000E+00 0. -1.
         11    1    3    3    0    0 -0.63868035860E+01 -0.21416390405E+01  0.78163951874E+01  0.10318619666E+02  0.51100000000E-03 0. -1.
        -11    1    3    3    0    0  0.81490414424E+01  0.29778667727E+02 -0.66589090271E+01  0.31583492488E+02  0.51100000000E-03 0.  1.
         12    1    3    3    0    0 -0.16701642436E+02 -0.22907226020E+02 -0.11410356083E+02  0.30559484451E+02  0.00000000000E+00 0. -1.
</event>
<event>
 7    1  0.1465498E-013  0.7246158E+02  0.7816164E-02  0.1226708E+00
        -11   -1    0    0    0    0  0.00000000000E+00  0.00000000000E+00  0.45593999997E+02  0.45594000000E+02  0.51100000000E-03 0. -1.
         11   -1    0    0    0    0 -0.00000000000E+00 -0.00000000000E+00 -0.45593999997E+02  0.45594000000E+02  0.51100000000E-03 0.  1.
    9900012    2    1    2    0    0 -0.91279675987E+01  0.16133689461E+02 -0.26576412535E+01  0.72461580557E+02  0.70000013369E+02 0.  0.
         12    1    1    2    0    0  0.91279675987E+01 -0.16133689461E+02  0.26576412535E+01  0.18726419443E+02  0.00000000000E+00 0. -1.
         11    1    3    3    0    0  0.18635308833E+02  0.77670385648E+01  0.18643631006E+01  0.20275045583E+02  0.51100000000E-03 0. -1.
        -11    1    3    3    0    0  0.89121695956E+01  0.11838214757E+02 -0.39802976888E+01  0.15343169995E+02  0.51100000000E-03 0.  1.
        -12    1    3    3    0    0 -0.36675446027E+02 -0.34715638604E+01 -0.54170666542E+00  0.36843364980E+02  0.00000000000E+00 0.  1.
</event>
<event>
 7    1  0.1465498E-013  0.7246158E+02  0.7816164E-02  0.1226708E+00
        -11   -1    0    0    0    0  0.00000000000E+00  0.00000000000E+00  0.45593999997E+02  0.45594000000E+02  0.51100000000E-03 0.  1.
         11   -1    0    0    0    0 -0.00000000000E+00 -0.00000000000E+00 -0.45593999997E+02  0.45594000000E+02  0.51100000000E-03 0. -1.
    9900012    2    1    2    0    0  0.16331289258E+02  0.76472753746E+01  0.50484493327E+01  0.72461583628E+02  0.70000017370E+02 0.  0.
         12    1    1    2    0    0 -0.16331289258E+02 -0.76472753746E+01 -0.50484493327E+01  0.18726416372E+02  0.00000000000E+00 0. -1.
         11    1    3    3    0    0 -0.40335416586E+01  0.52932687475E+00  0.93131085640E+01  0.10162855732E+02  0.51100000000E-03 0. -1.
        -11    1    3    3    0    0  0.24889310509E+02  0.57196004977E+01  0.23155445748E+02  0.34472688835E+02  0.51100000000E-03 0.  1.
         12    1    3    3    0    0 -0.45244795928E+01  0.13983480021E+01 -0.27420104979E+02  0.27826039061E+02  0.00000000000E+00 0. -1.
</event>
<event>
 7    1  0.1465498E-013  0.7246157E+02  0.7816164E-02  0.1226708E+00
        -11   -1    0    0    0    0  0.00000000000E+00  0.00000000000E+00  0.45593999997E+02  0.45594000000E+02  0.51100000000E-03 0. -1.
         11   -1    0    0    0    0 -0.00000000000E+00 -0.00000000000E+00 -0.45593999997E+02  0.45594000000E+02  0.51100000000E-03 0.  1.
    9900012    2    1    2    0    0 -0.72535587683E+01 -0.17057595503E+02 -0.26652140012E+01  0.72461573624E+02  0.70000004337E+02 0.  0.
         12    1    1    2    0    0  0.72535587683E+01  0.17057595503E+02  0.26652140012E+01  0.18726426376E+02  0.00000000000E+00 0. -1.
         11    1    3    3    0    0  0.16235672254E+02 -0.88685324536E+01  0.92646216758E+01  0.20690121713E+02  0.51100000000E-03 0. -1.
        -11    1    3    3    0    0  0.10625186881E+02 -0.11866848028E+02 -0.20140352210E+01  0.16055311162E+02  0.51100000000E-03 0.  1.
        -12    1    3    3    0    0 -0.34114417904E+02  0.36777849786E+01 -0.99158004561E+01  0.35716140748E+02  0.00000000000E+00 0.  1.
</event>
<event>
 7    1  0.1465498E-013  0.7246165E+02  0.7816164E-02  0.1226708E+00
        -11   -1    0    0    0    0  0.00000000000E+00  0.00000000000E+00  0.45593999997E+02  0.45594000000E+02  0.51100000000E-03 0. -1.
         11   -1    0    0    0    0 -0.00000000000E+00 -0.00000000000E+00 -0.45593999997E+02  0.45594000000E+02  0.51100000000E-03 0.  1.
    9900012    2    1    2    0    0  0.16792364487E+02 -0.53386383272E+01 -0.63396978505E+01  0.72461646028E+02  0.70000098657E+02 0.  0.
         12    1    1    2    0    0 -0.16792364487E+02  0.53386383272E+01  0.63396978505E+01  0.18726353972E+02  0.00000000000E+00 0. -1.
         11    1    3    3    0    0  0.11885036701E+02 -0.75975678020E+01 -0.10502339803E+02  0.17586252457E+02  0.51100000000E-03 0. -1.
        -11    1    3    3    0    0  0.22314647371E+02  0.13689878409E+02 -0.11721911540E+02  0.28683784069E+02  0.51100000000E-03 0.  1.
         12    1    3    3    0    0 -0.17407319585E+02 -0.11430948935E+02  0.15884553492E+02  0.26191609502E+02  0.00000000000E+00 0. -1.
</event>
<event>
 7    1  0.1465498E-013  0.7246156E+02  0.7816164E-02  0.1226708E+00
        -11   -1    0    0    0    0  0.00000000000E+00  0.00000000000E+00  0.45593999997E+02  0.45594000000E+02  0.51100000000E-03 0.  1.
         11   -1    0    0    0    0 -0.00000000000E+00 -0.00000000000E+00 -0.45593999997E+02  0.45594000000E+02  0.51100000000E-03 0. -1.
    9900012    2    1    2    0    0  0.99428064105E+01  0.13518717217E+02  0.83105102811E+01  0.72461556247E+02  0.69999981701E+02 0.  0.
         12    1    1    2    0    0 -0.99428064105E+01 -0.13518717217E+02 -0.83105102811E+01  0.18726443753E+02  0.00000000000E+00 0. -1.
         11    1    3    3    0    0  0.11973336167E+02  0.82148290088E+01 -0.70292855460E+01  0.16132422327E+02  0.51100000000E-03 0. -1.
        -11    1    3    3    0    0  0.24671924021E+02  0.61294231988E+01  0.15188327196E+02  0.29613492650E+02  0.51100000000E-03 0.  1.
        -12    1    3    3    0    0 -0.26702453777E+02 -0.82553499113E+00  0.15146863093E+00  0.26715641270E+02  0.00000000000E+00 0.  1.
</event>
<event>
 7    1  0.1465498E-013  0.7246156E+02  0.7816164E-02  0.1226708E+00
        -11   -1    0    0    0    0  0.00000000000E+00  0.00000000000E+00  0.45593999997E+02  0.45594000000E+02  0.51100000000E-03 0. -1.
         11   -1    0    0    0    0 -0.00000000000E+00 -0.00000000000E+00 -0.45593999997E+02  0.45594000000E+02  0.51100000000E-03 0.  1.
    9900012    2    1    2    0    0 -0.10508981658E+02 -0.31988300883E+00 -0.15496404139E+02  0.72461559819E+02  0.69999986353E+02 0.  0.
         12    1    1    2    0    0  0.10508981658E+02  0.31988300883E+00  0.15496404139E+02  0.18726440181E+02  0.00000000000E+00 0. -1.
         11    1    3    3    0    0 -0.10480146078E+02 -0.17029407581E+02  0.11357144367E+02  0.22996062985E+02  0.51100000000E-03 0. -1.
        -11    1    3    3    0    0 -0.18014816641E+02  0.69054008631E+01 -0.20186421057E+02  0.27923283743E+02  0.51100000000E-03 0.  1.
        -12    1    3    3    0    0  0.17985981061E+02  0.98041237087E+01 -0.66671274499E+01  0.21542213091E+02  0.00000000000E+00 0.  1.
</event>
<event>
 7    1  0.1465498E-013  0.7246166E+02  0.7816164E-02  0.1226708E+00
        -11   -1    0    0    0    0  0.00000000000E+00  0.00000000000E+00  0.45593999997E+02  0.45594000000E+02  0.51100000000E-03 0.  1.
         11   -1    0    0    0    0 -0.00000000000E+00 -0.00000000000E+00 -0.45593999997E+02  0.45594000000E+02  0.51100000000E-03 0. -1.
    9900012    2    1    2    0    0 -0.15897937391E+01 -0.10627796907E+02  0.15336171311E+02  0.72461663954E+02  0.70000122009E+02 0.  0.
         12    1    1    2    0    0  0.15897937391E+01  0.10627796907E+02 -0.15336171311E+02  0.18726336046E+02  0.00000000000E+00 0. -1.
         11    1    3    3    0    0  0.14070117165E+02 -0.21635525139E+02 -0.12703606166E+02  0.28765356854E+02  0.51100000000E-03 0. -1.
        -11    1    3    3    0    0 -0.11829722844E+02 -0.29392174891E+01  0.48855263617E-01  0.12189492570E+02  0.51100000000E-03 0.  1.
        -12    1    3    3    0    0 -0.38301880603E+01  0.13946945720E+02  0.27990922213E+02  0.31506814530E+02  0.00000000000E+00 0.  1.
</event>
<event>
 7    1  0.1465498E-013  0.7246157E+02  0.7816164E-02  0.1226708E+00
        -11   -1    0    0    0    0  0.00000000000E+00  0.00000000000E+00  0.45593999997E+02  0.45594000000E+02  0.51100000000E-03 0.  1.
         11   -1    0    0    0    0 -0.00000000000E+00 -0.00000000000E+00 -0.45593999997E+02  0.45594000000E+02  0.51100000000E-03 0. -1.
    9900012    2    1    2    0    0  0.18026528923E+02  0.43202872135E+01 -0.26568206098E+01  0.72461566214E+02  0.69999994684E+02 0.  0.
         12    1    1    2    0    0 -0.18026528923E+02 -0.43202872135E+01  0.26568206098E+01  0.18726433786E+02  0.00000000000E+00 0. -1.
         11    1    3    3    0    0  0.50038164525E+01  0.12681013279E+01  0.47450729330E+01  0.70115602735E+01  0.51100000000E-03 0. -1.
        -11    1    3    3    0    0 -0.49050645830E+01  0.22511054794E+02  0.17642400567E+02  0.29018296720E+02  0.51100000000E-03 0.  1.
         12    1    3    3    0    0  0.17927777053E+02 -0.19458868908E+02 -0.25044294110E+02  0.36431709220E+02  0.00000000000E+00 0. -1.
</event>
<event>
 7    1  0.1465498E-013  0.7246150E+02  0.7816164E-02  0.1226708E+00
        -11   -1    0    0    0    0  0.00000000000E+00  0.00000000000E+00  0.45593999997E+02  0.45594000000E+02  0.51100000000E-03 0.  1.
         11   -1    0    0    0    0 -0.00000000000E+00 -0.00000000000E+00 -0.45593999997E+02  0.45594000000E+02  0.51100000000E-03 0. -1.
    9900012    2    1    2    0    0  0.17348040435E+02  0.20750632991E+01  0.67395468790E+01  0.72461497743E+02  0.69999905489E+02 0.  0.
         12    1    1    2    0    0 -0.17348040435E+02 -0.20750632991E+01 -0.67395468790E+01  0.18726502257E+02  0.00000000000E+00 0. -1.
         11    1    3    3    0    0 -0.11529873893E+02 -0.11995662428E+02  0.14548151206E+02  0.22101642764E+02  0.51100000000E-03 0. -1.
        -11    1    3    3    0    0  0.14458221987E+01 -0.10311410347E+02  0.49167065013E+01  0.11514755240E+02  0.51100000000E-03 0.  1.
        -12    1    3    3    0    0  0.27432092129E+02  0.24382136073E+02 -0.12725310829E+02  0.38845099739E+02  0.00000000000E+00 0.  1.
</event>
<event>
 7    1  0.1465498E-013  0.7246161E+02  0.7816164E-02  0.1226708E+00
        -11   -1    0    0    0    0  0.00000000000E+00  0.00000000000E+00  0.45593999997E+02  0.45594000000E+02  0.51100000000E-03 0.  1.
         11   -1    0    0    0    0 -0.00000000000E+00 -0.00000000000E+00 -0.45593999997E+02  0.45594000000E+02  0.51100000000E-03 0. -1.
    9900012    2    1    2    0    0 -0.69460657298E+01 -0.13306757108E+02  0.11196428246E+02  0.72461611685E+02  0.70000053919E+02 0.  0.
         12    1    1    2    0    0  0.69460657298E+01  0.13306757108E+02 -0.11196428246E+02  0.18726388315E+02  0.00000000000E+00 0. -1.
         11    1    3    3    0    0 -0.46720446797E+01  0.15971173167E+02 -0.64859717657E+01  0.17859848931E+02  0.51100000000E-03 0. -1.
        -11    1    3    3    0    0  0.36741491866E+01  0.37145880810E+01 -0.98965947340E+01  0.11191073427E+02  0.51100000000E-03 0.  1.
        -12    1    3    3    0    0 -0.59481702367E+01 -0.32992518356E+02  0.27578994746E+02  0.43410689327E+02  0.00000000000E+00 0.  1.
</event>
<event>
 7    1  0.1465498E-013  0.7246159E+02  0.7816164E-02  0.1226708E+00
        -11   -1    0    0    0    0  0.00000000000E+00  0.00000000000E+00  0.45593999997E+02  0.45594000000E+02  0.51100000000E-03 0. -1.
         11   -1    0    0    0    0 -0.00000000000E+00 -0.00000000000E+00 -0.45593999997E+02  0.45594000000E+02  0.51100000000E-03 0.  1.
    9900012    2    1    2    0    0 -0.34407493608E+00  0.24958909801E+00 -0.18721582476E+02  0.72461592638E+02  0.70000029107E+02 0.  0.
         12    1    1    2    0    0  0.34407493608E+00 -0.24958909801E+00  0.18721582476E+02  0.18726407362E+02  0.00000000000E+00 0. -1.
         11    1    3    3    0    0 -0.55133439167E+01  0.38697634840E+01 -0.18078586480E+00  0.67383020381E+01  0.51100000000E-03 0. -1.
        -11    1    3    3    0    0 -0.24019425866E+02  0.67380046412E+01 -0.23599824860E+02  0.34340723044E+02  0.51100000000E-03 0.  1.
         12    1    3    3    0    0  0.29188694847E+02 -0.10358179027E+02  0.50590282490E+01  0.31382567556E+02  0.00000000000E+00 0. -1.
</event>
<event>
 7    1  0.1465498E-013  0.7246155E+02  0.7816164E-02  0.1226708E+00
        -11   -1    0    0    0    0  0.00000000000E+00  0.00000000000E+00  0.45593999997E+02  0.45594000000E+02  0.51100000000E-03 0.  1.
         11   -1    0    0    0    0 -0.00000000000E+00 -0.00000000000E+00 -0.45593999997E+02  0.45594000000E+02  0.51100000000E-03 0. -1.
    9900012    2    1    2    0    0  0.16085755503E+02  0.98587222794E+00  0.95371048844E+01  0.72461552293E+02  0.69999976550E+02 0.  0.
         12    1    1    2    0    0 -0.16085755503E+02 -0.98587222794E+00 -0.95371048844E+01  0.18726447707E+02  0.00000000000E+00 0. -1.
         11    1    3    3    0    0 -0.17401245734E+00 -0.10651861791E+02 -0.59121434331E+01  0.12183836841E+02  0.51100000000E-03 0. -1.
        -11    1    3    3    0    0 -0.63359908756E+01 -0.36337458425E+01  0.28942465335E+02  0.29849877540E+02  0.51100000000E-03 0.  1.
         12    1    3    3    0    0  0.22595758835E+02  0.15271479861E+02 -0.13493217018E+02  0.30427837912E+02  0.00000000000E+00 0. -1.
</event>
<event>
 7    1  0.1465498E-013  0.7246159E+02  0.7816164E-02  0.1226708E+00
        -11   -1    0    0    0    0  0.00000000000E+00  0.00000000000E+00  0.45593999997E+02  0.45594000000E+02  0.51100000000E-03 0.  1.
         11   -1    0    0    0    0 -0.00000000000E+00 -0.00000000000E+00 -0.45593999997E+02  0.45594000000E+02  0.51100000000E-03 0. -1.
    9900012    2    1    2    0    0 -0.41278630290E+01  0.75182095507E+01 -0.16646797253E+02  0.72461585853E+02  0.70000020267E+02 0.  0.
         12    1    1    2    0    0  0.41278630290E+01 -0.75182095507E+01  0.16646797253E+02  0.18726414147E+02  0.00000000000E+00 0. -1.
         11    1    3    3    0    0 -0.26910662731E+01  0.79741334115E+01 -0.73588017218E+01  0.11179472456E+02  0.51100000000E-03 0. -1.
        -11    1    3    3    0    0 -0.86183693375E+01  0.27252294086E+02  0.54335777104E+01  0.29094459782E+02  0.51100000000E-03 0.  1.
         12    1    3    3    0    0  0.71815725816E+01 -0.27708217947E+02 -0.14721573242E+02  0.32187653615E+02  0.00000000000E+00 0. -1.
</event>
<event>
 7    1  0.1465498E-013  0.7246147E+02  0.7816164E-02  0.1226708E+00
        -11   -1    0    0    0    0  0.00000000000E+00  0.00000000000E+00  0.45593999997E+02  0.45594000000E+02  0.51100000000E-03 0.  1.
         11   -1    0    0    0    0 -0.00000000000E+00 -0.00000000000E+00 -0.45593999997E+02  0.45594000000E+02  0.51100000000E-03 0. -1.
    9900012    2    1    2    0    0 -0.10612984172E+02  0.29924727430E+01  0.15135803421E+02  0.72461471454E+02  0.69999871243E+02 0.  0.
         12    1    1    2    0    0  0.10612984172E+02 -0.29924727430E+01 -0.15135803421E+02  0.18726528546E+02  0.00000000000E+00 0. -1.
         11    1    3    3    0    0 -0.80529043067E+01 -0.61698220286E+01 -0.61453759480E+01  0.11860928186E+02  0.51100000000E-03 0. -1.
        -11    1    3    3    0    0 -0.71885433738E+01  0.44705939628E+01  0.39932059740E+02  0.40819489972E+02  0.51100000000E-03 0.  1.
         12    1    3    3    0    0  0.46284635085E+01  0.46917008087E+01 -0.18650880370E+02  0.19781053296E+02  0.00000000000E+00 0. -1.
</event>
<event>
 7    1  0.1465498E-013  0.7246154E+02  0.7816164E-02  0.1226708E+00
        -11   -1    0    0    0    0  0.00000000000E+00  0.00000000000E+00  0.45593999997E+02  0.45594000000E+02  0.51100000000E-03 0.  1.
         11   -1    0    0    0    0 -0.00000000000E+00 -0.00000000000E+00 -0.45593999997E+02  0.45594000000E+02  0.51100000000E-03 0. -1.
    9900012    2    1    2    0    0 -0.11203486586E+02 -0.14661357855E+02 -0.31948249554E+01  0.72461536578E+02  0.69999956078E+02 0.  0.
         12    1    1    2    0    0  0.11203486586E+02  0.14661357855E+02  0.31948249554E+01  0.18726463422E+02  0.00000000000E+00 0. -1.
         11    1    3    3    0    0 -0.12083625787E+02 -0.41566150754E+00  0.10180147864E+02  0.15805764690E+02  0.51100000000E-03 0. -1.
        -11    1    3    3    0    0 -0.97168427035E+01 -0.31363159286E+02 -0.65217263936E+00  0.32840373353E+02  0.51100000000E-03 0.  1.
         12    1    3    3    0    0  0.10596981905E+02  0.17117462939E+02 -0.12722800180E+02  0.23815398535E+02  0.00000000000E+00 0. -1.
</event>
<event>
 7    1  0.1465498E-013  0.7246156E+02  0.7816164E-02  0.1226708E+00
        -11   -1    0    0    0    0  0.00000000000E+00  0.00000000000E+00  0.45593999997E+02  0.45594000000E+02  0.51100000000E-03 0. -1.
         11   -1    0    0    0    0 -0.00000000000E+00 -0.00000000000E+00 -0.45593999997E+02  0.45594000000E+02  0.51100000000E-03 0.  1.
    9900012    2    1    2    0    0  0.83305819001E+01  0.10383629226E+01 -0.16739261320E+02  0.72461557148E+02  0.69999982874E+02 0.  0.
         12    1    1    2    0    0 -0.83305819001E+01 -0.10383629226E+01  0.16739261320E+02  0.18726442852E+02  0.00000000000E+00 0. -1.
         11    1    3    3    0    0  0.21149832190E+02  0.99297865559E+01 -0.11308749478E+02  0.25957732522E+02  0.51100000000E-03 0. -1.
        -11    1    3    3    0    0 -0.45739045237E-01  0.17160665468E+02 -0.15539062088E+01  0.17230936020E+02  0.51100000000E-03 0.  1.
         12    1    3    3    0    0 -0.12773511244E+02 -0.26052089101E+02 -0.38766056339E+01  0.29272888605E+02  0.00000000000E+00 0. -1.
</event>
<event>
 7    1  0.1465498E-013  0.7246160E+02  0.7816164E-02  0.1226708E+00
        -11   -1    0    0    0    0  0.00000000000E+00  0.00000000000E+00  0.45593999997E+02  0.45594000000E+02  0.51100000000E-03 0.  1.
         11   -1    0    0    0    0 -0.00000000000E+00 -0.00000000000E+00 -0.45593999997E+02  0.45594000000E+02  0.51100000000E-03 0. -1.
    9900012    2    1    2    0    0 -0.13565181146E+02 -0.79896390002E+01  0.10140500969E+02  0.72461595359E+02  0.70000032652E+02 0.  0.
         12    1    1    2    0    0  0.13565181146E+02  0.79896390002E+01 -0.10140500969E+02  0.18726404641E+02  0.00000000000E+00 0. -1.
         11    1    3    3    0    0  0.60374206618E+01 -0.42866920844E+01  0.16608591785E+01  0.75884537783E+01  0.51100000000E-03 0. -1.
        -11    1    3    3    0    0 -0.73755103616E+01 -0.19554257669E+02 -0.20746572251E+02  0.29448045886E+02  0.51100000000E-03 0.  1.
         12    1    3    3    0    0 -0.12227091446E+02  0.15851310753E+02  0.29226214041E+02  0.35425095695E+02  0.00000000000E+00 0. -1.
</event>
<event>
 7    1  0.1465498E-013  0.7246195E+02  0.7816164E-02  0.1226707E+00
        -11   -1    0    0    0    0  0.00000000000E+00  0.00000000000E+00  0.45593999997E+02  0.45594000000E+02  0.51100000000E-03 0. -1.
         11   -1    0    0    0    0 -0.00000000000E+00 -0.00000000000E+00 -0.45593999997E+02  0.45594000000E+02  0.51100000000E-03 0.  1.
    9900012    2    1    2    0    0 -0.18580569010E+02 -0.89014481785E+00  0.21529537511E+01  0.72461945626E+02  0.70000488938E+02 0.  0.
         12    1    1    2    0    0  0.18580569010E+02  0.89014481785E+00 -0.21529537511E+01  0.18726054374E+02  0.00000000000E+00 0. -1.
         11    1    3    3    0    0 -0.30550408216E+02  0.40592833401E+01 -0.86146181464E+00  0.30830947766E+02  0.51100000000E-03 0. -1.
        -11    1    3    3    0    0 -0.12364988451E+02  0.42955409644E+01  0.76915693429E+01  0.15182386202E+02  0.51100000000E-03 0.  1.
        -12    1    3    3    0    0  0.24334827657E+02 -0.92449691223E+01 -0.46771537772E+01  0.26448611658E+02  0.00000000000E+00 0.  1.
</event>
<event>
 7    1  0.1465498E-013  0.7246157E+02  0.7816164E-02  0.1226708E+00
        -11   -1    0    0    0    0  0.00000000000E+00  0.00000000000E+00  0.45593999997E+02  0.45594000000E+02  0.51100000000E-03 0.  1.
         11   -1    0    0    0    0 -0.00000000000E+00 -0.00000000000E+00 -0.45593999997E+02  0.45594000000E+02  0.51100000000E-03 0. -1.
    9900012    2    1    2    0    0  0.32777499894E+01 -0.13061823403E+02  0.13012462572E+02  0.72461573277E+02  0.70000003885E+02 0.  0.
         12    1    1    2    0    0 -0.32777499894E+01  0.13061823403E+02 -0.13012462572E+02  0.18726426723E+02  0.00000000000E+00 0. -1.
         11    1    3    3    0    0  0.28637666085E+02 -0.15724169906E+02 -0.50358963737E+01  0.33056401658E+02  0.51100000000E-03 0. -1.
        -11    1    3    3    0    0  0.31452504746E+01 -0.36820846789E+01  0.62564198283E+01  0.79115824877E+01  0.51100000000E-03 0.  1.
        -12    1    3    3    0    0 -0.28505166570E+02  0.63444311816E+01  0.11791939118E+02  0.31493589131E+02  0.00000000000E+00 0.  1.
</event>
<event>
 7    1  0.1465498E-013  0.7246156E+02  0.7816164E-02  0.1226708E+00
        -11   -1    0    0    0    0  0.00000000000E+00  0.00000000000E+00  0.45593999997E+02  0.45594000000E+02  0.51100000000E-03 0.  1.
         11   -1    0    0    0    0 -0.00000000000E+00 -0.00000000000E+00 -0.45593999997E+02  0.45594000000E+02  0.51100000000E-03 0. -1.
    9900012    2    1    2    0    0 -0.57855109967E+01 -0.15223852058E+02  0.92434603895E+01  0.72461564970E+02  0.69999993064E+02 0.  0.
         12    1    1    2    0    0  0.57855109967E+01  0.15223852058E+02 -0.92434603895E+01  0.18726435030E+02  0.00000000000E+00 0. -1.
         11    1    3    3    0    0 -0.41012143703E+01 -0.13272118938E+02  0.14167619971E+02  0.19841636936E+02  0.51100000000E-03 0. -1.
        -11    1    3    3    0    0  0.93688536443E+01 -0.17524225325E+02 -0.20072361588E+02  0.28244886118E+02  0.51100000000E-03 0.  1.
         12    1    3    3    0    0 -0.11053150271E+02  0.15572492204E+02  0.15148202007E+02  0.24375041916E+02  0.00000000000E+00 0. -1.
</event>
<event>
 7    1  0.1465498E-013  0.7246153E+02  0.7816164E-02  0.1226708E+00
        -11   -1    0    0    0    0  0.00000000000E+00  0.00000000000E+00  0.45593999997E+02  0.45594000000E+02  0.51100000000E-03 0.  1.
         11   -1    0    0    0    0 -0.00000000000E+00 -0.00000000000E+00 -0.45593999997E+02  0.45594000000E+02  0.51100000000E-03 0. -1.
    9900012    2    1    2    0    0 -0.10534893875E+02  0.10784193985E+02  0.11108454776E+02  0.72461532197E+02  0.69999950371E+02 0.  0.
         12    1    1    2    0    0  0.10534893875E+02 -0.10784193985E+02 -0.11108454776E+02  0.18726467803E+02  0.00000000000E+00 0. -1.
         11    1    3    3    0    0 -0.17637743594E+02  0.45632819059E+01 -0.10787312975E+02  0.21172615859E+02  0.51100000000E-03 0. -1.
        -11    1    3    3    0    0 -0.83942472768E+01  0.20074599076E+02  0.95040974693E+00  0.21779719795E+02  0.51100000000E-03 0.  1.
        -12    1    3    3    0    0  0.15497096996E+02 -0.13853686997E+02  0.20945358004E+02  0.29509196543E+02  0.00000000000E+00 0.  1.
</event>
<event>
 7    1  0.1465498E-013  0.7246161E+02  0.7816164E-02  0.1226708E+00
        -11   -1    0    0    0    0  0.00000000000E+00  0.00000000000E+00  0.45593999997E+02  0.45594000000E+02  0.51100000000E-03 0.  1.
         11   -1    0    0    0    0 -0.00000000000E+00 -0.00000000000E+00 -0.45593999997E+02  0.45594000000E+02  0.51100000000E-03 0. -1.
    9900012    2    1    2    0    0  0.24862119389E+00 -0.35458511430E+01  0.18385936818E+02  0.72461613656E+02  0.70000056486E+02 0.  0.
         12    1    1    2    0    0 -0.24862119389E+00  0.35458511430E+01 -0.18385936818E+02  0.18726386344E+02  0.00000000000E+00 0. -1.
         11    1    3    3    0    0  0.17611547886E+02 -0.59018168185E+01 -0.19043115440E+00  0.18575099596E+02  0.51100000000E-03 0. -1.
        -11    1    3    3    0    0 -0.18272585495E+01  0.23101715732E+02  0.15284062172E+02  0.27760235956E+02  0.51100000000E-03 0.  1.
         12    1    3    3    0    0 -0.15535668143E+02 -0.20745750057E+02  0.32923058007E+01  0.26126278104E+02  0.00000000000E+00 0. -1.
</event>
<event>
 7    1  0.1465498E-013  0.7246160E+02  0.7816164E-02  0.1226708E+00
        -11   -1    0    0    0    0  0.00000000000E+00  0.00000000000E+00  0.45593999997E+02  0.45594000000E+02  0.51100000000E-03 0. -1.
         11   -1    0    0    0    0 -0.00000000000E+00 -0.00000000000E+00 -0.45593999997E+02  0.45594000000E+02  0.51100000000E-03 0.  1.
    9900012    2    1    2    0    0  0.18277233730E+02 -0.40747085756E+01  0.13200658614E+00  0.72461602895E+02  0.70000042469E+02 0.  0.
         12    1    1    2    0    0 -0.18277233730E+02  0.40747085756E+01 -0.13200658614E+00  0.18726397105E+02  0.00000000000E+00 0. -1.
         11    1    3    3    0    0  0.10129819558E+02 -0.13495887989E+02 -0.59410804992E+01  0.17889904266E+02  0.51100000000E-03 0. -1.
        -11    1    3    3    0    0  0.28677127517E+02  0.73232272568E-01 -0.55286843385E+01  0.29205296718E+02  0.51100000000E-03 0.  1.
         12    1    3    3    0    0 -0.20529713345E+02  0.93479471406E+01  0.11601771424E+02  0.25366401912E+02  0.00000000000E+00 0. -1.
</event>
<event>
 7    1  0.1465498E-013  0.7246156E+02  0.7816164E-02  0.1226708E+00
        -11   -1    0    0    0    0  0.00000000000E+00  0.00000000000E+00  0.45593999997E+02  0.45594000000E+02  0.51100000000E-03 0.  1.
         11   -1    0    0    0    0 -0.00000000000E+00 -0.00000000000E+00 -0.45593999997E+02  0.45594000000E+02  0.51100000000E-03 0. -1.
    9900012    2    1    2    0    0  0.69925497359E+01  0.17306155460E+02  0.15102200563E+01  0.72461560583E+02  0.69999987350E+02 0.  0.
         12    1    1    2    0    0 -0.69925497359E+01 -0.17306155460E+02 -0.15102200563E+01  0.18726439417E+02  0.00000000000E+00 0. -1.
         11    1    3    3    0    0  0.11789520157E+02 -0.15220253021E+02 -0.17957570271E+02  0.26327233388E+02  0.51100000000E-03 0. -1.
        -11    1    3    3    0    0  0.49600921992E+00  0.63707920035E+01  0.18343727123E+02  0.19424863987E+02  0.51100000000E-03 0.  1.
        -12    1    3    3    0    0 -0.52929796411E+01  0.26155616478E+02  0.11240632043E+01  0.26709463209E+02  0.00000000000E+00 0.  1.
</event>
<event>
 7    1  0.1465498E-013  0.7246154E+02  0.7816164E-02  0.1226708E+00
        -11   -1    0    0    0    0  0.00000000000E+00  0.00000000000E+00  0.45593999997E+02  0.45594000000E+02  0.51100000000E-03 0.  1.
         11   -1    0    0    0    0 -0.00000000000E+00 -0.00000000000E+00 -0.45593999997E+02  0.45594000000E+02  0.51100000000E-03 0. -1.
    9900012    2    1    2    0    0  0.11397227178E+02  0.54813881655E+01  0.13810790266E+02  0.72461539274E+02  0.69999959590E+02 0.  0.
         12    1    1    2    0    0 -0.11397227178E+02 -0.54813881655E+01 -0.13810790266E+02  0.18726460726E+02  0.00000000000E+00 0. -1.
         11    1    3    3    0    0 -0.18990464844E+02 -0.10538624756E+02  0.89474159227E+01  0.23489500180E+02  0.51100000000E-03 0. -1.
        -11    1    3    3    0    0  0.57504728788E+01 -0.10740120777E+02 -0.55992647966E+00  0.12195558641E+02  0.51100000000E-03 0.  1.
        -12    1    3    3    0    0  0.24637219144E+02  0.26760133699E+02  0.54233008226E+01  0.36776480453E+02  0.00000000000E+00 0.  1.
</event>
<event>
 7    1  0.1465498E-013  0.7246101E+02  0.7816164E-02  0.1226710E+00
        -11   -1    0    0    0    0  0.00000000000E+00  0.00000000000E+00  0.45593999997E+02  0.45594000000E+02  0.51100000000E-03 0. -1.
         11   -1    0    0    0    0 -0.00000000000E+00 -0.00000000000E+00 -0.45593999997E+02  0.45594000000E+02  0.51100000000E-03 0.  1.
    9900012    2    1    2    0    0 -0.55988238542E+01  0.88968341197E+01 -0.15498381897E+02  0.72461005384E+02  0.69999264096E+02 0.  0.
         12    1    1    2    0    0  0.55988238542E+01 -0.88968341197E+01  0.15498381897E+02  0.18726994616E+02  0.00000000000E+00 0. -1.
         11    1    3    3    0    0 -0.47550183123E+01 -0.89567920020E+01  0.14439433016E+02  0.17644589771E+02  0.51100000000E-03 0. -1.
        -11    1    3    3    0    0  0.59104474772E+01 -0.89914473845E+00  0.91557763318E+01  0.10934810979E+02  0.51100000000E-03 0.  1.
        -12    1    3    3    0    0 -0.67542530192E+01  0.18752770860E+02 -0.39093591245E+02  0.43881604634E+02  0.00000000000E+00 0.  1.
</event>
<event>
 7    1  0.1465498E-013  0.7246150E+02  0.7816164E-02  0.1226708E+00
        -11   -1    0    0    0    0  0.00000000000E+00  0.00000000000E+00  0.45593999997E+02  0.45594000000E+02  0.51100000000E-03 0.  1.
         11   -1    0    0    0    0 -0.00000000000E+00 -0.00000000000E+00 -0.45593999997E+02  0.45594000000E+02  0.51100000000E-03 0. -1.
    9900012    2    1    2    0    0 -0.24862407233E+01  0.10515963937E+02  0.15294278348E+02  0.72461498975E+02  0.69999907093E+02 0.  0.
         12    1    1    2    0    0  0.24862407233E+01 -0.10515963937E+02 -0.15294278348E+02  0.18726501025E+02  0.00000000000E+00 0. -1.
         11    1    3    3    0    0  0.81148138991E+01  0.79010245694E+01 -0.99624009264E+01  0.15083959240E+02  0.51100000000E-03 0. -1.
        -11    1    3    3    0    0 -0.71318401527E+01  0.10995377760E+02 -0.12761402950E+02  0.18292481558E+02  0.51100000000E-03 0.  1.
        -12    1    3    3    0    0 -0.34692144697E+01 -0.83804383918E+01  0.38018082224E+02  0.39085058177E+02  0.00000000000E+00 0.  1.
</event>
<event>
 7    1  0.1465498E-013  0.7246160E+02  0.7816164E-02  0.1226708E+00
        -11   -1    0    0    0    0  0.00000000000E+00  0.00000000000E+00  0.45593999997E+02  0.45594000000E+02  0.51100000000E-03 0.  1.
         11   -1    0    0    0    0 -0.00000000000E+00 -0.00000000000E+00 -0.45593999997E+02  0.45594000000E+02  0.51100000000E-03 0. -1.
    9900012    2    1    2    0    0 -0.11922811403E+02  0.49402465312E+01  0.13569032944E+02  0.72461598248E+02  0.70000036414E+02 0.  0.
         12    1    1    2    0    0  0.11922811403E+02 -0.49402465312E+01 -0.13569032944E+02  0.18726401752E+02  0.00000000000E+00 0. -1.
         11    1    3    3    0    0  0.64030221080E+01  0.69793220422E+01  0.13813153235E+02  0.16748517273E+02  0.51100000000E-03 0. -1.
        -11    1    3    3    0    0 -0.30418953911E+02  0.42200492624E+01  0.15908881906E+02  0.34586328174E+02  0.51100000000E-03 0.  1.
         12    1    3    3    0    0  0.12093120399E+02 -0.62591247734E+01 -0.16153002197E+02  0.21126752801E+02  0.00000000000E+00 0. -1.
</event>
<event>
 7    1  0.1803100E-013  0.7246159E+02  0.7816164E-02  0.1226708E+00
        -11   -1    0    0    0    0  0.00000000000E+00  0.00000000000E+00  0.45593999997E+02  0.45594000000E+02  0.51100000000E-03 0. -1.
         11   -1    0    0    0    0 -0.00000000000E+00 -0.00000000000E+00 -0.45593999997E+02  0.45594000000E+02  0.51100000000E-03 0.  1.
    9900012    2    1    2    0    0  0.15258650027E+02  0.40348123426E+01 -0.10078309973E+02  0.72461589688E+02  0.70000025263E+02 0.  0.
         12    1    1    2    0    0 -0.15258650027E+02 -0.40348123426E+01  0.10078309973E+02  0.18726410312E+02  0.00000000000E+00 0. -1.
         11    1    3    3    0    0  0.15233811585E+02 -0.13033020001E+02  0.15743375277E+02  0.25490831511E+02  0.51100000000E-03 0. -1.
        -11    1    3    3    0    0 -0.67729166060E+01  0.17010996721E+01  0.71312369415E+01  0.99810159815E+01  0.51100000000E-03 0.  1.
        -12    1    3    3    0    0  0.67977550481E+01  0.15366732671E+02 -0.32952922191E+02  0.36989742195E+02  0.00000000000E+00 0.  1.
</event>
<event>
 7    1  0.1465498E-013  0.7246156E+02  0.7816164E-02  0.1226708E+00
        -11   -1    0    0    0    0  0.00000000000E+00  0.00000000000E+00  0.45593999997E+02  0.45594000000E+02  0.51100000000E-03 0. -1.
         11   -1    0    0    0    0 -0.00000000000E+00 -0.00000000000E+00 -0.45593999997E+02  0.45594000000E+02  0.51100000000E-03 0.  1.
    9900012    2    1    2    0    0  0.14956731346E+02  0.11224428943E+02  0.99398902393E+00  0.72461557951E+02  0.69999983920E+02 0.  0.
         12    1    1    2    0    0 -0.14956731346E+02 -0.11224428943E+02 -0.99398902393E+00  0.18726442049E+02  0.00000000000E+00 0. -1.
         11    1    3    3    0    0 -0.24852881634E+02  0.12348871014E+02 -0.12288970618E+01  0.27778958388E+02  0.51100000000E-03 0. -1.
        -11    1    3    3    0    0  0.21502221526E+01 -0.48550581425E+01 -0.35694966310E+01  0.63981521811E+01  0.51100000000E-03 0.  1.
        -12    1    3    3    0    0  0.37659390828E+02  0.37306160718E+01  0.57923827167E+01  0.38284447382E+02  0.00000000000E+00 0.  1.
</event>
<event>
 7    1  0.1465498E-013  0.7246159E+02  0.7816164E-02  0.1226708E+00
        -11   -1    0    0    0    0  0.00000000000E+00  0.00000000000E+00  0.45593999997E+02  0.45594000000E+02  0.51100000000E-03 0. -1.
         11   -1    0    0    0    0 -0.00000000000E+00 -0.00000000000E+00 -0.45593999997E+02  0.45594000000E+02  0.51100000000E-03 0.  1.
    9900012    2    1    2    0    0  0.41754576627E+01 -0.86718385601E+01 -0.16063722912E+02  0.72461590186E+02  0.70000025913E+02 0.  0.
         12    1    1    2    0    0 -0.41754576627E+01  0.86718385601E+01  0.16063722912E+02  0.18726409814E+02  0.00000000000E+00 0. -1.
         11    1    3    3    0    0  0.98370600856E+01 -0.13951145861E+02  0.53072348018E+01  0.17876491923E+02  0.51100000000E-03 0. -1.
        -11    1    3    3    0    0  0.20097254505E+02  0.29354936996E+01  0.10743057642E+01  0.20338901029E+02  0.51100000000E-03 0.  1.
        -12    1    3    3    0    0 -0.25758856928E+02  0.23438136013E+01 -0.22445263478E+02  0.34246197235E+02  0.00000000000E+00 0.  1.
</event>
<event>
 7    1  0.1465498E-013  0.7246146E+02  0.7816164E-02  0.1226708E+00
        -11   -1    0    0    0    0  0.00000000000E+00  0.00000000000E+00  0.45593999997E+02  0.45594000000E+02  0.51100000000E-03 0.  1.
         11   -1    0    0    0    0 -0.00000000000E+00 -0.00000000000E+00 -0.45593999997E+02  0.45594000000E+02  0.51100000000E-03 0. -1.
    9900012    2    1    2    0    0  0.73497475534E+01 -0.10719419328E+02  0.13481781264E+02  0.72461463591E+02  0.69999860999E+02 0.  0.
         12    1    1    2    0    0 -0.73497475534E+01  0.10719419328E+02 -0.13481781264E+02  0.18726536409E+02  0.00000000000E+00 0. -1.
         11    1    3    3    0    0  0.25937133022E+02  0.15013765483E+02  0.41594026375E+01  0.30256382037E+02  0.51100000000E-03 0. -1.
        -11    1    3    3    0    0  0.11276395560E+01  0.71565380151E+00 -0.57741506333E+01  0.59265965891E+01  0.51100000000E-03 0.  1.
        -12    1    3    3    0    0 -0.19715025025E+02 -0.26448838612E+02  0.15096529260E+02  0.36278484965E+02  0.00000000000E+00 0.  1.
</event>
<event>
 7    1  0.2593219E-013  0.7246152E+02  0.7816164E-02  0.1226708E+00
        -11   -1    0    0    0    0  0.00000000000E+00  0.00000000000E+00  0.45593999997E+02  0.45594000000E+02  0.51100000000E-03 0. -1.
         11   -1    0    0    0    0 -0.00000000000E+00 -0.00000000000E+00 -0.45593999997E+02  0.45594000000E+02  0.51100000000E-03 0.  1.
    9900012    2    1    2    0    0  0.64644253097E+01  0.14403105577E+02 -0.10071886929E+02  0.72461517384E+02  0.69999931075E+02 0.  0.
         12    1    1    2    0    0 -0.64644253097E+01 -0.14403105577E+02  0.10071886929E+02  0.18726482616E+02  0.00000000000E+00 0. -1.
         11    1    3    3    0    0  0.12935118228E+02 -0.85492533816E+01  0.19657468870E+02  0.25036435441E+02  0.51100000000E-03 0. -1.
        -11    1    3    3    0    0 -0.13144640002E+02  0.17210406225E+01 -0.17738198033E+02  0.22144688106E+02  0.51100000000E-03 0.  1.
        -12    1    3    3    0    0  0.66739470831E+01  0.21231318336E+02 -0.11991157766E+02  0.25280393836E+02  0.00000000000E+00 0.  1.
</event>
<event>
 7    1  0.1465498E-013  0.7246150E+02  0.7816164E-02  0.1226708E+00
        -11   -1    0    0    0    0  0.00000000000E+00  0.00000000000E+00  0.45593999997E+02  0.45594000000E+02  0.51100000000E-03 0. -1.
         11   -1    0    0    0    0 -0.00000000000E+00 -0.00000000000E+00 -0.45593999997E+02  0.45594000000E+02  0.51100000000E-03 0.  1.
    9900012    2    1    2    0    0 -0.18523048214E+02 -0.19601546647E+01  0.19329652651E+01  0.72461498026E+02  0.69999905858E+02 0.  0.
         12    1    1    2    0    0  0.18523048214E+02  0.19601546647E+01 -0.19329652651E+01  0.18726501974E+02  0.00000000000E+00 0. -1.
         11    1    3    3    0    0 -0.60388996906E+01  0.72681962963E+01  0.59692651228E+00  0.94684374844E+01  0.51100000000E-03 0. -1.
        -11    1    3    3    0    0 -0.35449258398E+01  0.95647944273E+01 -0.26408979638E+02  0.28310528032E+02  0.51100000000E-03 0.  1.
         12    1    3    3    0    0 -0.89392226837E+01 -0.18793145388E+02  0.27745018391E+02  0.34682532510E+02  0.00000000000E+00 0. -1.
</event>
<event>
 7    1  0.1465498E-013  0.7246153E+02  0.7816164E-02  0.1226708E+00
        -11   -1    0    0    0    0  0.00000000000E+00  0.00000000000E+00  0.45593999997E+02  0.45594000000E+02  0.51100000000E-03 0.  1.
         11   -1    0    0    0    0 -0.00000000000E+00 -0.00000000000E+00 -0.45593999997E+02  0.45594000000E+02  0.51100000000E-03 0. -1.
    9900012    2    1    2    0    0  0.15770588228E+01  0.18329388181E+02  0.34967259655E+01  0.72461530015E+02  0.69999947529E+02 0.  0.
         12    1    1    2    0    0 -0.15770588228E+01 -0.18329388181E+02 -0.34967259655E+01  0.18726469985E+02  0.00000000000E+00 0. -1.
         11    1    3    3    0    0 -0.33992495529E+01  0.33516248930E+01  0.22904192092E+01  0.52947433707E+01  0.51100000000E-03 0. -1.
        -11    1    3    3    0    0 -0.24206949513E+02  0.25965752943E+02 -0.33306900206E+01  0.35655157087E+02  0.51100000000E-03 0.  1.
         12    1    3    3    0    0  0.29183257888E+02 -0.10987989655E+02  0.45369967769E+01  0.31511629558E+02  0.00000000000E+00 0. -1.
</event>
<event>
 7    1  0.1465498E-013  0.7246160E+02  0.7816164E-02  0.1226708E+00
        -11   -1    0    0    0    0  0.00000000000E+00  0.00000000000E+00  0.45593999997E+02  0.45594000000E+02  0.51100000000E-03 0. -1.
         11   -1    0    0    0    0 -0.00000000000E+00 -0.00000000000E+00 -0.45593999997E+02  0.45594000000E+02  0.51100000000E-03 0.  1.
    9900012    2    1    2    0    0  0.17173719975E+02  0.24789153525E+01  0.70424769475E+01  0.72461597231E+02  0.70000035090E+02 0.  0.
         12    1    1    2    0    0 -0.17173719975E+02 -0.24789153525E+01 -0.70424769475E+01  0.18726402769E+02  0.00000000000E+00 0. -1.
         11    1    3    3    0    0  0.26552667217E+02  0.21083004336E+02  0.36049571448E+01  0.34095937066E+02  0.51100000000E-03 0. -1.
        -11    1    3    3    0    0  0.86178317980E+01  0.33547519020E-01  0.83454971638E+01  0.11996477546E+02  0.51100000000E-03 0.  1.
        -12    1    3    3    0    0 -0.17996779040E+02 -0.18637636503E+02 -0.49079773611E+01  0.26369182619E+02  0.00000000000E+00 0.  1.
</event>
<event>
 7    1  0.1465498E-013  0.7246154E+02  0.7816164E-02  0.1226708E+00
        -11   -1    0    0    0    0  0.00000000000E+00  0.00000000000E+00  0.45593999997E+02  0.45594000000E+02  0.51100000000E-03 0. -1.
         11   -1    0    0    0    0 -0.00000000000E+00 -0.00000000000E+00 -0.45593999997E+02  0.45594000000E+02  0.51100000000E-03 0.  1.
    9900012    2    1    2    0    0  0.13373583956E+02  0.66177298205E+01 -0.11315171313E+02  0.72461542843E+02  0.69999964239E+02 0.  0.
         12    1    1    2    0    0 -0.13373583956E+02 -0.66177298205E+01  0.11315171313E+02  0.18726457157E+02  0.00000000000E+00 0. -1.
         11    1    3    3    0    0  0.23135313335E+01  0.61529314694E+01  0.14658029407E+02  0.16064520511E+02  0.51100000000E-03 0. -1.
        -11    1    3    3    0    0 -0.57591041537E+01 -0.25248613590E+01  0.12670941022E+02  0.14145492292E+02  0.51100000000E-03 0.  1.
        -12    1    3    3    0    0  0.16819156776E+02  0.29896597101E+01 -0.38644141741E+02  0.42251530041E+02  0.00000000000E+00 0.  1.
</event>
<event>
 7    1  0.1465498E-013  0.7246161E+02  0.7816164E-02  0.1226708E+00
        -11   -1    0    0    0    0  0.00000000000E+00  0.00000000000E+00  0.45593999997E+02  0.45594000000E+02  0.51100000000E-03 0. -1.
         11   -1    0    0    0    0 -0.00000000000E+00 -0.00000000000E+00 -0.45593999997E+02  0.45594000000E+02  0.51100000000E-03 0.  1.
    9900012    2    1    2    0    0 -0.40893024238E+01  0.18173310382E+02 -0.19199126296E+01  0.72461610357E+02  0.70000052189E+02 0.  0.
         12    1    1    2    0    0  0.40893024238E+01 -0.18173310382E+02  0.19199126296E+01  0.18726389643E+02  0.00000000000E+00 0. -1.
         11    1    3    3    0    0 -0.22422619309E+02  0.87511348572E+01 -0.77489206837E+01  0.25286399309E+02  0.51100000000E-03 0. -1.
        -11    1    3    3    0    0 -0.13639513266E+01  0.54387407593E+01 -0.16327014935E+02  0.17263014836E+02  0.51100000000E-03 0.  1.
         12    1    3    3    0    0  0.19697268212E+02  0.39834347657E+01  0.22156022989E+02  0.29912196212E+02  0.00000000000E+00 0. -1.
</event>
<event>
 7    1  0.1465498E-013  0.7246158E+02  0.7816164E-02  0.1226708E+00
        -11   -1    0    0    0    0  0.00000000000E+00  0.00000000000E+00  0.45593999997E+02  0.45594000000E+02  0.51100000000E-03 0.  1.
         11   -1    0    0    0    0 -0.00000000000E+00 -0.00000000000E+00 -0.45593999997E+02  0.45594000000E+02  0.51100000000E-03 0. -1.
    9900012    2    1    2    0    0  0.49074515671E+01  0.63722112826E+01  0.16911256492E+02  0.72461581398E+02  0.70000014465E+02 0.  0.
         12    1    1    2    0    0 -0.49074515671E+01 -0.63722112826E+01 -0.16911256492E+02  0.18726418602E+02  0.00000000000E+00 0. -1.
         11    1    3    3    0    0  0.65046898717E+01  0.12778983161E+02 -0.28828584726E+01  0.14626150355E+02  0.51100000000E-03 0. -1.
        -11    1    3    3    0    0 -0.17473443903E+02  0.14166350320E+02  0.22366544526E+02  0.31721743923E+02  0.51100000000E-03 0.  1.
         12    1    3    3    0    0  0.15876205598E+02 -0.20573122199E+02 -0.25724295610E+01  0.26113687121E+02  0.00000000000E+00 0. -1.
</event>
<event>
 7    1  0.1465498E-013  0.7246108E+02  0.7816164E-02  0.1226709E+00
        -11   -1    0    0    0    0  0.00000000000E+00  0.00000000000E+00  0.45593999997E+02  0.45594000000E+02  0.51100000000E-03 0. -1.
         11   -1    0    0    0    0 -0.00000000000E+00 -0.00000000000E+00 -0.45593999997E+02  0.45594000000E+02  0.51100000000E-03 0.  1.
    9900012    2    1    2    0    0 -0.36064052038E+01  0.18114468770E+02  0.30915148273E+01  0.72461078169E+02  0.69999358913E+02 0.  0.
         12    1    1    2    0    0  0.36064052038E+01 -0.18114468770E+02 -0.30915148273E+01  0.18726921831E+02  0.00000000000E+00 0. -1.
         11    1    3    3    0    0 -0.93751842577E+01  0.69722376883E+01 -0.11834193778E+01  0.11743366635E+02  0.51100000000E-03 0. -1.
        -11    1    3    3    0    0 -0.24438162858E+01  0.11982491382E+02 -0.26323331962E+02  0.29025336236E+02  0.51100000000E-03 0.  1.
         12    1    3    3    0    0  0.82125953397E+01 -0.84026030055E+00  0.30598266167E+02  0.31692375298E+02  0.00000000000E+00 0. -1.
</event>
<event>
 7    1  0.1465498E-013  0.7246156E+02  0.7816164E-02  0.1226708E+00
        -11   -1    0    0    0    0  0.00000000000E+00  0.00000000000E+00  0.45593999997E+02  0.45594000000E+02  0.51100000000E-03 0. -1.
         11   -1    0    0    0    0 -0.00000000000E+00 -0.00000000000E+00 -0.45593999997E+02  0.45594000000E+02  0.51100000000E-03 0.  1.
    9900012    2    1    2    0    0  0.17727688996E+02 -0.23607486906E+01  0.55529645705E+01  0.72461561282E+02  0.69999988260E+02 0.  0.
         12    1    1    2    0    0 -0.17727688996E+02  0.23607486906E+01 -0.55529645705E+01  0.18726438718E+02  0.00000000000E+00 0. -1.
         11    1    3    3    0    0  0.87811295455E+01  0.46721806144E+01  0.26706906554E+02  0.28499059032E+02  0.51100000000E-03 0. -1.
        -11    1    3    3    0    0 -0.11345582454E+02 -0.32184886310E+01  0.30172140121E+01  0.12173105230E+02  0.51100000000E-03 0.  1.
        -12    1    3    3    0    0  0.20292141905E+02 -0.38144406740E+01 -0.24171155995E+02  0.31789397020E+02  0.00000000000E+00 0.  1.
</event>
<event>
 7    1  0.1465498E-013  0.7246156E+02  0.7816164E-02  0.1226708E+00
        -11   -1    0    0    0    0  0.00000000000E+00  0.00000000000E+00  0.45593999997E+02  0.45594000000E+02  0.51100000000E-03 0.  1.
         11   -1    0    0    0    0 -0.00000000000E+00 -0.00000000000E+00 -0.45593999997E+02  0.45594000000E+02  0.51100000000E-03 0. -1.
    9900012    2    1    2    0    0  0.15545987478E+02 -0.10341027265E+02 -0.14369808336E+01  0.72461561859E+02  0.69999989011E+02 0.  0.
         12    1    1    2    0    0 -0.15545987478E+02  0.10341027265E+02  0.14369808336E+01  0.18726438141E+02  0.00000000000E+00 0. -1.
         11    1    3    3    0    0  0.13932506769E+02 -0.70236771995E+01 -0.67468143554E+01  0.16999008515E+02  0.51100000000E-03 0. -1.
        -11    1    3    3    0    0 -0.98378435216E+00 -0.28712916721E+02 -0.23074827329E+01  0.28822281226E+02  0.51100000000E-03 0.  1.
         12    1    3    3    0    0  0.25972650606E+01  0.25395566656E+02  0.76173162547E+01  0.26640272117E+02  0.00000000000E+00 0. -1.
</event>
<event>
 7    1  0.1465498E-013  0.7246156E+02  0.7816164E-02  0.1226708E+00
        -11   -1    0    0    0    0  0.00000000000E+00  0.00000000000E+00  0.45593999997E+02  0.45594000000E+02  0.51100000000E-03 0.  1.
         11   -1    0    0    0    0 -0.00000000000E+00 -0.00000000000E+00 -0.45593999997E+02  0.45594000000E+02  0.51100000000E-03 0. -1.
    9900012    2    1    2    0    0  0.29597314648E+01 -0.18471939373E+02 -0.84083028577E+00  0.72461560132E+02  0.69999986762E+02 0.  0.
         12    1    1    2    0    0 -0.29597314648E+01  0.18471939373E+02  0.84083028577E+00  0.18726439868E+02  0.00000000000E+00 0. -1.
         11    1    3    3    0    0 -0.12075366669E+02  0.14207922445E+00 -0.13336314709E+02  0.17991441215E+02  0.51100000000E-03 0. -1.
        -11    1    3    3    0    0 -0.11636831773E+02 -0.73345128089E+01  0.20260009090E+02  0.24488342134E+02  0.51100000000E-03 0.  1.
         12    1    3    3    0    0  0.26671929907E+02 -0.11279505789E+02 -0.77645246671E+01  0.29981776784E+02  0.00000000000E+00 0. -1.
</event>
<event>
 7    1  0.1465498E-013  0.7246178E+02  0.7816164E-02  0.1226707E+00
        -11   -1    0    0    0    0  0.00000000000E+00  0.00000000000E+00  0.45593999997E+02  0.45594000000E+02  0.51100000000E-03 0.  1.
         11   -1    0    0    0    0 -0.00000000000E+00 -0.00000000000E+00 -0.45593999997E+02  0.45594000000E+02  0.51100000000E-03 0. -1.
    9900012    2    1    2    0    0 -0.11420083302E+02 -0.14002246669E+02  0.49183470250E+01  0.72461779028E+02  0.70000271914E+02 0.  0.
         12    1    1    2    0    0  0.11420083302E+02  0.14002246669E+02 -0.49183470250E+01  0.18726220972E+02  0.00000000000E+00 0. -1.
         11    1    3    3    0    0  0.10060838696E+02 -0.13747537318E+01 -0.17134588648E+02  0.19917443398E+02  0.51100000000E-03 0. -1.
        -11    1    3    3    0    0  0.27170819271E+01 -0.21124563784E+02  0.54233345723E+01  0.21978223027E+02  0.51100000000E-03 0.  1.
        -12    1    3    3    0    0 -0.24198003925E+02  0.84970708464E+01  0.16629601101E+02  0.30566112604E+02  0.00000000000E+00 0.  1.
</event>
<event>
 7    1  0.1465498E-013  0.7246155E+02  0.7816164E-02  0.1226708E+00
        -11   -1    0    0    0    0  0.00000000000E+00  0.00000000000E+00  0.45593999997E+02  0.45594000000E+02  0.51100000000E-03 0.  1.
         11   -1    0    0    0    0 -0.00000000000E+00 -0.00000000000E+00 -0.45593999997E+02  0.45594000000E+02  0.51100000000E-03 0. -1.
    9900012    2    1    2    0    0 -0.68584976789E+01 -0.83805757212E+01  0.15277653715E+02  0.72461554986E+02  0.69999980058E+02 0.  0.
         12    1    1    2    0    0  0.68584976789E+01  0.83805757212E+01 -0.15277653715E+02  0.18726445014E+02  0.00000000000E+00 0. -1.
         11    1    3    3    0    0 -0.21042778091E+02  0.36796820813E+01  0.15026030623E+02  0.26117430320E+02  0.51100000000E-03 0. -1.
        -11    1    3    3    0    0 -0.13593305861E+02  0.40742744470E+01 -0.68134563898E+00  0.14207107680E+02  0.51100000000E-03 0.  1.
         12    1    3    3    0    0  0.27777586273E+02 -0.16134532249E+02  0.93296873134E+00  0.32137016985E+02  0.00000000000E+00 0. -1.
</event>
<event>
 7    1  0.1465498E-013  0.7246149E+02  0.7816164E-02  0.1226708E+00
        -11   -1    0    0    0    0  0.00000000000E+00  0.00000000000E+00  0.45593999997E+02  0.45594000000E+02  0.51100000000E-03 0.  1.
         11   -1    0    0    0    0 -0.00000000000E+00 -0.00000000000E+00 -0.45593999997E+02  0.45594000000E+02  0.51100000000E-03 0. -1.
    9900012    2    1    2    0    0 -0.15872202045E+02  0.39688745105E+01  0.91106163894E+01  0.72461492220E+02  0.69999898294E+02 0.  0.
         12    1    1    2    0    0  0.15872202045E+02 -0.39688745105E+01 -0.91106163894E+01  0.18726507780E+02  0.00000000000E+00 0. -1.
         11    1    3    3    0    0 -0.37067464053E+02 -0.49501726456E+01  0.81530065813E+01  0.38274960707E+02  0.51100000000E-03 0. -1.
        -11    1    3    3    0    0 -0.11932553874E+01  0.19294170362E+00 -0.83358334256E+01  0.84230163291E+01  0.51100000000E-03 0.  1.
        -12    1    3    3    0    0  0.22388517395E+02  0.87261054525E+01  0.92934432336E+01  0.25763515185E+02  0.00000000000E+00 0.  1.
</event>
<event>
 7    1  0.1465498E-013  0.7246160E+02  0.7816164E-02  0.1226708E+00
        -11   -1    0    0    0    0  0.00000000000E+00  0.00000000000E+00  0.45593999997E+02  0.45594000000E+02  0.51100000000E-03 0. -1.
         11   -1    0    0    0    0 -0.00000000000E+00 -0.00000000000E+00 -0.45593999997E+02  0.45594000000E+02  0.51100000000E-03 0.  1.
    9900012    2    1    2    0    0 -0.92764345888E+01  0.43242394098E+01  0.15682048887E+02  0.72461603058E+02  0.70000042680E+02 0.  0.
         12    1    1    2    0    0  0.92764345888E+01 -0.43242394098E+01 -0.15682048887E+02  0.18726396942E+02  0.00000000000E+00 0. -1.
         11    1    3    3    0    0 -0.33653578719E+01  0.86746580327E+01  0.28321738123E+02  0.29811007634E+02  0.51100000000E-03 0. -1.
        -11    1    3    3    0    0 -0.17260488073E+02  0.89406208256E+01  0.24087638147E+01  0.19587273742E+02  0.51100000000E-03 0.  1.
        -12    1    3    3    0    0  0.11349411356E+02 -0.13291039449E+02 -0.15048453051E+02  0.23063321681E+02  0.00000000000E+00 0.  1.
</event>
<event>
 7    1  0.1465498E-013  0.7246190E+02  0.7816164E-02  0.1226707E+00
        -11   -1    0    0    0    0  0.00000000000E+00  0.00000000000E+00  0.45593999997E+02  0.45594000000E+02  0.51100000000E-03 0.  1.
         11   -1    0    0    0    0 -0.00000000000E+00 -0.00000000000E+00 -0.45593999997E+02  0.45594000000E+02  0.51100000000E-03 0. -1.
    9900012    2    1    2    0    0 -0.12400285752E+02  0.10491666772E+01  0.13992817850E+02  0.72461900865E+02  0.70000430628E+02 0.  0.
         12    1    1    2    0    0  0.12400285752E+02 -0.10491666772E+01 -0.13992817850E+02  0.18726099135E+02  0.00000000000E+00 0. -1.
         11    1    3    3    0    0 -0.94271297435E+01 -0.57264843849E+01 -0.80104429126E+01  0.13631969576E+02  0.51100000000E-03 0. -1.
        -11    1    3    3    0    0 -0.27852577721E+02  0.48695352604E+01  0.18105236355E+02  0.33574961550E+02  0.51100000000E-03 0.  1.
         12    1    3    3    0    0  0.24879421713E+02  0.19061158017E+01  0.38980244076E+01  0.25254969738E+02  0.00000000000E+00 0. -1.
</event>
<event>
 7    1  0.1465498E-013  0.7246157E+02  0.7816164E-02  0.1226708E+00
        -11   -1    0    0    0    0  0.00000000000E+00  0.00000000000E+00  0.45593999997E+02  0.45594000000E+02  0.51100000000E-03 0. -1.
         11   -1    0    0    0    0 -0.00000000000E+00 -0.00000000000E+00 -0.45593999997E+02  0.45594000000E+02  0.51100000000E-03 0.  1.
    9900012    2    1    2    0    0  0.36064758995E+01 -0.10318633868E+02 -0.15205204469E+02  0.72461571716E+02  0.70000001852E+02 0.  0.
         12    1    1    2    0    0 -0.36064758995E+01  0.10318633868E+02  0.15205204469E+02  0.18726428284E+02  0.00000000000E+00 0. -1.
         11    1    3    3    0    0  0.17321211639E+02  0.60155664156E+01 -0.25047019657E+01  0.18506348752E+02  0.51100000000E-03 0. -1.
        -11    1    3    3    0    0  0.78308825658E+01 -0.10110139632E+02 -0.25215527424E+02  0.28272963564E+02  0.51100000000E-03 0.  1.
        -12    1    3    3    0    0 -0.21545618305E+02 -0.62240606516E+01  0.12515024920E+02  0.25682259400E+02  0.00000000000E+00 0.  1.
</event>
<event>
 7    1  0.1465498E-013  0.7246159E+02  0.7816164E-02  0.1226708E+00
        -11   -1    0    0    0    0  0.00000000000E+00  0.00000000000E+00  0.45593999997E+02  0.45594000000E+02  0.51100000000E-03 0.  1.
         11   -1    0    0    0    0 -0.00000000000E+00 -0.00000000000E+00 -0.45593999997E+02  0.45594000000E+02  0.51100000000E-03 0. -1.
    9900012    2    1    2    0    0  0.32816992530E+00 -0.22868220115E+01  0.18583360170E+02  0.72461587487E+02  0.70000022397E+02 0.  0.
         12    1    1    2    0    0 -0.32816992530E+00  0.22868220115E+01 -0.18583360170E+02  0.18726412513E+02  0.00000000000E+00 0. -1.
         11    1    3    3    0    0 -0.12988198016E+02 -0.13147184797E+02 -0.58528197918E+00  0.18490113874E+02  0.51100000000E-03 0. -1.
        -11    1    3    3    0    0 -0.17694494517E+02  0.72253592572E+01  0.90702713543E+01  0.21155868579E+02  0.51100000000E-03 0.  1.
         12    1    3    3    0    0  0.31010862459E+02  0.36350035286E+01  0.10098370794E+02  0.32815605035E+02  0.00000000000E+00 0. -1.
</event>
<event>
 7    1  0.1465498E-013  0.7246161E+02  0.7816164E-02  0.1226708E+00
        -11   -1    0    0    0    0  0.00000000000E+00  0.00000000000E+00  0.45593999997E+02  0.45594000000E+02  0.51100000000E-03 0. -1.
         11   -1    0    0    0    0 -0.00000000000E+00 -0.00000000000E+00 -0.45593999997E+02  0.45594000000E+02  0.51100000000E-03 0.  1.
    9900012    2    1    2    0    0  0.52954744913E+01  0.13563726309E+02  0.11775438051E+02  0.72461610526E+02  0.70000052409E+02 0.  0.
         12    1    1    2    0    0 -0.52954744913E+01 -0.13563726309E+02 -0.11775438051E+02  0.18726389474E+02  0.00000000000E+00 0. -1.
         11    1    3    3    0    0  0.18426898211E+02 -0.19497360675E+02  0.13146779309E+02  0.29875331921E+02  0.51100000000E-03 0. -1.
        -11    1    3    3    0    0 -0.11764955975E+02  0.27594679820E+01  0.12075940971E+01  0.12144428204E+02  0.51100000000E-03 0.  1.
        -12    1    3    3    0    0 -0.13664677443E+01  0.30301619002E+02 -0.25789353552E+01  0.30441850400E+02  0.00000000000E+00 0.  1.
</event>
<event>
 7    1  0.1465498E-013  0.7246159E+02  0.7816164E-02  0.1226708E+00
        -11   -1    0    0    0    0  0.00000000000E+00  0.00000000000E+00  0.45593999997E+02  0.45594000000E+02  0.51100000000E-03 0.  1.
         11   -1    0    0    0    0 -0.00000000000E+00 -0.00000000000E+00 -0.45593999997E+02  0.45594000000E+02  0.51100000000E-03 0. -1.
    9900012    2    1    2    0    0  0.17427789516E+02 -0.67074924975E+01 -0.14000761551E+01  0.72461587736E+02  0.70000022722E+02 0.  0.
         12    1    1    2    0    0 -0.17427789516E+02  0.67074924975E+01  0.14000761551E+01  0.18726412264E+02  0.00000000000E+00 0. -1.
         11    1    3    3    0    0  0.88860348775E+01 -0.62437750734E+01 -0.10175950346E+02  0.14882752054E+02  0.51100000000E-03 0. -1.
        -11    1    3    3    0    0 -0.85704893793E+01  0.13633910999E+02 -0.17109508529E+02  0.23496214582E+02  0.51100000000E-03 0.  1.
        -12    1    3    3    0    0  0.17112244018E+02 -0.14097628424E+02  0.25885382719E+02  0.34082621100E+02  0.00000000000E+00 0.  1.
</event>
<event>
 7    1  0.1465498E-013  0.7246158E+02  0.7816164E-02  0.1226708E+00
        -11   -1    0    0    0    0  0.00000000000E+00  0.00000000000E+00  0.45593999997E+02  0.45594000000E+02  0.51100000000E-03 0.  1.
         11   -1    0    0    0    0 -0.00000000000E+00 -0.00000000000E+00 -0.45593999997E+02  0.45594000000E+02  0.51100000000E-03 0. -1.
    9900012    2    1    2    0    0 -0.29420541783E+01 -0.34280345010E+01  0.18173378240E+02  0.72461580695E+02  0.70000013549E+02 0.  0.
         12    1    1    2    0    0  0.29420541783E+01  0.34280345010E+01 -0.18173378240E+02  0.18726419305E+02  0.00000000000E+00 0. -1.
         11    1    3    3    0    0  0.54889090256E+01 -0.15136415930E+02 -0.20069815191E+02  0.25730073680E+02  0.51100000000E-03 0. -1.
        -11    1    3    3    0    0 -0.16462542693E+01  0.10488595951E+02  0.33046757832E+01  0.11119428062E+02  0.51100000000E-03 0.  1.
         12    1    3    3    0    0 -0.67847089346E+01  0.12197854779E+01  0.34938517648E+02  0.35612078953E+02  0.00000000000E+00 0. -1.
</event>
<event>
 7    1  0.1465498E-013  0.7246157E+02  0.7816164E-02  0.1226708E+00
        -11   -1    0    0    0    0  0.00000000000E+00  0.00000000000E+00  0.45593999997E+02  0.45594000000E+02  0.51100000000E-03 0. -1.
         11   -1    0    0    0    0 -0.00000000000E+00 -0.00000000000E+00 -0.45593999997E+02  0.45594000000E+02  0.51100000000E-03 0.  1.
    9900012    2    1    2    0    0 -0.12400377311E+02 -0.53512593569E+01 -0.12972046982E+02  0.72461565821E+02  0.69999994173E+02 0.  0.
         12    1    1    2    0    0  0.12400377311E+02  0.53512593569E+01  0.12972046982E+02  0.18726434179E+02  0.00000000000E+00 0. -1.
         11    1    3    3    0    0 -0.49164681915E+01 -0.82552363352E+01  0.10447023935E+02  0.14193692112E+02  0.51100000000E-03 0. -1.
        -11    1    3    3    0    0 -0.98059639508E+01 -0.24159931250E+02 -0.95434679800E+01  0.27765752076E+02  0.51100000000E-03 0.  1.
         12    1    3    3    0    0  0.23220548318E+01  0.27063908228E+02 -0.13875602937E+02  0.30502121633E+02  0.00000000000E+00 0. -1.
</event>
<event>
 7    1  0.1465498E-013  0.7246160E+02  0.7816164E-02  0.1226708E+00
        -11   -1    0    0    0    0  0.00000000000E+00  0.00000000000E+00  0.45593999997E+02  0.45594000000E+02  0.51100000000E-03 0.  1.
         11   -1    0    0    0    0 -0.00000000000E+00 -0.00000000000E+00 -0.45593999997E+02  0.45594000000E+02  0.51100000000E-03 0. -1.
    9900012    2    1    2    0    0  0.11304989576E+02 -0.14498722205E+02  0.35584405863E+01  0.72461595265E+02  0.70000032529E+02 0.  0.
         12    1    1    2    0    0 -0.11304989576E+02  0.14498722205E+02 -0.35584405863E+01  0.18726404735E+02  0.00000000000E+00 0. -1.
         11    1    3    3    0    0  0.95746393732E+01  0.77083537349E+01  0.95078851911E+01  0.15540023085E+02  0.51100000000E-03 0. -1.
        -11    1    3    3    0    0  0.16331834225E+02 -0.94986778772E+01  0.18021994448E+02  0.26110265696E+02  0.51100000000E-03 0.  1.
         12    1    3    3    0    0 -0.14601484022E+02 -0.12708398063E+02 -0.23971439053E+02  0.30811306484E+02  0.00000000000E+00 0. -1.
</event>
<event>
 7    1  0.1465498E-013  0.7246159E+02  0.7816164E-02  0.1226708E+00
        -11   -1    0    0    0    0  0.00000000000E+00  0.00000000000E+00  0.45593999997E+02  0.45594000000E+02  0.51100000000E-03 0.  1.
         11   -1    0    0    0    0 -0.00000000000E+00 -0.00000000000E+00 -0.45593999997E+02  0.45594000000E+02  0.51100000000E-03 0. -1.
    9900012    2    1    2    0    0 -0.68204757721E+01  0.93430425262E+01 -0.14726409670E+02  0.72461588834E+02  0.70000024151E+02 0.  0.
         12    1    1    2    0    0  0.68204757721E+01 -0.93430425262E+01  0.14726409670E+02  0.18726411166E+02  0.00000000000E+00 0. -1.
         11    1    3    3    0    0 -0.17323554609E+02  0.31023227894E+02  0.19145127143E+01  0.35583866743E+02  0.51100000000E-03 0. -1.
        -11    1    3    3    0    0  0.30109301294E+00 -0.32171889791E+01  0.54482640746E+01  0.63343937056E+01  0.51100000000E-03 0.  1.
        -12    1    3    3    0    0  0.10201985824E+02 -0.18462996388E+02 -0.22089186459E+02  0.30543328385E+02  0.00000000000E+00 0.  1.
</event>
<event>
 7    1  0.1465498E-013  0.7246159E+02  0.7816164E-02  0.1226708E+00
        -11   -1    0    0    0    0  0.00000000000E+00  0.00000000000E+00  0.45593999997E+02  0.45594000000E+02  0.51100000000E-03 0.  1.
         11   -1    0    0    0    0 -0.00000000000E+00 -0.00000000000E+00 -0.45593999997E+02  0.45594000000E+02  0.51100000000E-03 0. -1.
    9900012    2    1    2    0    0  0.71866693726E+00 -0.15085236105E+02  0.11072384851E+02  0.72461587188E+02  0.70000022008E+02 0.  0.
         12    1    1    2    0    0 -0.71866693726E+00  0.15085236105E+02 -0.11072384851E+02  0.18726412812E+02  0.00000000000E+00 0. -1.
         11    1    3    3    0    0 -0.52152958455E+01  0.31693432982E+00  0.13720719315E+02  0.14681890100E+02  0.51100000000E-03 0. -1.
        -11    1    3    3    0    0 -0.56488992950E+01  0.17519215983E+02  0.96412834460E+01  0.20779493224E+02  0.51100000000E-03 0.  1.
         12    1    3    3    0    0  0.11582862078E+02 -0.32921386418E+02 -0.12289617910E+02  0.37000203864E+02  0.00000000000E+00 0. -1.
</event>
<event>
 7    1  0.1465498E-013  0.7246157E+02  0.7816164E-02  0.1226708E+00
        -11   -1    0    0    0    0  0.00000000000E+00  0.00000000000E+00  0.45593999997E+02  0.45594000000E+02  0.51100000000E-03 0.  1.
         11   -1    0    0    0    0 -0.00000000000E+00 -0.00000000000E+00 -0.45593999997E+02  0.45594000000E+02  0.51100000000E-03 0. -1.
    9900012    2    1    2    0    0 -0.15675167193E+02  0.10211289071E+02  0.83533450278E+00  0.72461572825E+02  0.70000003297E+02 0.  0.
         12    1    1    2    0    0  0.15675167193E+02 -0.10211289071E+02 -0.83533450278E+00  0.18726427175E+02  0.00000000000E+00 0. -1.
         11    1    3    3    0    0  0.88888114407E+01 -0.45820542721E+01 -0.24700285636E+01  0.10300836449E+02  0.51100000000E-03 0. -1.
        -11    1    3    3    0    0 -0.45148550467E+01 -0.85667445176E+01  0.23450321415E+02  0.25371058363E+02  0.51100000000E-03 0.  1.
         12    1    3    3    0    0 -0.20049123587E+02  0.23360087861E+02 -0.20144958348E+02  0.36789678013E+02  0.00000000000E+00 0. -1.
</event>
<event>
 7    1  0.1465498E-013  0.7246181E+02  0.7816164E-02  0.1226707E+00
        -11   -1    0    0    0    0  0.00000000000E+00  0.00000000000E+00  0.45593999997E+02  0.45594000000E+02  0.51100000000E-03 0.  1.
         11   -1    0    0    0    0 -0.00000000000E+00 -0.00000000000E+00 -0.45593999997E+02  0.45594000000E+02  0.51100000000E-03 0. -1.
    9900012    2    1    2    0    0 -0.17053237619E+02 -0.61022449254E+01  0.47560380771E+01  0.72461809661E+02  0.70000311819E+02 0.  0.
         12    1    1    2    0    0  0.17053237619E+02  0.61022449254E+01 -0.47560380771E+01  0.18726190339E+02  0.00000000000E+00 0. -1.
         11    1    3    3    0    0 -0.72399819067E+01 -0.67726210380E+01 -0.17706321158E+02  0.20292844624E+02  0.51100000000E-03 0. -1.
        -11    1    3    3    0    0 -0.16167381887E+01  0.43671715398E+01 -0.13927123277E+02  0.14685053376E+02  0.51100000000E-03 0.  1.
        -12    1    3    3    0    0 -0.81965175236E+01 -0.36967954271E+01  0.36389482512E+02  0.37483911661E+02  0.00000000000E+00 0.  1.
</event>
<event>
 7    1  0.1465498E-013  0.7246154E+02  0.7816164E-02  0.1226708E+00
        -11   -1    0    0    0    0  0.00000000000E+00  0.00000000000E+00  0.45593999997E+02  0.45594000000E+02  0.51100000000E-03 0. -1.
         11   -1    0    0    0    0 -0.00000000000E+00 -0.00000000000E+00 -0.45593999997E+02  0.45594000000E+02  0.51100000000E-03 0.  1.
    9900012    2    1    2    0    0 -0.57562338469E+01 -0.17410084107E+02 -0.37993446836E+01  0.72461540732E+02  0.69999961489E+02 0.  0.
         12    1    1    2    0    0  0.57562338469E+01  0.17410084107E+02  0.37993446836E+01  0.18726459268E+02  0.00000000000E+00 0. -1.
         11    1    3    3    0    0  0.81188537249E+01 -0.25114585837E+02  0.11857348370E+02  0.28935357578E+02  0.51100000000E-03 0. -1.
        -11    1    3    3    0    0  0.10706897503E+02 -0.28736341329E+01 -0.12294456201E+02  0.16554427831E+02  0.51100000000E-03 0.  1.
         12    1    3    3    0    0 -0.24581985074E+02  0.10578135863E+02 -0.33622368524E+01  0.26971755323E+02  0.00000000000E+00 0. -1.
</event>
<event>
 7    1  0.1465498E-013  0.7246159E+02  0.7816164E-02  0.1226708E+00
        -11   -1    0    0    0    0  0.00000000000E+00  0.00000000000E+00  0.45593999997E+02  0.45594000000E+02  0.51100000000E-03 0. -1.
         11   -1    0    0    0    0 -0.00000000000E+00 -0.00000000000E+00 -0.45593999997E+02  0.45594000000E+02  0.51100000000E-03 0.  1.
    9900012    2    1    2    0    0  0.15027404095E+02 -0.20031349730E+01  0.10992867691E+02  0.72461586472E+02  0.70000021075E+02 0.  0.
         12    1    1    2    0    0 -0.15027404095E+02  0.20031349730E+01 -0.10992867691E+02  0.18726413528E+02  0.00000000000E+00 0. -1.
         11    1    3    3    0    0 -0.94658598385E+01 -0.17555377563E+02  0.22941861218E+02  0.30399387827E+02  0.51100000000E-03 0. -1.
        -11    1    3    3    0    0 -0.49452197635E+01  0.16042586681E+01 -0.75848044477E+01  0.91955480073E+01  0.51100000000E-03 0.  1.
        -12    1    3    3    0    0  0.29438483697E+02  0.13947983921E+02 -0.43641890793E+01  0.32866650638E+02  0.00000000000E+00 0.  1.
</event>
<event>
 7    1  0.1465498E-013  0.7246154E+02  0.7816164E-02  0.1226708E+00
        -11   -1    0    0    0    0  0.00000000000E+00  0.00000000000E+00  0.45593999997E+02  0.45594000000E+02  0.51100000000E-03 0.  1.
         11   -1    0    0    0    0 -0.00000000000E+00 -0.00000000000E+00 -0.45593999997E+02  0.45594000000E+02  0.51100000000E-03 0. -1.
    9900012    2    1    2    0    0  0.55407935671E+01  0.23893195525E+00  0.17886390874E+02  0.72461535829E+02  0.69999955103E+02 0.  0.
         12    1    1    2    0    0 -0.55407935671E+01 -0.23893195525E+00 -0.17886390874E+02  0.18726464171E+02  0.00000000000E+00 0. -1.
         11    1    3    3    0    0  0.37391211924E+01 -0.14592375970E+02  0.10267320851E+02  0.18230094390E+02  0.51100000000E-03 0. -1.
        -11    1    3    3    0    0  0.21481619952E+02 -0.63885377126E+01  0.11227199813E+02  0.25066380388E+02  0.51100000000E-03 0.  1.
         12    1    3    3    0    0 -0.19679947577E+02  0.21219845638E+02 -0.36081297898E+01  0.29165061051E+02  0.00000000000E+00 0. -1.
</event>
<event>
 7    1  0.1465498E-013  0.7246158E+02  0.7816164E-02  0.1226708E+00
        -11   -1    0    0    0    0  0.00000000000E+00  0.00000000000E+00  0.45593999997E+02  0.45594000000E+02  0.51100000000E-03 0. -1.
         11   -1    0    0    0    0 -0.00000000000E+00 -0.00000000000E+00 -0.45593999997E+02  0.45594000000E+02  0.51100000000E-03 0.  1.
    9900012    2    1    2    0    0 -0.14822313275E+02  0.11210854942E+02  0.23009826879E+01  0.72461581211E+02  0.70000014221E+02 0.  0.
         12    1    1    2    0    0  0.14822313275E+02 -0.11210854942E+02 -0.23009826879E+01  0.18726418789E+02  0.00000000000E+00 0. -1.
         11    1    3    3    0    0  0.50960122158E+01  0.23175237010E+01  0.64557893733E-01  0.55986091657E+01  0.51100000000E-03 0. -1.
        -11    1    3    3    0    0  0.17898486355E+01  0.10577853155E+02 -0.27780853813E+02  0.29780368942E+02  0.51100000000E-03 0.  1.
         12    1    3    3    0    0 -0.21708174126E+02 -0.16845219141E+01  0.30017278607E+02  0.37082603103E+02  0.00000000000E+00 0. -1.
</event>
<event>
 7    1  0.1465498E-013  0.7246161E+02  0.7816164E-02  0.1226708E+00
        -11   -1    0    0    0    0  0.00000000000E+00  0.00000000000E+00  0.45593999997E+02  0.45594000000E+02  0.51100000000E-03 0.  1.
         11   -1    0    0    0    0 -0.00000000000E+00 -0.00000000000E+00 -0.45593999997E+02  0.45594000000E+02  0.51100000000E-03 0. -1.
    9900012    2    1    2    0    0 -0.17184100338E+02  0.74286431141E+01 -0.44700478764E+00  0.72461605360E+02  0.70000045679E+02 0.  0.
         12    1    1    2    0    0  0.17184100338E+02 -0.74286431141E+01  0.44700478764E+00  0.18726394640E+02  0.00000000000E+00 0. -1.
         11    1    3    3    0    0 -0.94630908974E+01 -0.13027968113E+02  0.23370790406E+02  0.28380836615E+02  0.51100000000E-03 0. -1.
        -11    1    3    3    0    0 -0.91195519327E+01 -0.19915087115E+00  0.35294954878E+01  0.97807580065E+01  0.51100000000E-03 0.  1.
         12    1    3    3    0    0  0.13985424919E+01  0.20655762099E+02 -0.27347290682E+02  0.34300010738E+02  0.00000000000E+00 0. -1.
</event>
<event>
 7    1  0.1465498E-013  0.7246160E+02  0.7816164E-02  0.1226708E+00
        -11   -1    0    0    0    0  0.00000000000E+00  0.00000000000E+00  0.45593999997E+02  0.45594000000E+02  0.51100000000E-03 0. -1.
         11   -1    0    0    0    0 -0.00000000000E+00 -0.00000000000E+00 -0.45593999997E+02  0.45594000000E+02  0.51100000000E-03 0.  1.
    9900012    2    1    2    0    0  0.17323318300E+02 -0.71046063120E+01  0.32453325163E+00  0.72461598594E+02  0.70000036866E+02 0.  0.
         12    1    1    2    0    0 -0.17323318300E+02  0.71046063120E+01 -0.32453325163E+00  0.18726401406E+02  0.00000000000E+00 0. -1.
         11    1    3    3    0    0  0.79184981152E+01 -0.10218407677E+02  0.33688116571E+01  0.13359167642E+02  0.51100000000E-03 0. -1.
        -11    1    3    3    0    0  0.13498287580E+02  0.12042822175E+02 -0.27404407820E+02  0.32836487355E+02  0.51100000000E-03 0.  1.
         12    1    3    3    0    0 -0.40934673953E+01 -0.89290208105E+01  0.24360129415E+02  0.26265943597E+02  0.00000000000E+00 0. -1.
</event>
<event>
 7    1  0.1465498E-013  0.7246157E+02  0.7816164E-02  0.1226708E+00
        -11   -1    0    0    0    0  0.00000000000E+00  0.00000000000E+00  0.45593999997E+02  0.45594000000E+02  0.51100000000E-03 0. -1.
         11   -1    0    0    0    0 -0.00000000000E+00 -0.00000000000E+00 -0.45593999997E+02  0.45594000000E+02  0.51100000000E-03 0.  1.
    9900012    2    1    2    0    0 -0.13965002935E+02 -0.12052846423E+02 -0.32228262239E+01  0.72461574214E+02  0.70000005106E+02 0.  0.
         12    1    1    2    0    0  0.13965002935E+02  0.12052846423E+02  0.32228262239E+01  0.18726425786E+02  0.00000000000E+00 0. -1.
         11    1    3    3    0    0 -0.35630463388E+02  0.38859794507E+01 -0.18653860103E+01  0.35890255262E+02  0.51100000000E-03 0. -1.
        -11    1    3    3    0    0 -0.46876429942E+01  0.10268360842E+01  0.16756187892E+01  0.50829211850E+01  0.51100000000E-03 0.  1.
        -12    1    3    3    0    0  0.26353103448E+02 -0.16965661958E+02 -0.30330590028E+01  0.31488397767E+02  0.00000000000E+00 0.  1.
</event>
<event>
 7    1  0.1465498E-013  0.7246162E+02  0.7816164E-02  0.1226708E+00
        -11   -1    0    0    0    0  0.00000000000E+00  0.00000000000E+00  0.45593999997E+02  0.45594000000E+02  0.51100000000E-03 0.  1.
         11   -1    0    0    0    0 -0.00000000000E+00 -0.00000000000E+00 -0.45593999997E+02  0.45594000000E+02  0.51100000000E-03 0. -1.
    9900012    2    1    2    0    0  0.58264432436E+01  0.24241427516E+01  0.17631033956E+02  0.72461621084E+02  0.70000066163E+02 0.  0.
         12    1    1    2    0    0 -0.58264432436E+01 -0.24241427516E+01 -0.17631033956E+02  0.18726378916E+02  0.00000000000E+00 0. -1.
         11    1    3    3    0    0 -0.11122456796E+00 -0.13343838817E+02  0.10309017902E+02  0.16862569664E+02  0.51100000000E-03 0. -1.
        -11    1    3    3    0    0  0.22221924548E+02  0.24586231280E+02  0.13912918489E+02  0.35942537478E+02  0.51100000000E-03 0.  1.
         12    1    3    3    0    0 -0.16284256737E+02 -0.88182497115E+01 -0.65909024356E+01  0.19656513942E+02  0.00000000000E+00 0. -1.
</event>
<event>
 7    1  0.1465498E-013  0.7246158E+02  0.7816164E-02  0.1226708E+00
        -11   -1    0    0    0    0  0.00000000000E+00  0.00000000000E+00  0.45593999997E+02  0.45594000000E+02  0.51100000000E-03 0.  1.
         11   -1    0    0    0    0 -0.00000000000E+00 -0.00000000000E+00 -0.45593999997E+02  0.45594000000E+02  0.51100000000E-03 0. -1.
    9900012    2    1    2    0    0 -0.65680311391E+01 -0.56316615109E+01  0.16607956016E+02  0.72461578893E+02  0.70000011202E+02 0.  0.
         12    1    1    2    0    0  0.65680311391E+01  0.56316615109E+01 -0.16607956016E+02  0.18726421107E+02  0.00000000000E+00 0. -1.
         11    1    3    3    0    0 -0.53206979216E+00  0.21248651444E+01  0.56229696531E+01  0.60345619664E+01  0.51100000000E-03 0. -1.
        -11    1    3    3    0    0  0.24520275357E+02  0.70989424243E+01  0.18628839834E+02  0.31601780977E+02  0.51100000000E-03 0.  1.
         12    1    3    3    0    0 -0.30556236704E+02 -0.14855469080E+02 -0.76438534707E+01  0.34825235950E+02  0.00000000000E+00 0. -1.
</event>
<event>
 7    1  0.1465498E-013  0.7246157E+02  0.7816164E-02  0.1226708E+00
        -11   -1    0    0    0    0  0.00000000000E+00  0.00000000000E+00  0.45593999997E+02  0.45594000000E+02  0.51100000000E-03 0. -1.
         11   -1    0    0    0    0 -0.00000000000E+00 -0.00000000000E+00 -0.45593999997E+02  0.45594000000E+02  0.51100000000E-03 0.  1.
    9900012    2    1    2    0    0  0.11186787946E+02 -0.11520420101E+02 -0.96340530013E+01  0.72461567315E+02  0.69999996119E+02 0.  0.
         12    1    1    2    0    0 -0.11186787946E+02  0.11520420101E+02  0.96340530013E+01  0.18726432685E+02  0.00000000000E+00 0. -1.
         11    1    3    3    0    0  0.21426683996E+02  0.23664595748E+01  0.45805712758E+01  0.22038252005E+02  0.51100000000E-03 0. -1.
        -11    1    3    3    0    0  0.94606492987E+01 -0.22597240833E+02  0.21127025901E+00  0.24498649224E+02  0.51100000000E-03 0.  1.
         12    1    3    3    0    0 -0.19700545348E+02  0.87103611568E+01 -0.14425894536E+02  0.25924666086E+02  0.00000000000E+00 0. -1.
</event>
<event>
 7    1  0.1465498E-013  0.7246156E+02  0.7816164E-02  0.1226708E+00
        -11   -1    0    0    0    0  0.00000000000E+00  0.00000000000E+00  0.45593999997E+02  0.45594000000E+02  0.51100000000E-03 0.  1.
         11   -1    0    0    0    0 -0.00000000000E+00 -0.00000000000E+00 -0.45593999997E+02  0.45594000000E+02  0.51100000000E-03 0. -1.
    9900012    2    1    2    0    0  0.54836420189E+01  0.15070363035E+02  0.96692020613E+01  0.72461557725E+02  0.69999983625E+02 0.  0.
         12    1    1    2    0    0 -0.54836420189E+01 -0.15070363035E+02 -0.96692020613E+01  0.18726442275E+02  0.00000000000E+00 0. -1.
         11    1    3    3    0    0  0.17794264808E+02  0.62210855111E+01 -0.63886977319E+01  0.19903598267E+02  0.51100000000E-03 0. -1.
        -11    1    3    3    0    0  0.96297478752E+01  0.17590160562E+02 -0.52712166915E+01  0.20734790049E+02  0.51100000000E-03 0.  1.
        -12    1    3    3    0    0 -0.21940370664E+02 -0.87408830379E+01  0.21329116485E+02  0.31823169408E+02  0.00000000000E+00 0.  1.
</event>
<event>
 7    1  0.1465498E-013  0.7246157E+02  0.7816164E-02  0.1226708E+00
        -11   -1    0    0    0    0  0.00000000000E+00  0.00000000000E+00  0.45593999997E+02  0.45594000000E+02  0.51100000000E-03 0.  1.
         11   -1    0    0    0    0 -0.00000000000E+00 -0.00000000000E+00 -0.45593999997E+02  0.45594000000E+02  0.51100000000E-03 0. -1.
    9900012    2    1    2    0    0 -0.15579679305E+02 -0.12331371647E+01  0.10316591328E+02  0.72461572387E+02  0.70000002726E+02 0.  0.
         12    1    1    2    0    0  0.15579679305E+02  0.12331371647E+01 -0.10316591328E+02  0.18726427613E+02  0.00000000000E+00 0. -1.
         11    1    3    3    0    0 -0.73189340999E+01 -0.37738753557E+00  0.91727290833E+01  0.11740876322E+02  0.51100000000E-03 0. -1.
        -11    1    3    3    0    0 -0.33473713881E+02 -0.69011368714E+01 -0.35856138335E+01  0.34365270811E+02  0.51100000000E-03 0.  1.
         12    1    3    3    0    0  0.25212968676E+02  0.60453872423E+01  0.47294760783E+01  0.26355425254E+02  0.00000000000E+00 0. -1.
</event>
<event>
 7    1  0.1465498E-013  0.7246154E+02  0.7816164E-02  0.1226708E+00
        -11   -1    0    0    0    0  0.00000000000E+00  0.00000000000E+00  0.45593999997E+02  0.45594000000E+02  0.51100000000E-03 0. -1.
         11   -1    0    0    0    0 -0.00000000000E+00 -0.00000000000E+00 -0.45593999997E+02  0.45594000000E+02  0.51100000000E-03 0.  1.
    9900012    2    1    2    0    0  0.75239168253E+01 -0.15517441888E+02 -0.72993096142E+01  0.72461541499E+02  0.69999962488E+02 0.  0.
         12    1    1    2    0    0 -0.75239168253E+01  0.15517441888E+02  0.72993096142E+01  0.18726458501E+02  0.00000000000E+00 0. -1.
         11    1    3    3    0    0  0.47353789433E-01 -0.20217022545E+02  0.26061749352E+01  0.20384366338E+02  0.51100000000E-03 0. -1.
        -11    1    3    3    0    0  0.13270725926E+02 -0.18105789429E+02  0.65260930028E+01  0.23377802882E+02  0.51100000000E-03 0.  1.
        -12    1    3    3    0    0 -0.57941628904E+01  0.22805370085E+02 -0.16431577552E+02  0.28699372278E+02  0.00000000000E+00 0.  1.
</event>
<event>
 7    1  0.1465498E-013  0.7246163E+02  0.7816164E-02  0.1226708E+00
        -11   -1    0    0    0    0  0.00000000000E+00  0.00000000000E+00  0.45593999997E+02  0.45594000000E+02  0.51100000000E-03 0.  1.
         11   -1    0    0    0    0 -0.00000000000E+00 -0.00000000000E+00 -0.45593999997E+02  0.45594000000E+02  0.51100000000E-03 0. -1.
    9900012    2    1    2    0    0  0.27930420883E+01 -0.12517807870E+02  0.13644786212E+02  0.72461633861E+02  0.70000082808E+02 0.  0.
         12    1    1    2    0    0 -0.27930420883E+01  0.12517807870E+02 -0.13644786212E+02  0.18726366139E+02  0.00000000000E+00 0. -1.
         11    1    3    3    0    0 -0.12206562656E+02  0.21485594748E+02  0.54130680669E+01  0.25296882411E+02  0.51100000000E-03 0. -1.
        -11    1    3    3    0    0  0.94581343316E+00 -0.32082803765E+02  0.75006670712E+01  0.32961505840E+02  0.51100000000E-03 0.  1.
         12    1    3    3    0    0  0.14053791312E+02 -0.19205988528E+01  0.73105107410E+00  0.14203245610E+02  0.00000000000E+00 0. -1.
</event>
<event>
 7    1  0.1465498E-013  0.7246156E+02  0.7816164E-02  0.1226708E+00
        -11   -1    0    0    0    0  0.00000000000E+00  0.00000000000E+00  0.45593999997E+02  0.45594000000E+02  0.51100000000E-03 0.  1.
         11   -1    0    0    0    0 -0.00000000000E+00 -0.00000000000E+00 -0.45593999997E+02  0.45594000000E+02  0.51100000000E-03 0. -1.
    9900012    2    1    2    0    0 -0.32482978237E+01  0.17119753236E+01  0.18362931454E+02  0.72461560139E+02  0.69999986771E+02 0.  0.
         12    1    1    2    0    0  0.32482978237E+01 -0.17119753236E+01 -0.18362931454E+02  0.18726439861E+02  0.00000000000E+00 0. -1.
         11    1    3    3    0    0  0.23101028233E+02 -0.52278482625E+01  0.57033671967E+01  0.24362189978E+02  0.51100000000E-03 0. -1.
        -11    1    3    3    0    0 -0.73180531908E+01  0.40583441079E+01  0.24234762238E+02  0.25638794051E+02  0.51100000000E-03 0.  1.
        -12    1    3    3    0    0 -0.19031272866E+02  0.28814794782E+01 -0.11575197981E+02  0.22460576110E+02  0.00000000000E+00 0.  1.
</event>
<event>
 7    1  0.1465498E-013  0.7246158E+02  0.7816164E-02  0.1226708E+00
        -11   -1    0    0    0    0  0.00000000000E+00  0.00000000000E+00  0.45593999997E+02  0.45594000000E+02  0.51100000000E-03 0.  1.
         11   -1    0    0    0    0 -0.00000000000E+00 -0.00000000000E+00 -0.45593999997E+02  0.45594000000E+02  0.51100000000E-03 0. -1.
    9900012    2    1    2    0    0 -0.16891281582E+02 -0.20817147990E+01  0.78121647581E+01  0.72461578874E+02  0.70000011176E+02 0.  0.
         12    1    1    2    0    0  0.16891281582E+02  0.20817147990E+01 -0.78121647581E+01  0.18726421126E+02  0.00000000000E+00 0. -1.
         11    1    3    3    0    0 -0.62091939512E+01 -0.10854297158E+02 -0.75204159964E+01  0.14592001691E+02  0.51100000000E-03 0. -1.
        -11    1    3    3    0    0 -0.23217092930E+01 -0.22715361212E+02  0.96940966475E+01  0.24806319338E+02  0.51100000000E-03 0.  1.
         12    1    3    3    0    0 -0.83603783381E+01  0.31487943571E+02  0.56384841070E+01  0.33063257845E+02  0.00000000000E+00 0. -1.
</event>
<event>
 7    1  0.1465498E-013  0.7246161E+02  0.7816164E-02  0.1226708E+00
        -11   -1    0    0    0    0  0.00000000000E+00  0.00000000000E+00  0.45593999997E+02  0.45594000000E+02  0.51100000000E-03 0.  1.
         11   -1    0    0    0    0 -0.00000000000E+00 -0.00000000000E+00 -0.45593999997E+02  0.45594000000E+02  0.51100000000E-03 0. -1.
    9900012    2    1    2    0    0 -0.45534950331E+01  0.59897121633E+01  0.17148377700E+02  0.72461606152E+02  0.70000046711E+02 0.  0.
         12    1    1    2    0    0  0.45534950331E+01 -0.59897121633E+01 -0.17148377700E+02  0.18726393848E+02  0.00000000000E+00 0. -1.
         11    1    3    3    0    0 -0.27330816159E+01 -0.32527412396E+01 -0.19320211102E+02  0.19781825446E+02  0.51100000000E-03 0. -1.
        -11    1    3    3    0    0  0.10455863242E+02  0.90151439290E+01 -0.40908593724E+00  0.13811779312E+02  0.51100000000E-03 0.  1.
        -12    1    3    3    0    0 -0.12276276659E+02  0.22730947389E+00  0.36877674739E+02  0.38868001394E+02  0.00000000000E+00 0.  1.
</event>
<event>
 7    1  0.1465498E-013  0.7246152E+02  0.7816164E-02  0.1226708E+00
        -11   -1    0    0    0    0  0.00000000000E+00  0.00000000000E+00  0.45593999997E+02  0.45594000000E+02  0.51100000000E-03 0.  1.
         11   -1    0    0    0    0 -0.00000000000E+00 -0.00000000000E+00 -0.45593999997E+02  0.45594000000E+02  0.51100000000E-03 0. -1.
    9900012    2    1    2    0    0  0.16987871105E+02 -0.54311459574E+01 -0.57093015815E+01  0.72461515128E+02  0.69999928136E+02 0.  0.
         12    1    1    2    0    0 -0.16987871105E+02  0.54311459574E+01  0.57093015815E+01  0.18726484872E+02  0.00000000000E+00 0. -1.
         11    1    3    3    0    0 -0.13237808282E+02  0.10623383511E+01  0.54236253523E+01  0.14345167936E+02  0.51100000000E-03 0. -1.
        -11    1    3    3    0    0 -0.91427139647E+00 -0.22154647347E+02 -0.37945269846E+01  0.22495837983E+02  0.51100000000E-03 0.  1.
         12    1    3    3    0    0  0.31139950784E+02  0.15661163038E+02 -0.73383999492E+01  0.35620509210E+02  0.00000000000E+00 0. -1.
</event>
<event>
 7    1  0.2732579E-013  0.7246157E+02  0.7816164E-02  0.1226708E+00
        -11   -1    0    0    0    0  0.00000000000E+00  0.00000000000E+00  0.45593999997E+02  0.45594000000E+02  0.51100000000E-03 0. -1.
         11   -1    0    0    0    0 -0.00000000000E+00 -0.00000000000E+00 -0.45593999997E+02  0.45594000000E+02  0.51100000000E-03 0.  1.
    9900012    2    1    2    0    0  0.10608393591E+02 -0.67124600842E+01 -0.13895469730E+02  0.72461569107E+02  0.69999998453E+02 0.  0.
         12    1    1    2    0    0 -0.10608393591E+02  0.67124600842E+01  0.13895469730E+02  0.18726430893E+02  0.00000000000E+00 0. -1.
         11    1    3    3    0    0  0.23760293103E+02 -0.24670472887E+02  0.15047737988E+01  0.34284808666E+02  0.51100000000E-03 0. -1.
        -11    1    3    3    0    0 -0.37400997530E+01  0.46723432730E+01 -0.20308012785E+02  0.21171549810E+02  0.51100000000E-03 0.  1.
        -12    1    3    3    0    0 -0.94117997584E+01  0.13285669530E+02  0.49077692559E+01  0.17005210631E+02  0.00000000000E+00 0.  1.
</event>
<event>
 7    1  0.1586636E-013  0.7246157E+02  0.7816164E-02  0.1226708E+00
        -11   -1    0    0    0    0  0.00000000000E+00  0.00000000000E+00  0.45593999997E+02  0.45594000000E+02  0.51100000000E-03 0. -1.
         11   -1    0    0    0    0 -0.00000000000E+00 -0.00000000000E+00 -0.45593999997E+02  0.45594000000E+02  0.51100000000E-03 0.  1.
    9900012    2    1    2    0    0 -0.10888883114E+02  0.55002788756E+01 -0.14207680196E+02  0.72461574294E+02  0.70000005210E+02 0.  0.
         12    1    1    2    0    0  0.10888883114E+02 -0.55002788756E+01  0.14207680196E+02  0.18726425706E+02  0.00000000000E+00 0. -1.
         11    1    3    3    0    0 -0.25726330233E+02 -0.95265860534E+01  0.96897374413E+01  0.29094517027E+02  0.51100000000E-03 0. -1.
        -11    1    3    3    0    0 -0.11976162140E+01 -0.46926310093E+01  0.35155854742E+01  0.59845143390E+01  0.51100000000E-03 0.  1.
        -12    1    3    3    0    0  0.16035063333E+02  0.19719495938E+02 -0.27413003112E+02  0.37382542928E+02  0.00000000000E+00 0.  1.
</event>
<event>
 7    1  0.1465498E-013  0.7246162E+02  0.7816164E-02  0.1226708E+00
        -11   -1    0    0    0    0  0.00000000000E+00  0.00000000000E+00  0.45593999997E+02  0.45594000000E+02  0.51100000000E-03 0.  1.
         11   -1    0    0    0    0 -0.00000000000E+00 -0.00000000000E+00 -0.45593999997E+02  0.45594000000E+02  0.51100000000E-03 0. -1.
    9900012    2    1    2    0    0  0.13472038750E+02 -0.20113509572E+01  0.12850529771E+02  0.72461615508E+02  0.70000058899E+02 0.  0.
         12    1    1    2    0    0 -0.13472038750E+02  0.20113509572E+01 -0.12850529771E+02  0.18726384492E+02  0.00000000000E+00 0. -1.
         11    1    3    3    0    0 -0.21818185796E+01  0.19197800345E+02  0.20138253709E+02  0.27908155315E+02  0.51100000000E-03 0. -1.
        -11    1    3    3    0    0  0.18694832273E+02 -0.16934730132E+02  0.95083959965E+01  0.26957214860E+02  0.51100000000E-03 0.  1.
         12    1    3    3    0    0 -0.30409749436E+01 -0.42744211708E+01 -0.16796119934E+02  0.17596245332E+02  0.00000000000E+00 0. -1.
</event>
<event>
 7    1  0.1465498E-013  0.7246155E+02  0.7816164E-02  0.1226708E+00
        -11   -1    0    0    0    0  0.00000000000E+00  0.00000000000E+00  0.45593999997E+02  0.45594000000E+02  0.51100000000E-03 0.  1.
         11   -1    0    0    0    0 -0.00000000000E+00 -0.00000000000E+00 -0.45593999997E+02  0.45594000000E+02  0.51100000000E-03 0. -1.
    9900012    2    1    2    0    0 -0.18578178226E+01 -0.14833632837E+02  0.11277937674E+02  0.72461547363E+02  0.69999970127E+02 0.  0.
         12    1    1    2    0    0  0.18578178226E+01  0.14833632837E+02 -0.11277937674E+02  0.18726452637E+02  0.00000000000E+00 0. -1.
         11    1    3    3    0    0 -0.12294660606E+02  0.92259940202E+01 -0.15929691983E+02  0.22136682949E+02  0.51100000000E-03 0. -1.
        -11    1    3    3    0    0 -0.11885642062E+02 -0.12300360559E+02  0.11161477236E+02  0.20424150692E+02  0.51100000000E-03 0.  1.
        -12    1    3    3    0    0  0.22322484846E+02 -0.11759266298E+02  0.16046152421E+02  0.29900713722E+02  0.00000000000E+00 0.  1.
</event>
<event>
 7    1  0.1465498E-013  0.7246155E+02  0.7816164E-02  0.1226708E+00
        -11   -1    0    0    0    0  0.00000000000E+00  0.00000000000E+00  0.45593999997E+02  0.45594000000E+02  0.51100000000E-03 0.  1.
         11   -1    0    0    0    0 -0.00000000000E+00 -0.00000000000E+00 -0.45593999997E+02  0.45594000000E+02  0.51100000000E-03 0. -1.
    9900012    2    1    2    0    0 -0.84351490298E+01  0.99267298493E+01 -0.13453185497E+02  0.72461550666E+02  0.69999974430E+02 0.  0.
         12    1    1    2    0    0  0.84351490298E+01 -0.99267298493E+01  0.13453185497E+02  0.18726449334E+02  0.00000000000E+00 0. -1.
         11    1    3    3    0    0  0.15298930358E+02  0.22816193812E+02 -0.67489442309E+01  0.28287527617E+02  0.51100000000E-03 0. -1.
        -11    1    3    3    0    0 -0.11479705211E+02  0.10185707015E+02  0.41244772711E+01  0.15891619557E+02  0.51100000000E-03 0.  1.
        -12    1    3    3    0    0 -0.12254374177E+02 -0.23075170978E+02 -0.10828718537E+02  0.28282403492E+02  0.00000000000E+00 0.  1.
</event>
<event>
 7    1  0.2877170E-013  0.7246156E+02  0.7816164E-02  0.1226708E+00
        -11   -1    0    0    0    0  0.00000000000E+00  0.00000000000E+00  0.45593999997E+02  0.45594000000E+02  0.51100000000E-03 0. -1.
         11   -1    0    0    0    0 -0.00000000000E+00 -0.00000000000E+00 -0.45593999997E+02  0.45594000000E+02  0.51100000000E-03 0.  1.
    9900012    2    1    2    0    0  0.11252184516E+02 -0.55719937379E+01 -0.13893190916E+02  0.72461560819E+02  0.69999987656E+02 0.  0.
         12    1    1    2    0    0 -0.11252184516E+02  0.55719937379E+01  0.13893190916E+02  0.18726439181E+02  0.00000000000E+00 0. -1.
         11    1    3    3    0    0  0.23680281478E+02  0.28355422914E+01  0.16902801329E+02  0.29231844348E+02  0.51100000000E-03 0. -1.
        -11    1    3    3    0    0 -0.40264554081E+00  0.18189831010E+01  0.43331829180E+01  0.47167040839E+01  0.51100000000E-03 0.  1.
        -12    1    3    3    0    0 -0.12025451422E+02 -0.10226519130E+02 -0.35129175163E+02  0.38513012386E+02  0.00000000000E+00 0.  1.
</event>
<event>
 7    1  0.1465498E-013  0.7246147E+02  0.7816164E-02  0.1226708E+00
        -11   -1    0    0    0    0  0.00000000000E+00  0.00000000000E+00  0.45593999997E+02  0.45594000000E+02  0.51100000000E-03 0.  1.
         11   -1    0    0    0    0 -0.00000000000E+00 -0.00000000000E+00 -0.45593999997E+02  0.45594000000E+02  0.51100000000E-03 0. -1.
    9900012    2    1    2    0    0 -0.40799016823E+01  0.75709122997E+01  0.16634863374E+02  0.72461468280E+02  0.69999867108E+02 0.  0.
         12    1    1    2    0    0  0.40799016823E+01 -0.75709122997E+01 -0.16634863374E+02  0.18726531720E+02  0.00000000000E+00 0. -1.
         11    1    3    3    0    0  0.13778414565E+01 -0.32686978631E+00 -0.28991544912E+01  0.32265132824E+01  0.51100000000E-03 0. -1.
        -11    1    3    3    0    0  0.19782303840E+02 -0.20411614251E+02  0.99430986339E+01  0.30113763502E+02  0.51100000000E-03 0.  1.
         12    1    3    3    0    0 -0.25240046979E+02  0.28309396337E+02  0.95909192308E+01  0.39121191497E+02  0.00000000000E+00 0. -1.
</event>
<event>
 7    1  0.1465498E-013  0.7246157E+02  0.7816164E-02  0.1226708E+00
        -11   -1    0    0    0    0  0.00000000000E+00  0.00000000000E+00  0.45593999997E+02  0.45594000000E+02  0.51100000000E-03 0.  1.
         11   -1    0    0    0    0 -0.00000000000E+00 -0.00000000000E+00 -0.45593999997E+02  0.45594000000E+02  0.51100000000E-03 0. -1.
    9900012    2    1    2    0    0  0.72317291477E+01  0.12790672773E+02  0.11609474535E+02  0.72461571739E+02  0.70000001882E+02 0.  0.
         12    1    1    2    0    0 -0.72317291477E+01 -0.12790672773E+02 -0.11609474535E+02  0.18726428261E+02  0.00000000000E+00 0. -1.
         11    1    3    3    0    0  0.73042668353E+01  0.24335352375E+01 -0.18897985624E+02  0.20406084108E+02  0.51100000000E-03 0. -1.
        -11    1    3    3    0    0  0.11761210990E+02  0.10203228426E+02 -0.35761765382E+01  0.15975637489E+02  0.51100000000E-03 0.  1.
         12    1    3    3    0    0 -0.11833748678E+02  0.15390910926E+00  0.34083636696E+02  0.36079850142E+02  0.00000000000E+00 0. -1.
</event>
<event>
 7    1  0.1465498E-013  0.7246153E+02  0.7816164E-02  0.1226708E+00
        -11   -1    0    0    0    0  0.00000000000E+00  0.00000000000E+00  0.45593999997E+02  0.45594000000E+02  0.51100000000E-03 0.  1.
         11   -1    0    0    0    0 -0.00000000000E+00 -0.00000000000E+00 -0.45593999997E+02  0.45594000000E+02  0.51100000000E-03 0. -1.
    9900012    2    1    2    0    0 -0.15945653917E+02  0.66548526632E+00  0.97966225757E+01  0.72461533079E+02  0.69999951520E+02 0.  0.
         12    1    1    2    0    0  0.15945653917E+02 -0.66548526632E+00 -0.97966225757E+01  0.18726466921E+02  0.00000000000E+00 0. -1.
         11    1    3    3    0    0 -0.90688363723E-02  0.13715299195E+02  0.49336028592E+01  0.14575662993E+02  0.51100000000E-03 0. -1.
        -11    1    3    3    0    0 -0.90991437472E+01 -0.29701131053E+02  0.17722698441E+02  0.35763747609E+02  0.51100000000E-03 0.  1.
         12    1    3    3    0    0 -0.68374413330E+01  0.16651317124E+02 -0.12859678725E+02  0.22122122476E+02  0.00000000000E+00 0. -1.
</event>
<event>
 7    1  0.1465498E-013  0.7246160E+02  0.7816164E-02  0.1226708E+00
        -11   -1    0    0    0    0  0.00000000000E+00  0.00000000000E+00  0.45593999997E+02  0.45594000000E+02  0.51100000000E-03 0. -1.
         11   -1    0    0    0    0 -0.00000000000E+00 -0.00000000000E+00 -0.45593999997E+02  0.45594000000E+02  0.51100000000E-03 0.  1.
    9900012    2    1    2    0    0  0.13879824238E+02 -0.21223290410E+01 -0.12390488782E+02  0.72461601156E+02  0.70000040202E+02 0.  0.
         12    1    1    2    0    0 -0.13879824238E+02  0.21223290410E+01  0.12390488782E+02  0.18726398844E+02  0.00000000000E+00 0. -1.
         11    1    3    3    0    0  0.10543107752E+01  0.10494746085E+00  0.30417215395E+01  0.32209711836E+01  0.51100000000E-03 0. -1.
        -11    1    3    3    0    0  0.22051409982E+02 -0.74087928474E+01 -0.37863578918E+02  0.44438783764E+02  0.51100000000E-03 0.  1.
         12    1    3    3    0    0 -0.92258965192E+01  0.51815163455E+01  0.22431368597E+02  0.24801846208E+02  0.00000000000E+00 0. -1.
</event>
<event>
 7    1  0.1465498E-013  0.7246164E+02  0.7816164E-02  0.1226708E+00
        -11   -1    0    0    0    0  0.00000000000E+00  0.00000000000E+00  0.45593999997E+02  0.45594000000E+02  0.51100000000E-03 0. -1.
         11   -1    0    0    0    0 -0.00000000000E+00 -0.00000000000E+00 -0.45593999997E+02  0.45594000000E+02  0.51100000000E-03 0.  1.
    9900012    2    1    2    0    0  0.93481737023E+01  0.27391126153E+01 -0.15993296710E+02  0.72461638123E+02  0.70000088360E+02 0.  0.
         12    1    1    2    0    0 -0.93481737023E+01 -0.27391126153E+01  0.15993296710E+02  0.18726361877E+02  0.00000000000E+00 0. -1.
         11    1    3    3    0    0  0.17193809447E+01  0.85122086414E+01  0.66909699760E+01  0.10962802847E+02  0.51100000000E-03 0. -1.
        -11    1    3    3    0    0 -0.21613914134E+02 -0.10531767127E+02 -0.20833460752E+02  0.31813715441E+02  0.51100000000E-03 0.  1.
         12    1    3    3    0    0  0.29242706892E+02  0.47586711008E+01 -0.18508059341E+01  0.29685119835E+02  0.00000000000E+00 0. -1.
</event>
<event>
 7    1  0.1506262E-013  0.7246154E+02  0.7816164E-02  0.1226708E+00
        -11   -1    0    0    0    0  0.00000000000E+00  0.00000000000E+00  0.45593999997E+02  0.45594000000E+02  0.51100000000E-03 0. -1.
         11   -1    0    0    0    0 -0.00000000000E+00 -0.00000000000E+00 -0.45593999997E+02  0.45594000000E+02  0.51100000000E-03 0.  1.
    9900012    2    1    2    0    0 -0.13945403931E+02 -0.11284919114E+02 -0.53718267222E+01  0.72461542445E+02  0.69999963721E+02 0.  0.
         12    1    1    2    0    0  0.13945403931E+02  0.11284919114E+02  0.53718267222E+01  0.18726457555E+02  0.00000000000E+00 0. -1.
         11    1    3    3    0    0 -0.12192260110E+02  0.24442472722E+02 -0.10180285712E+02  0.29150023959E+02  0.51100000000E-03 0. -1.
        -11    1    3    3    0    0  0.99777135578E+01 -0.11797529122E+02 -0.25585186663E+01  0.15661496712E+02  0.51100000000E-03 0.  1.
        -12    1    3    3    0    0 -0.11730857379E+02 -0.23929862714E+02  0.73669776559E+01  0.27650021775E+02  0.00000000000E+00 0.  1.
</event>
<event>
 7    1  0.1465498E-013  0.7246148E+02  0.7816164E-02  0.1226708E+00
        -11   -1    0    0    0    0  0.00000000000E+00  0.00000000000E+00  0.45593999997E+02  0.45594000000E+02  0.51100000000E-03 0.  1.
         11   -1    0    0    0    0 -0.00000000000E+00 -0.00000000000E+00 -0.45593999997E+02  0.45594000000E+02  0.51100000000E-03 0. -1.
    9900012    2    1    2    0    0  0.15740075903E+02 -0.83081131841E+01  0.58230481210E+01  0.72461478072E+02  0.69999879863E+02 0.  0.
         12    1    1    2    0    0 -0.15740075903E+02  0.83081131841E+01 -0.58230481210E+01  0.18726521928E+02  0.00000000000E+00 0. -1.
         11    1    3    3    0    0  0.28728879765E+02 -0.44660298267E+01 -0.14448021638E+02  0.32465971178E+02  0.51100000000E-03 0. -1.
        -11    1    3    3    0    0  0.21673621282E+01  0.11518514945E+02  0.23698504100E+01  0.11957835772E+02  0.51100000000E-03 0.  1.
         12    1    3    3    0    0 -0.15156165991E+02 -0.15360598302E+02  0.17901219349E+02  0.28037671122E+02  0.00000000000E+00 0. -1.
</event>
<event>
 7    1  0.1465498E-013  0.7246153E+02  0.7816164E-02  0.1226708E+00
        -11   -1    0    0    0    0  0.00000000000E+00  0.00000000000E+00  0.45593999997E+02  0.45594000000E+02  0.51100000000E-03 0. -1.
         11   -1    0    0    0    0 -0.00000000000E+00 -0.00000000000E+00 -0.45593999997E+02  0.45594000000E+02  0.51100000000E-03 0.  1.
    9900012    2    1    2    0    0 -0.17162000609E+01  0.68811971761E+01 -0.17331603237E+02  0.72461529751E+02  0.69999947185E+02 0.  0.
         12    1    1    2    0    0  0.17162000609E+01 -0.68811971761E+01  0.17331603237E+02  0.18726470249E+02  0.00000000000E+00 0. -1.
         11    1    3    3    0    0 -0.20564139447E+01 -0.64746713574E+01  0.70533276347E+01  0.97928360796E+01  0.51100000000E-03 0. -1.
        -11    1    3    3    0    0  0.88945938528E+01 -0.18123237588E+02  0.25714288433E+01  0.20351358359E+02  0.51100000000E-03 0.  1.
        -12    1    3    3    0    0 -0.85543799690E+01  0.31479106122E+02 -0.26956359715E+02  0.42317335313E+02  0.00000000000E+00 0.  1.
</event>
<event>
 7    1  0.1465498E-013  0.7246160E+02  0.7816164E-02  0.1226708E+00
        -11   -1    0    0    0    0  0.00000000000E+00  0.00000000000E+00  0.45593999997E+02  0.45594000000E+02  0.51100000000E-03 0. -1.
         11   -1    0    0    0    0 -0.00000000000E+00 -0.00000000000E+00 -0.45593999997E+02  0.45594000000E+02  0.51100000000E-03 0.  1.
    9900012    2    1    2    0    0 -0.16918384718E+02  0.69539017736E+00 -0.79976692158E+01  0.72461600937E+02  0.70000039918E+02 0.  0.
         12    1    1    2    0    0  0.16918384718E+02 -0.69539017736E+00  0.79976692158E+01  0.18726399063E+02  0.00000000000E+00 0. -1.
         11    1    3    3    0    0 -0.15916033148E+02 -0.14556833900E+02  0.54014379922E+01  0.22235041197E+02  0.51100000000E-03 0. -1.
        -11    1    3    3    0    0 -0.17373906693E+02 -0.62918488694E+01 -0.13965448758E+02  0.23161903101E+02  0.51100000000E-03 0.  1.
         12    1    3    3    0    0  0.16371555123E+02  0.21544072947E+02  0.56634155028E+00  0.27064656640E+02  0.00000000000E+00 0. -1.
</event>
<event>
 7    1  0.1465498E-013  0.7246158E+02  0.7816164E-02  0.1226708E+00
        -11   -1    0    0    0    0  0.00000000000E+00  0.00000000000E+00  0.45593999997E+02  0.45594000000E+02  0.51100000000E-03 0. -1.
         11   -1    0    0    0    0 -0.00000000000E+00 -0.00000000000E+00 -0.45593999997E+02  0.45594000000E+02  0.51100000000E-03 0.  1.
    9900012    2    1    2    0    0  0.65326551426E+01 -0.15283605596E+02 -0.86263971430E+01  0.72461577199E+02  0.70000008995E+02 0.  0.
         12    1    1    2    0    0 -0.65326551426E+01  0.15283605596E+02  0.86263971430E+01  0.18726422801E+02  0.00000000000E+00 0. -1.
         11    1    3    3    0    0 -0.23929831763E+02 -0.18083388943E+02 -0.45191221029E+01  0.30332627132E+02  0.51100000000E-03 0. -1.
        -11    1    3    3    0    0 -0.33999137154E+01 -0.36277159290E+01 -0.57765169799E+01  0.76215408425E+01  0.51100000000E-03 0.  1.
        -12    1    3    3    0    0  0.33862400621E+02  0.64274992759E+01  0.16692419397E+01  0.34507409225E+02  0.00000000000E+00 0.  1.
</event>
<event>
 7    1  0.1465498E-013  0.7246158E+02  0.7816164E-02  0.1226708E+00
        -11   -1    0    0    0    0  0.00000000000E+00  0.00000000000E+00  0.45593999997E+02  0.45594000000E+02  0.51100000000E-03 0.  1.
         11   -1    0    0    0    0 -0.00000000000E+00 -0.00000000000E+00 -0.45593999997E+02  0.45594000000E+02  0.51100000000E-03 0. -1.
    9900012    2    1    2    0    0 -0.17205170211E+02 -0.73764862246E+01 -0.49846786731E+00  0.72461577458E+02  0.70000009332E+02 0.  0.
         12    1    1    2    0    0  0.17205170211E+02  0.73764862246E+01  0.49846786731E+00  0.18726422542E+02  0.00000000000E+00 0. -1.
         11    1    3    3    0    0  0.36792653885E+01 -0.33779275433E+02 -0.10534286468E+02  0.35574536318E+02  0.51100000000E-03 0. -1.
        -11    1    3    3    0    0 -0.73570421949E+01  0.18189896838E+02  0.45921223754E+01  0.20151575745E+02  0.51100000000E-03 0.  1.
        -12    1    3    3    0    0 -0.13527393404E+02  0.82128923700E+01  0.54436962254E+01  0.16735465395E+02  0.00000000000E+00 0.  1.
</event>
<event>
 7    1  0.1465498E-013  0.7246164E+02  0.7816164E-02  0.1226708E+00
        -11   -1    0    0    0    0  0.00000000000E+00  0.00000000000E+00  0.45593999997E+02  0.45594000000E+02  0.51100000000E-03 0.  1.
         11   -1    0    0    0    0 -0.00000000000E+00 -0.00000000000E+00 -0.45593999997E+02  0.45594000000E+02  0.51100000000E-03 0. -1.
    9900012    2    1    2    0    0  0.13836691475E+02  0.10715688322E+02  0.66630693020E+01  0.72461641579E+02  0.70000092861E+02 0.  0.
         12    1    1    2    0    0 -0.13836691475E+02 -0.10715688322E+02 -0.66630693020E+01  0.18726358421E+02  0.00000000000E+00 0. -1.
         11    1    3    3    0    0 -0.37392346819E+01  0.38311497487E+01  0.11150522654E+02  0.12369063834E+02  0.51100000000E-03 0. -1.
        -11    1    3    3    0    0  0.24337547411E+01  0.31158621626E+02 -0.37026325845E+01  0.31472088461E+02  0.51100000000E-03 0.  1.
        -12    1    3    3    0    0  0.15142171416E+02 -0.24274083053E+02 -0.78482076761E+00  0.28620489284E+02  0.00000000000E+00 0.  1.
</event>
<event>
 7    1  0.1613477E-013  0.7246155E+02  0.7816164E-02  0.1226708E+00
        -11   -1    0    0    0    0  0.00000000000E+00  0.00000000000E+00  0.45593999997E+02  0.45594000000E+02  0.51100000000E-03 0.  1.
         11   -1    0    0    0    0 -0.00000000000E+00 -0.00000000000E+00 -0.45593999997E+02  0.45594000000E+02  0.51100000000E-03 0. -1.
    9900012    2    1    2    0    0  0.15481210944E+02 -0.57210330872E+01  0.88477054321E+01  0.72461548033E+02  0.69999971000E+02 0.  0.
         12    1    1    2    0    0 -0.15481210944E+02  0.57210330872E+01 -0.88477054321E+01  0.18726451967E+02  0.00000000000E+00 0. -1.
         11    1    3    3    0    0  0.34306538491E+01 -0.21373343595E+02 -0.13469435723E+02  0.25495389803E+02  0.51100000000E-03 0. -1.
        -11    1    3    3    0    0 -0.43891265067E+01 -0.99144793663E+01  0.45524848916E+01  0.11759525992E+02  0.51100000000E-03 0.  1.
        -12    1    3    3    0    0  0.16439683601E+02  0.25566789874E+02  0.17764656264E+02  0.35206632238E+02  0.00000000000E+00 0.  1.
</event>
<event>
 7    1  0.1465498E-013  0.7246159E+02  0.7816164E-02  0.1226708E+00
        -11   -1    0    0    0    0  0.00000000000E+00  0.00000000000E+00  0.45593999997E+02  0.45594000000E+02  0.51100000000E-03 0.  1.
         11   -1    0    0    0    0 -0.00000000000E+00 -0.00000000000E+00 -0.45593999997E+02  0.45594000000E+02  0.51100000000E-03 0. -1.
    9900012    2    1    2    0    0 -0.98837149588E+01 -0.10867686615E+02  0.11613957530E+02  0.72461589686E+02  0.70000025261E+02 0.  0.
         12    1    1    2    0    0  0.98837149588E+01  0.10867686615E+02 -0.11613957530E+02  0.18726410314E+02  0.00000000000E+00 0. -1.
         11    1    3    3    0    0  0.13011109252E+02  0.25643814880E+01 -0.12584084081E+02  0.18281799387E+02  0.51100000000E-03 0. -1.
        -11    1    3    3    0    0 -0.21918008219E+01 -0.63767467925E+01 -0.10904344517E+02  0.12820749592E+02  0.51100000000E-03 0.  1.
        -12    1    3    3    0    0 -0.20703023389E+02 -0.70553213100E+01  0.35102386129E+02  0.41359040707E+02  0.00000000000E+00 0.  1.
</event>
<event>
 7    1  0.1465498E-013  0.7246151E+02  0.7816164E-02  0.1226708E+00
        -11   -1    0    0    0    0  0.00000000000E+00  0.00000000000E+00  0.45593999997E+02  0.45594000000E+02  0.51100000000E-03 0.  1.
         11   -1    0    0    0    0 -0.00000000000E+00 -0.00000000000E+00 -0.45593999997E+02  0.45594000000E+02  0.51100000000E-03 0. -1.
    9900012    2    1    2    0    0 -0.71749832280E+01 -0.16883373217E+02  0.37620118478E+01  0.72461510509E+02  0.69999922119E+02 0.  0.
         12    1    1    2    0    0  0.71749832280E+01  0.16883373217E+02 -0.37620118478E+01  0.18726489491E+02  0.00000000000E+00 0. -1.
         11    1    3    3    0    0  0.12508548384E+02 -0.41522555770E+00 -0.13681864073E+02  0.18542642738E+02  0.51100000000E-03 0. -1.
        -11    1    3    3    0    0  0.75917133922E+01 -0.14424884736E+02 -0.65181172050E+01  0.17555547956E+02  0.51100000000E-03 0.  1.
        -12    1    3    3    0    0 -0.27275245005E+02 -0.20432629233E+01  0.23961993125E+02  0.36363319815E+02  0.00000000000E+00 0.  1.
</event>
<event>
 7    1  0.1465498E-013  0.7246160E+02  0.7816164E-02  0.1226708E+00
        -11   -1    0    0    0    0  0.00000000000E+00  0.00000000000E+00  0.45593999997E+02  0.45594000000E+02  0.51100000000E-03 0. -1.
         11   -1    0    0    0    0 -0.00000000000E+00 -0.00000000000E+00 -0.45593999997E+02  0.45594000000E+02  0.51100000000E-03 0.  1.
    9900012    2    1    2    0    0  0.10336604318E+02  0.65907232291E+01 -0.14156095820E+02  0.72461599641E+02  0.70000038230E+02 0.  0.
         12    1    1    2    0    0 -0.10336604318E+02 -0.65907232291E+01  0.14156095820E+02  0.18726400359E+02  0.00000000000E+00 0. -1.
         11    1    3    3    0    0  0.25098100058E+02  0.10155824422E+02 -0.14268706322E+02  0.30604760685E+02  0.51100000000E-03 0. -1.
        -11    1    3    3    0    0  0.11671351627E+02 -0.45802748187E+01 -0.71398187569E+01  0.14428318626E+02  0.51100000000E-03 0.  1.
         12    1    3    3    0    0 -0.26432847367E+02  0.10151736253E+01  0.72524292585E+01  0.27428520331E+02  0.00000000000E+00 0. -1.
</event>
<event>
 7    1  0.1465498E-013  0.7246155E+02  0.7816164E-02  0.1226708E+00
        -11   -1    0    0    0    0  0.00000000000E+00  0.00000000000E+00  0.45593999997E+02  0.45594000000E+02  0.51100000000E-03 0. -1.
         11   -1    0    0    0    0 -0.00000000000E+00 -0.00000000000E+00 -0.45593999997E+02  0.45594000000E+02  0.51100000000E-03 0.  1.
    9900012    2    1    2    0    0  0.15480835021E+02  0.80253016597E+01 -0.68277471552E+01  0.72461552101E+02  0.69999976300E+02 0.  0.
         12    1    1    2    0    0 -0.15480835021E+02 -0.80253016597E+01  0.68277471552E+01  0.18726447899E+02  0.00000000000E+00 0. -1.
         11    1    3    3    0    0  0.57424619329E+01  0.81723974850E+01 -0.84939303373E+01  0.13111475986E+02  0.51100000000E-03 0. -1.
        -11    1    3    3    0    0  0.13276203683E+02 -0.54350778940E+01 -0.26683452903E+02  0.30295285360E+02  0.51100000000E-03 0.  1.
         12    1    3    3    0    0 -0.35378305945E+01  0.52879820687E+01  0.28349636085E+02  0.29054790755E+02  0.00000000000E+00 0. -1.
</event>
<event>
 7    1  0.1465498E-013  0.7246156E+02  0.7816164E-02  0.1226708E+00
        -11   -1    0    0    0    0  0.00000000000E+00  0.00000000000E+00  0.45593999997E+02  0.45594000000E+02  0.51100000000E-03 0. -1.
         11   -1    0    0    0    0 -0.00000000000E+00 -0.00000000000E+00 -0.45593999997E+02  0.45594000000E+02  0.51100000000E-03 0.  1.
    9900012    2    1    2    0    0  0.16905839461E+02 -0.70879684331E+01 -0.38252945285E+01  0.72461559265E+02  0.69999985632E+02 0.  0.
         12    1    1    2    0    0 -0.16905839461E+02  0.70879684331E+01  0.38252945285E+01  0.18726440735E+02  0.00000000000E+00 0. -1.
         11    1    3    3    0    0 -0.74444517651E+01 -0.49140072271E+01  0.35894032025E+01  0.96151518304E+01  0.51100000000E-03 0. -1.
        -11    1    3    3    0    0  0.14546353831E+02 -0.78683744681E+01 -0.31861806159E+02  0.35898223055E+02  0.51100000000E-03 0.  1.
         12    1    3    3    0    0  0.98039373948E+01  0.56944132621E+01  0.24447108428E+02  0.26948184379E+02  0.00000000000E+00 0. -1.
</event>
<event>
 7    1  0.1465498E-013  0.7246156E+02  0.7816164E-02  0.1226708E+00
        -11   -1    0    0    0    0  0.00000000000E+00  0.00000000000E+00  0.45593999997E+02  0.45594000000E+02  0.51100000000E-03 0.  1.
         11   -1    0    0    0    0 -0.00000000000E+00 -0.00000000000E+00 -0.45593999997E+02  0.45594000000E+02  0.51100000000E-03 0. -1.
    9900012    2    1    2    0    0 -0.66746406119E+01  0.77523293930E+00  0.17479356944E+02  0.72461555261E+02  0.69999980416E+02 0.  0.
         12    1    1    2    0    0  0.66746406119E+01 -0.77523293930E+00 -0.17479356944E+02  0.18726444739E+02  0.00000000000E+00 0. -1.
         11    1    3    3    0    0 -0.15811426198E+01 -0.31741426062E+01 -0.37239944657E-01  0.35463474651E+01  0.51100000000E-03 0. -1.
        -11    1    3    3    0    0 -0.18958884641E+02 -0.41212214141E+01  0.38137240056E+02  0.42788700052E+02  0.51100000000E-03 0.  1.
         12    1    3    3    0    0  0.13865386649E+02  0.80705969596E+01 -0.20620643168E+02  0.26126507743E+02  0.00000000000E+00 0. -1.
</event>
<event>
 7    1  0.1465498E-013  0.7246158E+02  0.7816164E-02  0.1226708E+00
        -11   -1    0    0    0    0  0.00000000000E+00  0.00000000000E+00  0.45593999997E+02  0.45594000000E+02  0.51100000000E-03 0. -1.
         11   -1    0    0    0    0 -0.00000000000E+00 -0.00000000000E+00 -0.45593999997E+02  0.45594000000E+02  0.51100000000E-03 0.  1.
    9900012    2    1    2    0    0 -0.11594139796E+02  0.94153189832E+01 -0.11296312731E+02  0.72461575075E+02  0.70000006227E+02 0.  0.
         12    1    1    2    0    0  0.11594139796E+02 -0.94153189832E+01  0.11296312731E+02  0.18726424925E+02  0.00000000000E+00 0. -1.
         11    1    3    3    0    0 -0.10372813319E+02 -0.82076612422E+01  0.94624070185E+00  0.13261083325E+02  0.51100000000E-03 0. -1.
        -11    1    3    3    0    0 -0.20801410958E+02 -0.39018068366E+01 -0.19965054932E+02  0.29095123529E+02  0.51100000000E-03 0.  1.
         12    1    3    3    0    0  0.19580084481E+02  0.21524787062E+02  0.77225014996E+01  0.30105368222E+02  0.00000000000E+00 0. -1.
</event>
<event>
 7    1  0.1465498E-013  0.7246154E+02  0.7816164E-02  0.1226708E+00
        -11   -1    0    0    0    0  0.00000000000E+00  0.00000000000E+00  0.45593999997E+02  0.45594000000E+02  0.51100000000E-03 0. -1.
         11   -1    0    0    0    0 -0.00000000000E+00 -0.00000000000E+00 -0.45593999997E+02  0.45594000000E+02  0.51100000000E-03 0.  1.
    9900012    2    1    2    0    0 -0.75364244980E+01 -0.10855148399E+02 -0.13268321483E+02  0.72461540219E+02  0.69999960821E+02 0.  0.
         12    1    1    2    0    0  0.75364244980E+01  0.10855148399E+02  0.13268321483E+02  0.18726459781E+02  0.00000000000E+00 0. -1.
         11    1    3    3    0    0 -0.13942739713E+02 -0.39543402047E+01  0.97126983258E+00  0.14525156196E+02  0.51100000000E-03 0. -1.
        -11    1    3    3    0    0  0.58377889089E+01  0.46236651814E+01 -0.34134606382E+02  0.34937507240E+02  0.51100000000E-03 0.  1.
         12    1    3    3    0    0  0.56852630607E+00 -0.11524473376E+02  0.19895015067E+02  0.22998876783E+02  0.00000000000E+00 0. -1.
</event>
<event>
 7    1  0.1465498E-013  0.7246157E+02  0.7816164E-02  0.1226708E+00
        -11   -1    0    0    0    0  0.00000000000E+00  0.00000000000E+00  0.45593999997E+02  0.45594000000E+02  0.51100000000E-03 0.  1.
         11   -1    0    0    0    0 -0.00000000000E+00 -0.00000000000E+00 -0.45593999997E+02  0.45594000000E+02  0.51100000000E-03 0. -1.
    9900012    2    1    2    0    0 -0.75466585720E+01 -0.11530371569E+02  0.12679808500E+02  0.72461573012E+02  0.70000003540E+02 0.  0.
         12    1    1    2    0    0  0.75466585720E+01  0.11530371569E+02 -0.12679808500E+02  0.18726426988E+02  0.00000000000E+00 0. -1.
         11    1    3    3    0    0  0.70493854661E+01 -0.37667464472E+01  0.88876040837E+01  0.11952895919E+02  0.51100000000E-03 0. -1.
        -11    1    3    3    0    0  0.11695697320E+01 -0.25655034644E+02  0.19245643592E+02  0.32092732721E+02  0.51100000000E-03 0.  1.
         12    1    3    3    0    0 -0.15765613770E+02  0.17891409522E+02 -0.15453439175E+02  0.28415944372E+02  0.00000000000E+00 0. -1.
</event>
<event>
 7    1  0.1465498E-013  0.7246152E+02  0.7816164E-02  0.1226708E+00
        -11   -1    0    0    0    0  0.00000000000E+00  0.00000000000E+00  0.45593999997E+02  0.45594000000E+02  0.51100000000E-03 0. -1.
         11   -1    0    0    0    0 -0.00000000000E+00 -0.00000000000E+00 -0.45593999997E+02  0.45594000000E+02  0.51100000000E-03 0.  1.
    9900012    2    1    2    0    0  0.71725670697E+01 -0.25374623801E+01 -0.17111299913E+02  0.72461520929E+02  0.69999935692E+02 0.  0.
         12    1    1    2    0    0 -0.71725670697E+01  0.25374623801E+01  0.17111299913E+02  0.18726479071E+02  0.00000000000E+00 0. -1.
         11    1    3    3    0    0  0.15670877844E+02 -0.19304325878E+01 -0.57230599862E+01  0.16794534773E+02  0.51100000000E-03 0. -1.
        -11    1    3    3    0    0  0.10136951158E+02 -0.20269442015E+02 -0.16584334793E+02  0.28082881248E+02  0.51100000000E-03 0.  1.
         12    1    3    3    0    0 -0.18635261932E+02  0.19662412223E+02  0.51960948665E+01  0.27584104908E+02  0.00000000000E+00 0. -1.
</event>
<event>
 7    1  0.1465498E-013  0.7246164E+02  0.7816164E-02  0.1226708E+00
        -11   -1    0    0    0    0  0.00000000000E+00  0.00000000000E+00  0.45593999997E+02  0.45594000000E+02  0.51100000000E-03 0. -1.
         11   -1    0    0    0    0 -0.00000000000E+00 -0.00000000000E+00 -0.45593999997E+02  0.45594000000E+02  0.51100000000E-03 0.  1.
    9900012    2    1    2    0    0 -0.81219334795E+01  0.21003420469E+01 -0.16742144426E+02  0.72461637830E+02  0.70000087977E+02 0.  0.
         12    1    1    2    0    0  0.81219334795E+01 -0.21003420469E+01  0.16742144426E+02  0.18726362170E+02  0.00000000000E+00 0. -1.
         11    1    3    3    0    0  0.69208350227E+01  0.48316825675E+01 -0.13654217183E+02  0.16052437852E+02  0.51100000000E-03 0. -1.
        -11    1    3    3    0    0 -0.30322258911E+02  0.91890238807E+01 -0.13464937517E+02  0.34426473649E+02  0.51100000000E-03 0.  1.
         12    1    3    3    0    0  0.15279490409E+02 -0.11920364401E+02  0.10377010274E+02  0.21982726328E+02  0.00000000000E+00 0. -1.
</event>
<event>
 7    1  0.1465498E-013  0.7246139E+02  0.7816164E-02  0.1226708E+00
        -11   -1    0    0    0    0  0.00000000000E+00  0.00000000000E+00  0.45593999997E+02  0.45594000000E+02  0.51100000000E-03 0. -1.
         11   -1    0    0    0    0 -0.00000000000E+00 -0.00000000000E+00 -0.45593999997E+02  0.45594000000E+02  0.51100000000E-03 0.  1.
    9900012    2    1    2    0    0 -0.14272594117E+02 -0.45980039202E+01 -0.11217726573E+02  0.72461388658E+02  0.69999763384E+02 0.  0.
         12    1    1    2    0    0  0.14272594117E+02  0.45980039202E+01  0.11217726573E+02  0.18726611342E+02  0.00000000000E+00 0. -1.
         11    1    3    3    0    0  0.72076318783E+01 -0.15514722189E+02  0.15320578998E+02  0.22964683821E+02  0.51100000000E-03 0. -1.
        -11    1    3    3    0    0  0.74239699018E+01  0.96810583631E+01 -0.40527140079E+01  0.12855454532E+02  0.51100000000E-03 0.  1.
        -12    1    3    3    0    0 -0.28904195898E+02  0.12356599061E+01 -0.22485591564E+02  0.36641250304E+02  0.00000000000E+00 0.  1.
</event>
<event>
 7    1  0.1465498E-013  0.7246151E+02  0.7816164E-02  0.1226708E+00
        -11   -1    0    0    0    0  0.00000000000E+00  0.00000000000E+00  0.45593999997E+02  0.45594000000E+02  0.51100000000E-03 0. -1.
         11   -1    0    0    0    0 -0.00000000000E+00 -0.00000000000E+00 -0.45593999997E+02  0.45594000000E+02  0.51100000000E-03 0.  1.
    9900012    2    1    2    0    0 -0.12811441197E+02  0.68017903043E+01 -0.11844153976E+02  0.72461511800E+02  0.69999923800E+02 0.  0.
         12    1    1    2    0    0  0.12811441197E+02 -0.68017903043E+01  0.11844153976E+02  0.18726488200E+02  0.00000000000E+00 0. -1.
         11    1    3    3    0    0 -0.21176522190E+01  0.18112722700E+02  0.20552922444E+02  0.27476859278E+02  0.51100000000E-03 0. -1.
        -11    1    3    3    0    0 -0.41494745011E+00  0.85144304832E+01 -0.60856166931E+01  0.10473893194E+02  0.51100000000E-03 0.  1.
         12    1    3    3    0    0 -0.10278841528E+02 -0.19825362879E+02 -0.26311459727E+02  0.34510759328E+02  0.00000000000E+00 0. -1.
</event>
<event>
 7    1  0.1465498E-013  0.7246162E+02  0.7816164E-02  0.1226708E+00
        -11   -1    0    0    0    0  0.00000000000E+00  0.00000000000E+00  0.45593999997E+02  0.45594000000E+02  0.51100000000E-03 0. -1.
         11   -1    0    0    0    0 -0.00000000000E+00 -0.00000000000E+00 -0.45593999997E+02  0.45594000000E+02  0.51100000000E-03 0.  1.
    9900012    2    1    2    0    0  0.18166332000E+01  0.60441281671E+01 -0.17630820855E+02  0.72461615258E+02  0.70000058573E+02 0.  0.
         12    1    1    2    0    0 -0.18166332000E+01 -0.60441281671E+01  0.17630820855E+02  0.18726384742E+02  0.00000000000E+00 0. -1.
         11    1    3    3    0    0  0.16929741384E+01  0.15163032458E+02 -0.24746013241E+02  0.29071444518E+02  0.51100000000E-03 0. -1.
        -11    1    3    3    0    0 -0.63843552484E+01  0.12581306507E+02 -0.79395793000E+01  0.16189076103E+02  0.51100000000E-03 0.  1.
        -12    1    3    3    0    0  0.65080143100E+01 -0.21700210798E+02  0.15054771686E+02  0.27201094637E+02  0.00000000000E+00 0.  1.
</event>
<event>
 7    1  0.1465498E-013  0.7246158E+02  0.7816164E-02  0.1226708E+00
        -11   -1    0    0    0    0  0.00000000000E+00  0.00000000000E+00  0.45593999997E+02  0.45594000000E+02  0.51100000000E-03 0.  1.
         11   -1    0    0    0    0 -0.00000000000E+00 -0.00000000000E+00 -0.45593999997E+02  0.45594000000E+02  0.51100000000E-03 0. -1.
    9900012    2    1    2    0    0  0.31185684095E+00 -0.11336009310E+02  0.14902227725E+02  0.72461581418E+02  0.70000014490E+02 0.  0.
         12    1    1    2    0    0 -0.31185684095E+00  0.11336009310E+02 -0.14902227725E+02  0.18726418582E+02  0.00000000000E+00 0. -1.
         11    1    3    3    0    0  0.14321785071E+02 -0.13571968485E+01 -0.82629563006E+00  0.14409659108E+02  0.51100000000E-03 0. -1.
        -11    1    3    3    0    0  0.78188546393E+01  0.17551547186E+02  0.12155420853E+02  0.22736436679E+02  0.51100000000E-03 0.  1.
         12    1    3    3    0    0 -0.21828782869E+02 -0.27530359647E+02  0.35731025022E+01  0.35315485631E+02  0.00000000000E+00 0. -1.
</event>
<event>
 7    1  0.1465498E-013  0.7246161E+02  0.7816164E-02  0.1226708E+00
        -11   -1    0    0    0    0  0.00000000000E+00  0.00000000000E+00  0.45593999997E+02  0.45594000000E+02  0.51100000000E-03 0.  1.
         11   -1    0    0    0    0 -0.00000000000E+00 -0.00000000000E+00 -0.45593999997E+02  0.45594000000E+02  0.51100000000E-03 0. -1.
    9900012    2    1    2    0    0  0.11781322411E+01  0.15771578049E+02 -0.10027317422E+02  0.72461607811E+02  0.70000048872E+02 0.  0.
         12    1    1    2    0    0 -0.11781322411E+01 -0.15771578049E+02  0.10027317422E+02  0.18726392189E+02  0.00000000000E+00 0. -1.
         11    1    3    3    0    0  0.83400089988E+01  0.10443499337E+02 -0.22248594639E+02  0.25954236498E+02  0.51100000000E-03 0. -1.
        -11    1    3    3    0    0 -0.14567997014E+02  0.20340142457E+02 -0.12060039185E+01  0.25048001475E+02  0.51100000000E-03 0.  1.
         12    1    3    3    0    0  0.74061202563E+01 -0.15012063745E+02  0.13427281135E+02  0.21459369838E+02  0.00000000000E+00 0. -1.
</event>
<event>
 7    1  0.1512869E-013  0.7246159E+02  0.7816164E-02  0.1226708E+00
        -11   -1    0    0    0    0  0.00000000000E+00  0.00000000000E+00  0.45593999997E+02  0.45594000000E+02  0.51100000000E-03 0.  1.
         11   -1    0    0    0    0 -0.00000000000E+00 -0.00000000000E+00 -0.45593999997E+02  0.45594000000E+02  0.51100000000E-03 0. -1.
    9900012    2    1    2    0    0 -0.15918291459E+01  0.17515186553E+02 -0.64313841828E+01  0.72461591307E+02  0.70000027373E+02 0.  0.
         12    1    1    2    0    0  0.15918291459E+01 -0.17515186553E+02  0.64313841828E+01  0.18726408693E+02  0.00000000000E+00 0. -1.
         11    1    3    3    0    0  0.18090027686E+02 -0.14654769923E+02 -0.31539663102E+01  0.23493805289E+02  0.51100000000E-03 0. -1.
        -11    1    3    3    0    0 -0.76207348921E+00 -0.25242337214E+01  0.75470903377E+01  0.79944408629E+01  0.51100000000E-03 0.  1.
        -12    1    3    3    0    0 -0.18919783343E+02  0.34694190198E+02 -0.10824508210E+02  0.40973345156E+02  0.00000000000E+00 0.  1.
</event>
<event>
 7    1  0.1465498E-013  0.7246158E+02  0.7816164E-02  0.1226708E+00
        -11   -1    0    0    0    0  0.00000000000E+00  0.00000000000E+00  0.45593999997E+02  0.45594000000E+02  0.51100000000E-03 0. -1.
         11   -1    0    0    0    0 -0.00000000000E+00 -0.00000000000E+00 -0.45593999997E+02  0.45594000000E+02  0.51100000000E-03 0.  1.
    9900012    2    1    2    0    0  0.53624883663E+01  0.10862730947E+02 -0.14280179977E+02  0.72461581622E+02  0.70000014756E+02 0.  0.
         12    1    1    2    0    0 -0.53624883663E+01 -0.10862730947E+02  0.14280179977E+02  0.18726418378E+02  0.00000000000E+00 0. -1.
         11    1    3    3    0    0  0.12212772332E+02  0.17430551587E+02  0.27742169060E+01  0.21463275993E+02  0.51100000000E-03 0. -1.
        -11    1    3    3    0    0  0.68969667099E+01 -0.10199932518E+02  0.12904548988E+02  0.17836315708E+02  0.51100000000E-03 0.  1.
        -12    1    3    3    0    0 -0.13747250676E+02  0.36321118790E+01 -0.29958945871E+02  0.33161989921E+02  0.00000000000E+00 0.  1.
</event>
<event>
 7    1  0.1465498E-013  0.7246153E+02  0.7816164E-02  0.1226708E+00
        -11   -1    0    0    0    0  0.00000000000E+00  0.00000000000E+00  0.45593999997E+02  0.45594000000E+02  0.51100000000E-03 0.  1.
         11   -1    0    0    0    0 -0.00000000000E+00 -0.00000000000E+00 -0.45593999997E+02  0.45594000000E+02  0.51100000000E-03 0. -1.
    9900012    2    1    2    0    0  0.83629000792E+01  0.15114317152E+02  0.72318746173E+01  0.72461529665E+02  0.69999947073E+02 0.  0.
         12    1    1    2    0    0 -0.83629000792E+01 -0.15114317152E+02 -0.72318746173E+01  0.18726470335E+02  0.00000000000E+00 0. -1.
         11    1    3    3    0    0  0.14632812645E+02  0.17537407315E+01 -0.13089701949E+02  0.19711293967E+02  0.51100000000E-03 0. -1.
        -11    1    3    3    0    0  0.49067155485E+01 -0.12573545024E+02 -0.54142930932E+01  0.14542505352E+02  0.51100000000E-03 0.  1.
        -12    1    3    3    0    0 -0.11176628115E+02  0.25934121445E+02  0.25735869659E+02  0.38207730347E+02  0.00000000000E+00 0.  1.
</event>
<event>
 7    1  0.1465498E-013  0.7246157E+02  0.7816164E-02  0.1226708E+00
        -11   -1    0    0    0    0  0.00000000000E+00  0.00000000000E+00  0.45593999997E+02  0.45594000000E+02  0.51100000000E-03 0. -1.
         11   -1    0    0    0    0 -0.00000000000E+00 -0.00000000000E+00 -0.45593999997E+02  0.45594000000E+02  0.51100000000E-03 0.  1.
    9900012    2    1    2    0    0  0.13966738976E+02 -0.12168337003E+02  0.27460842008E+01  0.72461569441E+02  0.69999998888E+02 0.  0.
         12    1    1    2    0    0 -0.13966738976E+02  0.12168337003E+02 -0.27460842008E+01  0.18726430559E+02  0.00000000000E+00 0. -1.
         11    1    3    3    0    0  0.51552593438E+01  0.11110211623E+02  0.95675659162E-01  0.12248373578E+02  0.51100000000E-03 0. -1.
        -11    1    3    3    0    0  0.31329031660E+02 -0.73331595751E+01  0.48270612941E+01  0.32535887495E+02  0.51100000000E-03 0.  1.
         12    1    3    3    0    0 -0.22517552027E+02 -0.15945389051E+02 -0.21766527525E+01  0.27677308368E+02  0.00000000000E+00 0. -1.
</event>
<event>
 7    1  0.1465498E-013  0.7246156E+02  0.7816164E-02  0.1226708E+00
        -11   -1    0    0    0    0  0.00000000000E+00  0.00000000000E+00  0.45593999997E+02  0.45594000000E+02  0.51100000000E-03 0.  1.
         11   -1    0    0    0    0 -0.00000000000E+00 -0.00000000000E+00 -0.45593999997E+02  0.45594000000E+02  0.51100000000E-03 0. -1.
    9900012    2    1    2    0    0  0.51121477336E+00 -0.16987409815E+02  0.78642268626E+01  0.72461561553E+02  0.69999988613E+02 0.  0.
         12    1    1    2    0    0 -0.51121477336E+00  0.16987409815E+02 -0.78642268626E+01  0.18726438447E+02  0.00000000000E+00 0. -1.
         11    1    3    3    0    0  0.12733924598E+02 -0.26926050679E+02  0.73180349233E+01  0.30671137511E+02  0.51100000000E-03 0. -1.
        -11    1    3    3    0    0  0.95709800851E+01  0.20465138530E+01 -0.11959076512E+02  0.15453523547E+02  0.51100000000E-03 0.  1.
        -12    1    3    3    0    0 -0.21793689909E+02  0.78921270112E+01  0.12505268451E+02  0.26336900495E+02  0.00000000000E+00 0.  1.
</event>
<event>
 7    1  0.1465498E-013  0.7246161E+02  0.7816164E-02  0.1226708E+00
        -11   -1    0    0    0    0  0.00000000000E+00  0.00000000000E+00  0.45593999997E+02  0.45594000000E+02  0.51100000000E-03 0.  1.
         11   -1    0    0    0    0 -0.00000000000E+00 -0.00000000000E+00 -0.45593999997E+02  0.45594000000E+02  0.51100000000E-03 0. -1.
    9900012    2    1    2    0    0  0.10705831722E+02  0.79052928115E+01  0.13174571034E+02  0.72461606614E+02  0.70000047314E+02 0.  0.
         12    1    1    2    0    0 -0.10705831722E+02 -0.79052928115E+01 -0.13174571034E+02  0.18726393386E+02  0.00000000000E+00 0. -1.
         11    1    3    3    0    0 -0.17189138225E+02 -0.58018469506E+00  0.66026111996E+01  0.18422745781E+02  0.51100000000E-03 0. -1.
        -11    1    3    3    0    0  0.12855723117E+02 -0.18492600932E+02  0.52382420345E+01  0.23123258550E+02  0.51100000000E-03 0.  1.
        -12    1    3    3    0    0  0.15039246829E+02  0.26978078438E+02  0.13337178001E+01  0.30915602284E+02  0.00000000000E+00 0.  1.
</event>
<event>
 7    1  0.1465498E-013  0.7246156E+02  0.7816164E-02  0.1226708E+00
        -11   -1    0    0    0    0  0.00000000000E+00  0.00000000000E+00  0.45593999997E+02  0.45594000000E+02  0.51100000000E-03 0. -1.
         11   -1    0    0    0    0 -0.00000000000E+00 -0.00000000000E+00 -0.45593999997E+02  0.45594000000E+02  0.51100000000E-03 0.  1.
    9900012    2    1    2    0    0  0.15728038543E+02 -0.95694114920E+01 -0.34256106247E+01  0.72461557709E+02  0.69999983605E+02 0.  0.
         12    1    1    2    0    0 -0.15728038543E+02  0.95694114920E+01  0.34256106247E+01  0.18726442291E+02  0.00000000000E+00 0. -1.
         11    1    3    3    0    0  0.47302441080E+01 -0.12132686902E+02  0.60137308753E+01  0.14343718489E+02  0.51100000000E-03 0. -1.
        -11    1    3    3    0    0 -0.43037445912E+01 -0.25209956087E+02 -0.55587680520E+01  0.26171817017E+02  0.51100000000E-03 0.  1.
         12    1    3    3    0    0  0.15301539026E+02  0.27773231497E+02 -0.38805734480E+01  0.31946022204E+02  0.00000000000E+00 0. -1.
</event>
<event>
 7    1  0.1465498E-013  0.7246155E+02  0.7816164E-02  0.1226708E+00
        -11   -1    0    0    0    0  0.00000000000E+00  0.00000000000E+00  0.45593999997E+02  0.45594000000E+02  0.51100000000E-03 0. -1.
         11   -1    0    0    0    0 -0.00000000000E+00 -0.00000000000E+00 -0.45593999997E+02  0.45594000000E+02  0.51100000000E-03 0.  1.
    9900012    2    1    2    0    0  0.11944915535E+02 -0.14369612246E+02  0.12300495128E+01  0.72461553860E+02  0.69999978591E+02 0.  0.
         12    1    1    2    0    0 -0.11944915535E+02  0.14369612246E+02 -0.12300495128E+01  0.18726446140E+02  0.00000000000E+00 0. -1.
         11    1    3    3    0    0 -0.38165605680E+01  0.19888620714E+02  0.17440196799E+02  0.26726088998E+02  0.51100000000E-03 0. -1.
        -11    1    3    3    0    0 -0.39007833101E+00 -0.71113985776E+01  0.40645866452E+01  0.82003058292E+01  0.51100000000E-03 0.  1.
        -12    1    3    3    0    0  0.16151554434E+02 -0.27146834383E+02 -0.20274733931E+02  0.37535159033E+02  0.00000000000E+00 0.  1.
</event>
<event>
 7    1  0.1465498E-013  0.7246160E+02  0.7816164E-02  0.1226708E+00
        -11   -1    0    0    0    0  0.00000000000E+00  0.00000000000E+00  0.45593999997E+02  0.45594000000E+02  0.51100000000E-03 0.  1.
         11   -1    0    0    0    0 -0.00000000000E+00 -0.00000000000E+00 -0.45593999997E+02  0.45594000000E+02  0.51100000000E-03 0. -1.
    9900012    2    1    2    0    0  0.10352171078E+02  0.17356017180E+01  0.15508010766E+02  0.72461597322E+02  0.70000035208E+02 0.  0.
         12    1    1    2    0    0 -0.10352171078E+02 -0.17356017180E+01 -0.15508010766E+02  0.18726402678E+02  0.00000000000E+00 0. -1.
         11    1    3    3    0    0  0.91778110525E+00 -0.40407021915E+01  0.23830326493E+02  0.24187890717E+02  0.51100000000E-03 0.  1.
        -11    1    3    3    0    0 -0.15611740685E+02  0.96751034867E+01  0.57957598445E+01  0.19259410872E+02  0.51100000000E-03 0. -1.
         12    1    3    3    0    0  0.25046130657E+02 -0.38987995772E+01 -0.14118075571E+02  0.29014295733E+02  0.00000000000E+00 0. -1.
</event>
<event>
 7    1  0.1465498E-013  0.7246154E+02  0.7816164E-02  0.1226708E+00
        -11   -1    0    0    0    0  0.00000000000E+00  0.00000000000E+00  0.45593999997E+02  0.45594000000E+02  0.51100000000E-03 0. -1.
         11   -1    0    0    0    0 -0.00000000000E+00 -0.00000000000E+00 -0.45593999997E+02  0.45594000000E+02  0.51100000000E-03 0.  1.
    9900012    2    1    2    0    0  0.64315729807E+01 -0.17371528551E+02 -0.27468365488E+01  0.72461541546E+02  0.69999962549E+02 0.  0.
         12    1    1    2    0    0 -0.64315729807E+01  0.17371528551E+02  0.27468365488E+01  0.18726458454E+02  0.00000000000E+00 0. -1.
         11    1    3    3    0    0  0.11019443378E+01  0.35076436377E+01  0.70078173252E+01  0.79137443184E+01  0.51100000000E-03 0. -1.
        -11    1    3    3    0    0  0.23265769229E+02 -0.30107947555E+02 -0.18800637877E+02  0.42441118136E+02  0.51100000000E-03 0.  1.
         12    1    3    3    0    0 -0.17936140586E+02  0.92287753655E+01  0.90459840027E+01  0.22106679091E+02  0.00000000000E+00 0. -1.
</event>
<event>
 7    1  0.1465498E-013  0.7246156E+02  0.7816164E-02  0.1226708E+00
        -11   -1    0    0    0    0  0.00000000000E+00  0.00000000000E+00  0.45593999997E+02  0.45594000000E+02  0.51100000000E-03 0. -1.
         11   -1    0    0    0    0 -0.00000000000E+00 -0.00000000000E+00 -0.45593999997E+02  0.45594000000E+02  0.51100000000E-03 0.  1.
    9900012    2    1    2    0    0  0.18558597525E+01  0.10041501361E+02 -0.15697245567E+02  0.72461561914E+02  0.69999989083E+02 0.  0.
         12    1    1    2    0    0 -0.18558597525E+01 -0.10041501361E+02  0.15697245567E+02  0.18726438086E+02  0.00000000000E+00 0. -1.
         11    1    3    3    0    0 -0.11425225444E+00 -0.37270262111E+01  0.52943608662E+01  0.64756494036E+01  0.51100000000E-03 0. -1.
        -11    1    3    3    0    0  0.49542724299E+01 -0.17336691553E+02  0.11116583960E+02  0.21182165340E+02  0.51100000000E-03 0.  1.
        -12    1    3    3    0    0 -0.29841604230E+01  0.31105219125E+02 -0.32108190392E+02  0.44803747170E+02  0.00000000000E+00 0.  1.
</event>
<event>
 7    1  0.1465498E-013  0.7246158E+02  0.7816164E-02  0.1226708E+00
        -11   -1    0    0    0    0  0.00000000000E+00  0.00000000000E+00  0.45593999997E+02  0.45594000000E+02  0.51100000000E-03 0.  1.
         11   -1    0    0    0    0 -0.00000000000E+00 -0.00000000000E+00 -0.45593999997E+02  0.45594000000E+02  0.51100000000E-03 0. -1.
    9900012    2    1    2    0    0  0.15558713930E+02 -0.58537708930E+01  0.86219843677E+01  0.72461579433E+02  0.70000011905E+02 0.  0.
         12    1    1    2    0    0 -0.15558713930E+02  0.58537708930E+01 -0.86219843677E+01  0.18726420567E+02  0.00000000000E+00 0. -1.
         11    1    3    3    0    0  0.10771030478E+01 -0.20320412673E+01  0.25987711895E+01  0.34702960456E+01  0.51100000000E-03 0. -1.
        -11    1    3    3    0    0 -0.22479274568E+02  0.11848959832E+02  0.12512447744E+02  0.28324494400E+02  0.51100000000E-03 0.  1.
         12    1    3    3    0    0  0.36960885450E+02 -0.15670689458E+02 -0.64892345654E+01  0.40666788988E+02  0.00000000000E+00 0. -1.
</event>
<event>
 7    1  0.1598428E-013  0.7246155E+02  0.7816164E-02  0.1226708E+00
        -11   -1    0    0    0    0  0.00000000000E+00  0.00000000000E+00  0.45593999997E+02  0.45594000000E+02  0.51100000000E-03 0. -1.
         11   -1    0    0    0    0 -0.00000000000E+00 -0.00000000000E+00 -0.45593999997E+02  0.45594000000E+02  0.51100000000E-03 0.  1.
    9900012    2    1    2    0    0 -0.71039683270E+01  0.17220842940E+02 -0.19121003951E+01  0.72461550110E+02  0.69999973707E+02 0.  0.
         12    1    1    2    0    0  0.71039683270E+01 -0.17220842940E+02  0.19121003951E+01  0.18726449890E+02  0.00000000000E+00 0. -1.
         11    1    3    3    0    0 -0.16181809927E+00 -0.13052712370E+02  0.20471269532E+02  0.24279051914E+02  0.51100000000E-03 0. -1.
        -11    1    3    3    0    0 -0.64129968022E+01  0.10732357230E+02  0.58810878193E+01  0.13816555790E+02  0.51100000000E-03 0.  1.
        -12    1    3    3    0    0 -0.52915342552E+00  0.19541198080E+02 -0.28264457747E+02  0.34365942406E+02  0.00000000000E+00 0.  1.
</event>
<event>
 7    1  0.1465498E-013  0.7246160E+02  0.7816164E-02  0.1226708E+00
        -11   -1    0    0    0    0  0.00000000000E+00  0.00000000000E+00  0.45593999997E+02  0.45594000000E+02  0.51100000000E-03 0. -1.
         11   -1    0    0    0    0 -0.00000000000E+00 -0.00000000000E+00 -0.45593999997E+02  0.45594000000E+02  0.51100000000E-03 0.  1.
    9900012    2    1    2    0    0 -0.77322072642E+00  0.14604914908E+01 -0.18653343863E+02  0.72461597704E+02  0.70000035706E+02 0.  0.
         12    1    1    2    0    0  0.77322072642E+00 -0.14604914908E+01  0.18653343863E+02  0.18726402296E+02  0.00000000000E+00 0. -1.
         11    1    3    3    0    0 -0.41628324179E+01  0.26484634807E+02 -0.14313873421E+02  0.30391644035E+02  0.51100000000E-03 0. -1.
        -11    1    3    3    0    0  0.83710950354E+01  0.48282893156E+01 -0.66281042127E+01  0.11718335015E+02  0.51100000000E-03 0.  1.
         12    1    3    3    0    0 -0.49814833440E+01 -0.29852432632E+02  0.22886337708E+01  0.30351618654E+02  0.00000000000E+00 0. -1.
</event>
<event>
 7    1  0.1465498E-013  0.7246149E+02  0.7816164E-02  0.1226708E+00
        -11   -1    0    0    0    0  0.00000000000E+00  0.00000000000E+00  0.45593999997E+02  0.45594000000E+02  0.51100000000E-03 0.  1.
         11   -1    0    0    0    0 -0.00000000000E+00 -0.00000000000E+00 -0.45593999997E+02  0.45594000000E+02  0.51100000000E-03 0. -1.
    9900012    2    1    2    0    0  0.14021840102E+02 -0.47338365752E+01  0.11474354318E+02  0.72461494304E+02  0.69999901009E+02 0.  0.
         12    1    1    2    0    0 -0.14021840102E+02  0.47338365752E+01 -0.11474354318E+02  0.18726505696E+02  0.00000000000E+00 0. -1.
         11    1    3    3    0    0 -0.67585106089E+01 -0.84923920452E+01 -0.16016746269E+02  0.19347722078E+02  0.51100000000E-03 0. -1.
        -11    1    3    3    0    0  0.29138624950E+02  0.50529005528E+01  0.62168203569E+01  0.30219863064E+02  0.51100000000E-03 0.  1.
        -12    1    3    3    0    0 -0.83582742397E+01 -0.12943450828E+01  0.21274280230E+02  0.22893909163E+02  0.00000000000E+00 0.  1.
</event>
<event>
 7    1  0.1465498E-013  0.7246157E+02  0.7816164E-02  0.1226708E+00
        -11   -1    0    0    0    0  0.00000000000E+00  0.00000000000E+00  0.45593999997E+02  0.45594000000E+02  0.51100000000E-03 0. -1.
         11   -1    0    0    0    0 -0.00000000000E+00 -0.00000000000E+00 -0.45593999997E+02  0.45594000000E+02  0.51100000000E-03 0.  1.
    9900012    2    1    2    0    0  0.10278836673E+02 -0.15566276392E+02 -0.16479593262E+01  0.72461569106E+02  0.69999998453E+02 0.  0.
         12    1    1    2    0    0 -0.10278836673E+02  0.15566276392E+02  0.16479593262E+01  0.18726430894E+02  0.00000000000E+00 0. -1.
         11    1    3    3    0    0  0.20020660272E+02  0.12412338996E+02  0.15320409607E+02  0.28099963485E+02  0.51100000000E-03 0. -1.
        -11    1    3    3    0    0  0.85840424482E+01 -0.17185738668E+02 -0.11547084524E+02  0.22413624419E+02  0.51100000000E-03 0.  1.
        -12    1    3    3    0    0 -0.18325866047E+02 -0.10792876720E+02 -0.54212844084E+01  0.21947981203E+02  0.00000000000E+00 0.  1.
</event>
<event>
 7    1  0.2766027E-013  0.7246159E+02  0.7816164E-02  0.1226708E+00
        -11   -1    0    0    0    0  0.00000000000E+00  0.00000000000E+00  0.45593999997E+02  0.45594000000E+02  0.51100000000E-03 0. -1.
         11   -1    0    0    0    0 -0.00000000000E+00 -0.00000000000E+00 -0.45593999997E+02  0.45594000000E+02  0.51100000000E-03 0.  1.
    9900012    2    1    2    0    0 -0.73906743815E+01  0.62053974189E+01 -0.16048347072E+02  0.72461589006E+02  0.70000024376E+02 0.  0.
         12    1    1    2    0    0  0.73906743815E+01 -0.62053974189E+01  0.16048347072E+02  0.18726410994E+02  0.00000000000E+00 0. -1.
         11    1    3    3    0    0 -0.12070493003E+02  0.12821364173E+02  0.98366511109E+01  0.20170371487E+02  0.51100000000E-03 0. -1.
        -11    1    3    3    0    0 -0.12634334236E+02  0.11910886860E+02 -0.20399996283E+01  0.17483055400E+02  0.51100000000E-03 0.  1.
        -12    1    3    3    0    0  0.17314152858E+02 -0.18526853614E+02 -0.23844998555E+02  0.34808162119E+02  0.00000000000E+00 0.  1.
</event>
<event>
 7    1  0.1465498E-013  0.7246130E+02  0.7816164E-02  0.1226709E+00
        -11   -1    0    0    0    0  0.00000000000E+00  0.00000000000E+00  0.45593999997E+02  0.45594000000E+02  0.51100000000E-03 0.  1.
         11   -1    0    0    0    0 -0.00000000000E+00 -0.00000000000E+00 -0.45593999997E+02  0.45594000000E+02  0.51100000000E-03 0. -1.
    9900012    2    1    2    0    0  0.55432485387E+01 -0.11686071579E+02  0.13542424845E+02  0.72461303976E+02  0.69999653070E+02 0.  0.
         12    1    1    2    0    0 -0.55432485387E+01  0.11686071579E+02 -0.13542424845E+02  0.18726696024E+02  0.00000000000E+00 0. -1.
         11    1    3    3    0    0 -0.75846403410E+01  0.10895760343E+02  0.38658293961E+00  0.13281333110E+02  0.51100000000E-03 0. -1.
        -11    1    3    3    0    0 -0.14422369579E+02 -0.22613405888E+02  0.16402529224E+02  0.31439049529E+02  0.51100000000E-03 0.  1.
        -12    1    3    3    0    0  0.27550258458E+02  0.31573965950E-01 -0.32466873187E+01  0.27740921336E+02  0.00000000000E+00 0.  1.
</event>
<event>
 7    1  0.1465498E-013  0.7246155E+02  0.7816164E-02  0.1226708E+00
        -11   -1    0    0    0    0  0.00000000000E+00  0.00000000000E+00  0.45593999997E+02  0.45594000000E+02  0.51100000000E-03 0.  1.
         11   -1    0    0    0    0 -0.00000000000E+00 -0.00000000000E+00 -0.45593999997E+02  0.45594000000E+02  0.51100000000E-03 0. -1.
    9900012    2    1    2    0    0  0.13311562602E+02  0.13164652465E+02 -0.41733579355E+00  0.72461549653E+02  0.69999973111E+02 0.  0.
         12    1    1    2    0    0 -0.13311562602E+02 -0.13164652465E+02  0.41733579355E+00  0.18726450347E+02  0.00000000000E+00 0. -1.
         11    1    3    3    0    0 -0.57114133553E+00 -0.19116406864E+02 -0.60004431505E+01  0.20044164539E+02  0.51100000000E-03 0. -1.
        -11    1    3    3    0    0 -0.73457422977E+01  0.13902709728E+02 -0.11562682951E+02  0.19517707473E+02  0.51100000000E-03 0.  1.
        -12    1    3    3    0    0  0.21228446235E+02  0.18378349601E+02  0.17145790308E+02  0.32899677641E+02  0.00000000000E+00 0.  1.
</event>
<event>
 7    1  0.1465498E-013  0.7246156E+02  0.7816164E-02  0.1226708E+00
        -11   -1    0    0    0    0  0.00000000000E+00  0.00000000000E+00  0.45593999997E+02  0.45594000000E+02  0.51100000000E-03 0.  1.
         11   -1    0    0    0    0 -0.00000000000E+00 -0.00000000000E+00 -0.45593999997E+02  0.45594000000E+02  0.51100000000E-03 0. -1.
    9900012    2    1    2    0    0  0.91741597682E+01  0.14061318601E+02  0.82941855185E+01  0.72461564096E+02  0.69999991926E+02 0.  0.
         12    1    1    2    0    0 -0.91741597682E+01 -0.14061318601E+02 -0.82941855185E+01  0.18726435904E+02  0.00000000000E+00 0. -1.
         11    1    3    3    0    0 -0.21018254226E+02  0.20838146471E+02 -0.15568546197E+01  0.29638136845E+02  0.51100000000E-03 0. -1.
        -11    1    3    3    0    0  0.40467400212E+01 -0.73026014259E+00 -0.90897703468E+01  0.99766382060E+01  0.51100000000E-03 0.  1.
        -12    1    3    3    0    0  0.26145673973E+02 -0.60465677280E+01  0.18940810485E+02  0.32846789045E+02  0.00000000000E+00 0.  1.
</event>
<event>
 7    1  0.1794161E-013  0.7246145E+02  0.7816164E-02  0.1226708E+00
        -11   -1    0    0    0    0  0.00000000000E+00  0.00000000000E+00  0.45593999997E+02  0.45594000000E+02  0.51100000000E-03 0.  1.
         11   -1    0    0    0    0 -0.00000000000E+00 -0.00000000000E+00 -0.45593999997E+02  0.45594000000E+02  0.51100000000E-03 0. -1.
    9900012    2    1    2    0    0 -0.56530359409E+01 -0.12476569970E+02 -0.12769574286E+02  0.72461450905E+02  0.69999844473E+02 0.  0.
         12    1    1    2    0    0  0.56530359409E+01  0.12476569970E+02  0.12769574286E+02  0.18726549095E+02  0.00000000000E+00 0. -1.
         11    1    3    3    0    0  0.14470275353E+02  0.13139840725E+02  0.14172701456E+02  0.24143523974E+02  0.51100000000E-03 0. -1.
        -11    1    3    3    0    0 -0.22585989302E+01  0.21093917178E+01  0.26003363282E+01  0.40388800214E+01  0.51100000000E-03 0.  1.
        -12    1    3    3    0    0 -0.17864712364E+02 -0.27725802413E+02 -0.29542612070E+02  0.44279046909E+02  0.00000000000E+00 0.  1.
</event>
<event>
 7    1  0.1465498E-013  0.7246153E+02  0.7816164E-02  0.1226708E+00
        -11   -1    0    0    0    0  0.00000000000E+00  0.00000000000E+00  0.45593999997E+02  0.45594000000E+02  0.51100000000E-03 0. -1.
         11   -1    0    0    0    0 -0.00000000000E+00 -0.00000000000E+00 -0.45593999997E+02  0.45594000000E+02  0.51100000000E-03 0.  1.
    9900012    2    1    2    0    0 -0.14067905679E+02 -0.62336199135E+00  0.12344481450E+02  0.72461527490E+02  0.69999944240E+02 0.  0.
         12    1    1    2    0    0  0.14067905679E+02  0.62336199135E+00 -0.12344481450E+02  0.18726472510E+02  0.00000000000E+00 0. -1.
         11    1    3    3    0    0 -0.80340483582E+01 -0.12965921166E+02  0.23907903941E+02  0.28359282710E+02  0.51100000000E-03 0. -1.
        -11    1    3    3    0    0  0.20695844717E+01 -0.10729076396E+02  0.73664497103E+01  0.13178043929E+02  0.51100000000E-03 0.  1.
        -12    1    3    3    0    0 -0.81034417927E+01  0.23071635571E+02 -0.18929872201E+02  0.30924200852E+02  0.00000000000E+00 0.  1.
</event>
<event>
 7    1  0.1465498E-013  0.7246156E+02  0.7816164E-02  0.1226708E+00
        -11   -1    0    0    0    0  0.00000000000E+00  0.00000000000E+00  0.45593999997E+02  0.45594000000E+02  0.51100000000E-03 0.  1.
         11   -1    0    0    0    0 -0.00000000000E+00 -0.00000000000E+00 -0.45593999997E+02  0.45594000000E+02  0.51100000000E-03 0. -1.
    9900012    2    1    2    0    0  0.13164809113E+02 -0.11009719443E+02  0.74935604432E+01  0.72461559620E+02  0.69999986095E+02 0.  0.
         12    1    1    2    0    0 -0.13164809113E+02  0.11009719443E+02 -0.74935604432E+01  0.18726440380E+02  0.00000000000E+00 0. -1.
         11    1    3    3    0    0 -0.73002718313E+01  0.36908778322E+01 -0.36800533168E+01  0.89699130798E+01  0.51100000000E-03 0. -1.
        -11    1    3    3    0    0  0.94078041861E+00  0.19755692249E+02 -0.54890269449E+01  0.20525639115E+02  0.51100000000E-03 0.  1.
        -12    1    3    3    0    0  0.19524300526E+02 -0.34456289524E+02  0.16662640705E+02  0.42966007425E+02  0.00000000000E+00 0.  1.
</event>
<event>
 7    1  0.1526728E-013  0.7246159E+02  0.7816164E-02  0.1226708E+00
        -11   -1    0    0    0    0  0.00000000000E+00  0.00000000000E+00  0.45593999997E+02  0.45594000000E+02  0.51100000000E-03 0. -1.
         11   -1    0    0    0    0 -0.00000000000E+00 -0.00000000000E+00 -0.45593999997E+02  0.45594000000E+02  0.51100000000E-03 0.  1.
    9900012    2    1    2    0    0  0.15985285479E+02 -0.82051410641E+01 -0.52748997055E+01  0.72461594615E+02  0.70000031683E+02 0.  0.
         12    1    1    2    0    0 -0.15985285479E+02  0.82051410641E+01  0.52748997055E+01  0.18726405385E+02  0.00000000000E+00 0. -1.
         11    1    3    3    0    0 -0.18365187586E+02 -0.12150981300E+02  0.98986275340E+01  0.24143514428E+02  0.51100000000E-03 0. -1.
        -11    1    3    3    0    0  0.11156218740E+02 -0.92384953184E+01 -0.16055618206E+02  0.21623919361E+02  0.51100000000E-03 0.  1.
        -12    1    3    3    0    0  0.23194254325E+02  0.13184335554E+02  0.88209096615E+00  0.26694160826E+02  0.00000000000E+00 0.  1.
</event>
<event>
 7    1  0.1465498E-013  0.7246157E+02  0.7816164E-02  0.1226708E+00
        -11   -1    0    0    0    0  0.00000000000E+00  0.00000000000E+00  0.45593999997E+02  0.45594000000E+02  0.51100000000E-03 0.  1.
         11   -1    0    0    0    0 -0.00000000000E+00 -0.00000000000E+00 -0.45593999997E+02  0.45594000000E+02  0.51100000000E-03 0. -1.
    9900012    2    1    2    0    0 -0.25385143053E+01  0.16253947029E+02  0.89467555378E+01  0.72461567249E+02  0.69999996033E+02 0.  0.
         12    1    1    2    0    0  0.25385143053E+01 -0.16253947029E+02 -0.89467555378E+01  0.18726432751E+02  0.00000000000E+00 0. -1.
         11    1    3    3    0    0 -0.13033360809E+02 -0.73476050391E+01 -0.17655497200E+01  0.15065621788E+02  0.51100000000E-03 0. -1.
        -11    1    3    3    0    0  0.21928122583E+02  0.26198725421E+02 -0.82086500091E+01  0.35136842615E+02  0.51100000000E-03 0.  1.
         12    1    3    3    0    0 -0.11433276079E+02 -0.25971733526E+01  0.18920955267E+02  0.22259102847E+02  0.00000000000E+00 0. -1.
</event>
<event>
 7    1  0.1465498E-013  0.7246159E+02  0.7816164E-02  0.1226708E+00
        -11   -1    0    0    0    0  0.00000000000E+00  0.00000000000E+00  0.45593999997E+02  0.45594000000E+02  0.51100000000E-03 0. -1.
         11   -1    0    0    0    0 -0.00000000000E+00 -0.00000000000E+00 -0.45593999997E+02  0.45594000000E+02  0.51100000000E-03 0.  1.
    9900012    2    1    2    0    0 -0.12728368625E+02 -0.12424126630E+02 -0.58573238606E+01  0.72461587285E+02  0.70000022133E+02 0.  0.
         12    1    1    2    0    0  0.12728368625E+02  0.12424126630E+02  0.58573238606E+01  0.18726412715E+02  0.00000000000E+00 0. -1.
         11    1    3    3    0    0  0.68351465539E+01 -0.22609489417E+01 -0.30112458882E+01  0.78037632326E+01  0.51100000000E-03 0. -1.
        -11    1    3    3    0    0  0.13416643177E+02  0.11474197320E+02 -0.15229397213E+02  0.23315189426E+02  0.51100000000E-03 0.  1.
         12    1    3    3    0    0 -0.32980158355E+02 -0.21637375009E+02  0.12383319240E+02  0.41342634626E+02  0.00000000000E+00 0. -1.
</event>
<event>
 7    1  0.1465498E-013  0.7246155E+02  0.7816164E-02  0.1226708E+00
        -11   -1    0    0    0    0  0.00000000000E+00  0.00000000000E+00  0.45593999997E+02  0.45594000000E+02  0.51100000000E-03 0. -1.
         11   -1    0    0    0    0 -0.00000000000E+00 -0.00000000000E+00 -0.45593999997E+02  0.45594000000E+02  0.51100000000E-03 0.  1.
    9900012    2    1    2    0    0  0.12863205386E+02 -0.62429479198E+01 -0.12093111900E+02  0.72461553275E+02  0.69999977829E+02 0.  0.
         12    1    1    2    0    0 -0.12863205386E+02  0.62429479198E+01  0.12093111900E+02  0.18726446725E+02  0.00000000000E+00 0. -1.
         11    1    3    3    0    0 -0.58030581188E+00 -0.90380094738E+01 -0.50525863046E+01  0.10370679761E+02  0.51100000000E-03 0. -1.
        -11    1    3    3    0    0  0.24671137740E+02 -0.18358426749E+02 -0.18130882617E+02  0.35699100477E+02  0.51100000000E-03 0.  1.
         12    1    3    3    0    0 -0.11227626542E+02  0.21153488303E+02  0.11090357022E+02  0.26391773037E+02  0.00000000000E+00 0. -1.
</event>
<event>
 7    1  0.1465498E-013  0.7246158E+02  0.7816164E-02  0.1226708E+00
        -11   -1    0    0    0    0  0.00000000000E+00  0.00000000000E+00  0.45593999997E+02  0.45594000000E+02  0.51100000000E-03 0.  1.
         11   -1    0    0    0    0 -0.00000000000E+00 -0.00000000000E+00 -0.45593999997E+02  0.45594000000E+02  0.51100000000E-03 0. -1.
    9900012    2    1    2    0    0  0.58938815506E+01  0.87775709200E+01  0.15456234932E+02  0.72461580447E+02  0.70000013226E+02 0.  0.
         12    1    1    2    0    0 -0.58938815506E+01 -0.87775709200E+01 -0.15456234932E+02  0.18726419553E+02  0.00000000000E+00 0. -1.
         11    1    3    3    0    0 -0.50542162539E+01  0.29640290933E+02  0.11803942643E+02  0.32302089882E+02  0.51100000000E-03 0. -1.
        -11    1    3    3    0    0 -0.57571621340E+01 -0.10700945972E+02  0.13586284665E+02  0.18227514690E+02  0.51100000000E-03 0.  1.
         12    1    3    3    0    0  0.16705259938E+02 -0.10161774041E+02 -0.99339923759E+01  0.21931975875E+02  0.00000000000E+00 0. -1.
</event>
<event>
 7    1  0.1465498E-013  0.7246152E+02  0.7816164E-02  0.1226708E+00
        -11   -1    0    0    0    0  0.00000000000E+00  0.00000000000E+00  0.45593999997E+02  0.45594000000E+02  0.51100000000E-03 0.  1.
         11   -1    0    0    0    0 -0.00000000000E+00 -0.00000000000E+00 -0.45593999997E+02  0.45594000000E+02  0.51100000000E-03 0. -1.
    9900012    2    1    2    0    0 -0.12925754819E+02 -0.83139455088E+01  0.10699727521E+02  0.72461521512E+02  0.69999936451E+02 0.  0.
         12    1    1    2    0    0  0.12925754819E+02  0.83139455088E+01 -0.10699727521E+02  0.18726478488E+02  0.00000000000E+00 0. -1.
         11    1    3    3    0    0  0.12736341244E+02  0.24722242916E+01  0.42250146396E+01  0.13644670396E+02  0.51100000000E-03 0. -1.
        -11    1    3    3    0    0  0.79549319490E+01  0.12525832080E+02  0.97846883697E+01  0.17774069269E+02  0.51100000000E-03 0.  1.
         12    1    3    3    0    0 -0.33617028012E+02 -0.23312001881E+02 -0.33099754883E+01  0.41042781847E+02  0.00000000000E+00 0. -1.
</event>
<event>
 7    1  0.1465498E-013  0.7246166E+02  0.7816164E-02  0.1226708E+00
        -11   -1    0    0    0    0  0.00000000000E+00  0.00000000000E+00  0.45593999997E+02  0.45594000000E+02  0.51100000000E-03 0. -1.
         11   -1    0    0    0    0 -0.00000000000E+00 -0.00000000000E+00 -0.45593999997E+02  0.45594000000E+02  0.51100000000E-03 0.  1.
    9900012    2    1    2    0    0 -0.32235833852E+01 -0.15519692569E+02 -0.99711390019E+01  0.72461655982E+02  0.70000111624E+02 0.  0.
         12    1    1    2    0    0  0.32235833852E+01  0.15519692569E+02  0.99711390019E+01  0.18726344018E+02  0.00000000000E+00 0. -1.
         11    1    3    3    0    0 -0.61216897963E+01  0.13676014311E+02  0.39912888509E+01  0.15506090428E+02  0.51100000000E-03 0. -1.
        -11    1    3    3    0    0 -0.19415554345E+02 -0.33777112965E+01 -0.11325068933E+02  0.22729493411E+02  0.51100000000E-03 0.  1.
        -12    1    3    3    0    0  0.22313660756E+02 -0.25817995584E+02 -0.26373589202E+01  0.34226072144E+02  0.00000000000E+00 0.  1.
</event>
<event>
 7    1  0.1465498E-013  0.7246148E+02  0.7816164E-02  0.1226708E+00
        -11   -1    0    0    0    0  0.00000000000E+00  0.00000000000E+00  0.45593999997E+02  0.45594000000E+02  0.51100000000E-03 0.  1.
         11   -1    0    0    0    0 -0.00000000000E+00 -0.00000000000E+00 -0.45593999997E+02  0.45594000000E+02  0.51100000000E-03 0. -1.
    9900012    2    1    2    0    0 -0.18395844584E+02 -0.22514378634E+01 -0.26844977616E+01  0.72461478736E+02  0.69999880728E+02 0.  0.
         12    1    1    2    0    0  0.18395844584E+02  0.22514378634E+01  0.26844977616E+01  0.18726521264E+02  0.00000000000E+00 0. -1.
         11    1    3    3    0    0 -0.28942487388E+02  0.19518974920E+02 -0.19376009331E+01  0.34963012681E+02  0.51100000000E-03 0. -1.
        -11    1    3    3    0    0  0.73665420301E+01  0.58460854305E+01 -0.22114906954E+01  0.96609185743E+01  0.51100000000E-03 0.  1.
        -12    1    3    3    0    0  0.31801007734E+01 -0.27616498214E+02  0.14645938669E+01  0.27837547481E+02  0.00000000000E+00 0.  1.
</event>
<event>
 7    1  0.1465498E-013  0.7246153E+02  0.7816164E-02  0.1226708E+00
        -11   -1    0    0    0    0  0.00000000000E+00  0.00000000000E+00  0.45593999997E+02  0.45594000000E+02  0.51100000000E-03 0.  1.
         11   -1    0    0    0    0 -0.00000000000E+00 -0.00000000000E+00 -0.45593999997E+02  0.45594000000E+02  0.51100000000E-03 0. -1.
    9900012    2    1    2    0    0  0.65552407305E+01 -0.81773257214E+01  0.15519044059E+02  0.72461533021E+02  0.69999951445E+02 0.  0.
         12    1    1    2    0    0 -0.65552407305E+01  0.81773257214E+01 -0.15519044059E+02  0.18726466979E+02  0.00000000000E+00 0. -1.
         11    1    3    3    0    0 -0.14528157599E+02 -0.13837311647E+02 -0.38619056279E+01  0.20431663470E+02  0.51100000000E-03 0. -1.
        -11    1    3    3    0    0 -0.11362968492E+02 -0.54844548573E+01  0.10940208842E+02  0.16699834364E+02  0.51100000000E-03 0.  1.
         12    1    3    3    0    0  0.32446366821E+02  0.11144440782E+02  0.84407408456E+01  0.35330035187E+02  0.00000000000E+00 0. -1.
</event>
<event>
 7    1  0.1465498E-013  0.7246155E+02  0.7816164E-02  0.1226708E+00
        -11   -1    0    0    0    0  0.00000000000E+00  0.00000000000E+00  0.45593999997E+02  0.45594000000E+02  0.51100000000E-03 0. -1.
         11   -1    0    0    0    0 -0.00000000000E+00 -0.00000000000E+00 -0.45593999997E+02  0.45594000000E+02  0.51100000000E-03 0.  1.
    9900012    2    1    2    0    0 -0.85943734270E+01 -0.64074070580E+01 -0.15354543063E+02  0.72461545117E+02  0.69999967202E+02 0.  0.
         12    1    1    2    0    0  0.85943734270E+01  0.64074070580E+01  0.15354543063E+02  0.18726454883E+02  0.00000000000E+00 0. -1.
         11    1    3    3    0    0 -0.47812732879E+01 -0.10632196749E+02 -0.77862911077E+01  0.14018934034E+02  0.51100000000E-03 0. -1.
        -11    1    3    3    0    0 -0.24505151868E+02  0.48539853469E+01 -0.21934613735E+02  0.33244411888E+02  0.51100000000E-03 0.  1.
         12    1    3    3    0    0  0.20692051729E+02 -0.62919565555E+00  0.14366361780E+02  0.25198199196E+02  0.00000000000E+00 0. -1.
</event>
<event>
 7    1  0.1465498E-013  0.7246151E+02  0.7816164E-02  0.1226708E+00
        -11   -1    0    0    0    0  0.00000000000E+00  0.00000000000E+00  0.45593999997E+02  0.45594000000E+02  0.51100000000E-03 0. -1.
         11   -1    0    0    0    0 -0.00000000000E+00 -0.00000000000E+00 -0.45593999997E+02  0.45594000000E+02  0.51100000000E-03 0.  1.
    9900012    2    1    2    0    0 -0.11178411849E+02 -0.73663368638E+01 -0.13094335583E+02  0.72461509816E+02  0.69999921216E+02 0.  0.
         12    1    1    2    0    0  0.11178411849E+02  0.73663368638E+01  0.13094335583E+02  0.18726490184E+02  0.00000000000E+00 0. -1.
         11    1    3    3    0    0 -0.17327011832E+01 -0.15898460621E+02 -0.52386522108E+01  0.16828748639E+02  0.51100000000E-03 0. -1.
        -11    1    3    3    0    0  0.57230642513E+01 -0.15882065916E+02 -0.18442422065E+02  0.25002328173E+02  0.51100000000E-03 0.  1.
        -12    1    3    3    0    0 -0.15168774917E+02  0.24414189673E+02  0.10586738692E+02  0.30630433004E+02  0.00000000000E+00 0.  1.
</event>
<event>
 7    1  0.1465498E-013  0.7246160E+02  0.7816164E-02  0.1226708E+00
        -11   -1    0    0    0    0  0.00000000000E+00  0.00000000000E+00  0.45593999997E+02  0.45594000000E+02  0.51100000000E-03 0.  1.
         11   -1    0    0    0    0 -0.00000000000E+00 -0.00000000000E+00 -0.45593999997E+02  0.45594000000E+02  0.51100000000E-03 0. -1.
    9900012    2    1    2    0    0 -0.25137675080E+01 -0.30531275375E+01  0.18304026933E+02  0.72461601072E+02  0.70000040094E+02 0.  0.
         12    1    1    2    0    0  0.25137675080E+01  0.30531275375E+01 -0.18304026933E+02  0.18726398928E+02  0.00000000000E+00 0. -1.
         11    1    3    3    0    0  0.17906289527E+02 -0.27281810792E+01  0.15883040749E+02  0.24090437114E+02  0.51100000000E-03 0. -1.
        -11    1    3    3    0    0  0.76314016414E+01  0.14368853139E+02 -0.20192090888E+01  0.16394494111E+02  0.51100000000E-03 0.  1.
        -12    1    3    3    0    0 -0.28051458677E+02 -0.14693799597E+02  0.44401952725E+01  0.31976669848E+02  0.00000000000E+00 0.  1.
</event>
<event>
 7    1  0.1677389E-013  0.7246159E+02  0.7816164E-02  0.1226708E+00
        -11   -1    0    0    0    0  0.00000000000E+00  0.00000000000E+00  0.45593999997E+02  0.45594000000E+02  0.51100000000E-03 0.  1.
         11   -1    0    0    0    0 -0.00000000000E+00 -0.00000000000E+00 -0.45593999997E+02  0.45594000000E+02  0.51100000000E-03 0. -1.
    9900012    2    1    2    0    0 -0.46137532965E+01 -0.13464412411E+02  0.12169688147E+02  0.72461590023E+02  0.70000025700E+02 0.  0.
         12    1    1    2    0    0  0.46137532965E+01  0.13464412411E+02 -0.12169688147E+02  0.18726409977E+02  0.00000000000E+00 0. -1.
         11    1    3    3    0    0 -0.84907702138E+01 -0.33288548967E+01 -0.19768994543E+02  0.21771256263E+02  0.51100000000E-03 0. -1.
        -11    1    3    3    0    0 -0.16822846174E+02 -0.15427239058E+01  0.15081723260E+02  0.22646115058E+02  0.51100000000E-03 0.  1.
        -12    1    3    3    0    0  0.20699863091E+02 -0.85928336084E+01  0.16856959429E+02  0.28044218702E+02  0.00000000000E+00 0.  1.
</event>
<event>
 7    1  0.1465498E-013  0.7246157E+02  0.7816164E-02  0.1226708E+00
        -11   -1    0    0    0    0  0.00000000000E+00  0.00000000000E+00  0.45593999997E+02  0.45594000000E+02  0.51100000000E-03 0.  1.
         11   -1    0    0    0    0 -0.00000000000E+00 -0.00000000000E+00 -0.45593999997E+02  0.45594000000E+02  0.51100000000E-03 0. -1.
    9900012    2    1    2    0    0 -0.94299889081E+01  0.12602292628E+02  0.10145764514E+02  0.72461574610E+02  0.70000005622E+02 0.  0.
         12    1    1    2    0    0  0.94299889081E+01 -0.12602292628E+02 -0.10145764514E+02  0.18726425390E+02  0.00000000000E+00 0. -1.
         11    1    3    3    0    0 -0.40601752629E+01  0.83288557136E+01 -0.46506074139E+01  0.10367401325E+02  0.51100000000E-03 0. -1.
        -11    1    3    3    0    0 -0.19696822858E+02  0.26880081765E+02  0.55838488413E+01  0.33788799838E+02  0.51100000000E-03 0.  1.
         12    1    3    3    0    0  0.14327009212E+02 -0.22606644850E+02  0.92125230866E+01  0.28305373447E+02  0.00000000000E+00 0. -1.
</event>
<event>
 7    1  0.1465498E-013  0.7246141E+02  0.7816164E-02  0.1226708E+00
        -11   -1    0    0    0    0  0.00000000000E+00  0.00000000000E+00  0.45593999997E+02  0.45594000000E+02  0.51100000000E-03 0.  1.
         11   -1    0    0    0    0 -0.00000000000E+00 -0.00000000000E+00 -0.45593999997E+02  0.45594000000E+02  0.51100000000E-03 0. -1.
    9900012    2    1    2    0    0  0.62783297101E+01 -0.14434884202E+02  0.10144058912E+02  0.72461408289E+02  0.69999788958E+02 0.  0.
         12    1    1    2    0    0 -0.62783297101E+01  0.14434884202E+02 -0.10144058912E+02  0.18726591711E+02  0.00000000000E+00 0. -1.
         11    1    3    3    0    0 -0.39252258046E+01  0.20138562105E+02  0.12047704472E+02  0.23793197864E+02  0.51100000000E-03 0. -1.
        -11    1    3    3    0    0 -0.69576457971E+01 -0.13986492333E+02  0.10816976226E+02  0.19000994125E+02  0.51100000000E-03 0.  1.
        -12    1    3    3    0    0  0.17161201312E+02 -0.20586953974E+02 -0.12720621786E+02  0.29667216301E+02  0.00000000000E+00 0.  1.
</event>
<event>
 7    1  0.1465498E-013  0.7246156E+02  0.7816164E-02  0.1226708E+00
        -11   -1    0    0    0    0  0.00000000000E+00  0.00000000000E+00  0.45593999997E+02  0.45594000000E+02  0.51100000000E-03 0.  1.
         11   -1    0    0    0    0 -0.00000000000E+00 -0.00000000000E+00 -0.45593999997E+02  0.45594000000E+02  0.51100000000E-03 0. -1.
    9900012    2    1    2    0    0 -0.50002655491E+01 -0.14088814824E+02  0.11277514231E+02  0.72461556506E+02  0.69999982038E+02 0.  0.
         12    1    1    2    0    0  0.50002655491E+01  0.14088814824E+02 -0.11277514231E+02  0.18726443494E+02  0.00000000000E+00 0. -1.
         11    1    3    3    0    0 -0.77778229450E+01 -0.37137137235E+01 -0.11769479814E+02  0.14587900971E+02  0.51100000000E-03 0. -1.
        -11    1    3    3    0    0  0.22324371196E+02 -0.20929491189E+02  0.10448943990E+02  0.32335763197E+02  0.51100000000E-03 0.  1.
         12    1    3    3    0    0 -0.19546813800E+02  0.10554390089E+02  0.12598050055E+02  0.25537892339E+02  0.00000000000E+00 0. -1.
</event>
<event>
 7    1  0.1465498E-013  0.7246156E+02  0.7816164E-02  0.1226708E+00
        -11   -1    0    0    0    0  0.00000000000E+00  0.00000000000E+00  0.45593999997E+02  0.45594000000E+02  0.51100000000E-03 0.  1.
         11   -1    0    0    0    0 -0.00000000000E+00 -0.00000000000E+00 -0.45593999997E+02  0.45594000000E+02  0.51100000000E-03 0. -1.
    9900012    2    1    2    0    0 -0.26655540934E+01  0.35383416071E+01  0.18194903131E+02  0.72461560405E+02  0.69999987117E+02 0.  0.
         12    1    1    2    0    0  0.26655540934E+01 -0.35383416071E+01 -0.18194903131E+02  0.18726439595E+02  0.00000000000E+00 0. -1.
         11    1    3    3    0    0  0.26291855824E+02  0.91365581514E+00  0.50600363355E+01  0.26789931272E+02  0.51100000000E-03 0. -1.
        -11    1    3    3    0    0  0.24785721566E+01 -0.87608137784E+01 -0.14053376134E+01  0.92124997728E+01  0.51100000000E-03 0.  1.
        -12    1    3    3    0    0 -0.31435982074E+02  0.11385499570E+02  0.14540204409E+02  0.36459129360E+02  0.00000000000E+00 0.  1.
</event>
<event>
 7    1  0.1465498E-013  0.7246155E+02  0.7816164E-02  0.1226708E+00
        -11   -1    0    0    0    0  0.00000000000E+00  0.00000000000E+00  0.45593999997E+02  0.45594000000E+02  0.51100000000E-03 0.  1.
         11   -1    0    0    0    0 -0.00000000000E+00 -0.00000000000E+00 -0.45593999997E+02  0.45594000000E+02  0.51100000000E-03 0. -1.
    9900012    2    1    2    0    0  0.15389231482E+02 -0.42000567097E+01  0.98087198776E+01  0.72461550587E+02  0.69999974328E+02 0.  0.
         12    1    1    2    0    0 -0.15389231482E+02  0.42000567097E+01 -0.98087198776E+01  0.18726449413E+02  0.00000000000E+00 0. -1.
         11    1    3    3    0    0  0.41201993498E+00 -0.25820309764E+01  0.11513200094E+01  0.28569533449E+01  0.51100000000E-03 0. -1.
        -11    1    3    3    0    0  0.26328646494E+02 -0.50098251227E+01  0.33011799051E+02  0.42521463413E+02  0.51100000000E-03 0.  1.
         12    1    3    3    0    0 -0.11351434947E+02  0.33917993893E+01 -0.24354399183E+02  0.27083133829E+02  0.00000000000E+00 0. -1.
</event>
<event>
 7    1  0.1465498E-013  0.7246153E+02  0.7816164E-02  0.1226708E+00
        -11   -1    0    0    0    0  0.00000000000E+00  0.00000000000E+00  0.45593999997E+02  0.45594000000E+02  0.51100000000E-03 0. -1.
         11   -1    0    0    0    0 -0.00000000000E+00 -0.00000000000E+00 -0.45593999997E+02  0.45594000000E+02  0.51100000000E-03 0.  1.
    9900012    2    1    2    0    0 -0.13962021477E+02 -0.11643380006E+02  0.44915678684E+01  0.72461534140E+02  0.69999952903E+02 0.  0.
         12    1    1    2    0    0  0.13962021477E+02  0.11643380006E+02 -0.44915678684E+01  0.18726465860E+02  0.00000000000E+00 0. -1.
         11    1    3    3    0    0 -0.18299360460E+02 -0.10060426646E+02  0.11301932290E+02  0.23744735233E+02  0.51100000000E-03 0. -1.
        -11    1    3    3    0    0 -0.18223352084E+02 -0.13539582801E+02 -0.29562399794E+01  0.22894327216E+02  0.51100000000E-03 0.  1.
         12    1    3    3    0    0  0.22560691068E+02  0.11956629440E+02 -0.38541244417E+01  0.25822471691E+02  0.00000000000E+00 0. -1.
</event>
<event>
 7    1  0.1465498E-013  0.7246094E+02  0.7816164E-02  0.1226710E+00
        -11   -1    0    0    0    0  0.00000000000E+00  0.00000000000E+00  0.45593999997E+02  0.45594000000E+02  0.51100000000E-03 0.  1.
         11   -1    0    0    0    0 -0.00000000000E+00 -0.00000000000E+00 -0.45593999997E+02  0.45594000000E+02  0.51100000000E-03 0. -1.
    9900012    2    1    2    0    0 -0.56706003455E+01  0.16438625834E+02  0.69511571921E+01  0.72460941665E+02  0.69999181089E+02 0.  0.
         12    1    1    2    0    0  0.56706003455E+01 -0.16438625834E+02 -0.69511571921E+01  0.18727058335E+02  0.00000000000E+00 0. -1.
         11    1    3    3    0    0  0.12640644029E+02  0.12561122842E+02  0.12385474627E+01  0.17863417607E+02  0.51100000000E-03 0. -1.
        -11    1    3    3    0    0 -0.12786969234E+02 -0.11762512491E+02 -0.18415560295E+02  0.25317901642E+02  0.51100000000E-03 0.  1.
         12    1    3    3    0    0 -0.55242751403E+01  0.15640015482E+02  0.24128170024E+02  0.29279622416E+02  0.00000000000E+00 0. -1.
</event>
<event>
 7    1  0.1465498E-013  0.7246146E+02  0.7816164E-02  0.1226708E+00
        -11   -1    0    0    0    0  0.00000000000E+00  0.00000000000E+00  0.45593999997E+02  0.45594000000E+02  0.51100000000E-03 0. -1.
         11   -1    0    0    0    0 -0.00000000000E+00 -0.00000000000E+00 -0.45593999997E+02  0.45594000000E+02  0.51100000000E-03 0.  1.
    9900012    2    1    2    0    0 -0.15541953811E+02  0.10445305371E+02 -0.16273569816E+00  0.72461462267E+02  0.69999859275E+02 0.  0.
         12    1    1    2    0    0  0.15541953811E+02 -0.10445305371E+02  0.16273569816E+00  0.18726537733E+02  0.00000000000E+00 0. -1.
         11    1    3    3    0    0  0.97230688654E+01 -0.10105670990E+02  0.21029101694E+01  0.14180440252E+02  0.51100000000E-03 0. -1.
        -11    1    3    3    0    0 -0.30713535014E+02  0.17954238401E+02  0.16025979065E+02  0.39019327453E+02  0.51100000000E-03 0.  1.
         12    1    3    3    0    0  0.54485123382E+01  0.25967379596E+01 -0.18291624932E+02  0.19261694562E+02  0.00000000000E+00 0. -1.
</event>
<event>
 7    1  0.1465498E-013  0.7246152E+02  0.7816164E-02  0.1226708E+00
        -11   -1    0    0    0    0  0.00000000000E+00  0.00000000000E+00  0.45593999997E+02  0.45594000000E+02  0.51100000000E-03 0.  1.
         11   -1    0    0    0    0 -0.00000000000E+00 -0.00000000000E+00 -0.45593999997E+02  0.45594000000E+02  0.51100000000E-03 0. -1.
    9900012    2    1    2    0    0  0.15607633880E+02  0.10331559925E+02 -0.58442747288E+00  0.72461523521E+02  0.69999939069E+02 0.  0.
         12    1    1    2    0    0 -0.15607633880E+02 -0.10331559925E+02  0.58442747288E+00  0.18726476479E+02  0.00000000000E+00 0. -1.
         11    1    3    3    0    0  0.14317767486E+02  0.11049685087E+02  0.67705543883E+01  0.19311509866E+02  0.51100000000E-03 0. -1.
        -11    1    3    3    0    0  0.11320644045E+02  0.49478184906E+01  0.19977358138E+02  0.23488991631E+02  0.51100000000E-03 0.  1.
         12    1    3    3    0    0 -0.10030777650E+02 -0.56659436525E+01 -0.27332339999E+02  0.29661022025E+02  0.00000000000E+00 0. -1.
</event>
<event>
 7    1  0.1465498E-013  0.7246201E+02  0.7816164E-02  0.1226707E+00
        -11   -1    0    0    0    0  0.00000000000E+00  0.00000000000E+00  0.45593999997E+02  0.45594000000E+02  0.51100000000E-03 0.  1.
         11   -1    0    0    0    0 -0.00000000000E+00 -0.00000000000E+00 -0.45593999997E+02  0.45594000000E+02  0.51100000000E-03 0. -1.
    9900012    2    1    2    0    0  0.18460206327E+02  0.23525890522E+01 -0.20853636322E+01  0.72462011792E+02  0.70000575130E+02 0.  0.
         12    1    1    2    0    0 -0.18460206327E+02 -0.23525890522E+01  0.20853636322E+01  0.18725988208E+02  0.00000000000E+00 0. -1.
         11    1    3    3    0    0  0.17597165642E+02  0.90560350576E+01 -0.10523760824E+02  0.22414761916E+02  0.51100000000E-03 0. -1.
        -11    1    3    3    0    0 -0.19505129000E+02  0.78780968850E+01  0.12794901525E+02  0.24621615973E+02  0.51100000000E-03 0.  1.
         12    1    3    3    0    0  0.20368169684E+02 -0.14581542890E+02 -0.43565043340E+01  0.25425633903E+02  0.00000000000E+00 0. -1.
</event>
<event>
 7    1  0.1465498E-013  0.7246188E+02  0.7816164E-02  0.1226707E+00
        -11   -1    0    0    0    0  0.00000000000E+00  0.00000000000E+00  0.45593999997E+02  0.45594000000E+02  0.51100000000E-03 0. -1.
         11   -1    0    0    0    0 -0.00000000000E+00 -0.00000000000E+00 -0.45593999997E+02  0.45594000000E+02  0.51100000000E-03 0.  1.
    9900012    2    1    2    0    0 -0.11622293896E+02 -0.14260405446E+02  0.34972154510E+01  0.72461884684E+02  0.70000409550E+02 0.  0.
         12    1    1    2    0    0  0.11622293896E+02  0.14260405446E+02 -0.34972154510E+01  0.18726115316E+02  0.00000000000E+00 0. -1.
         11    1    3    3    0    0 -0.14649667886E+01  0.17533698590E+02 -0.10591813533E+02  0.20536874838E+02  0.51100000000E-03 0. -1.
        -11    1    3    3    0    0 -0.41955355158E+01 -0.83370211648E+00 -0.10890089636E+02  0.11700069659E+02  0.51100000000E-03 0.  1.
         12    1    3    3    0    0 -0.59617915919E+01 -0.30960401920E+02  0.24979118620E+02  0.40224940187E+02  0.00000000000E+00 0. -1.
</event>
<event>
 7    1  0.1465498E-013  0.7246154E+02  0.7816164E-02  0.1226708E+00
        -11   -1    0    0    0    0  0.00000000000E+00  0.00000000000E+00  0.45593999997E+02  0.45594000000E+02  0.51100000000E-03 0.  1.
         11   -1    0    0    0    0 -0.00000000000E+00 -0.00000000000E+00 -0.45593999997E+02  0.45594000000E+02  0.51100000000E-03 0. -1.
    9900012    2    1    2    0    0 -0.12489591487E+02 -0.12272355118E+02 -0.66392665201E+01  0.72461535956E+02  0.69999955268E+02 0.  0.
         12    1    1    2    0    0  0.12489591487E+02  0.12272355118E+02  0.66392665201E+01  0.18726464044E+02  0.00000000000E+00 0. -1.
         11    1    3    3    0    0  0.36833453108E+01  0.61505559124E+01 -0.87011102830E+01  0.11274115980E+02  0.51100000000E-03 0. -1.
        -11    1    3    3    0    0 -0.12291244297E+02  0.17714734277E+02  0.10338022265E+02  0.23911528631E+02  0.51100000000E-03 0.  1.
        -12    1    3    3    0    0 -0.38816925013E+01 -0.36137645307E+02 -0.82761785022E+01  0.37275891345E+02  0.00000000000E+00 0.  1.
</event>
<event>
 7    1  0.1465498E-013  0.7246162E+02  0.7816164E-02  0.1226708E+00
        -11   -1    0    0    0    0  0.00000000000E+00  0.00000000000E+00  0.45593999997E+02  0.45594000000E+02  0.51100000000E-03 0. -1.
         11   -1    0    0    0    0 -0.00000000000E+00 -0.00000000000E+00 -0.45593999997E+02  0.45594000000E+02  0.51100000000E-03 0.  1.
    9900012    2    1    2    0    0  0.17973496175E+02  0.40934066453E+01  0.32976786157E+01  0.72461622161E+02  0.70000067566E+02 0.  0.
         12    1    1    2    0    0 -0.17973496175E+02 -0.40934066453E+01 -0.32976786157E+01  0.18726377839E+02  0.00000000000E+00 0. -1.
         11    1    3    3    0    0  0.12222491246E+02 -0.77179837056E+01  0.22458231547E+02  0.26708214639E+02  0.51100000000E-03 0. -1.
        -11    1    3    3    0    0 -0.82537063369E+00  0.18807998804E+01  0.12114348986E+02  0.12287233069E+02  0.51100000000E-03 0.  1.
        -12    1    3    3    0    0  0.65763755625E+01  0.99305904706E+01 -0.31274901917E+02  0.33466174453E+02  0.00000000000E+00 0.  1.
</event>
<event>
 7    1  0.1465498E-013  0.7246162E+02  0.7816164E-02  0.1226708E+00
        -11   -1    0    0    0    0  0.00000000000E+00  0.00000000000E+00  0.45593999997E+02  0.45594000000E+02  0.51100000000E-03 0.  1.
         11   -1    0    0    0    0 -0.00000000000E+00 -0.00000000000E+00 -0.45593999997E+02  0.45594000000E+02  0.51100000000E-03 0. -1.
    9900012    2    1    2    0    0  0.10350675108E+02  0.60865004240E+01 -0.14369950789E+02  0.72461616252E+02  0.70000059868E+02 0.  0.
         12    1    1    2    0    0 -0.10350675108E+02 -0.60865004240E+01  0.14369950789E+02  0.18726383748E+02  0.00000000000E+00 0. -1.
         11    1    3    3    0    0 -0.19376131117E+02  0.27353313777E+02 -0.77753430512E+01  0.34410669733E+02  0.51100000000E-03 0. -1.
        -11    1    3    3    0    0  0.63306738258E+01 -0.43376790099E+01 -0.49364355242E+01  0.91247622560E+01  0.51100000000E-03 0.  1.
        -12    1    3    3    0    0  0.23396132400E+02 -0.16929134344E+02 -0.16581722134E+01  0.28926184262E+02  0.00000000000E+00 0.  1.
</event>
<event>
 7    1  0.1465498E-013  0.7246154E+02  0.7816164E-02  0.1226708E+00
        -11   -1    0    0    0    0  0.00000000000E+00  0.00000000000E+00  0.45593999997E+02  0.45594000000E+02  0.51100000000E-03 0.  1.
         11   -1    0    0    0    0 -0.00000000000E+00 -0.00000000000E+00 -0.45593999997E+02  0.45594000000E+02  0.51100000000E-03 0. -1.
    9900012    2    1    2    0    0  0.15152206621E+02  0.63072714514E+01  0.90171584484E+01  0.72461543177E+02  0.69999964675E+02 0.  0.
         12    1    1    2    0    0 -0.15152206621E+02 -0.63072714514E+01 -0.90171584484E+01  0.18726456823E+02  0.00000000000E+00 0. -1.
         11    1    3    3    0    0  0.26609762195E+01  0.37008392222E+01 -0.13250985784E+02  0.14013052126E+02  0.51100000000E-03 0. -1.
        -11    1    3    3    0    0  0.17298858898E+02  0.25357600946E+02  0.14339506716E+02  0.33880376297E+02  0.51100000000E-03 0.  1.
        -12    1    3    3    0    0 -0.48076284960E+01 -0.22751168717E+02  0.79286375159E+01  0.24568114754E+02  0.00000000000E+00 0.  1.
</event>
<event>
 7    1  0.1465498E-013  0.7246163E+02  0.7816164E-02  0.1226708E+00
        -11   -1    0    0    0    0  0.00000000000E+00  0.00000000000E+00  0.45593999997E+02  0.45594000000E+02  0.51100000000E-03 0.  1.
         11   -1    0    0    0    0 -0.00000000000E+00 -0.00000000000E+00 -0.45593999997E+02  0.45594000000E+02  0.51100000000E-03 0. -1.
    9900012    2    1    2    0    0 -0.17319276815E+02 -0.18365238087E+01 -0.68809028131E+01  0.72461628418E+02  0.70000075717E+02 0.  0.
         12    1    1    2    0    0  0.17319276815E+02  0.18365238087E+01  0.68809028131E+01  0.18726371582E+02  0.00000000000E+00 0. -1.
         11    1    3    3    0    0 -0.33957030675E+02  0.47202506175E+01 -0.18125808775E+02  0.38780222307E+02  0.51100000000E-03 0. -1.
        -11    1    3    3    0    0 -0.39401663612E+01 -0.96614149454E+01  0.66388091460E+01  0.12366957461E+02  0.51100000000E-03 0.  1.
         12    1    3    3    0    0  0.20577920222E+02  0.31046405192E+01  0.46060968155E+01  0.21314448651E+02  0.00000000000E+00 0. -1.
</event>
<event>
 7    1  0.1465498E-013  0.7246156E+02  0.7816164E-02  0.1226708E+00
        -11   -1    0    0    0    0  0.00000000000E+00  0.00000000000E+00  0.45593999997E+02  0.45594000000E+02  0.51100000000E-03 0.  1.
         11   -1    0    0    0    0 -0.00000000000E+00 -0.00000000000E+00 -0.45593999997E+02  0.45594000000E+02  0.51100000000E-03 0. -1.
    9900012    2    1    2    0    0  0.93208271536E+01 -0.16155832082E+02  0.16706201569E+01  0.72461556109E+02  0.69999981521E+02 0.  0.
         12    1    1    2    0    0 -0.93208271536E+01  0.16155832082E+02 -0.16706201569E+01  0.18726443891E+02  0.00000000000E+00 0. -1.
         11    1    3    3    0    0 -0.17134762700E+02  0.46414150412E+01 -0.49724392903E+01  0.18435508648E+02  0.51100000000E-03 0. -1.
        -11    1    3    3    0    0  0.17409366944E+00 -0.15714659574E-01 -0.14439067526E+02  0.14440125582E+02  0.51100000000E-03 0.  1.
        -12    1    3    3    0    0  0.26281496184E+02 -0.20781532464E+02  0.21082126973E+02  0.39585921878E+02  0.00000000000E+00 0.  1.
</event>
<event>
 7    1  0.1465498E-013  0.7246157E+02  0.7816164E-02  0.1226708E+00
        -11   -1    0    0    0    0  0.00000000000E+00  0.00000000000E+00  0.45593999997E+02  0.45594000000E+02  0.51100000000E-03 0.  1.
         11   -1    0    0    0    0 -0.00000000000E+00 -0.00000000000E+00 -0.45593999997E+02  0.45594000000E+02  0.51100000000E-03 0. -1.
    9900012    2    1    2    0    0  0.30911007073E+01  0.18455450888E+02  0.72163043005E+00  0.72461566235E+02  0.69999994712E+02 0.  0.
         12    1    1    2    0    0 -0.30911007073E+01 -0.18455450888E+02 -0.72163043005E+00  0.18726433765E+02  0.00000000000E+00 0. -1.
         11    1    3    3    0    0  0.29847007325E+01 -0.11684095074E+02 -0.20182550860E+02  0.23510888448E+02  0.51100000000E-03 0. -1.
        -11    1    3    3    0    0 -0.11320203046E+02  0.13027273296E+02 -0.28841119429E+01  0.17497855540E+02  0.51100000000E-03 0.  1.
        -12    1    3    3    0    0  0.11426603021E+02  0.17112272666E+02  0.23788293233E+02  0.31452822247E+02  0.00000000000E+00 0.  1.
</event>
<event>
 7    1  0.1465498E-013  0.7246162E+02  0.7816164E-02  0.1226708E+00
        -11   -1    0    0    0    0  0.00000000000E+00  0.00000000000E+00  0.45593999997E+02  0.45594000000E+02  0.51100000000E-03 0. -1.
         11   -1    0    0    0    0 -0.00000000000E+00 -0.00000000000E+00 -0.45593999997E+02  0.45594000000E+02  0.51100000000E-03 0.  1.
    9900012    2    1    2    0    0 -0.85582798386E+01 -0.16528619044E+02 -0.20586201085E+01  0.72461619729E+02  0.70000064398E+02 0.  0.
         12    1    1    2    0    0  0.85582798386E+01  0.16528619044E+02  0.20586201085E+01  0.18726380271E+02  0.00000000000E+00 0. -1.
         11    1    3    3    0    0 -0.47428280377E+01 -0.59471064259E+01  0.11557495406E+02  0.13836119144E+02  0.51100000000E-03 0. -1.
        -11    1    3    3    0    0 -0.74181697529E+01 -0.19138308664E+02  0.16988136767E+02  0.26643965397E+02  0.51100000000E-03 0.  1.
        -12    1    3    3    0    0  0.36027179520E+01  0.85567960462E+01 -0.30604252282E+02  0.31981535188E+02  0.00000000000E+00 0.  1.
</event>
<event>
 7    1  0.1465498E-013  0.7246156E+02  0.7816164E-02  0.1226708E+00
        -11   -1    0    0    0    0  0.00000000000E+00  0.00000000000E+00  0.45593999997E+02  0.45594000000E+02  0.51100000000E-03 0. -1.
         11   -1    0    0    0    0 -0.00000000000E+00 -0.00000000000E+00 -0.45593999997E+02  0.45594000000E+02  0.51100000000E-03 0.  1.
    9900012    2    1    2    0    0 -0.18196854106E+01  0.68269206627E+01 -0.17342479874E+02  0.72461555893E+02  0.69999981240E+02 0.  0.
         12    1    1    2    0    0  0.18196854106E+01 -0.68269206627E+01  0.17342479874E+02  0.18726444107E+02  0.00000000000E+00 0. -1.
         11    1    3    3    0    0 -0.82937645834E+01 -0.80771315791E+01 -0.12337077939E+00  0.11577642511E+02  0.51100000000E-03 0. -1.
        -11    1    3    3    0    0  0.81475726437E+01  0.17651600508E+02 -0.36490243646E+02  0.41346098028E+02  0.51100000000E-03 0.  1.
         12    1    3    3    0    0 -0.16734934710E+01 -0.27475482666E+01  0.19271134552E+02  0.19537815354E+02  0.00000000000E+00 0. -1.
</event>
<event>
 7    1  0.1465498E-013  0.7246158E+02  0.7816164E-02  0.1226708E+00
        -11   -1    0    0    0    0  0.00000000000E+00  0.00000000000E+00  0.45593999997E+02  0.45594000000E+02  0.51100000000E-03 0.  1.
         11   -1    0    0    0    0 -0.00000000000E+00 -0.00000000000E+00 -0.45593999997E+02  0.45594000000E+02  0.51100000000E-03 0. -1.
    9900012    2    1    2    0    0  0.42315017321E+01 -0.16522718578E+02 -0.77313014804E+01  0.72461578594E+02  0.70000010811E+02 0.  0.
         12    1    1    2    0    0 -0.42315017321E+01  0.16522718578E+02  0.77313014804E+01  0.18726421406E+02  0.00000000000E+00 0. -1.
         11    1    3    3    0    0 -0.32972916324E+01 -0.27250862980E+00  0.40248188009E+01  0.52101400848E+01  0.51100000000E-03 0. -1.
        -11    1    3    3    0    0  0.14398659964E+02 -0.23613368260E+02  0.19873863804E+02  0.34057055540E+02  0.51100000000E-03 0.  1.
         12    1    3    3    0    0 -0.68698665997E+01  0.73631583118E+01 -0.31629984085E+02  0.33194382968E+02  0.00000000000E+00 0. -1.
</event>
<event>
 7    1  0.1465498E-013  0.7246160E+02  0.7816164E-02  0.1226708E+00
        -11   -1    0    0    0    0  0.00000000000E+00  0.00000000000E+00  0.45593999997E+02  0.45594000000E+02  0.51100000000E-03 0. -1.
         11   -1    0    0    0    0 -0.00000000000E+00 -0.00000000000E+00 -0.45593999997E+02  0.45594000000E+02  0.51100000000E-03 0.  1.
    9900012    2    1    2    0    0 -0.16467368887E+01 -0.83458634603E+01 -0.16682713775E+02  0.72461598366E+02  0.70000036568E+02 0.  0.
         12    1    1    2    0    0  0.16467368887E+01  0.83458634603E+01  0.16682713775E+02  0.18726401634E+02  0.00000000000E+00 0. -1.
         11    1    3    3    0    0  0.38632751841E+01 -0.28698325910E+01  0.98904257078E+01  0.10999152476E+02  0.51100000000E-03 0. -1.
        -11    1    3    3    0    0  0.22682178731E+02 -0.80550675061E+01 -0.22336566664E+02  0.32837289095E+02  0.51100000000E-03 0.  1.
         12    1    3    3    0    0 -0.28192190803E+02  0.25790366368E+01 -0.42365728186E+01  0.28625156795E+02  0.00000000000E+00 0. -1.
</event>
<event>
 7    1  0.1465498E-013  0.7246158E+02  0.7816164E-02  0.1226708E+00
        -11   -1    0    0    0    0  0.00000000000E+00  0.00000000000E+00  0.45593999997E+02  0.45594000000E+02  0.51100000000E-03 0.  1.
         11   -1    0    0    0    0 -0.00000000000E+00 -0.00000000000E+00 -0.45593999997E+02  0.45594000000E+02  0.51100000000E-03 0. -1.
    9900012    2    1    2    0    0 -0.15472646900E+02  0.58323170011E+01 -0.87897718066E+01  0.72461579837E+02  0.70000012431E+02 0.  0.
         12    1    1    2    0    0  0.15472646900E+02 -0.58323170011E+01  0.87897718066E+01  0.18726420163E+02  0.00000000000E+00 0. -1.
         11    1    3    3    0    0 -0.43117658069E+01 -0.13275900307E+02  0.12023323214E+02  0.18422843285E+02  0.51100000000E-03 0.  1.
        -11    1    3    3    0    0  0.15688291462E+02 -0.10408255821E+01 -0.10556839126E+02  0.18938127137E+02  0.51100000000E-03 0. -1.
         12    1    3    3    0    0 -0.26849172555E+02  0.20149042891E+02 -0.10256255895E+02  0.35100609415E+02  0.00000000000E+00 0. -1.
</event>
<event>
 7    1  0.1465498E-013  0.7246155E+02  0.7816164E-02  0.1226708E+00
        -11   -1    0    0    0    0  0.00000000000E+00  0.00000000000E+00  0.45593999997E+02  0.45594000000E+02  0.51100000000E-03 0.  1.
         11   -1    0    0    0    0 -0.00000000000E+00 -0.00000000000E+00 -0.45593999997E+02  0.45594000000E+02  0.51100000000E-03 0. -1.
    9900012    2    1    2    0    0  0.17101745430E+02 -0.72895472275E+01  0.22522410245E+01  0.72461553857E+02  0.69999978587E+02 0.  0.
         12    1    1    2    0    0 -0.17101745430E+02  0.72895472275E+01 -0.22522410245E+01  0.18726446143E+02  0.00000000000E+00 0. -1.
         11    1    3    3    0    0  0.12226479856E+02  0.63561631792E+01  0.42872957905E+01  0.14431511546E+02  0.51100000000E-03 0. -1.
        -11    1    3    3    0    0  0.17241390889E+02  0.40501630673E+01  0.20318307882E+02  0.26953719894E+02  0.51100000000E-03 0.  1.
         12    1    3    3    0    0 -0.12366125315E+02 -0.17695873474E+02 -0.22353362648E+02  0.31076322417E+02  0.00000000000E+00 0. -1.
</event>
<event>
 7    1  0.1465498E-013  0.7246154E+02  0.7816164E-02  0.1226708E+00
        -11   -1    0    0    0    0  0.00000000000E+00  0.00000000000E+00  0.45593999997E+02  0.45594000000E+02  0.51100000000E-03 0.  1.
         11   -1    0    0    0    0 -0.00000000000E+00 -0.00000000000E+00 -0.45593999997E+02  0.45594000000E+02  0.51100000000E-03 0. -1.
    9900012    2    1    2    0    0 -0.77809993179E+01  0.13441700635E+02  0.10462166125E+02  0.72461543144E+02  0.69999964631E+02 0.  0.
         12    1    1    2    0    0  0.77809993179E+01 -0.13441700635E+02 -0.10462166125E+02  0.18726456856E+02  0.00000000000E+00 0. -1.
         11    1    3    3    0    0  0.33752561942E+01  0.60132197812E+01 -0.85016746225E+01  0.10946672470E+02  0.51100000000E-03 0. -1.
        -11    1    3    3    0    0 -0.17682262563E+01  0.31998087680E+02  0.80799470997E+01  0.33049807634E+02  0.51100000000E-03 0.  1.
         12    1    3    3    0    0 -0.93880292559E+01 -0.24569606826E+02  0.10883893648E+02  0.28465063039E+02  0.00000000000E+00 0. -1.
</event>
<event>
 7    1  0.1465498E-013  0.7246155E+02  0.7816164E-02  0.1226708E+00
        -11   -1    0    0    0    0  0.00000000000E+00  0.00000000000E+00  0.45593999997E+02  0.45594000000E+02  0.51100000000E-03 0. -1.
         11   -1    0    0    0    0 -0.00000000000E+00 -0.00000000000E+00 -0.45593999997E+02  0.45594000000E+02  0.51100000000E-03 0.  1.
    9900012    2    1    2    0    0  0.18407982661E+02  0.29948978974E+01  0.16901820852E+01  0.72461549334E+02  0.69999972695E+02 0.  0.
         12    1    1    2    0    0 -0.18407982661E+02 -0.29948978974E+01 -0.16901820852E+01  0.18726450666E+02  0.00000000000E+00 0. -1.
         11    1    3    3    0    0 -0.21359637798E+01  0.60628731958E+01  0.47919120030E+00  0.64459597520E+01  0.51100000000E-03 0. -1.
        -11    1    3    3    0    0  0.82109552316E+01  0.21700456998E+02 -0.20409551373E+02  0.30901123074E+02  0.51100000000E-03 0.  1.
         12    1    3    3    0    0  0.12332991209E+02 -0.24768432296E+02  0.21620542258E+02  0.35114466508E+02  0.00000000000E+00 0. -1.
</event>
<event>
 7    1  0.1465498E-013  0.7246158E+02  0.7816164E-02  0.1226708E+00
        -11   -1    0    0    0    0  0.00000000000E+00  0.00000000000E+00  0.45593999997E+02  0.45594000000E+02  0.51100000000E-03 0. -1.
         11   -1    0    0    0    0 -0.00000000000E+00 -0.00000000000E+00 -0.45593999997E+02  0.45594000000E+02  0.51100000000E-03 0.  1.
    9900012    2    1    2    0    0 -0.15625372135E+02 -0.90622594983E+01  0.49398277872E+01  0.72461582827E+02  0.70000016326E+02 0.  0.
         12    1    1    2    0    0  0.15625372135E+02  0.90622594983E+01 -0.49398277872E+01  0.18726417173E+02  0.00000000000E+00 0. -1.
         11    1    3    3    0    0  0.76040831121E+01  0.30538974015E+01 -0.11713390253E+01  0.82777052791E+01  0.51100000000E-03 0. -1.
        -11    1    3    3    0    0 -0.22089755931E+02 -0.12964186673E+02 -0.23367593275E+02  0.34670908106E+02  0.51100000000E-03 0.  1.
         12    1    3    3    0    0 -0.11396993161E+01  0.84802977299E+00  0.29478760087E+02  0.29512969442E+02  0.00000000000E+00 0. -1.
</event>
<event>
 7    1  0.1465498E-013  0.7246160E+02  0.7816164E-02  0.1226708E+00
        -11   -1    0    0    0    0  0.00000000000E+00  0.00000000000E+00  0.45593999997E+02  0.45594000000E+02  0.51100000000E-03 0. -1.
         11   -1    0    0    0    0 -0.00000000000E+00 -0.00000000000E+00 -0.45593999997E+02  0.45594000000E+02  0.51100000000E-03 0.  1.
    9900012    2    1    2    0    0  0.39958790009E+01 -0.12586217101E+02 -0.13277729234E+02  0.72461601427E+02  0.70000040556E+02 0.  0.
         12    1    1    2    0    0 -0.39958790009E+01  0.12586217101E+02  0.13277729234E+02  0.18726398573E+02  0.00000000000E+00 0. -1.
         11    1    3    3    0    0 -0.34217973746E+01  0.58641805951E+01  0.25152274952E+02  0.26052528608E+02  0.51100000000E-03 0. -1.
        -11    1    3    3    0    0  0.28137978832E+00 -0.12104613245E+02 -0.79908034578E+01  0.14507025076E+02  0.51100000000E-03 0.  1.
        -12    1    3    3    0    0  0.71362965872E+01 -0.63457844511E+01 -0.30439200728E+02  0.31902047744E+02  0.00000000000E+00 0.  1.
</event>
<event>
 7    1  0.1465498E-013  0.7246159E+02  0.7816164E-02  0.1226708E+00
        -11   -1    0    0    0    0  0.00000000000E+00  0.00000000000E+00  0.45593999997E+02  0.45594000000E+02  0.51100000000E-03 0.  1.
         11   -1    0    0    0    0 -0.00000000000E+00 -0.00000000000E+00 -0.45593999997E+02  0.45594000000E+02  0.51100000000E-03 0. -1.
    9900012    2    1    2    0    0  0.11356204832E+02 -0.11896229973E+02  0.89551455323E+01  0.72461593317E+02  0.70000029991E+02 0.  0.
         12    1    1    2    0    0 -0.11356204832E+02  0.11896229973E+02 -0.89551455323E+01  0.18726406683E+02  0.00000000000E+00 0. -1.
         11    1    3    3    0    0 -0.11602691983E+02 -0.12809154714E+02 -0.11284351090E+02  0.20640578614E+02  0.51100000000E-03 0. -1.
        -11    1    3    3    0    0  0.10912980215E+02  0.11523573399E+02 -0.91598751831E+01  0.18324551691E+02  0.51100000000E-03 0.  1.
         12    1    3    3    0    0  0.12045916601E+02 -0.10610648658E+02  0.29399371805E+02  0.33496463011E+02  0.00000000000E+00 0. -1.
</event>
<event>
 7    1  0.1465498E-013  0.7246158E+02  0.7816164E-02  0.1226708E+00
        -11   -1    0    0    0    0  0.00000000000E+00  0.00000000000E+00  0.45593999997E+02  0.45594000000E+02  0.51100000000E-03 0. -1.
         11   -1    0    0    0    0 -0.00000000000E+00 -0.00000000000E+00 -0.45593999997E+02  0.45594000000E+02  0.51100000000E-03 0.  1.
    9900012    2    1    2    0    0 -0.12950270779E+02 -0.50888427937E+01 -0.12532870249E+02  0.72461583607E+02  0.70000017342E+02 0.  0.
         12    1    1    2    0    0  0.12950270779E+02  0.50888427937E+01  0.12532870249E+02  0.18726416393E+02  0.00000000000E+00 0. -1.
         11    1    3    3    0    0 -0.19358954356E+02 -0.13999315937E+02 -0.20300813050E+02  0.31350804953E+02  0.51100000000E-03 0. -1.
        -11    1    3    3    0    0 -0.31736593988E+01  0.54775352909E+01 -0.14940013920E+02  0.16225890516E+02  0.51100000000E-03 0.  1.
         12    1    3    3    0    0  0.95823429754E+01  0.34329378520E+01  0.22707956721E+02  0.24884888138E+02  0.00000000000E+00 0. -1.
</event>
<event>
 7    1  0.1465498E-013  0.7246175E+02  0.7816164E-02  0.1226708E+00
        -11   -1    0    0    0    0  0.00000000000E+00  0.00000000000E+00  0.45593999997E+02  0.45594000000E+02  0.51100000000E-03 0.  1.
         11   -1    0    0    0    0 -0.00000000000E+00 -0.00000000000E+00 -0.45593999997E+02  0.45594000000E+02  0.51100000000E-03 0. -1.
    9900012    2    1    2    0    0  0.16121799735E+02 -0.74981701018E+01  0.58768483607E+01  0.72461752959E+02  0.70000237955E+02 0.  0.
         12    1    1    2    0    0 -0.16121799735E+02  0.74981701018E+01 -0.58768483607E+01  0.18726247041E+02  0.00000000000E+00 0. -1.
         11    1    3    3    0    0  0.30157013564E+01 -0.14491650065E+01 -0.14760916488E+02  0.15135362226E+02  0.51100000000E-03 0. -1.
        -11    1    3    3    0    0  0.22596252852E+02 -0.18918936180E+02 -0.20814326312E+01  0.29544020565E+02  0.51100000000E-03 0.  1.
        -12    1    3    3    0    0 -0.94901544730E+01  0.12869931084E+02  0.22719197480E+02  0.27782370168E+02  0.00000000000E+00 0.  1.
</event>
<event>
 7    1  0.1465498E-013  0.7246155E+02  0.7816164E-02  0.1226708E+00
        -11   -1    0    0    0    0  0.00000000000E+00  0.00000000000E+00  0.45593999997E+02  0.45594000000E+02  0.51100000000E-03 0. -1.
         11   -1    0    0    0    0 -0.00000000000E+00 -0.00000000000E+00 -0.45593999997E+02  0.45594000000E+02  0.51100000000E-03 0.  1.
    9900012    2    1    2    0    0  0.83487013494E+01  0.12629577470E+02 -0.11021481615E+02  0.72461545496E+02  0.69999967696E+02 0.  0.
         12    1    1    2    0    0 -0.83487013494E+01 -0.12629577470E+02  0.11021481615E+02  0.18726454504E+02  0.00000000000E+00 0. -1.
         11    1    3    3    0    0 -0.11774951055E+02 -0.75510482587E+01  0.93678099359E+01  0.16835191279E+02  0.51100000000E-03 0. -1.
        -11    1    3    3    0    0 -0.60369523735E+01  0.10365079058E+02 -0.24600828038E+02  0.27369333172E+02  0.51100000000E-03 0.  1.
         12    1    3    3    0    0  0.26160604778E+02  0.98155466704E+01  0.42115364873E+01  0.28257021046E+02  0.00000000000E+00 0. -1.
</event>
<event>
 7    1  0.1465498E-013  0.7246161E+02  0.7816164E-02  0.1226708E+00
        -11   -1    0    0    0    0  0.00000000000E+00  0.00000000000E+00  0.45593999997E+02  0.45594000000E+02  0.51100000000E-03 0.  1.
         11   -1    0    0    0    0 -0.00000000000E+00 -0.00000000000E+00 -0.45593999997E+02  0.45594000000E+02  0.51100000000E-03 0. -1.
    9900012    2    1    2    0    0  0.43935074801E+00  0.13662419245E+02  0.12799336795E+02  0.72461608167E+02  0.70000049336E+02 0.  0.
         12    1    1    2    0    0 -0.43935074801E+00 -0.13662419245E+02 -0.12799336795E+02  0.18726391833E+02  0.00000000000E+00 0. -1.
         11    1    3    3    0    0 -0.31445979090E+02  0.15831270007E+02 -0.39257725254E+01  0.35424432263E+02  0.51100000000E-03 0. -1.
        -11    1    3    3    0    0  0.25394966493E+01 -0.10577160553E+01 -0.76651282064E+00  0.28557571064E+01  0.51100000000E-03 0.  1.
        -12    1    3    3    0    0  0.29345833189E+02 -0.11111347066E+01  0.17491622141E+02  0.34181418797E+02  0.00000000000E+00 0.  1.
</event>
<event>
 7    1  0.1465498E-013  0.7246156E+02  0.7816164E-02  0.1226708E+00
        -11   -1    0    0    0    0  0.00000000000E+00  0.00000000000E+00  0.45593999997E+02  0.45594000000E+02  0.51100000000E-03 0. -1.
         11   -1    0    0    0    0 -0.00000000000E+00 -0.00000000000E+00 -0.45593999997E+02  0.45594000000E+02  0.51100000000E-03 0.  1.
    9900012    2    1    2    0    0 -0.13851994000E+01 -0.17635575644E+02 -0.61438756963E+01  0.72461561090E+02  0.69999988010E+02 0.  0.
         12    1    1    2    0    0  0.13851994000E+01  0.17635575644E+02  0.61438756963E+01  0.18726438910E+02  0.00000000000E+00 0. -1.
         11    1    3    3    0    0  0.15901000637E+02  0.12186676089E+02  0.47729367476E+01  0.20594606595E+02  0.51100000000E-03 0. -1.
        -11    1    3    3    0    0 -0.82087049042E+00  0.73326264697E+01 -0.83548255113E+01  0.11146494915E+02  0.51100000000E-03 0.  1.
         12    1    3    3    0    0 -0.16465329547E+02 -0.37154878203E+02 -0.25619869326E+01  0.40720459580E+02  0.00000000000E+00 0. -1.
</event>
<event>
 7    1  0.1465498E-013  0.7246157E+02  0.7816164E-02  0.1226708E+00
        -11   -1    0    0    0    0  0.00000000000E+00  0.00000000000E+00  0.45593999997E+02  0.45594000000E+02  0.51100000000E-03 0. -1.
         11   -1    0    0    0    0 -0.00000000000E+00 -0.00000000000E+00 -0.45593999997E+02  0.45594000000E+02  0.51100000000E-03 0.  1.
    9900012    2    1    2    0    0  0.14356503084E+02 -0.11984964406E+02 -0.96476246031E+00  0.72461566297E+02  0.69999994792E+02 0.  0.
         12    1    1    2    0    0 -0.14356503084E+02  0.11984964406E+02  0.96476246031E+00  0.18726433703E+02  0.00000000000E+00 0. -1.
         11    1    3    3    0    0  0.44863542689E+01  0.53067555780E+01 -0.70120937793E+01  0.98721066051E+01  0.51100000000E-03 0. -1.
        -11    1    3    3    0    0  0.99226655384E+00 -0.24638838299E+02 -0.21508459557E+02  0.32721106008E+02  0.51100000000E-03 0.  1.
         12    1    3    3    0    0  0.88778822615E+01  0.73471183145E+01  0.27555790876E+02  0.29868353683E+02  0.00000000000E+00 0. -1.
</event>
<event>
 7    1  0.1465498E-013  0.7246154E+02  0.7816164E-02  0.1226708E+00
        -11   -1    0    0    0    0  0.00000000000E+00  0.00000000000E+00  0.45593999997E+02  0.45594000000E+02  0.51100000000E-03 0. -1.
         11   -1    0    0    0    0 -0.00000000000E+00 -0.00000000000E+00 -0.45593999997E+02  0.45594000000E+02  0.51100000000E-03 0.  1.
    9900012    2    1    2    0    0  0.66763387866E+01  0.11225956569E+02  0.13419569498E+02  0.72461536213E+02  0.69999955602E+02 0.  0.
         12    1    1    2    0    0 -0.66763387866E+01 -0.11225956569E+02 -0.13419569498E+02  0.18726463787E+02  0.00000000000E+00 0. -1.
         11    1    3    3    0    0  0.37769803376E+01  0.19656090644E+02 -0.20620605900E+02  0.28737377539E+02  0.51100000000E-03 0.  1.
        -11    1    3    3    0    0 -0.69834033419E+01 -0.14077770334E+01 -0.47692745799E+00  0.71398332244E+01  0.51100000000E-03 0. -1.
        -12    1    3    3    0    0  0.98827617909E+01 -0.70223570416E+01  0.34517102856E+02  0.36584325449E+02  0.00000000000E+00 0.  1.
</event>
<event>
 7    1  0.1465498E-013  0.7246167E+02  0.7816164E-02  0.1226708E+00
        -11   -1    0    0    0    0  0.00000000000E+00  0.00000000000E+00  0.45593999997E+02  0.45594000000E+02  0.51100000000E-03 0.  1.
         11   -1    0    0    0    0 -0.00000000000E+00 -0.00000000000E+00 -0.45593999997E+02  0.45594000000E+02  0.51100000000E-03 0. -1.
    9900012    2    1    2    0    0 -0.36291168360E+01  0.68912097648E+01  0.17029865485E+02  0.72461666150E+02  0.70000124869E+02 0.  0.
         12    1    1    2    0    0  0.36291168360E+01 -0.68912097648E+01 -0.17029865485E+02  0.18726333850E+02  0.00000000000E+00 0. -1.
         11    1    3    3    0    0 -0.47863490873E+01  0.27325868395E+02 -0.22566906065E+01  0.27833520688E+02  0.51100000000E-03 0. -1.
        -11    1    3    3    0    0  0.59526744792E+01  0.25833896208E+01  0.20080012948E+02  0.21102491693E+02  0.51100000000E-03 0.  1.
        -12    1    3    3    0    0 -0.47954422280E+01 -0.23018048251E+02 -0.79345685668E+00  0.23525653769E+02  0.00000000000E+00 0.  1.
</event>
<event>
 7    1  0.1465498E-013  0.7246159E+02  0.7816164E-02  0.1226708E+00
        -11   -1    0    0    0    0  0.00000000000E+00  0.00000000000E+00  0.45593999997E+02  0.45594000000E+02  0.51100000000E-03 0.  1.
         11   -1    0    0    0    0 -0.00000000000E+00 -0.00000000000E+00 -0.45593999997E+02  0.45594000000E+02  0.51100000000E-03 0. -1.
    9900012    2    1    2    0    0  0.11954245263E+02 -0.94019913748E+01  0.10925971800E+02  0.72461594007E+02  0.70000030891E+02 0.  0.
         12    1    1    2    0    0 -0.11954245263E+02  0.94019913748E+01 -0.10925971800E+02  0.18726405993E+02  0.00000000000E+00 0. -1.
         11    1    3    3    0    0  0.15413253367E+02  0.23112466290E+02  0.16288583456E+01  0.27828180989E+02  0.51100000000E-03 0. -1.
        -11    1    3    3    0    0  0.11370594305E+02 -0.11393632354E+02 -0.24435698663E+01  0.16281164179E+02  0.51100000000E-03 0.  1.
        -12    1    3    3    0    0 -0.14829602409E+02 -0.21120825312E+02  0.11740683321E+02  0.28352248840E+02  0.00000000000E+00 0.  1.
</event>
<event>
 7    1  0.1465498E-013  0.7246158E+02  0.7816164E-02  0.1226708E+00
        -11   -1    0    0    0    0  0.00000000000E+00  0.00000000000E+00  0.45593999997E+02  0.45594000000E+02  0.51100000000E-03 0.  1.
         11   -1    0    0    0    0 -0.00000000000E+00 -0.00000000000E+00 -0.45593999997E+02  0.45594000000E+02  0.51100000000E-03 0. -1.
    9900012    2    1    2    0    0  0.17869158491E+02  0.50023593255E+01 -0.25195826638E+01  0.72461582276E+02  0.70000015608E+02 0.  0.
         12    1    1    2    0    0 -0.17869158491E+02 -0.50023593255E+01  0.25195826638E+01  0.18726417724E+02  0.00000000000E+00 0. -1.
         11    1    3    3    0    0  0.30215802263E+02  0.37415068185E+00 -0.15402552187E+02  0.33917153614E+02  0.51100000000E-03 0. -1.
        -11    1    3    3    0    0  0.94884393308E+01  0.10056049357E+02  0.51109336276E+01  0.14740293498E+02  0.51100000000E-03 0.  1.
        -12    1    3    3    0    0 -0.21835083103E+02 -0.54278407136E+01  0.77720358957E+01  0.23804135164E+02  0.00000000000E+00 0.  1.
</event>
<event>
 7    1  0.1465498E-013  0.7246161E+02  0.7816164E-02  0.1226708E+00
        -11   -1    0    0    0    0  0.00000000000E+00  0.00000000000E+00  0.45593999997E+02  0.45594000000E+02  0.51100000000E-03 0. -1.
         11   -1    0    0    0    0 -0.00000000000E+00 -0.00000000000E+00 -0.45593999997E+02  0.45594000000E+02  0.51100000000E-03 0.  1.
    9900012    2    1    2    0    0  0.14353388908E+02  0.43969743947E+01 -0.11194837009E+02  0.72461614000E+02  0.70000056934E+02 0.  0.
         12    1    1    2    0    0 -0.14353388908E+02 -0.43969743947E+01  0.11194837009E+02  0.18726386000E+02  0.00000000000E+00 0. -1.
         11    1    3    3    0    0  0.39754902755E+02  0.20800959466E+01 -0.10614390008E+01  0.39823432113E+02  0.51100000000E-03 0. -1.
        -11    1    3    3    0    0  0.48010765431E+00  0.43924769485E+01  0.75528375050E+00  0.44827236038E+01  0.51100000000E-03 0.  1.
        -12    1    3    3    0    0 -0.25881621501E+02 -0.20755985004E+01 -0.10888681759E+02  0.28155458283E+02  0.00000000000E+00 0.  1.
</event>
<event>
 7    1  0.1465498E-013  0.7246175E+02  0.7816164E-02  0.1226708E+00
        -11   -1    0    0    0    0  0.00000000000E+00  0.00000000000E+00  0.45593999997E+02  0.45594000000E+02  0.51100000000E-03 0.  1.
         11   -1    0    0    0    0 -0.00000000000E+00 -0.00000000000E+00 -0.45593999997E+02  0.45594000000E+02  0.51100000000E-03 0. -1.
    9900012    2    1    2    0    0 -0.15951185774E+02 -0.43851223933E+01  0.87751328933E+01  0.72461746149E+02  0.70000229083E+02 0.  0.
         12    1    1    2    0    0  0.15951185774E+02  0.43851223933E+01 -0.87751328933E+01  0.18726253851E+02  0.00000000000E+00 0. -1.
         11    1    3    3    0    0  0.16037833160E+02 -0.92110221360E+01 -0.15892119571E+01  0.18562882754E+02  0.51100000000E-03 0. -1.
        -11    1    3    3    0    0 -0.24980630000E+02 -0.14728788106E+02 -0.30684859268E+01  0.29161355942E+02  0.51100000000E-03 0.  1.
         12    1    3    3    0    0 -0.70083889336E+01  0.19554687848E+02  0.13432830777E+02  0.24737507453E+02  0.00000000000E+00 0. -1.
</event>
<event>
 7    1  0.1465498E-013  0.7246160E+02  0.7816164E-02  0.1226708E+00
        -11   -1    0    0    0    0  0.00000000000E+00  0.00000000000E+00  0.45593999997E+02  0.45594000000E+02  0.51100000000E-03 0. -1.
         11   -1    0    0    0    0 -0.00000000000E+00 -0.00000000000E+00 -0.45593999997E+02  0.45594000000E+02  0.51100000000E-03 0.  1.
    9900012    2    1    2    0    0 -0.11838195586E+02  0.40130466639E+01  0.13943834484E+02  0.72461603166E+02  0.70000042822E+02 0.  0.
         12    1    1    2    0    0  0.11838195586E+02 -0.40130466639E+01 -0.13943834484E+02  0.18726396834E+02  0.00000000000E+00 0. -1.
         11    1    3    3    0    0 -0.15761061786E+01  0.15903277645E+02  0.25886750405E+02  0.30422396312E+02  0.51100000000E-03 0. -1.
        -11    1    3    3    0    0 -0.15481596608E+02 -0.11147511845E+02  0.85305896480E+01  0.20897794474E+02  0.51100000000E-03 0.  1.
        -12    1    3    3    0    0  0.52195072006E+01 -0.74271913663E+00 -0.20473505570E+02  0.21141412381E+02  0.00000000000E+00 0.  1.
</event>
<event>
 7    1  0.1465498E-013  0.7246149E+02  0.7816164E-02  0.1226708E+00
        -11   -1    0    0    0    0  0.00000000000E+00  0.00000000000E+00  0.45593999997E+02  0.45594000000E+02  0.51100000000E-03 0. -1.
         11   -1    0    0    0    0 -0.00000000000E+00 -0.00000000000E+00 -0.45593999997E+02  0.45594000000E+02  0.51100000000E-03 0.  1.
    9900012    2    1    2    0    0  0.12346403211E+02  0.24756905987E+01 -0.13860718652E+02  0.72461488372E+02  0.69999893281E+02 0.  0.
         12    1    1    2    0    0 -0.12346403211E+02 -0.24756905987E+01  0.13860718652E+02  0.18726511628E+02  0.00000000000E+00 0. -1.
         11    1    3    3    0    0  0.20206603252E+02  0.19931294117E+02 -0.84637844605E+01  0.29617544594E+02  0.51100000000E-03 0. -1.
        -11    1    3    3    0    0  0.88794863100E+01  0.48885734718E+01 -0.10352344467E+02  0.14488425171E+02  0.51100000000E-03 0.  1.
        -12    1    3    3    0    0 -0.16739686351E+02 -0.22344176990E+02  0.49554102749E+01  0.28355518607E+02  0.00000000000E+00 0.  1.
</event>
<event>
 7    1  0.1465498E-013  0.7246144E+02  0.7816164E-02  0.1226708E+00
        -11   -1    0    0    0    0  0.00000000000E+00  0.00000000000E+00  0.45593999997E+02  0.45594000000E+02  0.51100000000E-03 0. -1.
         11   -1    0    0    0    0 -0.00000000000E+00 -0.00000000000E+00 -0.45593999997E+02  0.45594000000E+02  0.51100000000E-03 0.  1.
    9900012    2    1    2    0    0 -0.22648174635E+01 -0.34043008010E+01 -0.18274720695E+02  0.72461439223E+02  0.69999829255E+02 0.  0.
         12    1    1    2    0    0  0.22648174635E+01  0.34043008010E+01  0.18274720695E+02  0.18726560777E+02  0.00000000000E+00 0. -1.
         11    1    3    3    0    0  0.46117228341E+01 -0.98464197796E+01 -0.28964552836E+01  0.11252085293E+02  0.51100000000E-03 0.  1.
        -11    1    3    3    0    0 -0.16355412948E+02  0.25780388201E+02  0.57183097106E+01  0.31061664713E+02  0.51100000000E-03 0. -1.
         12    1    3    3    0    0  0.94788726507E+01 -0.19338269223E+02 -0.21096575121E+02  0.30147689217E+02  0.00000000000E+00 0. -1.
</event>
<event>
 7    1  0.1465498E-013  0.7246160E+02  0.7816164E-02  0.1226708E+00
        -11   -1    0    0    0    0  0.00000000000E+00  0.00000000000E+00  0.45593999997E+02  0.45594000000E+02  0.51100000000E-03 0.  1.
         11   -1    0    0    0    0 -0.00000000000E+00 -0.00000000000E+00 -0.45593999997E+02  0.45594000000E+02  0.51100000000E-03 0. -1.
    9900012    2    1    2    0    0  0.14254645067E+02 -0.40901764332E+01 -0.11434749664E+02  0.72461602880E+02  0.70000042448E+02 0.  0.
         12    1    1    2    0    0 -0.14254645067E+02  0.40901764332E+01  0.11434749664E+02  0.18726397120E+02  0.00000000000E+00 0. -1.
         11    1    3    3    0    0 -0.51131208771E+01  0.64150339991E+01 -0.86085249863E+01  0.11891314856E+02  0.51100000000E-03 0. -1.
        -11    1    3    3    0    0  0.24133500591E+02  0.14410154797E+02 -0.15622919248E+02  0.32158265160E+02  0.51100000000E-03 0.  1.
        -12    1    3    3    0    0 -0.47657346471E+01 -0.24915365229E+02  0.12796694570E+02  0.28412022863E+02  0.00000000000E+00 0.  1.
</event>
<event>
 7    1  0.1465498E-013  0.7246143E+02  0.7816164E-02  0.1226708E+00
        -11   -1    0    0    0    0  0.00000000000E+00  0.00000000000E+00  0.45593999997E+02  0.45594000000E+02  0.51100000000E-03 0.  1.
         11   -1    0    0    0    0 -0.00000000000E+00 -0.00000000000E+00 -0.45593999997E+02  0.45594000000E+02  0.51100000000E-03 0. -1.
    9900012    2    1    2    0    0  0.80299295706E+00 -0.24110209910E+01  0.18553349411E+02  0.72461425453E+02  0.69999811316E+02 0.  0.
         12    1    1    2    0    0 -0.80299295706E+00  0.24110209910E+01 -0.18553349411E+02  0.18726574547E+02  0.00000000000E+00 0. -1.
         11    1    3    3    0    0 -0.63882114508E+01  0.23310006207E+02  0.11796993493E+02  0.26894882239E+02  0.51100000000E-03 0. -1.
        -11    1    3    3    0    0  0.57504411949E+01  0.84709683259E+01  0.47468009889E+01  0.11285255788E+02  0.51100000000E-03 0.  1.
        -12    1    3    3    0    0  0.14407632130E+01 -0.34191995524E+02  0.20095549296E+01  0.34281287426E+02  0.00000000000E+00 0.  1.
</event>
<event>
 7    1  0.1465498E-013  0.7246194E+02  0.7816164E-02  0.1226707E+00
        -11   -1    0    0    0    0  0.00000000000E+00  0.00000000000E+00  0.45593999997E+02  0.45594000000E+02  0.51100000000E-03 0.  1.
         11   -1    0    0    0    0 -0.00000000000E+00 -0.00000000000E+00 -0.45593999997E+02  0.45594000000E+02  0.51100000000E-03 0. -1.
    9900012    2    1    2    0    0 -0.14412310444E+02 -0.60959758421E+01  0.10285411499E+02  0.72461940524E+02  0.70000482291E+02 0.  0.
         12    1    1    2    0    0  0.14412310444E+02  0.60959758421E+01 -0.10285411499E+02  0.18726059476E+02  0.00000000000E+00 0. -1.
         11    1    3    3    0    0 -0.11225079228E+02 -0.88718070403E+01 -0.14046811234E+02  0.20050542884E+02  0.51100000000E-03 0. -1.
        -11    1    3    3    0    0  0.15384129537E+02 -0.13290991812E+02  0.17747773413E+02  0.26987133348E+02  0.51100000000E-03 0.  1.
        -12    1    3    3    0    0 -0.18571360754E+02  0.16066823011E+02  0.65844493200E+01  0.25424264291E+02  0.00000000000E+00 0.  1.
</event>
<event>
 7    1  0.1465498E-013  0.7246156E+02  0.7816164E-02  0.1226708E+00
        -11   -1    0    0    0    0  0.00000000000E+00  0.00000000000E+00  0.45593999997E+02  0.45594000000E+02  0.51100000000E-03 0.  1.
         11   -1    0    0    0    0 -0.00000000000E+00 -0.00000000000E+00 -0.45593999997E+02  0.45594000000E+02  0.51100000000E-03 0. -1.
    9900012    2    1    2    0    0 -0.15684810535E+02 -0.83958352622E+01 -0.58460310447E+01  0.72461563867E+02  0.69999991628E+02 0.  0.
         12    1    1    2    0    0  0.15684810535E+02  0.83958352622E+01  0.58460310447E+01  0.18726436133E+02  0.00000000000E+00 0. -1.
         11    1    3    3    0    0 -0.11698284254E+02  0.10609640422E+02 -0.13727400641E+02  0.20925005448E+02  0.51100000000E-03 0. -1.
        -11    1    3    3    0    0  0.14659542142E+02  0.10813510956E+01 -0.10910209719E+02  0.18305850769E+02  0.51100000000E-03 0.  1.
         12    1    3    3    0    0 -0.18646068423E+02 -0.20086826780E+02  0.18791579316E+02  0.33230707650E+02  0.00000000000E+00 0. -1.
</event>
<event>
 7    1  0.1465498E-013  0.7246151E+02  0.7816164E-02  0.1226708E+00
        -11   -1    0    0    0    0  0.00000000000E+00  0.00000000000E+00  0.45593999997E+02  0.45594000000E+02  0.51100000000E-03 0.  1.
         11   -1    0    0    0    0 -0.00000000000E+00 -0.00000000000E+00 -0.45593999997E+02  0.45594000000E+02  0.51100000000E-03 0. -1.
    9900012    2    1    2    0    0 -0.14606463185E+02 -0.45916801702E+01  0.10781886962E+02  0.72461511274E+02  0.69999923115E+02 0.  0.
         12    1    1    2    0    0  0.14606463185E+02  0.45916801702E+01 -0.10781886962E+02  0.18726488726E+02  0.00000000000E+00 0. -1.
         11    1    3    3    0    0  0.60904898630E-01 -0.24727515070E+01  0.33903135192E+01  0.41967172220E+01  0.51100000000E-03 0. -1.
        -11    1    3    3    0    0 -0.33132278057E+02 -0.15605128045E+02  0.20436936137E+02  0.41939673693E+02  0.51100000000E-03 0.  1.
         12    1    3    3    0    0  0.18464909974E+02  0.13486199381E+02 -0.13045362694E+02  0.26325120359E+02  0.00000000000E+00 0. -1.
</event>
<event>
 7    1  0.1465498E-013  0.7246158E+02  0.7816164E-02  0.1226708E+00
        -11   -1    0    0    0    0  0.00000000000E+00  0.00000000000E+00  0.45593999997E+02  0.45594000000E+02  0.51100000000E-03 0.  1.
         11   -1    0    0    0    0 -0.00000000000E+00 -0.00000000000E+00 -0.45593999997E+02  0.45594000000E+02  0.51100000000E-03 0. -1.
    9900012    2    1    2    0    0 -0.10708512300E+02 -0.14959000370E+02  0.34978622704E+01  0.72461575670E+02  0.70000007003E+02 0.  0.
         12    1    1    2    0    0  0.10708512300E+02  0.14959000370E+02 -0.34978622704E+01  0.18726424330E+02  0.00000000000E+00 0. -1.
         11    1    3    3    0    0 -0.66020052112E+00 -0.24031781756E+02  0.69520268642E+01  0.25025848175E+02  0.51100000000E-03 0. -1.
        -11    1    3    3    0    0  0.45618290955E+01 -0.16243759898E+02  0.38526795979E+01  0.17306448528E+02  0.51100000000E-03 0.  1.
         12    1    3    3    0    0 -0.14610140874E+02  0.25316541285E+02 -0.73068441916E+01  0.30129278966E+02  0.00000000000E+00 0. -1.
</event>
<event>
 7    1  0.1465498E-013  0.7246157E+02  0.7816164E-02  0.1226708E+00
        -11   -1    0    0    0    0  0.00000000000E+00  0.00000000000E+00  0.45593999997E+02  0.45594000000E+02  0.51100000000E-03 0.  1.
         11   -1    0    0    0    0 -0.00000000000E+00 -0.00000000000E+00 -0.45593999997E+02  0.45594000000E+02  0.51100000000E-03 0. -1.
    9900012    2    1    2    0    0  0.13461793026E+02  0.39504751817E+01  0.12403752962E+02  0.72461569128E+02  0.69999998481E+02 0.  0.
         12    1    1    2    0    0 -0.13461793026E+02 -0.39504751817E+01 -0.12403752962E+02  0.18726430872E+02  0.00000000000E+00 0. -1.
         11    1    3    3    0    0  0.15743335210E+02 -0.83653629015E+01 -0.79109142495E+01  0.19504216584E+02  0.51100000000E-03 0. -1.
        -11    1    3    3    0    0  0.21457538380E+02  0.12256230103E+02  0.13962773622E+02  0.28383096680E+02  0.51100000000E-03 0.  1.
         12    1    3    3    0    0 -0.23739080564E+02  0.59607980037E-01  0.63518935896E+01  0.24574255865E+02  0.00000000000E+00 0. -1.
</event>
<event>
 7    1  0.1465498E-013  0.7246164E+02  0.7816164E-02  0.1226708E+00
        -11   -1    0    0    0    0  0.00000000000E+00  0.00000000000E+00  0.45593999997E+02  0.45594000000E+02  0.51100000000E-03 0. -1.
         11   -1    0    0    0    0 -0.00000000000E+00 -0.00000000000E+00 -0.45593999997E+02  0.45594000000E+02  0.51100000000E-03 0.  1.
    9900012    2    1    2    0    0 -0.11118375110E+02  0.12335029861E+00 -0.15067950030E+02  0.72461638941E+02  0.70000089425E+02 0.  0.
         12    1    1    2    0    0  0.11118375110E+02 -0.12335029861E+00  0.15067950030E+02  0.18726361059E+02  0.00000000000E+00 0. -1.
         11    1    3    3    0    0 -0.77070820417E+01  0.16442929975E+02  0.87203020674E+01  0.20144794071E+02  0.51100000000E-03 0. -1.
        -11    1    3    3    0    0 -0.20584052431E+02  0.13402378623E+01 -0.47063847026E+01  0.21157729303E+02  0.51100000000E-03 0.  1.
         12    1    3    3    0    0  0.17172759363E+02 -0.17659817539E+02 -0.19081867395E+02  0.31159115567E+02  0.00000000000E+00 0. -1.
</event>
<event>
 7    1  0.1465498E-013  0.7246157E+02  0.7816164E-02  0.1226708E+00
        -11   -1    0    0    0    0  0.00000000000E+00  0.00000000000E+00  0.45593999997E+02  0.45594000000E+02  0.51100000000E-03 0.  1.
         11   -1    0    0    0    0 -0.00000000000E+00 -0.00000000000E+00 -0.45593999997E+02  0.45594000000E+02  0.51100000000E-03 0. -1.
    9900012    2    1    2    0    0  0.61130933546E+01  0.92190186987E+01  0.15110229284E+02  0.72461568275E+02  0.69999997370E+02 0.  0.
         12    1    1    2    0    0 -0.61130933546E+01 -0.92190186987E+01 -0.15110229284E+02  0.18726431725E+02  0.00000000000E+00 0. -1.
         11    1    3    3    0    0  0.13896738890E+02  0.89646996714E+01 -0.44863475362E+01  0.17135124933E+02  0.51100000000E-03 0. -1.
        -11    1    3    3    0    0 -0.19876570997E+02  0.19954307128E+02  0.14406445833E+02  0.31635393618E+02  0.51100000000E-03 0.  1.
        -12    1    3    3    0    0  0.12092925462E+02 -0.19699988101E+02  0.51901309876E+01  0.23691049725E+02  0.00000000000E+00 0.  1.
</event>
<event>
 7    1  0.1465498E-013  0.7246148E+02  0.7816164E-02  0.1226708E+00
        -11   -1    0    0    0    0  0.00000000000E+00  0.00000000000E+00  0.45593999997E+02  0.45594000000E+02  0.51100000000E-03 0.  1.
         11   -1    0    0    0    0 -0.00000000000E+00 -0.00000000000E+00 -0.45593999997E+02  0.45594000000E+02  0.51100000000E-03 0. -1.
    9900012    2    1    2    0    0  0.17463664700E+02  0.26581363437E+00  0.67551585841E+01  0.72461483796E+02  0.69999887320E+02 0.  0.
         12    1    1    2    0    0 -0.17463664700E+02 -0.26581363437E+00 -0.67551585841E+01  0.18726516204E+02  0.00000000000E+00 0. -1.
         11    1    3    3    0    0 -0.95097961462E+01  0.56240692607E+01 -0.36059104235E+01  0.11621917571E+02  0.51100000000E-03 0. -1.
        -11    1    3    3    0    0  0.25612980099E+02  0.19825623300E+02  0.14132622369E+02  0.35338521532E+02  0.51100000000E-03 0.  1.
         12    1    3    3    0    0  0.13604807469E+01 -0.25183878927E+02 -0.37715533609E+01  0.25501044693E+02  0.00000000000E+00 0. -1.
</event>
<event>
 7    1  0.1465498E-013  0.7246215E+02  0.7816164E-02  0.1226706E+00
        -11   -1    0    0    0    0  0.00000000000E+00  0.00000000000E+00  0.45593999997E+02  0.45594000000E+02  0.51100000000E-03 0. -1.
         11   -1    0    0    0    0 -0.00000000000E+00 -0.00000000000E+00 -0.45593999997E+02  0.45594000000E+02  0.51100000000E-03 0.  1.
    9900012    2    1    2    0    0  0.64278057596E+01  0.67448674265E+01 -0.16243389954E+02  0.72462145128E+02  0.70000748824E+02 0.  0.
         12    1    1    2    0    0 -0.64278057596E+01 -0.67448674265E+01  0.16243389954E+02  0.18725854872E+02  0.00000000000E+00 0. -1.
         11    1    3    3    0    0  0.19273611882E+02  0.47583486065E+01 -0.65274710752E+01  0.20897891649E+02  0.51100000000E-03 0.  1.
        -11    1    3    3    0    0 -0.23868616502E+02  0.18903023940E+02 -0.60938602969E+01  0.31051091790E+02  0.51100000000E-03 0. -1.
         12    1    3    3    0    0  0.11022810379E+02 -0.16916505120E+02 -0.36220585821E+01  0.20513161689E+02  0.00000000000E+00 0. -1.
</event>
<event>
 7    1  0.1465498E-013  0.7246152E+02  0.7816164E-02  0.1226708E+00
        -11   -1    0    0    0    0  0.00000000000E+00  0.00000000000E+00  0.45593999997E+02  0.45594000000E+02  0.51100000000E-03 0. -1.
         11   -1    0    0    0    0 -0.00000000000E+00 -0.00000000000E+00 -0.45593999997E+02  0.45594000000E+02  0.51100000000E-03 0.  1.
    9900012    2    1    2    0    0 -0.33923775564E+01 -0.12057894362E+02 -0.13920495372E+02  0.72461515190E+02  0.69999928216E+02 0.  0.
         12    1    1    2    0    0  0.33923775564E+01  0.12057894362E+02  0.13920495372E+02  0.18726484810E+02  0.00000000000E+00 0. -1.
         11    1    3    3    0    0  0.29731392581E+01 -0.40937625770E+01  0.38127550789E+01  0.63352624758E+01  0.51100000000E-03 0. -1.
        -11    1    3    3    0    0 -0.23559456060E+02  0.16523044291E+02  0.41271583571E+01  0.29070472973E+02  0.51100000000E-03 0.  1.
         12    1    3    3    0    0  0.17193939246E+02 -0.24487176076E+02 -0.21860408808E+02  0.37055779741E+02  0.00000000000E+00 0. -1.
</event>
<event>
 7    1  0.1465498E-013  0.7246152E+02  0.7816164E-02  0.1226708E+00
        -11   -1    0    0    0    0  0.00000000000E+00  0.00000000000E+00  0.45593999997E+02  0.45594000000E+02  0.51100000000E-03 0. -1.
         11   -1    0    0    0    0 -0.00000000000E+00 -0.00000000000E+00 -0.45593999997E+02  0.45594000000E+02  0.51100000000E-03 0.  1.
    9900012    2    1    2    0    0  0.15621425986E+02 -0.10327255937E+02 -0.71433928369E-02  0.72461515652E+02  0.69999928818E+02 0.  0.
         12    1    1    2    0    0 -0.15621425986E+02  0.10327255937E+02  0.71433928369E-02  0.18726484348E+02  0.00000000000E+00 0. -1.
         11    1    3    3    0    0  0.16013289225E+02  0.61679820390E+01 -0.10111882691E+02  0.19917821318E+02  0.51100000000E-03 0. -1.
        -11    1    3    3    0    0  0.27941641119E+01  0.17028573103E+02  0.73498419225E+01  0.18756327774E+02  0.51100000000E-03 0.  1.
         12    1    3    3    0    0 -0.31860273511E+01 -0.33523811079E+02  0.27548973752E+01  0.33787366560E+02  0.00000000000E+00 0. -1.
</event>
<event>
 7    1  0.1465498E-013  0.7246160E+02  0.7816164E-02  0.1226708E+00
        -11   -1    0    0    0    0  0.00000000000E+00  0.00000000000E+00  0.45593999997E+02  0.45594000000E+02  0.51100000000E-03 0.  1.
         11   -1    0    0    0    0 -0.00000000000E+00 -0.00000000000E+00 -0.45593999997E+02  0.45594000000E+02  0.51100000000E-03 0. -1.
    9900012    2    1    2    0    0  0.31767739525E+01 -0.75334981073E+00  0.18439590447E+02  0.72461603536E+02  0.70000043303E+02 0.  0.
         12    1    1    2    0    0 -0.31767739525E+01  0.75334981073E+00 -0.18439590447E+02  0.18726396464E+02  0.00000000000E+00 0. -1.
         11    1    3    3    0    0 -0.37493689855E+01 -0.17632558645E+02  0.11821952697E+01  0.18065505198E+02  0.51100000000E-03 0. -1.
        -11    1    3    3    0    0 -0.12212643418E+02 -0.10121120496E+02 -0.21866066079E+01  0.16011464270E+02  0.51100000000E-03 0.  1.
        -12    1    3    3    0    0  0.19138786356E+02  0.27000329330E+02  0.19444001785E+02  0.38384634068E+02  0.00000000000E+00 0.  1.
</event>
<event>
 7    1  0.2827828E-013  0.7246145E+02  0.7816164E-02  0.1226708E+00
        -11   -1    0    0    0    0  0.00000000000E+00  0.00000000000E+00  0.45593999997E+02  0.45594000000E+02  0.51100000000E-03 0. -1.
         11   -1    0    0    0    0 -0.00000000000E+00 -0.00000000000E+00 -0.45593999997E+02  0.45594000000E+02  0.51100000000E-03 0.  1.
    9900012    2    1    2    0    0 -0.58430268710E+01 -0.10972055328E+02 -0.14005592119E+02  0.72461452755E+02  0.69999846882E+02 0.  0.
         12    1    1    2    0    0  0.58430268710E+01  0.10972055328E+02  0.14005592119E+02  0.18726547245E+02  0.00000000000E+00 0. -1.
         11    1    3    3    0    0  0.20756426049E+02  0.10083597316E+02  0.61559043019E+01  0.23883117787E+02  0.51100000000E-03 0. -1.
        -11    1    3    3    0    0  0.30689857249E+01 -0.30870042371E+01  0.43125975691E+01  0.61275416435E+01  0.51100000000E-03 0.  1.
        -12    1    3    3    0    0 -0.29668438645E+02 -0.17968648407E+02 -0.24474093990E+02  0.42450793324E+02  0.00000000000E+00 0.  1.
</event>
<event>
 7    1  0.1465498E-013  0.7246156E+02  0.7816164E-02  0.1226708E+00
        -11   -1    0    0    0    0  0.00000000000E+00  0.00000000000E+00  0.45593999997E+02  0.45594000000E+02  0.51100000000E-03 0.  1.
         11   -1    0    0    0    0 -0.00000000000E+00 -0.00000000000E+00 -0.45593999997E+02  0.45594000000E+02  0.51100000000E-03 0. -1.
    9900012    2    1    2    0    0 -0.15509208303E+02 -0.53114285040E+01  0.90516693364E+01  0.72461560597E+02  0.69999987368E+02 0.  0.
         12    1    1    2    0    0  0.15509208303E+02  0.53114285040E+01 -0.90516693364E+01  0.18726439403E+02  0.00000000000E+00 0. -1.
         11    1    3    3    0    0 -0.22466458823E+02  0.66894555563E+01  0.47661256114E+01  0.23920839059E+02  0.51100000000E-03 0. -1.
        -11    1    3    3    0    0  0.14720431151E+02  0.14123133264E+02  0.59116610580E+01  0.21239155425E+02  0.51100000000E-03 0.  1.
         12    1    3    3    0    0 -0.77631806308E+01 -0.26124017324E+02 -0.16261173330E+01  0.27301566113E+02  0.00000000000E+00 0. -1.
</event>
<event>
 7    1  0.1465498E-013  0.7246139E+02  0.7816164E-02  0.1226709E+00
        -11   -1    0    0    0    0  0.00000000000E+00  0.00000000000E+00  0.45593999997E+02  0.45594000000E+02  0.51100000000E-03 0.  1.
         11   -1    0    0    0    0 -0.00000000000E+00 -0.00000000000E+00 -0.45593999997E+02  0.45594000000E+02  0.51100000000E-03 0. -1.
    9900012    2    1    2    0    0 -0.13516248105E+02  0.86149695988E+01  0.96839768524E+01  0.72461386005E+02  0.69999759929E+02 0.  0.
         12    1    1    2    0    0  0.13516248105E+02 -0.86149695988E+01 -0.96839768524E+01  0.18726613995E+02  0.00000000000E+00 0. -1.
         11    1    3    3    0    0 -0.47888250149E+01 -0.40478070516E+00  0.13905736314E+00  0.48079132327E+01  0.51100000000E-03 0. -1.
        -11    1    3    3    0    0 -0.28713008732E+02 -0.14517107988E+02 -0.65484118278E+01  0.32833900050E+02  0.51100000000E-03 0.  1.
         12    1    3    3    0    0  0.19985585642E+02  0.23536858292E+02  0.16093331317E+02  0.34819572722E+02  0.00000000000E+00 0. -1.
</event>
<event>
 7    1  0.1465498E-013  0.7246155E+02  0.7816164E-02  0.1226708E+00
        -11   -1    0    0    0    0  0.00000000000E+00  0.00000000000E+00  0.45593999997E+02  0.45594000000E+02  0.51100000000E-03 0. -1.
         11   -1    0    0    0    0 -0.00000000000E+00 -0.00000000000E+00 -0.45593999997E+02  0.45594000000E+02  0.51100000000E-03 0.  1.
    9900012    2    1    2    0    0 -0.30838168347E+01  0.10955706483E+02 -0.14870856169E+02  0.72461553620E+02  0.69999978279E+02 0.  0.
         12    1    1    2    0    0  0.30838168347E+01 -0.10955706483E+02  0.14870856169E+02  0.18726446380E+02  0.00000000000E+00 0. -1.
         11    1    3    3    0    0  0.66469375233E+00 -0.86463243797E+01 -0.24911087923E+01  0.90225476635E+01  0.51100000000E-03 0. -1.
        -11    1    3    3    0    0 -0.26766037800E+01  0.39585879167E+01 -0.35325584296E+02  0.35647321529E+02  0.51100000000E-03 0.  1.
         12    1    3    3    0    0 -0.10719068070E+01  0.15643442946E+02  0.22945836919E+02  0.27791684428E+02  0.00000000000E+00 0. -1.
</event>
<event>
 7    1  0.1465498E-013  0.7246163E+02  0.7816164E-02  0.1226708E+00
        -11   -1    0    0    0    0  0.00000000000E+00  0.00000000000E+00  0.45593999997E+02  0.45594000000E+02  0.51100000000E-03 0.  1.
         11   -1    0    0    0    0 -0.00000000000E+00 -0.00000000000E+00 -0.45593999997E+02  0.45594000000E+02  0.51100000000E-03 0. -1.
    9900012    2    1    2    0    0  0.71321898206E+00 -0.61556404634E+01  0.17671338212E+02  0.72461633961E+02  0.70000082937E+02 0.  0.
         12    1    1    2    0    0 -0.71321898206E+00  0.61556404634E+01 -0.17671338212E+02  0.18726366039E+02  0.00000000000E+00 0. -1.
         11    1    3    3    0    0 -0.12319766024E+01  0.23085209928E+00  0.97127665257E+01  0.97933085770E+01  0.51100000000E-03 0. -1.
        -11    1    3    3    0    0  0.21739709157E+02  0.19364274027E+02 -0.45396472201E+00  0.29116939177E+02  0.51100000000E-03 0.  1.
         12    1    3    3    0    0 -0.19794513572E+02 -0.25750766590E+02  0.84125364082E+01  0.33551386206E+02  0.00000000000E+00 0. -1.
</event>
<event>
 7    1  0.1465498E-013  0.7246154E+02  0.7816164E-02  0.1226708E+00
        -11   -1    0    0    0    0  0.00000000000E+00  0.00000000000E+00  0.45593999997E+02  0.45594000000E+02  0.51100000000E-03 0. -1.
         11   -1    0    0    0    0 -0.00000000000E+00 -0.00000000000E+00 -0.45593999997E+02  0.45594000000E+02  0.51100000000E-03 0.  1.
    9900012    2    1    2    0    0 -0.15486785547E+02 -0.10058418537E+02 -0.31093560429E+01  0.72461537306E+02  0.69999957026E+02 0.  0.
         12    1    1    2    0    0  0.15486785547E+02  0.10058418537E+02  0.31093560429E+01  0.18726462694E+02  0.00000000000E+00 0. -1.
         11    1    3    3    0    0 -0.71026374087E+01 -0.15552345228E+02 -0.16265243469E+02  0.23598327178E+02  0.51100000000E-03 0. -1.
        -11    1    3    3    0    0  0.10372404386E+01  0.12800829838E+02 -0.14125054777E+02  0.19090685818E+02  0.51100000000E-03 0.  1.
         12    1    3    3    0    0 -0.94213885766E+01 -0.73069031476E+01  0.27280942203E+02  0.29772524310E+02  0.00000000000E+00 0. -1.
</event>
<event>
 7    1  0.1465498E-013  0.7246161E+02  0.7816164E-02  0.1226708E+00
        -11   -1    0    0    0    0  0.00000000000E+00  0.00000000000E+00  0.45593999997E+02  0.45594000000E+02  0.51100000000E-03 0.  1.
         11   -1    0    0    0    0 -0.00000000000E+00 -0.00000000000E+00 -0.45593999997E+02  0.45594000000E+02  0.51100000000E-03 0. -1.
    9900012    2    1    2    0    0 -0.52872645002E+01 -0.17014238825E+02  0.57652582384E+01  0.72461609765E+02  0.70000051418E+02 0.  0.
         12    1    1    2    0    0  0.52872645002E+01  0.17014238825E+02 -0.57652582384E+01  0.18726390235E+02  0.00000000000E+00 0. -1.
         11    1    3    3    0    0 -0.95980733225E+01 -0.53939191823E+01 -0.10774316989E+02  0.15404651327E+02  0.51100000000E-03 0. -1.
        -11    1    3    3    0    0  0.16821651231E+02  0.10404265234E+02 -0.84192264650E+01  0.21496512734E+02  0.51100000000E-03 0.  1.
        -12    1    3    3    0    0 -0.12510842409E+02 -0.22024584876E+02  0.24958801693E+02  0.35560445704E+02  0.00000000000E+00 0.  1.
</event>
<event>
 7    1  0.1465498E-013  0.7246156E+02  0.7816164E-02  0.1226708E+00
        -11   -1    0    0    0    0  0.00000000000E+00  0.00000000000E+00  0.45593999997E+02  0.45594000000E+02  0.51100000000E-03 0.  1.
         11   -1    0    0    0    0 -0.00000000000E+00 -0.00000000000E+00 -0.45593999997E+02  0.45594000000E+02  0.51100000000E-03 0. -1.
    9900012    2    1    2    0    0  0.11895120138E+02  0.99098591898E+01  0.10534715932E+02  0.72461563285E+02  0.69999990869E+02 0.  0.
         12    1    1    2    0    0 -0.11895120138E+02 -0.99098591898E+01 -0.10534715932E+02  0.18726436715E+02  0.00000000000E+00 0. -1.
         11    1    3    3    0    0 -0.18088243599E+02  0.20686559166E+02  0.35839740140E+01  0.27712148178E+02  0.51100000000E-03 0. -1.
        -11    1    3    3    0    0  0.89179708085E+01  0.28582125107E+01  0.15610557132E+02  0.18204095043E+02  0.51100000000E-03 0.  1.
         12    1    3    3    0    0  0.21065392929E+02 -0.13634912487E+02 -0.86598152140E+01  0.26545320064E+02  0.00000000000E+00 0. -1.
</event>
<event>
 7    1  0.1465498E-013  0.7246157E+02  0.7816164E-02  0.1226708E+00
        -11   -1    0    0    0    0  0.00000000000E+00  0.00000000000E+00  0.45593999997E+02  0.45594000000E+02  0.51100000000E-03 0.  1.
         11   -1    0    0    0    0 -0.00000000000E+00 -0.00000000000E+00 -0.45593999997E+02  0.45594000000E+02  0.51100000000E-03 0. -1.
    9900012    2    1    2    0    0  0.38994778904E+01 -0.39312755367E+01  0.17889060079E+02  0.72461566125E+02  0.69999994569E+02 0.  0.
         12    1    1    2    0    0 -0.38994778904E+01  0.39312755367E+01 -0.17889060079E+02  0.18726433875E+02  0.00000000000E+00 0. -1.
         11    1    3    3    0    0  0.20399210350E+02  0.37399461269E+01 -0.10267549723E+02  0.23141684414E+02  0.51100000000E-03 0. -1.
        -11    1    3    3    0    0  0.73189203922E+01 -0.13954403348E+02  0.92938799273E+01  0.18293938146E+02  0.51100000000E-03 0.  1.
        -12    1    3    3    0    0 -0.23818652852E+02  0.62831816848E+01  0.18862729875E+02  0.31025943565E+02  0.00000000000E+00 0.  1.
</event>
<event>
 7    1  0.1465498E-013  0.7246155E+02  0.7816164E-02  0.1226708E+00
        -11   -1    0    0    0    0  0.00000000000E+00  0.00000000000E+00  0.45593999997E+02  0.45594000000E+02  0.51100000000E-03 0. -1.
         11   -1    0    0    0    0 -0.00000000000E+00 -0.00000000000E+00 -0.45593999997E+02  0.45594000000E+02  0.51100000000E-03 0.  1.
    9900012    2    1    2    0    0 -0.18127286431E+02 -0.39017866855E+01  0.26186765354E+01  0.72461550270E+02  0.69999973915E+02 0.  0.
         12    1    1    2    0    0  0.18127286431E+02  0.39017866855E+01 -0.26186765354E+01  0.18726449730E+02  0.00000000000E+00 0. -1.
         11    1    3    3    0    0  0.71672616609E+01 -0.15908568763E+02  0.16617683425E+02  0.24095634511E+02  0.51100000000E-03 0. -1.
        -11    1    3    3    0    0  0.62241200289E+01 -0.63370701832E+01 -0.68181105092E+01  0.11197533649E+02  0.51100000000E-03 0.  1.
        -12    1    3    3    0    0 -0.31518668121E+02  0.18343852261E+02 -0.71808963802E+01  0.37168382110E+02  0.00000000000E+00 0.  1.
</event>
<event>
 7    1  0.1465498E-013  0.7246158E+02  0.7816164E-02  0.1226708E+00
        -11   -1    0    0    0    0  0.00000000000E+00  0.00000000000E+00  0.45593999997E+02  0.45594000000E+02  0.51100000000E-03 0.  1.
         11   -1    0    0    0    0 -0.00000000000E+00 -0.00000000000E+00 -0.45593999997E+02  0.45594000000E+02  0.51100000000E-03 0. -1.
    9900012    2    1    2    0    0  0.26346578121E+01 -0.13590522140E+02 -0.12610912188E+02  0.72461579626E+02  0.70000012156E+02 0.  0.
         12    1    1    2    0    0 -0.26346578121E+01  0.13590522140E+02  0.12610912188E+02  0.18726420374E+02  0.00000000000E+00 0. -1.
         11    1    3    3    0    0  0.53074501383E+00 -0.33306166046E+01  0.45101178288E+01  0.56316836139E+01  0.51100000000E-03 0. -1.
        -11    1    3    3    0    0  0.22051745433E+02 -0.29224340038E+02 -0.57937649806E+01  0.37066281715E+02  0.51100000000E-03 0.  1.
         12    1    3    3    0    0 -0.19947832634E+02  0.18964434502E+02 -0.11327265036E+02  0.29763614297E+02  0.00000000000E+00 0. -1.
</event>
<event>
 7    1  0.1777807E-013  0.7246189E+02  0.7816164E-02  0.1226707E+00
        -11   -1    0    0    0    0  0.00000000000E+00  0.00000000000E+00  0.45593999997E+02  0.45594000000E+02  0.51100000000E-03 0.  1.
         11   -1    0    0    0    0 -0.00000000000E+00 -0.00000000000E+00 -0.45593999997E+02  0.45594000000E+02  0.51100000000E-03 0. -1.
    9900012    2    1    2    0    0  0.23370407416E+01 -0.18560678336E+02  0.84055771035E+00  0.72461893171E+02  0.70000420606E+02 0.  0.
         12    1    1    2    0    0 -0.23370407416E+01  0.18560678336E+02 -0.84055771035E+00  0.18726106829E+02  0.00000000000E+00 0. -1.
         11    1    3    3    0    0  0.41671312286E+01 -0.10123536544E+02 -0.26250194307E+02  0.28441583575E+02  0.51100000000E-03 0. -1.
        -11    1    3    3    0    0 -0.15610827303E+02  0.21748012616E+00  0.46305709853E+01  0.16284575972E+02  0.51100000000E-03 0.  1.
        -12    1    3    3    0    0  0.13780736816E+02 -0.86546219178E+01  0.22460181032E+02  0.27735733625E+02  0.00000000000E+00 0.  1.
</event>
<event>
 7    1  0.1465498E-013  0.7246156E+02  0.7816164E-02  0.1226708E+00
        -11   -1    0    0    0    0  0.00000000000E+00  0.00000000000E+00  0.45593999997E+02  0.45594000000E+02  0.51100000000E-03 0.  1.
         11   -1    0    0    0    0 -0.00000000000E+00 -0.00000000000E+00 -0.45593999997E+02  0.45594000000E+02  0.51100000000E-03 0. -1.
    9900012    2    1    2    0    0 -0.89980979690E+01  0.14821167179E+02  0.70743878226E+01  0.72461555418E+02  0.69999980621E+02 0.  0.
         12    1    1    2    0    0  0.89980979690E+01 -0.14821167179E+02 -0.70743878226E+01  0.18726444582E+02  0.00000000000E+00 0. -1.
         11    1    3    3    0    0 -0.12718555990E+01  0.16497259480E+02  0.28708865231E+01  0.16793426592E+02  0.51100000000E-03 0. -1.
        -11    1    3    3    0    0 -0.34128321660E+01  0.24989942466E+02  0.11451723519E+02  0.27699938983E+02  0.51100000000E-03 0.  1.
        -12    1    3    3    0    0 -0.43134102040E+01 -0.26666034766E+02 -0.72482222199E+01  0.27968189843E+02  0.00000000000E+00 0.  1.
</event>
<event>
 7    1  0.1465498E-013  0.7246160E+02  0.7816164E-02  0.1226708E+00
        -11   -1    0    0    0    0  0.00000000000E+00  0.00000000000E+00  0.45593999997E+02  0.45594000000E+02  0.51100000000E-03 0. -1.
         11   -1    0    0    0    0 -0.00000000000E+00 -0.00000000000E+00 -0.45593999997E+02  0.45594000000E+02  0.51100000000E-03 0.  1.
    9900012    2    1    2    0    0  0.13426306736E+01  0.17384698908E+02 -0.68299195268E+01  0.72461595807E+02  0.70000033235E+02 0.  0.
         12    1    1    2    0    0 -0.13426306736E+01 -0.17384698908E+02  0.68299195268E+01  0.18726404193E+02  0.00000000000E+00 0. -1.
         11    1    3    3    0    0  0.13468330328E+02  0.11477935573E+02  0.21079650319E+02  0.27522546842E+02  0.51100000000E-03 0. -1.
        -11    1    3    3    0    0  0.69180989807E+01 -0.31940959791E+01  0.24139027043E+01  0.79930763263E+01  0.51100000000E-03 0.  1.
        -12    1    3    3    0    0 -0.19043798636E+02  0.91008593144E+01 -0.30323472550E+02  0.36945972639E+02  0.00000000000E+00 0.  1.
</event>
<event>
 7    1  0.1465498E-013  0.7246149E+02  0.7816164E-02  0.1226708E+00
        -11   -1    0    0    0    0  0.00000000000E+00  0.00000000000E+00  0.45593999997E+02  0.45594000000E+02  0.51100000000E-03 0. -1.
         11   -1    0    0    0    0 -0.00000000000E+00 -0.00000000000E+00 -0.45593999997E+02  0.45594000000E+02  0.51100000000E-03 0.  1.
    9900012    2    1    2    0    0  0.22343772880E+01  0.23199133321E+01 -0.18447433552E+02  0.72461488195E+02  0.69999893051E+02 0.  0.
         12    1    1    2    0    0 -0.22343772880E+01 -0.23199133321E+01  0.18447433552E+02  0.18726511805E+02  0.00000000000E+00 0. -1.
         11    1    3    3    0    0  0.33750950258E+00 -0.20718992740E+02  0.44376839399E+01  0.21191592952E+02  0.51100000000E-03 0. -1.
        -11    1    3    3    0    0  0.43186533006E+00  0.56453955069E+01 -0.31359414464E+02  0.31866438048E+02  0.51100000000E-03 0.  1.
         12    1    3    3    0    0  0.14650024554E+01  0.17393510565E+02  0.84742969722E+01  0.19403457196E+02  0.00000000000E+00 0. -1.
</event>
<event>
 7    1  0.1465498E-013  0.7246156E+02  0.7816164E-02  0.1226708E+00
        -11   -1    0    0    0    0  0.00000000000E+00  0.00000000000E+00  0.45593999997E+02  0.45594000000E+02  0.51100000000E-03 0.  1.
         11   -1    0    0    0    0 -0.00000000000E+00 -0.00000000000E+00 -0.45593999997E+02  0.45594000000E+02  0.51100000000E-03 0. -1.
    9900012    2    1    2    0    0  0.18530367434E+02  0.26934881822E+01  0.22373945862E+00  0.72461562667E+02  0.69999990064E+02 0.  0.
         12    1    1    2    0    0 -0.18530367434E+02 -0.26934881822E+01 -0.22373945862E+00  0.18726437333E+02  0.00000000000E+00 0. -1.
         11    1    3    3    0    0 -0.56169337587E+01  0.58018051041E+01  0.32078333465E+01  0.86891358809E+01  0.51100000000E-03 0. -1.
        -11    1    3    3    0    0 -0.51935994810E+01 -0.23306179064E+02  0.99611154120E+01  0.25872287851E+02  0.51100000000E-03 0.  1.
        -12    1    3    3    0    0  0.29340900674E+02  0.20197862142E+02 -0.12945209300E+02  0.37900138935E+02  0.00000000000E+00 0.  1.
</event>
<event>
 7    1  0.1465498E-013  0.7246155E+02  0.7816164E-02  0.1226708E+00
        -11   -1    0    0    0    0  0.00000000000E+00  0.00000000000E+00  0.45593999997E+02  0.45594000000E+02  0.51100000000E-03 0.  1.
         11   -1    0    0    0    0 -0.00000000000E+00 -0.00000000000E+00 -0.45593999997E+02  0.45594000000E+02  0.51100000000E-03 0. -1.
    9900012    2    1    2    0    0  0.18551917861E+02  0.25498387817E+01 -0.66888200300E-01  0.72461553242E+02  0.69999977787E+02 0.  0.
         12    1    1    2    0    0 -0.18551917861E+02 -0.25498387817E+01  0.66888200300E-01  0.18726446758E+02  0.00000000000E+00 0. -1.
         11    1    3    3    0    0  0.14908179649E+02  0.19593472519E+02 -0.11585654275E+02  0.27210023356E+02  0.51100000000E-03 0. -1.
        -11    1    3    3    0    0  0.98587533459E+01  0.11047115192E+02  0.58953988392E+01  0.15937048012E+02  0.51100000000E-03 0.  1.
        -12    1    3    3    0    0 -0.62150151336E+01 -0.28090748929E+02  0.56233672355E+01  0.29314481875E+02  0.00000000000E+00 0.  1.
</event>
<event>
 7    1  0.1465498E-013  0.7246159E+02  0.7816164E-02  0.1226708E+00
        -11   -1    0    0    0    0  0.00000000000E+00  0.00000000000E+00  0.45593999997E+02  0.45594000000E+02  0.51100000000E-03 0. -1.
         11   -1    0    0    0    0 -0.00000000000E+00 -0.00000000000E+00 -0.45593999997E+02  0.45594000000E+02  0.51100000000E-03 0.  1.
    9900012    2    1    2    0    0 -0.10840258896E+02 -0.15268955515E+02  0.16208492854E+00  0.72461588518E+02  0.70000023740E+02 0.  0.
         12    1    1    2    0    0  0.10840258896E+02  0.15268955515E+02 -0.16208492854E+00  0.18726411482E+02  0.00000000000E+00 0. -1.
         11    1    3    3    0    0 -0.13203756927E+02  0.34890398567E+00  0.25229247332E+02  0.28477637757E+02  0.51100000000E-03 0. -1.
        -11    1    3    3    0    0 -0.14780864116E+02 -0.97197968896E+01 -0.94585901573E+01  0.20060242362E+02  0.51100000000E-03 0.  1.
        -12    1    3    3    0    0  0.17144362148E+02 -0.58980626114E+01 -0.15608572246E+02  0.23923708400E+02  0.00000000000E+00 0.  1.
</event>
<event>
 7    1  0.1465498E-013  0.7246161E+02  0.7816164E-02  0.1226708E+00
        -11   -1    0    0    0    0  0.00000000000E+00  0.00000000000E+00  0.45593999997E+02  0.45594000000E+02  0.51100000000E-03 0. -1.
         11   -1    0    0    0    0 -0.00000000000E+00 -0.00000000000E+00 -0.45593999997E+02  0.45594000000E+02  0.51100000000E-03 0.  1.
    9900012    2    1    2    0    0  0.48515487854E+01 -0.17254630058E+02 -0.54238145326E+01  0.72461613586E+02  0.70000056396E+02 0.  0.
         12    1    1    2    0    0 -0.48515487854E+01  0.17254630058E+02  0.54238145326E+01  0.18726386414E+02  0.00000000000E+00 0. -1.
         11    1    3    3    0    0  0.11083624756E+02  0.14613085757E+02 -0.30894416835E+01  0.18599292009E+02  0.51100000000E-03 0. -1.
        -11    1    3    3    0    0 -0.26694063320E+01 -0.19874924384E+02 -0.22494731888E+02  0.30135548981E+02  0.51100000000E-03 0.  1.
         12    1    3    3    0    0 -0.35626696385E+01 -0.11992791430E+02  0.20160359039E+02  0.23726772596E+02  0.00000000000E+00 0. -1.
</event>
<event>
 7    1  0.1465498E-013  0.7246156E+02  0.7816164E-02  0.1226708E+00
        -11   -1    0    0    0    0  0.00000000000E+00  0.00000000000E+00  0.45593999997E+02  0.45594000000E+02  0.51100000000E-03 0.  1.
         11   -1    0    0    0    0 -0.00000000000E+00 -0.00000000000E+00 -0.45593999997E+02  0.45594000000E+02  0.51100000000E-03 0. -1.
    9900012    2    1    2    0    0 -0.34286705564E+01 -0.17336348164E+02  0.61947432142E+01  0.72461558989E+02  0.69999985273E+02 0.  0.
         12    1    1    2    0    0  0.34286705564E+01  0.17336348164E+02 -0.61947432142E+01  0.18726441011E+02  0.00000000000E+00 0. -1.
         11    1    3    3    0    0 -0.92311065758E+01 -0.46006827841E+01 -0.13055677474E+02  0.16638218812E+02  0.51100000000E-03 0. -1.
        -11    1    3    3    0    0 -0.20077923338E+02 -0.16821014578E+02  0.92246304585E+01  0.27769827950E+02  0.51100000000E-03 0.  1.
         12    1    3    3    0    0  0.25880359358E+02  0.40853491976E+01  0.10025790229E+02  0.28053512227E+02  0.00000000000E+00 0. -1.
</event>
<event>
 7    1  0.1465498E-013  0.7246157E+02  0.7816164E-02  0.1226708E+00
        -11   -1    0    0    0    0  0.00000000000E+00  0.00000000000E+00  0.45593999997E+02  0.45594000000E+02  0.51100000000E-03 0. -1.
         11   -1    0    0    0    0 -0.00000000000E+00 -0.00000000000E+00 -0.45593999997E+02  0.45594000000E+02  0.51100000000E-03 0.  1.
    9900012    2    1    2    0    0  0.37138869613E+01 -0.54726670240E+01 -0.17519588491E+02  0.72461574243E+02  0.70000005144E+02 0.  0.
         12    1    1    2    0    0 -0.37138869613E+01  0.54726670240E+01  0.17519588491E+02  0.18726425757E+02  0.00000000000E+00 0. -1.
         11    1    3    3    0    0  0.12633574626E+02 -0.50083669227E+01 -0.90763344323E+01  0.16342300758E+02  0.51100000000E-03 0. -1.
        -11    1    3    3    0    0  0.21546796099E+02 -0.92430302479E+01 -0.58041459681E+00  0.23452823107E+02  0.51100000000E-03 0.  1.
         12    1    3    3    0    0 -0.30466483764E+02  0.87787301466E+01 -0.78628394623E+01  0.32666450379E+02  0.00000000000E+00 0. -1.
</event>
<event>
 7    1  0.1465498E-013  0.7246159E+02  0.7816164E-02  0.1226708E+00
        -11   -1    0    0    0    0  0.00000000000E+00  0.00000000000E+00  0.45593999997E+02  0.45594000000E+02  0.51100000000E-03 0.  1.
         11   -1    0    0    0    0 -0.00000000000E+00 -0.00000000000E+00 -0.45593999997E+02  0.45594000000E+02  0.51100000000E-03 0. -1.
    9900012    2    1    2    0    0  0.19191377747E+01  0.15531494679E+02  0.10284356168E+02  0.72461590879E+02  0.70000026816E+02 0.  0.
         12    1    1    2    0    0 -0.19191377747E+01 -0.15531494679E+02 -0.10284356168E+02  0.18726409121E+02  0.00000000000E+00 0. -1.
         11    1    3    3    0    0 -0.17359197038E+01 -0.75984274466E+01 -0.79588595070E+01  0.11139702051E+02  0.51100000000E-03 0. -1.
        -11    1    3    3    0    0  0.18217636069E+02 -0.72043723810E+01 -0.52518612247E+01  0.20282191498E+02  0.51100000000E-03 0.  1.
        -12    1    3    3    0    0 -0.14562578591E+02  0.30334294507E+02  0.23495076899E+02  0.41039697330E+02  0.00000000000E+00 0.  1.
</event>
<event>
 7    1  0.1465498E-013  0.7246161E+02  0.7816164E-02  0.1226708E+00
        -11   -1    0    0    0    0  0.00000000000E+00  0.00000000000E+00  0.45593999997E+02  0.45594000000E+02  0.51100000000E-03 0.  1.
         11   -1    0    0    0    0 -0.00000000000E+00 -0.00000000000E+00 -0.45593999997E+02  0.45594000000E+02  0.51100000000E-03 0. -1.
    9900012    2    1    2    0    0  0.17294636043E+02 -0.59353050335E+01 -0.40429224091E+01  0.72461614783E+02  0.70000057954E+02 0.  0.
         12    1    1    2    0    0 -0.17294636043E+02  0.59353050335E+01  0.40429224091E+01  0.18726385217E+02  0.00000000000E+00 0. -1.
         11    1    3    3    0    0 -0.20033533053E+02 -0.86757316084E+01 -0.73246903868E+01  0.23027415292E+02  0.51100000000E-03 0. -1.
        -11    1    3    3    0    0  0.61377399352E+01  0.11651708450E+02  0.97136052485E+01  0.16364238097E+02  0.51100000000E-03 0.  1.
        -12    1    3    3    0    0  0.31190429160E+02 -0.89112818752E+01 -0.64318372708E+01  0.33069961393E+02  0.00000000000E+00 0.  1.
</event>
<event>
 7    1  0.1542854E-013  0.7246155E+02  0.7816164E-02  0.1226708E+00
        -11   -1    0    0    0    0  0.00000000000E+00  0.00000000000E+00  0.45593999997E+02  0.45594000000E+02  0.51100000000E-03 0.  1.
         11   -1    0    0    0    0 -0.00000000000E+00 -0.00000000000E+00 -0.45593999997E+02  0.45594000000E+02  0.51100000000E-03 0. -1.
    9900012    2    1    2    0    0 -0.31425951989E+01 -0.17298371205E+02  0.64474955202E+01  0.72461554811E+02  0.69999979830E+02 0.  0.
         12    1    1    2    0    0  0.31425951989E+01  0.17298371205E+02 -0.64474955202E+01  0.18726445189E+02  0.00000000000E+00 0. -1.
         11    1    3    3    0    0  0.22916362477E+02 -0.13907536720E+02 -0.11901027879E+02  0.29329400124E+02  0.51100000000E-03 0. -1.
        -11    1    3    3    0    0  0.48777716394E+01 -0.43925139505E+01  0.83148757711E+01  0.10593582695E+02  0.51100000000E-03 0.  1.
        -12    1    3    3    0    0 -0.30936729316E+02  0.10016794658E+01  0.10033647628E+02  0.32538571991E+02  0.00000000000E+00 0.  1.
</event>
<event>
 7    1  0.1465498E-013  0.7246152E+02  0.7816164E-02  0.1226708E+00
        -11   -1    0    0    0    0  0.00000000000E+00  0.00000000000E+00  0.45593999997E+02  0.45594000000E+02  0.51100000000E-03 0.  1.
         11   -1    0    0    0    0 -0.00000000000E+00 -0.00000000000E+00 -0.45593999997E+02  0.45594000000E+02  0.51100000000E-03 0. -1.
    9900012    2    1    2    0    0  0.91018391491E+01 -0.90241460220E+01  0.13652924375E+02  0.72461520584E+02  0.69999935244E+02 0.  0.
         12    1    1    2    0    0 -0.91018391491E+01  0.90241460220E+01 -0.13652924375E+02  0.18726479416E+02  0.00000000000E+00 0. -1.
         11    1    3    3    0    0  0.13358719104E+02 -0.34425093378E+01  0.11314922109E+02  0.17841908789E+02  0.51100000000E-03 0. -1.
        -11    1    3    3    0    0 -0.47200248188E+01 -0.22203732452E+02 -0.17552087446E+02  0.28694252788E+02  0.51100000000E-03 0.  1.
         12    1    3    3    0    0  0.46314486355E+00  0.16622095768E+02  0.19890089712E+02  0.25925359007E+02  0.00000000000E+00 0. -1.
</event>
<event>
 7    1  0.1743025E-013  0.7246158E+02  0.7816164E-02  0.1226708E+00
        -11   -1    0    0    0    0  0.00000000000E+00  0.00000000000E+00  0.45593999997E+02  0.45594000000E+02  0.51100000000E-03 0. -1.
         11   -1    0    0    0    0 -0.00000000000E+00 -0.00000000000E+00 -0.45593999997E+02  0.45594000000E+02  0.51100000000E-03 0.  1.
    9900012    2    1    2    0    0 -0.11477732555E+02  0.11147599941E+02 -0.97299322345E+01  0.72461577215E+02  0.70000009015E+02 0.  0.
         12    1    1    2    0    0  0.11477732555E+02 -0.11147599941E+02  0.97299322345E+01  0.18726422785E+02  0.00000000000E+00 0. -1.
         11    1    3    3    0    0  0.11747884445E+02 -0.74431291420E+01  0.78724551687E+01  0.15980879544E+02  0.51100000000E-03 0. -1.
        -11    1    3    3    0    0 -0.19866405649E+02 -0.11690812598E+02 -0.55026800529E+01  0.23698705885E+02  0.51100000000E-03 0.  1.
        -12    1    3    3    0    0 -0.33592113511E+01  0.30281541681E+02 -0.12099707350E+02  0.32781991786E+02  0.00000000000E+00 0.  1.
</event>
<event>
 7    1  0.1465498E-013  0.7246170E+02  0.7816164E-02  0.1226708E+00
        -11   -1    0    0    0    0  0.00000000000E+00  0.00000000000E+00  0.45593999997E+02  0.45594000000E+02  0.51100000000E-03 0. -1.
         11   -1    0    0    0    0 -0.00000000000E+00 -0.00000000000E+00 -0.45593999997E+02  0.45594000000E+02  0.51100000000E-03 0.  1.
    9900012    2    1    2    0    0 -0.17714361158E+02 -0.47538924830E+01 -0.37784030900E+01  0.72461697244E+02  0.70000165376E+02 0.  0.
         12    1    1    2    0    0  0.17714361158E+02  0.47538924830E+01  0.37784030900E+01  0.18726302756E+02  0.00000000000E+00 0. -1.
         11    1    3    3    0    0 -0.18771952789E+02 -0.17394194767E+02 -0.13386216023E+02  0.28881395444E+02  0.51100000000E-03 0. -1.
        -11    1    3    3    0    0 -0.82741615586E+01  0.19850325654E+02 -0.75224112936E+01  0.22783411729E+02  0.51100000000E-03 0.  1.
         12    1    3    3    0    0  0.93317531898E+01 -0.72100233697E+01  0.17130224227E+02  0.20796890071E+02  0.00000000000E+00 0. -1.
</event>
<event>
 7    1  0.1465498E-013  0.7246177E+02  0.7816164E-02  0.1226707E+00
        -11   -1    0    0    0    0  0.00000000000E+00  0.00000000000E+00  0.45593999997E+02  0.45594000000E+02  0.51100000000E-03 0. -1.
         11   -1    0    0    0    0 -0.00000000000E+00 -0.00000000000E+00 -0.45593999997E+02  0.45594000000E+02  0.51100000000E-03 0.  1.
    9900012    2    1    2    0    0  0.14704093147E+02 -0.78446962994E+01 -0.85394490237E+01  0.72461766932E+02  0.70000256156E+02 0.  0.
         12    1    1    2    0    0 -0.14704093147E+02  0.78446962994E+01  0.85394490237E+01  0.18726233068E+02  0.00000000000E+00 0. -1.
         11    1    3    3    0    0 -0.22741936467E+02 -0.15430419561E+01  0.80259179074E+01  0.24165926658E+02  0.51100000000E-03 0. -1.
        -11    1    3    3    0    0  0.13681033354E+01 -0.49605106675E+01  0.42043794357E+01  0.66449363818E+01  0.51100000000E-03 0.  1.
        -12    1    3    3    0    0  0.36077926278E+02 -0.13411436759E+01 -0.20769746367E+02  0.41650903892E+02  0.00000000000E+00 0.  1.
</event>
<event>
 7    1  0.1465498E-013  0.7246155E+02  0.7816164E-02  0.1226708E+00
        -11   -1    0    0    0    0  0.00000000000E+00  0.00000000000E+00  0.45593999997E+02  0.45594000000E+02  0.51100000000E-03 0.  1.
         11   -1    0    0    0    0 -0.00000000000E+00 -0.00000000000E+00 -0.45593999997E+02  0.45594000000E+02  0.51100000000E-03 0. -1.
    9900012    2    1    2    0    0  0.10742888921E+02  0.90277039953E+01  0.12400437870E+02  0.72461549157E+02  0.69999972465E+02 0.  0.
         12    1    1    2    0    0 -0.10742888921E+02 -0.90277039953E+01 -0.12400437870E+02  0.18726450843E+02  0.00000000000E+00 0. -1.
         11    1    3    3    0    0  0.19712988596E+02 -0.10264968512E+02 -0.75802900041E+01  0.23482595571E+02  0.51100000000E-03 0. -1.
        -11    1    3    3    0    0  0.13178406387E+02  0.17896811217E+02  0.71643173041E+01  0.23351524347E+02  0.51100000000E-03 0.  1.
        -12    1    3    3    0    0 -0.22148506062E+02  0.13958612905E+01  0.12816410570E+02  0.25627429239E+02  0.00000000000E+00 0.  1.
</event>
<event>
 7    1  0.1465498E-013  0.7246150E+02  0.7816164E-02  0.1226708E+00
        -11   -1    0    0    0    0  0.00000000000E+00  0.00000000000E+00  0.45593999997E+02  0.45594000000E+02  0.51100000000E-03 0. -1.
         11   -1    0    0    0    0 -0.00000000000E+00 -0.00000000000E+00 -0.45593999997E+02  0.45594000000E+02  0.51100000000E-03 0.  1.
    9900012    2    1    2    0    0  0.10134875636E+02 -0.15475312001E+02  0.29122096959E+01  0.72461496028E+02  0.69999903255E+02 0.  0.
         12    1    1    2    0    0 -0.10134875636E+02  0.15475312001E+02 -0.29122096959E+01  0.18726503972E+02  0.00000000000E+00 0. -1.
         11    1    3    3    0    0 -0.25071894715E+01 -0.10465393862E+02  0.78668804277E+01  0.13330351670E+02  0.51100000000E-03 0. -1.
        -11    1    3    3    0    0 -0.11601922762E+02 -0.24507484141E+02  0.22114256013E+01  0.27204995757E+02  0.51100000000E-03 0.  1.
        -12    1    3    3    0    0  0.24243987870E+02  0.19497566002E+02 -0.71660963330E+01  0.31926148601E+02  0.00000000000E+00 0.  1.
</event>
<event>
 7    1  0.1465498E-013  0.7246157E+02  0.7816164E-02  0.1226708E+00
        -11   -1    0    0    0    0  0.00000000000E+00  0.00000000000E+00  0.45593999997E+02  0.45594000000E+02  0.51100000000E-03 0.  1.
         11   -1    0    0    0    0 -0.00000000000E+00 -0.00000000000E+00 -0.45593999997E+02  0.45594000000E+02  0.51100000000E-03 0. -1.
    9900012    2    1    2    0    0 -0.15729803637E+02  0.10076809367E+02 -0.13078314868E+01  0.72461568608E+02  0.69999997803E+02 0.  0.
         12    1    1    2    0    0  0.15729803637E+02 -0.10076809367E+02  0.13078314868E+01  0.18726431392E+02  0.00000000000E+00 0. -1.
         11    1    3    3    0    0  0.37613892213E+01 -0.18026136999E+02 -0.89066268736E+01  0.20455260118E+02  0.51100000000E-03 0. -1.
        -11    1    3    3    0    0  0.78248777987E+01  0.13629571790E+02 -0.77150660257E+01  0.17507603599E+02  0.51100000000E-03 0.  1.
        -12    1    3    3    0    0 -0.27316070657E+02  0.14473374577E+02  0.15313861413E+02  0.34498704891E+02  0.00000000000E+00 0.  1.
</event>
<event>
 7    1  0.1465498E-013  0.7246172E+02  0.7816164E-02  0.1226708E+00
        -11   -1    0    0    0    0  0.00000000000E+00  0.00000000000E+00  0.45593999997E+02  0.45594000000E+02  0.51100000000E-03 0. -1.
         11   -1    0    0    0    0 -0.00000000000E+00 -0.00000000000E+00 -0.45593999997E+02  0.45594000000E+02  0.51100000000E-03 0.  1.
    9900012    2    1    2    0    0 -0.87946229071E+01  0.16357525282E+02 -0.23999187526E+01  0.72461718056E+02  0.70000192487E+02 0.  0.
         12    1    1    2    0    0  0.87946229071E+01 -0.16357525282E+02  0.23999187526E+01  0.18726281944E+02  0.00000000000E+00 0. -1.
         11    1    3    3    0    0 -0.19912408989E+02  0.13502081944E+02 -0.39323886506E+01  0.24377734295E+02  0.51100000000E-03 0. -1.
        -11    1    3    3    0    0 -0.29632445887E+01  0.21349612924E+02 -0.79582821818E+01  0.22976532507E+02  0.51100000000E-03 0.  1.
         12    1    3    3    0    0  0.14081030671E+02 -0.18494169587E+02  0.94907520798E+01  0.25107451254E+02  0.00000000000E+00 0. -1.
</event>
<event>
 7    1  0.1465498E-013  0.7246157E+02  0.7816164E-02  0.1226708E+00
        -11   -1    0    0    0    0  0.00000000000E+00  0.00000000000E+00  0.45593999997E+02  0.45594000000E+02  0.51100000000E-03 0. -1.
         11   -1    0    0    0    0 -0.00000000000E+00 -0.00000000000E+00 -0.45593999997E+02  0.45594000000E+02  0.51100000000E-03 0.  1.
    9900012    2    1    2    0    0  0.35482572493E+01 -0.88884872013E+01 -0.16096087293E+02  0.72461565198E+02  0.69999993361E+02 0.  0.
         12    1    1    2    0    0 -0.35482572493E+01  0.88884872013E+01  0.16096087293E+02  0.18726434802E+02  0.00000000000E+00 0. -1.
         11    1    3    3    0    0 -0.98887484464E+00  0.46116487319E+01  0.22013747974E+02  0.22513335550E+02  0.51100000000E-03 0. -1.
        -11    1    3    3    0    0 -0.67759026935E+01 -0.12582073385E+01 -0.31118652396E+02  0.31872660231E+02  0.51100000000E-03 0.  1.
         12    1    3    3    0    0  0.11313034787E+02 -0.12241928595E+02 -0.69911828708E+01  0.18075569417E+02  0.00000000000E+00 0. -1.
</event>
<event>
 7    1  0.1465498E-013  0.7246146E+02  0.7816164E-02  0.1226708E+00
        -11   -1    0    0    0    0  0.00000000000E+00  0.00000000000E+00  0.45593999997E+02  0.45594000000E+02  0.51100000000E-03 0.  1.
         11   -1    0    0    0    0 -0.00000000000E+00 -0.00000000000E+00 -0.45593999997E+02  0.45594000000E+02  0.51100000000E-03 0. -1.
    9900012    2    1    2    0    0  0.17458827653E+02 -0.25558251081E+01  0.62722022428E+01  0.72461456647E+02  0.69999851953E+02 0.  0.
         12    1    1    2    0    0 -0.17458827653E+02  0.25558251081E+01 -0.62722022428E+01  0.18726543353E+02  0.00000000000E+00 0. -1.
         11    1    3    3    0    0 -0.53342230019E+01 -0.66705097891E+01 -0.18350772155E+02  0.20241059133E+02  0.51100000000E-03 0. -1.
        -11    1    3    3    0    0 -0.76151178769E+01 -0.85159794258E+01  0.56011136294E+00  0.11437904129E+02  0.51100000000E-03 0.  1.
        -12    1    3    3    0    0  0.30408168531E+02  0.12630664107E+02  0.24062863035E+02  0.40782493385E+02  0.00000000000E+00 0.  1.
</event>
<event>
 7    1  0.1465498E-013  0.7246155E+02  0.7816164E-02  0.1226708E+00
        -11   -1    0    0    0    0  0.00000000000E+00  0.00000000000E+00  0.45593999997E+02  0.45594000000E+02  0.51100000000E-03 0.  1.
         11   -1    0    0    0    0 -0.00000000000E+00 -0.00000000000E+00 -0.45593999997E+02  0.45594000000E+02  0.51100000000E-03 0. -1.
    9900012    2    1    2    0    0  0.17194659047E+02  0.72266239591E+00  0.73825010854E+01  0.72461551779E+02  0.69999975881E+02 0.  0.
         12    1    1    2    0    0 -0.17194659047E+02 -0.72266239591E+00 -0.73825010854E+01  0.18726448221E+02  0.00000000000E+00 0. -1.
         11    1    3    3    0    0  0.46162395433E+01  0.69208147465E+01 -0.16199510488E+01  0.84753516705E+01  0.51100000000E-03 0. -1.
        -11    1    3    3    0    0  0.33536098520E+02  0.29924290727E+00 -0.99608374151E+01  0.34985393131E+02  0.51100000000E-03 0.  1.
        -12    1    3    3    0    0 -0.20957679016E+02 -0.64973952579E+01  0.18963289549E+02  0.29000806978E+02  0.00000000000E+00 0.  1.
</event>
<event>
 7    1  0.1465498E-013  0.7246159E+02  0.7816164E-02  0.1226708E+00
        -11   -1    0    0    0    0  0.00000000000E+00  0.00000000000E+00  0.45593999997E+02  0.45594000000E+02  0.51100000000E-03 0.  1.
         11   -1    0    0    0    0 -0.00000000000E+00 -0.00000000000E+00 -0.45593999997E+02  0.45594000000E+02  0.51100000000E-03 0. -1.
    9900012    2    1    2    0    0 -0.15579549587E+02  0.54876910985E+01  0.88227641840E+01  0.72461593864E+02  0.70000030704E+02 0.  0.
         12    1    1    2    0    0  0.15579549587E+02 -0.54876910985E+01 -0.88227641840E+01  0.18726406136E+02  0.00000000000E+00 0. -1.
         11    1    3    3    0    0 -0.72356941124E+01  0.30865567256E+01  0.18968768690E+02  0.20535245010E+02  0.51100000000E-03 0. -1.
        -11    1    3    3    0    0 -0.13987745981E+01  0.24165549885E+02  0.47306680442E+01  0.24663933020E+02  0.51100000000E-03 0.  1.
         12    1    3    3    0    0 -0.69450808767E+01 -0.21764415512E+02 -0.14876672551E+02  0.27262415834E+02  0.00000000000E+00 0. -1.
</event>
<event>
 7    1  0.1465498E-013  0.7246156E+02  0.7816164E-02  0.1226708E+00
        -11   -1    0    0    0    0  0.00000000000E+00  0.00000000000E+00  0.45593999997E+02  0.45594000000E+02  0.51100000000E-03 0.  1.
         11   -1    0    0    0    0 -0.00000000000E+00 -0.00000000000E+00 -0.45593999997E+02  0.45594000000E+02  0.51100000000E-03 0. -1.
    9900012    2    1    2    0    0 -0.10692813528E+02  0.13354890167E+01  0.15315342480E+02  0.72461561275E+02  0.69999988251E+02 0.  0.
         12    1    1    2    0    0  0.10692813528E+02 -0.13354890167E+01 -0.15315342480E+02  0.18726438725E+02  0.00000000000E+00 0. -1.
         11    1    3    3    0    0  0.95087098865E+01  0.54041015097E+01 -0.16705672150E+02  0.19967457502E+02  0.51100000000E-03 0. -1.
        -11    1    3    3    0    0 -0.61490202298E+01 -0.68149396082E+01 -0.65992411593E+01  0.11305035860E+02  0.51100000000E-03 0.  1.
        -12    1    3    3    0    0 -0.14052503184E+02  0.27463271151E+01  0.38620255789E+02  0.41189067914E+02  0.00000000000E+00 0.  1.
</event>
<event>
 7    1  0.1465498E-013  0.7246158E+02  0.7816164E-02  0.1226708E+00
        -11   -1    0    0    0    0  0.00000000000E+00  0.00000000000E+00  0.45593999997E+02  0.45594000000E+02  0.51100000000E-03 0.  1.
         11   -1    0    0    0    0 -0.00000000000E+00 -0.00000000000E+00 -0.45593999997E+02  0.45594000000E+02  0.51100000000E-03 0. -1.
    9900012    2    1    2    0    0 -0.59145758744E+01  0.11895020552E+02  0.13198673905E+02  0.72461582442E+02  0.70000015824E+02 0.  0.
         12    1    1    2    0    0  0.59145758744E+01 -0.11895020552E+02 -0.13198673905E+02  0.18726417558E+02  0.00000000000E+00 0. -1.
         11    1    3    3    0    0  0.79888753990E+00  0.10902803571E+02  0.25131457456E+02  0.27406194576E+02  0.51100000000E-03 0. -1.
        -11    1    3    3    0    0  0.99948454984E+01 -0.16247703661E+02 -0.81809602420E+01  0.20756033377E+02  0.51100000000E-03 0.  1.
         12    1    3    3    0    0 -0.16708308913E+02  0.17239920642E+02 -0.37518233084E+01  0.24299354489E+02  0.00000000000E+00 0. -1.
</event>
<event>
 7    1  0.1465498E-013  0.7246154E+02  0.7816164E-02  0.1226708E+00
        -11   -1    0    0    0    0  0.00000000000E+00  0.00000000000E+00  0.45593999997E+02  0.45594000000E+02  0.51100000000E-03 0. -1.
         11   -1    0    0    0    0 -0.00000000000E+00 -0.00000000000E+00 -0.45593999997E+02  0.45594000000E+02  0.51100000000E-03 0.  1.
    9900012    2    1    2    0    0 -0.13061892173E+02  0.24948774282E+01 -0.13184948906E+02  0.72461539625E+02  0.69999960047E+02 0.  0.
         12    1    1    2    0    0  0.13061892173E+02 -0.24948774282E+01  0.13184948906E+02  0.18726460375E+02  0.00000000000E+00 0. -1.
         11    1    3    3    0    0  0.30527664987E+01 -0.44719589974E+01 -0.18784514372E+02  0.19549316638E+02  0.51100000000E-03 0. -1.
        -11    1    3    3    0    0 -0.16583715334E+02 -0.18420780169E+02 -0.51891032772E+01  0.25323340013E+02  0.51100000000E-03 0.  1.
        -12    1    3    3    0    0  0.46905666178E+00  0.25387616595E+02  0.10788668743E+02  0.27588882974E+02  0.00000000000E+00 0.  1.
</event>
<event>
 7    1  0.1465498E-013  0.7246167E+02  0.7816164E-02  0.1226708E+00
        -11   -1    0    0    0    0  0.00000000000E+00  0.00000000000E+00  0.45593999997E+02  0.45594000000E+02  0.51100000000E-03 0. -1.
         11   -1    0    0    0    0 -0.00000000000E+00 -0.00000000000E+00 -0.45593999997E+02  0.45594000000E+02  0.51100000000E-03 0.  1.
    9900012    2    1    2    0    0 -0.10216181453E+02 -0.11861555293E+02 -0.10276611887E+02  0.72461665352E+02  0.70000123831E+02 0.  0.
         12    1    1    2    0    0  0.10216181453E+02  0.11861555293E+02  0.10276611887E+02  0.18726334648E+02  0.00000000000E+00 0. -1.
         11    1    3    3    0    0 -0.18319119196E+02 -0.33934929789E+00  0.17936966565E+01  0.18409851548E+02  0.51100000000E-03 0. -1.
        -11    1    3    3    0    0 -0.29897693561E+01  0.13373498184E+02 -0.21255925868E+02  0.25290384719E+02  0.51100000000E-03 0.  1.
         12    1    3    3    0    0  0.11092707099E+02 -0.24895704179E+02  0.91856173254E+01  0.28761429085E+02  0.00000000000E+00 0. -1.
</event>
<event>
 7    1  0.1465498E-013  0.7246133E+02  0.7816164E-02  0.1226709E+00
        -11   -1    0    0    0    0  0.00000000000E+00  0.00000000000E+00  0.45593999997E+02  0.45594000000E+02  0.51100000000E-03 0.  1.
         11   -1    0    0    0    0 -0.00000000000E+00 -0.00000000000E+00 -0.45593999997E+02  0.45594000000E+02  0.51100000000E-03 0. -1.
    9900012    2    1    2    0    0  0.16134971200E+02 -0.94969527645E+01  0.39846082785E+00  0.72461329755E+02  0.69999686652E+02 0.  0.
         12    1    1    2    0    0 -0.16134971200E+02  0.94969527645E+01 -0.39846082785E+00  0.18726670245E+02  0.00000000000E+00 0. -1.
         11    1    3    3    0    0  0.15425125809E+02 -0.32642452518E+02 -0.15601347538E+02  0.39330220669E+02  0.51100000000E-03 0. -1.
        -11    1    3    3    0    0  0.50358607549E+00 -0.77931833911E-01 -0.30506775147E+01  0.30929445300E+01  0.51100000000E-03 0.  1.
        -12    1    3    3    0    0  0.20625931611E+00  0.23223431587E+02  0.19050485880E+02  0.30038164556E+02  0.00000000000E+00 0.  1.
</event>
<event>
 7    1  0.1465498E-013  0.7246157E+02  0.7816164E-02  0.1226708E+00
        -11   -1    0    0    0    0  0.00000000000E+00  0.00000000000E+00  0.45593999997E+02  0.45594000000E+02  0.51100000000E-03 0.  1.
         11   -1    0    0    0    0 -0.00000000000E+00 -0.00000000000E+00 -0.45593999997E+02  0.45594000000E+02  0.51100000000E-03 0. -1.
    9900012    2    1    2    0    0  0.12589346646E+01  0.16448657256E+01  0.18611515800E+02  0.72461574283E+02  0.70000005196E+02 0.  0.
         12    1    1    2    0    0 -0.12589346646E+01 -0.16448657256E+01 -0.18611515800E+02  0.18726425717E+02  0.00000000000E+00 0. -1.
         11    1    3    3    0    0 -0.22814716390E+02  0.12259070708E+02  0.18829577413E+02  0.32021072505E+02  0.51100000000E-03 0. -1.
        -11    1    3    3    0    0  0.49149701270E+01  0.10684339337E+02 -0.79125732142E+00  0.11787201823E+02  0.51100000000E-03 0.  1.
         12    1    3    3    0    0  0.19158680928E+02 -0.21298544319E+02  0.57319570909E+00  0.28653299955E+02  0.00000000000E+00 0. -1.
</event>
<event>
 7    1  0.1465498E-013  0.7246158E+02  0.7816164E-02  0.1226708E+00
        -11   -1    0    0    0    0  0.00000000000E+00  0.00000000000E+00  0.45593999997E+02  0.45594000000E+02  0.51100000000E-03 0.  1.
         11   -1    0    0    0    0 -0.00000000000E+00 -0.00000000000E+00 -0.45593999997E+02  0.45594000000E+02  0.51100000000E-03 0. -1.
    9900012    2    1    2    0    0 -0.17019238712E+02  0.77358169104E+01 -0.10870304219E+01  0.72461575228E+02  0.70000006427E+02 0.  0.
         12    1    1    2    0    0  0.17019238712E+02 -0.77358169104E+01  0.10870304219E+01  0.18726424772E+02  0.00000000000E+00 0. -1.
         11    1    3    3    0    0  0.20243426553E+02 -0.14591551398E+02  0.69918929981E+00  0.24963945136E+02  0.51100000000E-03 0. -1.
        -11    1    3    3    0    0 -0.14232671941E+02  0.15267639500E+01  0.59710832625E+01  0.15509796721E+02  0.51100000000E-03 0.  1.
        -12    1    3    3    0    0 -0.23029993324E+02  0.20800604359E+02 -0.77573029842E+01  0.31987833371E+02  0.00000000000E+00 0.  1.
</event>
<event>
 7    1  0.1465498E-013  0.7246135E+02  0.7816164E-02  0.1226709E+00
        -11   -1    0    0    0    0  0.00000000000E+00  0.00000000000E+00  0.45593999997E+02  0.45594000000E+02  0.51100000000E-03 0. -1.
         11   -1    0    0    0    0 -0.00000000000E+00 -0.00000000000E+00 -0.45593999997E+02  0.45594000000E+02  0.51100000000E-03 0.  1.
    9900012    2    1    2    0    0 -0.15470024463E+02  0.96251595996E+01  0.43269127864E+01  0.72461347110E+02  0.69999709260E+02 0.  0.
         12    1    1    2    0    0  0.15470024463E+02 -0.96251595996E+01 -0.43269127864E+01  0.18726652890E+02  0.00000000000E+00 0. -1.
         11    1    3    3    0    0 -0.20302078407E+02 -0.65494930762E+01 -0.10670562052E+02  0.23852277500E+02  0.51100000000E-03 0. -1.
        -11    1    3    3    0    0 -0.64242833093E+01  0.20045573063E+02 -0.81562492281E+01  0.22574782772E+02  0.51100000000E-03 0.  1.
         12    1    3    3    0    0  0.11256337253E+02 -0.38709203873E+01  0.23153724066E+02  0.26034286837E+02  0.00000000000E+00 0. -1.
</event>
<event>
 7    1  0.1465498E-013  0.7246158E+02  0.7816164E-02  0.1226708E+00
        -11   -1    0    0    0    0  0.00000000000E+00  0.00000000000E+00  0.45593999997E+02  0.45594000000E+02  0.51100000000E-03 0. -1.
         11   -1    0    0    0    0 -0.00000000000E+00 -0.00000000000E+00 -0.45593999997E+02  0.45594000000E+02  0.51100000000E-03 0.  1.
    9900012    2    1    2    0    0 -0.91721211606E+01 -0.16102961191E+02  0.26918063762E+01  0.72461575160E+02  0.70000006339E+02 0.  0.
         12    1    1    2    0    0  0.91721211606E+01  0.16102961191E+02 -0.26918063762E+01  0.18726424840E+02  0.00000000000E+00 0. -1.
         11    1    3    3    0    0 -0.49574433144E+01  0.16548583301E+02 -0.43025184191E+00  0.17280537329E+02  0.51100000000E-03 0. -1.
        -11    1    3    3    0    0 -0.14344888525E+02  0.56811911365E+01  0.14535000317E+01  0.15497239177E+02  0.51100000000E-03 0.  1.
        -12    1    3    3    0    0  0.10130210679E+02 -0.38332735629E+02  0.16685581864E+01  0.39683798654E+02  0.00000000000E+00 0.  1.
</event>
<event>
 7    1  0.1465498E-013  0.7246159E+02  0.7816164E-02  0.1226708E+00
        -11   -1    0    0    0    0  0.00000000000E+00  0.00000000000E+00  0.45593999997E+02  0.45594000000E+02  0.51100000000E-03 0.  1.
         11   -1    0    0    0    0 -0.00000000000E+00 -0.00000000000E+00 -0.45593999997E+02  0.45594000000E+02  0.51100000000E-03 0. -1.
    9900012    2    1    2    0    0 -0.97047668008E+01  0.13455969148E+02 -0.86852053943E+01  0.72461590918E+02  0.70000026866E+02 0.  0.
         12    1    1    2    0    0  0.97047668008E+01 -0.13455969148E+02  0.86852053943E+01  0.18726409082E+02  0.00000000000E+00 0. -1.
         11    1    3    3    0    0  0.20610886388E-01 -0.19993524338E+01 -0.19629690069E+02  0.19731258637E+02  0.51100000000E-03 0. -1.
        -11    1    3    3    0    0  0.10780859207E+02 -0.11623639754E+02 -0.27793856789E+01  0.16095369253E+02  0.51100000000E-03 0.  1.
        -12    1    3    3    0    0 -0.20506236894E+02  0.27078961336E+02  0.13723870353E+02  0.36634963028E+02  0.00000000000E+00 0.  1.
</event>
<event>
 7    1  0.1465498E-013  0.7246147E+02  0.7816164E-02  0.1226708E+00
        -11   -1    0    0    0    0  0.00000000000E+00  0.00000000000E+00  0.45593999997E+02  0.45594000000E+02  0.51100000000E-03 0.  1.
         11   -1    0    0    0    0 -0.00000000000E+00 -0.00000000000E+00 -0.45593999997E+02  0.45594000000E+02  0.51100000000E-03 0. -1.
    9900012    2    1    2    0    0 -0.10104575421E+02  0.15247522983E+02 -0.40116877217E+01  0.72461466954E+02  0.69999865380E+02 0.  0.
         12    1    1    2    0    0  0.10104575421E+02 -0.15247522983E+02  0.40116877217E+01  0.18726533046E+02  0.00000000000E+00 0. -1.
         11    1    3    3    0    0 -0.15496001782E+02 -0.16697744540E+02  0.19218161031E+02  0.29804000698E+02  0.51100000000E-03 0.  1.
        -11    1    3    3    0    0 -0.31081760503E+01  0.19247407406E+02 -0.17920062964E+02  0.26481165139E+02  0.51100000000E-03 0. -1.
        -12    1    3    3    0    0  0.84996024119E+01  0.12697860116E+02 -0.53097857891E+01  0.16176301117E+02  0.00000000000E+00 0.  1.
</event>
<event>
 7    1  0.1465498E-013  0.7246166E+02  0.7816164E-02  0.1226708E+00
        -11   -1    0    0    0    0  0.00000000000E+00  0.00000000000E+00  0.45593999997E+02  0.45594000000E+02  0.51100000000E-03 0. -1.
         11   -1    0    0    0    0 -0.00000000000E+00 -0.00000000000E+00 -0.45593999997E+02  0.45594000000E+02  0.51100000000E-03 0.  1.
    9900012    2    1    2    0    0  0.92014741152E+01  0.14719501136E+02  0.70245868629E+01  0.72461663995E+02  0.70000122062E+02 0.  0.
         12    1    1    2    0    0 -0.92014741152E+01 -0.14719501136E+02 -0.70245868629E+01  0.18726336005E+02  0.00000000000E+00 0. -1.
         11    1    3    3    0    0 -0.93959017127E+01  0.11653608086E+02  0.13188223538E+01  0.15027602706E+02  0.51100000000E-03 0. -1.
        -11    1    3    3    0    0 -0.10370398140E+02  0.71292671456E+01 -0.16469595013E+02  0.20727256639E+02  0.51100000000E-03 0.  1.
         12    1    3    3    0    0  0.28967773968E+02 -0.40633740953E+01  0.22175359522E+02  0.36706804650E+02  0.00000000000E+00 0. -1.
</event>
<event>
 7    1  0.1465498E-013  0.7246152E+02  0.7816164E-02  0.1226708E+00
        -11   -1    0    0    0    0  0.00000000000E+00  0.00000000000E+00  0.45593999997E+02  0.45594000000E+02  0.51100000000E-03 0.  1.
         11   -1    0    0    0    0 -0.00000000000E+00 -0.00000000000E+00 -0.45593999997E+02  0.45594000000E+02  0.51100000000E-03 0. -1.
    9900012    2    1    2    0    0  0.17312263540E+02  0.56798877731E+01 -0.43249653634E+01  0.72461523573E+02  0.69999939137E+02 0.  0.
         12    1    1    2    0    0 -0.17312263540E+02 -0.56798877731E+01  0.43249653634E+01  0.18726476427E+02  0.00000000000E+00 0. -1.
         11    1    3    3    0    0 -0.50120222309E+01 -0.10389432682E+02 -0.24892945429E+02  0.27435732370E+02  0.51100000000E-03 0. -1.
        -11    1    3    3    0    0  0.33843209255E+01 -0.82374528373E+01  0.71315971892E+01  0.11409160184E+02  0.51100000000E-03 0.  1.
        -12    1    3    3    0    0  0.18939964845E+02  0.24306773293E+02  0.13436382876E+02  0.33616631019E+02  0.00000000000E+00 0.  1.
</event>
<event>
 7    1  0.1465498E-013  0.7246155E+02  0.7816164E-02  0.1226708E+00
        -11   -1    0    0    0    0  0.00000000000E+00  0.00000000000E+00  0.45593999997E+02  0.45594000000E+02  0.51100000000E-03 0.  1.
         11   -1    0    0    0    0 -0.00000000000E+00 -0.00000000000E+00 -0.45593999997E+02  0.45594000000E+02  0.51100000000E-03 0. -1.
    9900012    2    1    2    0    0  0.14174502766E+02  0.12179564345E+02 -0.11923304373E+01  0.72461548971E+02  0.69999972222E+02 0.  0.
         12    1    1    2    0    0 -0.14174502766E+02 -0.12179564345E+02  0.11923304373E+01  0.18726451029E+02  0.00000000000E+00 0. -1.
         11    1    3    3    0    0  0.28803544646E+02  0.25298978729E+02  0.20221920888E+01  0.38389735217E+02  0.51100000000E-03 0. -1.
        -11    1    3    3    0    0 -0.29391715951E+00 -0.44046353503E+01 -0.13628813520E+02  0.14325912121E+02  0.51100000000E-03 0.  1.
        -12    1    3    3    0    0 -0.14335124721E+02 -0.87147790340E+01  0.10414290994E+02  0.19745901633E+02  0.00000000000E+00 0.  1.
</event>
<event>
 7    1  0.1465498E-013  0.7246161E+02  0.7816164E-02  0.1226708E+00
        -11   -1    0    0    0    0  0.00000000000E+00  0.00000000000E+00  0.45593999997E+02  0.45594000000E+02  0.51100000000E-03 0.  1.
         11   -1    0    0    0    0 -0.00000000000E+00 -0.00000000000E+00 -0.45593999997E+02  0.45594000000E+02  0.51100000000E-03 0. -1.
    9900012    2    1    2    0    0  0.81143452420E+01  0.16050322489E+02 -0.52174949863E+01  0.72461609407E+02  0.70000050952E+02 0.  0.
         12    1    1    2    0    0 -0.81143452420E+01 -0.16050322489E+02  0.52174949863E+01  0.18726390593E+02  0.00000000000E+00 0. -1.
         11    1    3    3    0    0 -0.40083767360E+01 -0.44754586796E+01 -0.18472754303E+02  0.19425227572E+02  0.51100000000E-03 0. -1.
        -11    1    3    3    0    0  0.25263001489E+02  0.19228155987E+02 -0.32333830565E+01  0.31912317263E+02  0.51100000000E-03 0.  1.
        -12    1    3    3    0    0 -0.13140279510E+02  0.12976251819E+01  0.16488642373E+02  0.21124064572E+02  0.00000000000E+00 0.  1.
</event>
<event>
 7    1  0.1465498E-013  0.7246158E+02  0.7816164E-02  0.1226708E+00
        -11   -1    0    0    0    0  0.00000000000E+00  0.00000000000E+00  0.45593999997E+02  0.45594000000E+02  0.51100000000E-03 0.  1.
         11   -1    0    0    0    0 -0.00000000000E+00 -0.00000000000E+00 -0.45593999997E+02  0.45594000000E+02  0.51100000000E-03 0. -1.
    9900012    2    1    2    0    0  0.88864970191E+01  0.13321782379E+02  0.97076726760E+01  0.72461584865E+02  0.70000018981E+02 0.  0.
         12    1    1    2    0    0 -0.88864970191E+01 -0.13321782379E+02 -0.97076726760E+01  0.18726415135E+02  0.00000000000E+00 0. -1.
         11    1    3    3    0    0  0.73220005719E+01  0.21571484813E+02 -0.21570289162E+02  0.31372249269E+02  0.51100000000E-03 0. -1.
        -11    1    3    3    0    0 -0.11635795290E+02 -0.12629400623E+01  0.13281143186E+02  0.17702415491E+02  0.51100000000E-03 0.  1.
        -12    1    3    3    0    0  0.13200291737E+02 -0.69867623722E+01  0.17996818652E+02  0.23386920105E+02  0.00000000000E+00 0.  1.
</event>
<event>
 7    1  0.1465498E-013  0.7246157E+02  0.7816164E-02  0.1226708E+00
        -11   -1    0    0    0    0  0.00000000000E+00  0.00000000000E+00  0.45593999997E+02  0.45594000000E+02  0.51100000000E-03 0. -1.
         11   -1    0    0    0    0 -0.00000000000E+00 -0.00000000000E+00 -0.45593999997E+02  0.45594000000E+02  0.51100000000E-03 0.  1.
    9900012    2    1    2    0    0  0.72569332485E+01  0.48389554418E+01 -0.16571077078E+02  0.72461570402E+02  0.70000000141E+02 0.  0.
         12    1    1    2    0    0 -0.72569332485E+01 -0.48389554418E+01  0.16571077078E+02  0.18726429598E+02  0.00000000000E+00 0. -1.
         11    1    3    3    0    0  0.44944224531E+01  0.28184345214E+01 -0.52749307648E+01  0.74811965067E+01  0.51100000000E-03 0. -1.
        -11    1    3    3    0    0  0.31185752012E+02 -0.10492987358E+02 -0.68281026553E+01  0.33604715419E+02  0.51100000000E-03 0.  1.
         12    1    3    3    0    0 -0.28423241217E+02  0.12513508278E+02 -0.44680436583E+01  0.31375658477E+02  0.00000000000E+00 0. -1.
</event>
<event>
 7    1  0.1465498E-013  0.7246160E+02  0.7816164E-02  0.1226708E+00
        -11   -1    0    0    0    0  0.00000000000E+00  0.00000000000E+00  0.45593999997E+02  0.45594000000E+02  0.51100000000E-03 0. -1.
         11   -1    0    0    0    0 -0.00000000000E+00 -0.00000000000E+00 -0.45593999997E+02  0.45594000000E+02  0.51100000000E-03 0.  1.
    9900012    2    1    2    0    0 -0.10661270554E+02  0.34558664536E+01 -0.15002408415E+02  0.72461602561E+02  0.70000042034E+02 0.  0.
         12    1    1    2    0    0  0.10661270554E+02 -0.34558664536E+01  0.15002408415E+02  0.18726397439E+02  0.00000000000E+00 0. -1.
         11    1    3    3    0    0 -0.11118232549E+01  0.20985920989E+02 -0.83804196043E+01  0.22624687042E+02  0.51100000000E-03 0. -1.
        -11    1    3    3    0    0 -0.20052148117E+02 -0.71007078614E+01 -0.20503335392E+02  0.29544804259E+02  0.51100000000E-03 0.  1.
         12    1    3    3    0    0  0.10502700818E+02 -0.10429346674E+02  0.13881346581E+02  0.20292111261E+02  0.00000000000E+00 0. -1.
</event>
<event>
 7    1  0.1465498E-013  0.7246164E+02  0.7816164E-02  0.1226708E+00
        -11   -1    0    0    0    0  0.00000000000E+00  0.00000000000E+00  0.45593999997E+02  0.45594000000E+02  0.51100000000E-03 0. -1.
         11   -1    0    0    0    0 -0.00000000000E+00 -0.00000000000E+00 -0.45593999997E+02  0.45594000000E+02  0.51100000000E-03 0.  1.
    9900012    2    1    2    0    0 -0.31458627623E+01 -0.13647298293E+02  0.12431066783E+02  0.72461638245E+02  0.70000088518E+02 0.  0.
         12    1    1    2    0    0  0.31458627623E+01  0.13647298293E+02 -0.12431066783E+02  0.18726361755E+02  0.00000000000E+00 0. -1.
         11    1    3    3    0    0  0.95629839805E+01 -0.32168493606E+02 -0.78544193704E+01  0.34466716516E+02  0.51100000000E-03 0. -1.
        -11    1    3    3    0    0 -0.20209753164E+01 -0.30686174495E+01 -0.28071706360E+01  0.46239551816E+01  0.51100000000E-03 0.  1.
         12    1    3    3    0    0 -0.10687871426E+02  0.21589812762E+02  0.23092656789E+02  0.33370966548E+02  0.00000000000E+00 0. -1.
</event>
<event>
 7    1  0.1465498E-013  0.7246162E+02  0.7816164E-02  0.1226708E+00
        -11   -1    0    0    0    0  0.00000000000E+00  0.00000000000E+00  0.45593999997E+02  0.45594000000E+02  0.51100000000E-03 0.  1.
         11   -1    0    0    0    0 -0.00000000000E+00 -0.00000000000E+00 -0.45593999997E+02  0.45594000000E+02  0.51100000000E-03 0. -1.
    9900012    2    1    2    0    0  0.15046930219E+02 -0.56922397035E+01  0.95846620926E+01  0.72461616225E+02  0.70000059834E+02 0.  0.
         12    1    1    2    0    0 -0.15046930219E+02  0.56922397035E+01 -0.95846620926E+01  0.18726383775E+02  0.00000000000E+00 0. -1.
         11    1    3    3    0    0 -0.36470548368E+01 -0.86547365223E+01  0.70809147727E+01  0.11762007802E+02  0.51100000000E-03 0. -1.
        -11    1    3    3    0    0 -0.10877401175E+02 -0.19787618695E+02  0.55909396275E+01  0.23262121918E+02  0.51100000000E-03 0.  1.
         12    1    3    3    0    0  0.29571386230E+02  0.22750115514E+02 -0.30871923076E+01  0.37437486505E+02  0.00000000000E+00 0. -1.
</event>
<event>
 7    1  0.1465498E-013  0.7246167E+02  0.7816164E-02  0.1226708E+00
        -11   -1    0    0    0    0  0.00000000000E+00  0.00000000000E+00  0.45593999997E+02  0.45594000000E+02  0.51100000000E-03 0. -1.
         11   -1    0    0    0    0 -0.00000000000E+00 -0.00000000000E+00 -0.45593999997E+02  0.45594000000E+02  0.51100000000E-03 0.  1.
    9900012    2    1    2    0    0  0.10958824533E+01  0.18661277673E+02  0.11096662097E+01  0.72461665553E+02  0.70000124092E+02 0.  0.
         12    1    1    2    0    0 -0.10958824533E+01 -0.18661277673E+02 -0.11096662097E+01  0.18726334447E+02  0.00000000000E+00 0. -1.
         11    1    3    3    0    0 -0.24816802970E+01 -0.10226175434E+01  0.10604839631E+02  0.10939246208E+02  0.51100000000E-03 0. -1.
        -11    1    3    3    0    0  0.18778513593E+02 -0.25688347557E+01  0.15714081302E+02  0.24620394721E+02  0.51100000000E-03 0.  1.
        -12    1    3    3    0    0 -0.15200950843E+02  0.22252729972E+02 -0.25209254723E+02  0.36902024625E+02  0.00000000000E+00 0.  1.
</event>
<event>
 7    1  0.1465498E-013  0.7246159E+02  0.7816164E-02  0.1226708E+00
        -11   -1    0    0    0    0  0.00000000000E+00  0.00000000000E+00  0.45593999997E+02  0.45594000000E+02  0.51100000000E-03 0. -1.
         11   -1    0    0    0    0 -0.00000000000E+00 -0.00000000000E+00 -0.45593999997E+02  0.45594000000E+02  0.51100000000E-03 0.  1.
    9900012    2    1    2    0    0  0.16018395401E+02 -0.76859746825E+01 -0.59173718063E+01  0.72461588514E+02  0.70000023734E+02 0.  0.
         12    1    1    2    0    0 -0.16018395401E+02  0.76859746825E+01  0.59173718063E+01  0.18726411486E+02  0.00000000000E+00 0. -1.
         11    1    3    3    0    0  0.19256704504E+02 -0.16206745047E+02  0.98486579582E+01  0.27027306881E+02  0.51100000000E-03 0. -1.
        -11    1    3    3    0    0  0.16619876024E+02  0.61723919748E+01  0.30353322803E+01  0.17986993747E+02  0.51100000000E-03 0.  1.
        -12    1    3    3    0    0 -0.19858185127E+02  0.23483783898E+01 -0.18801362045E+02  0.27447287887E+02  0.00000000000E+00 0.  1.
</event>
<event>
 7    1  0.1465498E-013  0.7246158E+02  0.7816164E-02  0.1226708E+00
        -11   -1    0    0    0    0  0.00000000000E+00  0.00000000000E+00  0.45593999997E+02  0.45594000000E+02  0.51100000000E-03 0.  1.
         11   -1    0    0    0    0 -0.00000000000E+00 -0.00000000000E+00 -0.45593999997E+02  0.45594000000E+02  0.51100000000E-03 0. -1.
    9900012    2    1    2    0    0  0.16806508415E+02 -0.31032937937E+01  0.76543971638E+01  0.72461576064E+02  0.70000007516E+02 0.  0.
         12    1    1    2    0    0 -0.16806508415E+02  0.31032937937E+01 -0.76543971638E+01  0.18726423936E+02  0.00000000000E+00 0. -1.
         11    1    3    3    0    0  0.68127533602E+01  0.65936037895E+01  0.50017687320E+01  0.10719464072E+02  0.51100000000E-03 0. -1.
        -11    1    3    3    0    0  0.17680348096E+02 -0.95311235894E+01  0.28448637869E+02  0.34824732914E+02  0.51100000000E-03 0.  1.
         12    1    3    3    0    0 -0.76865930408E+01 -0.16577399379E+00 -0.25796009437E+02  0.26917379078E+02  0.00000000000E+00 0. -1.
</event>
<event>
 7    1  0.1465498E-013  0.7246152E+02  0.7816164E-02  0.1226708E+00
        -11   -1    0    0    0    0  0.00000000000E+00  0.00000000000E+00  0.45593999997E+02  0.45594000000E+02  0.51100000000E-03 0.  1.
         11   -1    0    0    0    0 -0.00000000000E+00 -0.00000000000E+00 -0.45593999997E+02  0.45594000000E+02  0.51100000000E-03 0. -1.
    9900012    2    1    2    0    0 -0.44756878453E+00  0.76727561820E+01  0.17076574831E+02  0.72461523738E+02  0.69999939352E+02 0.  0.
         12    1    1    2    0    0  0.44756878453E+00 -0.76727561820E+01 -0.17076574831E+02  0.18726476262E+02  0.00000000000E+00 0. -1.
         11    1    3    3    0    0  0.69201366860E+01 -0.13275257350E+02 -0.62172914471E+01  0.16210350479E+02  0.51100000000E-03 0. -1.
        -11    1    3    3    0    0 -0.22300743105E+02 -0.30433769845E+01  0.67151581372E+01  0.23487840164E+02  0.51100000000E-03 0.  1.
         12    1    3    3    0    0  0.14933037634E+02  0.23991390516E+02  0.16578708140E+02  0.32763333095E+02  0.00000000000E+00 0. -1.
</event>
<event>
 7    1  0.1465498E-013  0.7246157E+02  0.7816164E-02  0.1226708E+00
        -11   -1    0    0    0    0  0.00000000000E+00  0.00000000000E+00  0.45593999997E+02  0.45594000000E+02  0.51100000000E-03 0. -1.
         11   -1    0    0    0    0 -0.00000000000E+00 -0.00000000000E+00 -0.45593999997E+02  0.45594000000E+02  0.51100000000E-03 0.  1.
    9900012    2    1    2    0    0  0.13308058733E+01 -0.17923357589E+02 -0.52593951635E+01  0.72461574046E+02  0.70000004887E+02 0.  0.
         12    1    1    2    0    0 -0.13308058733E+01  0.17923357589E+02  0.52593951635E+01  0.18726425954E+02  0.00000000000E+00 0. -1.
         11    1    3    3    0    0 -0.10315954076E+02 -0.30328462497E+02  0.15158361282E+02  0.35440237908E+02  0.51100000000E-03 0. -1.
        -11    1    3    3    0    0 -0.77197029384E+01  0.41889307334E+01 -0.10714089008E+02  0.13853976241E+02  0.51100000000E-03 0.  1.
        -12    1    3    3    0    0  0.19366462888E+02  0.82161741742E+01 -0.97036674377E+01  0.23167359897E+02  0.00000000000E+00 0.  1.
</event>
<event>
 7    1  0.1465498E-013  0.7246154E+02  0.7816164E-02  0.1226708E+00
        -11   -1    0    0    0    0  0.00000000000E+00  0.00000000000E+00  0.45593999997E+02  0.45594000000E+02  0.51100000000E-03 0.  1.
         11   -1    0    0    0    0 -0.00000000000E+00 -0.00000000000E+00 -0.45593999997E+02  0.45594000000E+02  0.51100000000E-03 0. -1.
    9900012    2    1    2    0    0  0.12970076710E+02 -0.10609883318E+02  0.83598922421E+01  0.72461539785E+02  0.69999960256E+02 0.  0.
         12    1    1    2    0    0 -0.12970076710E+02  0.10609883318E+02 -0.83598922421E+01  0.18726460215E+02  0.00000000000E+00 0. -1.
         11    1    3    3    0    0 -0.37970482381E+01  0.91850679250E+01  0.57214317403E+01  0.11468122319E+02  0.51100000000E-03 0. -1.
        -11    1    3    3    0    0  0.33520856494E+02  0.18407075275E+01  0.12840016039E+01  0.33595902796E+02  0.51100000000E-03 0.  1.
         12    1    3    3    0    0 -0.16753731546E+02 -0.21635658770E+02  0.13544588979E+01  0.27397514669E+02  0.00000000000E+00 0. -1.
</event>
<event>
 7    1  0.1465498E-013  0.7246153E+02  0.7816164E-02  0.1226708E+00
        -11   -1    0    0    0    0  0.00000000000E+00  0.00000000000E+00  0.45593999997E+02  0.45594000000E+02  0.51100000000E-03 0.  1.
         11   -1    0    0    0    0 -0.00000000000E+00 -0.00000000000E+00 -0.45593999997E+02  0.45594000000E+02  0.51100000000E-03 0. -1.
    9900012    2    1    2    0    0 -0.29807299051E+01 -0.16290858679E+02 -0.87409321692E+01  0.72461528830E+02  0.69999945985E+02 0.  0.
         12    1    1    2    0    0  0.29807299051E+01  0.16290858679E+02  0.87409321692E+01  0.18726471170E+02  0.00000000000E+00 0. -1.
         11    1    3    3    0    0  0.13473032402E+02 -0.33263656966E+02 -0.10170596906E+02  0.37301937195E+02  0.51100000000E-03 0. -1.
        -11    1    3    3    0    0  0.27841044597E+01 -0.18154155591E+01 -0.63493172683E+01  0.71666450540E+01  0.51100000000E-03 0.  1.
        -12    1    3    3    0    0 -0.19237866767E+02  0.18788213845E+02  0.77789820054E+01  0.27992946581E+02  0.00000000000E+00 0.  1.
</event>
<event>
 7    1  0.1465498E-013  0.7246158E+02  0.7816164E-02  0.1226708E+00
        -11   -1    0    0    0    0  0.00000000000E+00  0.00000000000E+00  0.45593999997E+02  0.45594000000E+02  0.51100000000E-03 0.  1.
         11   -1    0    0    0    0 -0.00000000000E+00 -0.00000000000E+00 -0.45593999997E+02  0.45594000000E+02  0.51100000000E-03 0. -1.
    9900012    2    1    2    0    0  0.13046070306E+01  0.41714483784E+01  0.18209221452E+02  0.72461582111E+02  0.70000015394E+02 0.  0.
         12    1    1    2    0    0 -0.13046070306E+01 -0.41714483784E+01 -0.18209221452E+02  0.18726417889E+02  0.00000000000E+00 0. -1.
         11    1    3    3    0    0 -0.11667088953E+02  0.51531500965E+01  0.18144581591E+02  0.22178858445E+02  0.51100000000E-03 0. -1.
        -11    1    3    3    0    0  0.65452819326E+01  0.16430501542E+02  0.17454426820E+02  0.24848724563E+02  0.51100000000E-03 0.  1.
         12    1    3    3    0    0  0.64264140508E+01 -0.17412203260E+02 -0.17389786959E+02  0.25433999104E+02  0.00000000000E+00 0. -1.
</event>
<event>
 7    1  0.1465498E-013  0.7246163E+02  0.7816164E-02  0.1226708E+00
        -11   -1    0    0    0    0  0.00000000000E+00  0.00000000000E+00  0.45593999997E+02  0.45594000000E+02  0.51100000000E-03 0.  1.
         11   -1    0    0    0    0 -0.00000000000E+00 -0.00000000000E+00 -0.45593999997E+02  0.45594000000E+02  0.51100000000E-03 0. -1.
    9900012    2    1    2    0    0 -0.90203499220E+01 -0.47564792653E+01  0.15706242678E+02  0.72461631778E+02  0.70000080094E+02 0.  0.
         12    1    1    2    0    0  0.90203499220E+01  0.47564792653E+01 -0.15706242678E+02  0.18726368222E+02  0.00000000000E+00 0. -1.
         11    1    3    3    0    0 -0.24607835536E+02  0.55495691156E+01 -0.42624034272E+01  0.25583419834E+02  0.51100000000E-03 0. -1.
        -11    1    3    3    0    0 -0.94274134402E+01  0.96510794108E+00 -0.41518488441E+01  0.10346275011E+02  0.51100000000E-03 0.  1.
        -12    1    3    3    0    0  0.25014899055E+02 -0.11271156322E+02  0.24120494949E+02  0.36531936934E+02  0.00000000000E+00 0.  1.
</event>
<event>
 7    1  0.1465498E-013  0.7246159E+02  0.7816164E-02  0.1226708E+00
        -11   -1    0    0    0    0  0.00000000000E+00  0.00000000000E+00  0.45593999997E+02  0.45594000000E+02  0.51100000000E-03 0.  1.
         11   -1    0    0    0    0 -0.00000000000E+00 -0.00000000000E+00 -0.45593999997E+02  0.45594000000E+02  0.51100000000E-03 0. -1.
    9900012    2    1    2    0    0  0.89898518690E+01 -0.77648336183E+01  0.14476481385E+02  0.72461585740E+02  0.70000020121E+02 0.  0.
         12    1    1    2    0    0 -0.89898518690E+01  0.77648336183E+01 -0.14476481385E+02  0.18726414260E+02  0.00000000000E+00 0. -1.
         11    1    3    3    0    0 -0.20529276427E+02  0.12368431469E+01  0.17000819608E+02  0.26683493759E+02  0.51100000000E-03 0. -1.
        -11    1    3    3    0    0 -0.55533715754E+01  0.53188937441E+01  0.89036651413E+00  0.77410153925E+01  0.51100000000E-03 0.  1.
        -12    1    3    3    0    0  0.35072499872E+02 -0.14320570509E+02 -0.34147047375E+01  0.38037076589E+02  0.00000000000E+00 0.  1.
</event>
<event>
 7    1  0.1465498E-013  0.7246151E+02  0.7816164E-02  0.1226708E+00
        -11   -1    0    0    0    0  0.00000000000E+00  0.00000000000E+00  0.45593999997E+02  0.45594000000E+02  0.51100000000E-03 0.  1.
         11   -1    0    0    0    0 -0.00000000000E+00 -0.00000000000E+00 -0.45593999997E+02  0.45594000000E+02  0.51100000000E-03 0. -1.
    9900012    2    1    2    0    0 -0.87019597442E+01 -0.10108689680E+02  0.13144265708E+02  0.72461509901E+02  0.69999921326E+02 0.  0.
         12    1    1    2    0    0  0.87019597442E+01  0.10108689680E+02 -0.13144265708E+02  0.18726490099E+02  0.00000000000E+00 0. -1.
         11    1    3    3    0    0 -0.80304672375E+01  0.15256960093E+02 -0.41268329554E+01  0.17728338496E+02  0.51100000000E-03 0. -1.
        -11    1    3    3    0    0  0.11151943123E+02 -0.26745721111E+02 -0.50708869253E+01  0.29417908281E+02  0.51100000000E-03 0.  1.
        -12    1    3    3    0    0 -0.11823435630E+02  0.13800713379E+01  0.22341985589E+02  0.25315263124E+02  0.00000000000E+00 0.  1.
</event>
<event>
 7    1  0.1465498E-013  0.7246158E+02  0.7816164E-02  0.1226708E+00
        -11   -1    0    0    0    0  0.00000000000E+00  0.00000000000E+00  0.45593999997E+02  0.45594000000E+02  0.51100000000E-03 0.  1.
         11   -1    0    0    0    0 -0.00000000000E+00 -0.00000000000E+00 -0.45593999997E+02  0.45594000000E+02  0.51100000000E-03 0. -1.
    9900012    2    1    2    0    0  0.58063583271E+01  0.51631373574E+01  0.17038398298E+02  0.72461580135E+02  0.70000012820E+02 0.  0.
         12    1    1    2    0    0 -0.58063583271E+01 -0.51631373574E+01 -0.17038398298E+02  0.18726419865E+02  0.00000000000E+00 0. -1.
         11    1    3    3    0    0  0.97705816791E+01  0.60207488659E+01  0.14770778639E+02  0.18705335739E+02  0.51100000000E-03 0. -1.
        -11    1    3    3    0    0 -0.93700374417E+01 -0.26077865273E+02 -0.11713264929E+01  0.27734899763E+02  0.51100000000E-03 0.  1.
         12    1    3    3    0    0  0.54058140897E+01  0.25220253764E+02  0.34389461518E+01  0.26021344633E+02  0.00000000000E+00 0. -1.
</event>
<event>
 7    1  0.1465498E-013  0.7246158E+02  0.7816164E-02  0.1226708E+00
        -11   -1    0    0    0    0  0.00000000000E+00  0.00000000000E+00  0.45593999997E+02  0.45594000000E+02  0.51100000000E-03 0.  1.
         11   -1    0    0    0    0 -0.00000000000E+00 -0.00000000000E+00 -0.45593999997E+02  0.45594000000E+02  0.51100000000E-03 0. -1.
    9900012    2    1    2    0    0 -0.78248749754E+01 -0.28457280276E+01  0.16773554422E+02  0.72461575772E+02  0.70000007136E+02 0.  0.
         12    1    1    2    0    0  0.78248749754E+01  0.28457280276E+01 -0.16773554422E+02  0.18726424228E+02  0.00000000000E+00 0. -1.
         11    1    3    3    0    0 -0.12403923395E+02 -0.25402974498E+01 -0.67280523227E+01  0.14337960630E+02  0.51100000000E-03 0. -1.
        -11    1    3    3    0    0  0.22947721797E+02 -0.14943269810E+02  0.41627883392E+01  0.27698881842E+02  0.51100000000E-03 0.  1.
        -12    1    3    3    0    0 -0.18368673378E+02  0.14637839232E+02  0.19338818406E+02  0.30424733300E+02  0.00000000000E+00 0.  1.
</event>
<event>
 7    1  0.1465498E-013  0.7246157E+02  0.7816164E-02  0.1226708E+00
        -11   -1    0    0    0    0  0.00000000000E+00  0.00000000000E+00  0.45593999997E+02  0.45594000000E+02  0.51100000000E-03 0.  1.
         11   -1    0    0    0    0 -0.00000000000E+00 -0.00000000000E+00 -0.45593999997E+02  0.45594000000E+02  0.51100000000E-03 0. -1.
    9900012    2    1    2    0    0 -0.48110877339E+01 -0.16694773146E+02  0.69869363745E+01  0.72461566931E+02  0.69999995619E+02 0.  0.
         12    1    1    2    0    0  0.48110877339E+01  0.16694773146E+02 -0.69869363745E+01  0.18726433069E+02  0.00000000000E+00 0. -1.
         11    1    3    3    0    0  0.18539260338E+02 -0.26013284338E+02 -0.11646656382E+02  0.34000584423E+02  0.51100000000E-03 0. -1.
        -11    1    3    3    0    0 -0.40857697659E+00 -0.12323837487E+01 -0.42126114738E+01  0.44081516013E+01  0.51100000000E-03 0.  1.
        -12    1    3    3    0    0 -0.22941771095E+02  0.10550894940E+02  0.22846204231E+02  0.34052830907E+02  0.00000000000E+00 0.  1.
</event>
<event>
 7    1  0.1465498E-013  0.7246155E+02  0.7816164E-02  0.1226708E+00
        -11   -1    0    0    0    0  0.00000000000E+00  0.00000000000E+00  0.45593999997E+02  0.45594000000E+02  0.51100000000E-03 0.  1.
         11   -1    0    0    0    0 -0.00000000000E+00 -0.00000000000E+00 -0.45593999997E+02  0.45594000000E+02  0.51100000000E-03 0. -1.
    9900012    2    1    2    0    0 -0.15608120374E+02  0.40804519174E+01  0.95087531048E+01  0.72461550922E+02  0.69999974764E+02 0.  0.
         12    1    1    2    0    0  0.15608120374E+02 -0.40804519174E+01 -0.95087531048E+01  0.18726449078E+02  0.00000000000E+00 0. -1.
         11    1    3    3    0    0 -0.12699866287E+02  0.18634551152E+02  0.76479912503E+01  0.23812284031E+02  0.51100000000E-03 0. -1.
        -11    1    3    3    0    0 -0.29932013442E+00  0.14530440452E+02  0.10803743931E+02  0.18109229013E+02  0.51100000000E-03 0.  1.
         12    1    3    3    0    0 -0.26089339526E+01 -0.29084539687E+02 -0.89429820762E+01  0.30540037878E+02  0.00000000000E+00 0. -1.
</event>
<event>
 7    1  0.1465498E-013  0.7246163E+02  0.7816164E-02  0.1226708E+00
        -11   -1    0    0    0    0  0.00000000000E+00  0.00000000000E+00  0.45593999997E+02  0.45594000000E+02  0.51100000000E-03 0. -1.
         11   -1    0    0    0    0 -0.00000000000E+00 -0.00000000000E+00 -0.45593999997E+02  0.45594000000E+02  0.51100000000E-03 0.  1.
    9900012    2    1    2    0    0 -0.14347980506E+02  0.74133424037E+01 -0.94791720042E+01  0.72461631103E+02  0.70000079214E+02 0.  0.
         12    1    1    2    0    0  0.14347980506E+02 -0.74133424037E+01  0.94791720042E+01  0.18726368897E+02  0.00000000000E+00 0. -1.
         11    1    3    3    0    0 -0.33566015830E+02  0.26011192714E+01 -0.15517311673E+02  0.37070611028E+02  0.51100000000E-03 0. -1.
        -11    1    3    3    0    0 -0.41390168892E+01 -0.21960077797E+01 -0.64668571983E+01  0.79858721041E+01  0.51100000000E-03 0.  1.
         12    1    3    3    0    0  0.23357052214E+02  0.70082309120E+01  0.12504996867E+02  0.27405147970E+02  0.00000000000E+00 0. -1.
</event>
<event>
 7    1  0.1465498E-013  0.7246151E+02  0.7816164E-02  0.1226708E+00
        -11   -1    0    0    0    0  0.00000000000E+00  0.00000000000E+00  0.45593999997E+02  0.45594000000E+02  0.51100000000E-03 0.  1.
         11   -1    0    0    0    0 -0.00000000000E+00 -0.00000000000E+00 -0.45593999997E+02  0.45594000000E+02  0.51100000000E-03 0. -1.
    9900012    2    1    2    0    0 -0.42325725958E+01 -0.86560939889E+01  0.16057364750E+02  0.72461505489E+02  0.69999915580E+02 0.  0.
         12    1    1    2    0    0  0.42325725958E+01  0.86560939889E+01 -0.16057364750E+02  0.18726494511E+02  0.00000000000E+00 0. -1.
         11    1    3    3    0    0 -0.17856257572E+02 -0.21413129771E+02 -0.23198878721E+01  0.27977668614E+02  0.51100000000E-03 0. -1.
        -11    1    3    3    0    0 -0.66250330362E+01 -0.67200531676E+01  0.12696940659E+02  0.15819686459E+02  0.51100000000E-03 0.  1.
        -12    1    3    3    0    0  0.20248718012E+02  0.19477088950E+02  0.56803119633E+01  0.28664150416E+02  0.00000000000E+00 0.  1.
</event>
<event>
 7    1  0.1465498E-013  0.7246158E+02  0.7816164E-02  0.1226708E+00
        -11   -1    0    0    0    0  0.00000000000E+00  0.00000000000E+00  0.45593999997E+02  0.45594000000E+02  0.51100000000E-03 0. -1.
         11   -1    0    0    0    0 -0.00000000000E+00 -0.00000000000E+00 -0.45593999997E+02  0.45594000000E+02  0.51100000000E-03 0.  1.
    9900012    2    1    2    0    0  0.17269656518E+02  0.62654726444E+01 -0.36306404149E+01  0.72461581935E+02  0.70000015165E+02 0.  0.
         12    1    1    2    0    0 -0.17269656518E+02 -0.62654726444E+01  0.36306404149E+01  0.18726418065E+02  0.00000000000E+00 0. -1.
         11    1    3    3    0    0  0.21066625841E+01  0.48081861063E+01 -0.60182197755E+01  0.79859658404E+01  0.51100000000E-03 0. -1.
        -11    1    3    3    0    0  0.91542489084E+01 -0.18010021066E+02 -0.23850021806E+02  0.31256754027E+02  0.51100000000E-03 0.  1.
         12    1    3    3    0    0  0.60087450254E+01  0.19467307604E+02  0.26237601167E+02  0.33218862068E+02  0.00000000000E+00 0. -1.
</event>
<event>
 7    1  0.1465498E-013  0.7246157E+02  0.7816164E-02  0.1226708E+00
        -11   -1    0    0    0    0  0.00000000000E+00  0.00000000000E+00  0.45593999997E+02  0.45594000000E+02  0.51100000000E-03 0. -1.
         11   -1    0    0    0    0 -0.00000000000E+00 -0.00000000000E+00 -0.45593999997E+02  0.45594000000E+02  0.51100000000E-03 0.  1.
    9900012    2    1    2    0    0  0.97215752602E+01 -0.12888497645E+02 -0.94898214940E+01  0.72461571908E+02  0.70000002102E+02 0.  0.
         12    1    1    2    0    0 -0.97215752602E+01  0.12888497645E+02  0.94898214940E+01  0.18726428092E+02  0.00000000000E+00 0. -1.
         11    1    3    3    0    0  0.80248737212E+01 -0.29189707649E+01 -0.11448401410E+02  0.14282327670E+02  0.51100000000E-03 0. -1.
        -11    1    3    3    0    0  0.35261478484E-01 -0.18596279737E+02 -0.24237295245E+02  0.30549457351E+02  0.51100000000E-03 0.  1.
         12    1    3    3    0    0  0.16614400606E+01  0.86267528567E+01  0.26195875161E+02  0.27629786886E+02  0.00000000000E+00 0. -1.
</event>
<event>
 7    1  0.1465498E-013  0.7246156E+02  0.7816164E-02  0.1226708E+00
        -11   -1    0    0    0    0  0.00000000000E+00  0.00000000000E+00  0.45593999997E+02  0.45594000000E+02  0.51100000000E-03 0.  1.
         11   -1    0    0    0    0 -0.00000000000E+00 -0.00000000000E+00 -0.45593999997E+02  0.45594000000E+02  0.51100000000E-03 0. -1.
    9900012    2    1    2    0    0  0.68975647587E+01  0.12190130923E+02  0.12429958648E+02  0.72461559775E+02  0.69999986296E+02 0.  0.
         12    1    1    2    0    0 -0.68975647587E+01 -0.12190130923E+02 -0.12429958648E+02  0.18726440225E+02  0.00000000000E+00 0. -1.
         11    1    3    3    0    0 -0.25079083594E+02  0.61986522688E+01 -0.43056951956E+01  0.26190126675E+02  0.51100000000E-03 0. -1.
        -11    1    3    3    0    0  0.12448233581E+02  0.32677425155E+01 -0.76031313391E+01  0.14948052277E+02  0.51100000000E-03 0.  1.
         12    1    3    3    0    0  0.19528414771E+02  0.27237361387E+01  0.24338785183E+02  0.31323380823E+02  0.00000000000E+00 0. -1.
</event>
<event>
 7    1  0.1465498E-013  0.7246152E+02  0.7816164E-02  0.1226708E+00
        -11   -1    0    0    0    0  0.00000000000E+00  0.00000000000E+00  0.45593999997E+02  0.45594000000E+02  0.51100000000E-03 0. -1.
         11   -1    0    0    0    0 -0.00000000000E+00 -0.00000000000E+00 -0.45593999997E+02  0.45594000000E+02  0.51100000000E-03 0.  1.
    9900012    2    1    2    0    0  0.14586564458E+02 -0.11446230337E+02  0.26262046973E+01  0.72461521348E+02  0.69999936238E+02 0.  0.
         12    1    1    2    0    0 -0.14586564458E+02  0.11446230337E+02 -0.26262046973E+01  0.18726478652E+02  0.00000000000E+00 0. -1.
         11    1    3    3    0    0 -0.10259810661E+02  0.37614106079E+01  0.11990138152E+02  0.16222679733E+02  0.51100000000E-03 0. -1.
        -11    1    3    3    0    0 -0.13517638173E+02 -0.17683622202E+01 -0.74691602867E+01  0.15544838447E+02  0.51100000000E-03 0.  1.
        -12    1    3    3    0    0  0.38364013291E+02 -0.13439278724E+02 -0.18947731681E+01  0.40694003167E+02  0.00000000000E+00 0.  1.
</event>
<event>
 7    1  0.1465498E-013  0.7246096E+02  0.7816164E-02  0.1226710E+00
        -11   -1    0    0    0    0  0.00000000000E+00  0.00000000000E+00  0.45593999997E+02  0.45594000000E+02  0.51100000000E-03 0.  1.
         11   -1    0    0    0    0 -0.00000000000E+00 -0.00000000000E+00 -0.45593999997E+02  0.45594000000E+02  0.51100000000E-03 0. -1.
    9900012    2    1    2    0    0 -0.11013834828E+02 -0.10304716952E+02  0.11100006953E+02  0.72460963303E+02  0.69999209277E+02 0.  0.
         12    1    1    2    0    0  0.11013834828E+02  0.10304716952E+02 -0.11100006953E+02  0.18727036697E+02  0.00000000000E+00 0. -1.
         11    1    3    3    0    0 -0.66470315052E+01  0.11456125056E+02 -0.92339598290E+01  0.16145954401E+02  0.51100000000E-03 0. -1.
        -11    1    3    3    0    0  0.98377048070E+00 -0.36484283022E+02  0.11182136942E+02  0.38172122011E+02  0.51100000000E-03 0.  1.
         12    1    3    3    0    0 -0.53505738032E+01  0.14723441014E+02  0.91518298403E+01  0.18142886891E+02  0.00000000000E+00 0. -1.
</event>
<event>
 7    1  0.1465498E-013  0.7246157E+02  0.7816164E-02  0.1226708E+00
        -11   -1    0    0    0    0  0.00000000000E+00  0.00000000000E+00  0.45593999997E+02  0.45594000000E+02  0.51100000000E-03 0.  1.
         11   -1    0    0    0    0 -0.00000000000E+00 -0.00000000000E+00 -0.45593999997E+02  0.45594000000E+02  0.51100000000E-03 0. -1.
    9900012    2    1    2    0    0 -0.11552985483E+02 -0.26714169283E+01  0.14493836277E+02  0.72461568626E+02  0.69999997827E+02 0.  0.
         12    1    1    2    0    0  0.11552985483E+02  0.26714169283E+01 -0.14493836277E+02  0.18726431374E+02  0.00000000000E+00 0. -1.
         11    1    3    3    0    0  0.47027721745E+01  0.98868909071E+01  0.19531170633E+02  0.22390473521E+02  0.51100000000E-03 0. -1.
        -11    1    3    3    0    0 -0.60622797441E+01  0.53127149322E+01  0.17674721636E+02  0.19426063956E+02  0.51100000000E-03 0.  1.
         12    1    3    3    0    0 -0.10193477913E+02 -0.17871022768E+02 -0.22712055992E+02  0.30645031149E+02  0.00000000000E+00 0. -1.
</event>
<event>
 7    1  0.1465498E-013  0.7246154E+02  0.7816164E-02  0.1226708E+00
        -11   -1    0    0    0    0  0.00000000000E+00  0.00000000000E+00  0.45593999997E+02  0.45594000000E+02  0.51100000000E-03 0.  1.
         11   -1    0    0    0    0 -0.00000000000E+00 -0.00000000000E+00 -0.45593999997E+02  0.45594000000E+02  0.51100000000E-03 0. -1.
    9900012    2    1    2    0    0 -0.74648526745E+01  0.60131357074E+01  0.16087218758E+02  0.72461536536E+02  0.69999956024E+02 0.  0.
         12    1    1    2    0    0  0.74648526745E+01 -0.60131357074E+01 -0.16087218758E+02  0.18726463464E+02  0.00000000000E+00 0. -1.
         11    1    3    3    0    0 -0.94025690965E+01 -0.16563115345E+02 -0.70071052156E+01  0.20293955240E+02  0.51100000000E-03 0. -1.
        -11    1    3    3    0    0 -0.13066623056E+02  0.25633441643E+01  0.23658451647E+02  0.27148291032E+02  0.51100000000E-03 0.  1.
         12    1    3    3    0    0  0.15004339478E+02  0.20012906888E+02 -0.56412767281E+00  0.25019290264E+02  0.00000000000E+00 0. -1.
</event>
<event>
 7    1  0.1811530E-013  0.7246152E+02  0.7816164E-02  0.1226708E+00
        -11   -1    0    0    0    0  0.00000000000E+00  0.00000000000E+00  0.45593999997E+02  0.45594000000E+02  0.51100000000E-03 0. -1.
         11   -1    0    0    0    0 -0.00000000000E+00 -0.00000000000E+00 -0.45593999997E+02  0.45594000000E+02  0.51100000000E-03 0.  1.
    9900012    2    1    2    0    0  0.16529772505E+02  0.46906140814E+01 -0.74461835175E+01  0.72461524397E+02  0.69999940210E+02 0.  0.
         12    1    1    2    0    0 -0.16529772505E+02 -0.46906140814E+01  0.74461835175E+01  0.18726475603E+02  0.00000000000E+00 0. -1.
         11    1    3    3    0    0  0.12737252975E+02  0.68726946192E+01  0.27121439981E+02  0.30741568788E+02  0.51100000000E-03 0. -1.
        -11    1    3    3    0    0  0.35708412886E+01  0.40114327414E+01  0.11301997416E+01  0.54881555976E+01  0.51100000000E-03 0.  1.
        -12    1    3    3    0    0  0.22167824150E+00 -0.61935132792E+01 -0.35697823240E+02  0.36231800011E+02  0.00000000000E+00 0.  1.
</event>
<event>
 7    1  0.1465498E-013  0.7246160E+02  0.7816164E-02  0.1226708E+00
        -11   -1    0    0    0    0  0.00000000000E+00  0.00000000000E+00  0.45593999997E+02  0.45594000000E+02  0.51100000000E-03 0.  1.
         11   -1    0    0    0    0 -0.00000000000E+00 -0.00000000000E+00 -0.45593999997E+02  0.45594000000E+02  0.51100000000E-03 0. -1.
    9900012    2    1    2    0    0 -0.61813136622E+01 -0.75542031035E+01  0.15981345668E+02  0.72461600654E+02  0.70000039549E+02 0.  0.
         12    1    1    2    0    0  0.61813136622E+01  0.75542031035E+01 -0.15981345668E+02  0.18726399346E+02  0.00000000000E+00 0. -1.
         11    1    3    3    0    0 -0.35992593612E+01  0.16529758000E+01 -0.94047227406E+01  0.10204695342E+02  0.51100000000E-03 0. -1.
        -11    1    3    3    0    0  0.18606378154E+02 -0.23176604809E+02  0.21265619047E+02  0.36545572539E+02  0.51100000000E-03 0.  1.
         12    1    3    3    0    0 -0.21188432455E+02  0.13969425905E+02  0.41204493612E+01  0.25711332773E+02  0.00000000000E+00 0. -1.
</event>
<event>
 7    1  0.1465498E-013  0.7246158E+02  0.7816164E-02  0.1226708E+00
        -11   -1    0    0    0    0  0.00000000000E+00  0.00000000000E+00  0.45593999997E+02  0.45594000000E+02  0.51100000000E-03 0. -1.
         11   -1    0    0    0    0 -0.00000000000E+00 -0.00000000000E+00 -0.45593999997E+02  0.45594000000E+02  0.51100000000E-03 0.  1.
    9900012    2    1    2    0    0  0.26978440895E-01 -0.43070160595E+01 -0.18224371556E+02  0.72461579259E+02  0.70000011678E+02 0.  0.
         12    1    1    2    0    0 -0.26978440895E-01  0.43070160595E+01  0.18224371556E+02  0.18726420741E+02  0.00000000000E+00 0. -1.
         11    1    3    3    0    0 -0.10496066911E+02 -0.59166193488E+01 -0.14065414050E+02  0.18520520451E+02  0.51100000000E-03 0.  1.
        -11    1    3    3    0    0 -0.14113862870E+02  0.38303520595E+00  0.16534992203E+02  0.21742902485E+02  0.51100000000E-03 0. -1.
         12    1    3    3    0    0  0.24636908222E+02  0.12265680833E+01 -0.20693949708E+02  0.32198156322E+02  0.00000000000E+00 0. -1.
</event>
<event>
 7    1  0.1465498E-013  0.7246154E+02  0.7816164E-02  0.1226708E+00
        -11   -1    0    0    0    0  0.00000000000E+00  0.00000000000E+00  0.45593999997E+02  0.45594000000E+02  0.51100000000E-03 0. -1.
         11   -1    0    0    0    0 -0.00000000000E+00 -0.00000000000E+00 -0.45593999997E+02  0.45594000000E+02  0.51100000000E-03 0.  1.
    9900012    2    1    2    0    0  0.93472650101E+01  0.94249620541E+01 -0.13209050045E+02  0.72461540751E+02  0.69999961515E+02 0.  0.
         12    1    1    2    0    0 -0.93472650101E+01 -0.94249620541E+01  0.13209050045E+02  0.18726459249E+02  0.00000000000E+00 0. -1.
         11    1    3    3    0    0 -0.12964112745E+02  0.18934773425E+02 -0.86905404361E+01  0.24538120491E+02  0.51100000000E-03 0. -1.
        -11    1    3    3    0    0 -0.21077042885E+00  0.14666717131E+02 -0.13639689905E+01  0.14731511370E+02  0.51100000000E-03 0.  1.
         12    1    3    3    0    0  0.22522148184E+02 -0.24176528502E+02 -0.31545406188E+01  0.33191908890E+02  0.00000000000E+00 0. -1.
</event>
<event>
 7    1  0.1465498E-013  0.7246153E+02  0.7816164E-02  0.1226708E+00
        -11   -1    0    0    0    0  0.00000000000E+00  0.00000000000E+00  0.45593999997E+02  0.45594000000E+02  0.51100000000E-03 0.  1.
         11   -1    0    0    0    0 -0.00000000000E+00 -0.00000000000E+00 -0.45593999997E+02  0.45594000000E+02  0.51100000000E-03 0. -1.
    9900012    2    1    2    0    0 -0.11836231168E+02  0.61659952926E+01  0.13136398801E+02  0.72461525700E+02  0.69999941908E+02 0.  0.
         12    1    1    2    0    0  0.11836231168E+02 -0.61659952926E+01 -0.13136398801E+02  0.18726474300E+02  0.00000000000E+00 0. -1.
         11    1    3    3    0    0 -0.23685149145E+01 -0.16201079035E+02 -0.90601016263E+01  0.18712836945E+02  0.51100000000E-03 0. -1.
        -11    1    3    3    0    0 -0.12682575062E+02 -0.81743211843E+01 -0.12077261849E+01  0.15136903244E+02  0.51100000000E-03 0.  1.
        -12    1    3    3    0    0  0.32148588083E+01  0.30541395512E+02  0.23404226613E+02  0.38611785511E+02  0.00000000000E+00 0.  1.
</event>
<event>
 7    1  0.1465498E-013  0.7246157E+02  0.7816164E-02  0.1226708E+00
        -11   -1    0    0    0    0  0.00000000000E+00  0.00000000000E+00  0.45593999997E+02  0.45594000000E+02  0.51100000000E-03 0. -1.
         11   -1    0    0    0    0 -0.00000000000E+00 -0.00000000000E+00 -0.45593999997E+02  0.45594000000E+02  0.51100000000E-03 0.  1.
    9900012    2    1    2    0    0 -0.89016046133E+00  0.13031339708E+01 -0.18659813074E+02  0.72461570342E+02  0.70000000062E+02 0.  0.
         12    1    1    2    0    0  0.89016046133E+00 -0.13031339708E+01  0.18659813074E+02  0.18726429658E+02  0.00000000000E+00 0. -1.
         11    1    3    3    0    0  0.19978694624E+02  0.11443466007E+02  0.69360162249E+01  0.24045986661E+02  0.51100000000E-03 0. -1.
        -11    1    3    3    0    0  0.15397247844E+01 -0.16575042958E+02 -0.52015166716E+01  0.17440142701E+02  0.51100000000E-03 0.  1.
        -12    1    3    3    0    0 -0.22408579870E+02  0.64347109218E+01 -0.20394312627E+02  0.30975440981E+02  0.00000000000E+00 0.  1.
</event>
<event>
 7    1  0.1465498E-013  0.7246158E+02  0.7816164E-02  0.1226708E+00
        -11   -1    0    0    0    0  0.00000000000E+00  0.00000000000E+00  0.45593999997E+02  0.45594000000E+02  0.51100000000E-03 0. -1.
         11   -1    0    0    0    0 -0.00000000000E+00 -0.00000000000E+00 -0.45593999997E+02  0.45594000000E+02  0.51100000000E-03 0.  1.
    9900012    2    1    2    0    0  0.18183314759E+02  0.10683513329E+01 -0.43479308135E+01  0.72461579825E+02  0.70000012416E+02 0.  0.
         12    1    1    2    0    0 -0.18183314759E+02 -0.10683513329E+01  0.43479308135E+01  0.18726420175E+02  0.00000000000E+00 0. -1.
         11    1    3    3    0    0  0.79860634297E+01 -0.38706160375E+01 -0.49526782870E-01  0.88747580686E+01  0.51100000000E-03 0. -1.
        -11    1    3    3    0    0  0.11007424691E+02  0.52021797475E+01 -0.32844314395E+02  0.35028203790E+02  0.51100000000E-03 0.  1.
         12    1    3    3    0    0 -0.81017336137E+00 -0.26321237714E+00  0.28545910364E+02  0.28558617966E+02  0.00000000000E+00 0. -1.
</event>
<event>
 7    1  0.1465498E-013  0.7246163E+02  0.7816164E-02  0.1226708E+00
        -11   -1    0    0    0    0  0.00000000000E+00  0.00000000000E+00  0.45593999997E+02  0.45594000000E+02  0.51100000000E-03 0. -1.
         11   -1    0    0    0    0 -0.00000000000E+00 -0.00000000000E+00 -0.45593999997E+02  0.45594000000E+02  0.51100000000E-03 0.  1.
    9900012    2    1    2    0    0 -0.15725306717E+02  0.88478782260E+01 -0.50106449133E+01  0.72461634018E+02  0.70000083012E+02 0.  0.
         12    1    1    2    0    0  0.15725306717E+02 -0.88478782260E+01  0.50106449133E+01  0.18726365982E+02  0.00000000000E+00 0. -1.
         11    1    3    3    0    0 -0.24744211490E+02  0.99753238508E+00  0.73997350559E+01  0.25846221238E+02  0.51100000000E-03 0. -1.
        -11    1    3    3    0    0 -0.73737301380E+01  0.85154561905E+01 -0.24011212000E+02  0.26522126465E+02  0.51100000000E-03 0.  1.
         12    1    3    3    0    0  0.16392634911E+02 -0.66511034954E+00  0.11600832031E+02  0.20093286315E+02  0.00000000000E+00 0. -1.
</event>
<event>
 7    1  0.1465498E-013  0.7246158E+02  0.7816164E-02  0.1226708E+00
        -11   -1    0    0    0    0  0.00000000000E+00  0.00000000000E+00  0.45593999997E+02  0.45594000000E+02  0.51100000000E-03 0. -1.
         11   -1    0    0    0    0 -0.00000000000E+00 -0.00000000000E+00 -0.45593999997E+02  0.45594000000E+02  0.51100000000E-03 0.  1.
    9900012    2    1    2    0    0 -0.60273783249E+01 -0.46238311974E+01 -0.17116358056E+02  0.72461579693E+02  0.70000012244E+02 0.  0.
         12    1    1    2    0    0  0.60273783249E+01  0.46238311974E+01  0.17116358056E+02  0.18726420307E+02  0.00000000000E+00 0. -1.
         11    1    3    3    0    0 -0.11179002512E+02 -0.91962697413E+01 -0.13024653452E+02  0.19472623658E+02  0.51100000000E-03 0. -1.
        -11    1    3    3    0    0  0.12616951125E+02  0.35898250226E+01 -0.26380893372E+02  0.29462278166E+02  0.51100000000E-03 0.  1.
         12    1    3    3    0    0 -0.74653269382E+01  0.98261352135E+00  0.22289188768E+02  0.23526677870E+02  0.00000000000E+00 0. -1.
</event>
<event>
 7    1  0.1465498E-013  0.7246150E+02  0.7816164E-02  0.1226708E+00
        -11   -1    0    0    0    0  0.00000000000E+00  0.00000000000E+00  0.45593999997E+02  0.45594000000E+02  0.51100000000E-03 0.  1.
         11   -1    0    0    0    0 -0.00000000000E+00 -0.00000000000E+00 -0.45593999997E+02  0.45594000000E+02  0.51100000000E-03 0. -1.
    9900012    2    1    2    0    0 -0.11944988304E+02  0.10713851728E+02  0.96546565185E+01  0.72461501211E+02  0.69999910005E+02 0.  0.
         12    1    1    2    0    0  0.11944988304E+02 -0.10713851728E+02 -0.96546565185E+01  0.18726498789E+02  0.00000000000E+00 0. -1.
         11    1    3    3    0    0 -0.27231533545E+02  0.13904795323E+02 -0.14992969653E+02  0.34054205195E+02  0.51100000000E-03 0. -1.
        -11    1    3    3    0    0  0.95908010865E+01  0.10628660635E+02  0.98738886534E+01  0.17390962301E+02  0.51100000000E-03 0.  1.
        -12    1    3    3    0    0  0.56957441546E+01 -0.13819604229E+02  0.14773737518E+02  0.21016333714E+02  0.00000000000E+00 0.  1.
</event>
<event>
 7    1  0.1465498E-013  0.7246126E+02  0.7816164E-02  0.1226709E+00
        -11   -1    0    0    0    0  0.00000000000E+00  0.00000000000E+00  0.45593999997E+02  0.45594000000E+02  0.51100000000E-03 0. -1.
         11   -1    0    0    0    0 -0.00000000000E+00 -0.00000000000E+00 -0.45593999997E+02  0.45594000000E+02  0.51100000000E-03 0.  1.
    9900012    2    1    2    0    0 -0.16341053008E+02  0.80890068750E+01  0.42695240775E+01  0.72461257585E+02  0.69999592637E+02 0.  0.
         12    1    1    2    0    0  0.16341053008E+02 -0.80890068750E+01 -0.42695240775E+01  0.18726742415E+02  0.00000000000E+00 0. -1.
         11    1    3    3    0    0  0.13691864800E+02  0.19923434546E+02 -0.37316409306E+01  0.24460898392E+02  0.51100000000E-03 0. -1.
        -11    1    3    3    0    0  0.39672889090E+01 -0.12345438437E+02 -0.40172773340E+00  0.12973458171E+02  0.51100000000E-03 0.  1.
        -12    1    3    3    0    0 -0.34000206717E+02  0.51101076544E+00  0.84028927415E+01  0.35026901022E+02  0.00000000000E+00 0.  1.
</event>
<event>
 7    1  0.1465498E-013  0.7246154E+02  0.7816164E-02  0.1226708E+00
        -11   -1    0    0    0    0  0.00000000000E+00  0.00000000000E+00  0.45593999997E+02  0.45594000000E+02  0.51100000000E-03 0. -1.
         11   -1    0    0    0    0 -0.00000000000E+00 -0.00000000000E+00 -0.45593999997E+02  0.45594000000E+02  0.51100000000E-03 0.  1.
    9900012    2    1    2    0    0 -0.12013068947E+02 -0.14178712135E+02 -0.23088399413E+01  0.72461536233E+02  0.69999955629E+02 0.  0.
         12    1    1    2    0    0  0.12013068947E+02  0.14178712135E+02  0.23088399413E+01  0.18726463767E+02  0.00000000000E+00 0. -1.
         11    1    3    3    0    0 -0.61130611808E+01  0.14183970916E+02 -0.21591754179E+01  0.15595402742E+02  0.51100000000E-03 0. -1.
        -11    1    3    3    0    0 -0.84027619899E+01  0.17084956537E+01  0.19194643801E+02  0.21022837995E+02  0.51100000000E-03 0.  1.
        -12    1    3    3    0    0  0.25027542238E+01 -0.30071178705E+02 -0.19344308325E+02  0.35843295495E+02  0.00000000000E+00 0.  1.
</event>
<event>
 7    1  0.1465498E-013  0.7246156E+02  0.7816164E-02  0.1226708E+00
        -11   -1    0    0    0    0  0.00000000000E+00  0.00000000000E+00  0.45593999997E+02  0.45594000000E+02  0.51100000000E-03 0.  1.
         11   -1    0    0    0    0 -0.00000000000E+00 -0.00000000000E+00 -0.45593999997E+02  0.45594000000E+02  0.51100000000E-03 0. -1.
    9900012    2    1    2    0    0  0.18312064781E+02 -0.38134279220E+01  0.89761066128E+00  0.72461557360E+02  0.69999983150E+02 0.  0.
         12    1    1    2    0    0 -0.18312064781E+02  0.38134279220E+01 -0.89761066128E+00  0.18726442640E+02  0.00000000000E+00 0. -1.
         11    1    3    3    0    0 -0.13454785731E+02 -0.17488795586E+02  0.60988574588E+01  0.22892909223E+02  0.51100000000E-03 0. -1.
        -11    1    3    3    0    0 -0.40954125529E+01 -0.54180094196E+01 -0.58070489169E+01  0.89358294205E+01  0.51100000000E-03 0.  1.
        -12    1    3    3    0    0  0.35862263065E+02  0.19093377083E+02  0.60580211939E+00  0.40632818716E+02  0.00000000000E+00 0.  1.
</event>
<event>
 7    1  0.1465498E-013  0.7246147E+02  0.7816164E-02  0.1226708E+00
        -11   -1    0    0    0    0  0.00000000000E+00  0.00000000000E+00  0.45593999997E+02  0.45594000000E+02  0.51100000000E-03 0.  1.
         11   -1    0    0    0    0 -0.00000000000E+00 -0.00000000000E+00 -0.45593999997E+02  0.45594000000E+02  0.51100000000E-03 0. -1.
    9900012    2    1    2    0    0 -0.10647871111E+02 -0.15298369482E+02  0.18070637815E+01  0.72461474761E+02  0.69999875550E+02 0.  0.
         12    1    1    2    0    0  0.10647871111E+02  0.15298369482E+02 -0.18070637815E+01  0.18726525239E+02  0.00000000000E+00 0. -1.
         11    1    3    3    0    0 -0.58663016066E+01 -0.62896520069E+00  0.17805671666E+02  0.18757692702E+02  0.51100000000E-03 0. -1.
        -11    1    3    3    0    0 -0.98158740085E+01 -0.24953595000E+02  0.72593204610E+01  0.27780047153E+02  0.51100000000E-03 0.  1.
         12    1    3    3    0    0  0.50343045038E+01  0.10284190719E+02 -0.23257928345E+02  0.25923734907E+02  0.00000000000E+00 0. -1.
</event>
<event>
 7    1  0.1465498E-013  0.7246140E+02  0.7816164E-02  0.1226708E+00
        -11   -1    0    0    0    0  0.00000000000E+00  0.00000000000E+00  0.45593999997E+02  0.45594000000E+02  0.51100000000E-03 0.  1.
         11   -1    0    0    0    0 -0.00000000000E+00 -0.00000000000E+00 -0.45593999997E+02  0.45594000000E+02  0.51100000000E-03 0. -1.
    9900012    2    1    2    0    0  0.16063918969E+02 -0.79052076430E+01  0.54903306045E+01  0.72461400451E+02  0.69999778747E+02 0.  0.
         12    1    1    2    0    0 -0.16063918969E+02  0.79052076430E+01 -0.54903306045E+01  0.18726599549E+02  0.00000000000E+00 0. -1.
         11    1    3    3    0    0  0.60325312865E+01  0.33692674562E+01 -0.10402443101E+02  0.12488163182E+02  0.51100000000E-03 0. -1.
        -11    1    3    3    0    0 -0.13684273069E+02 -0.24535208319E+01  0.28495029719E+02  0.31705611693E+02  0.51100000000E-03 0.  1.
         12    1    3    3    0    0  0.23715660752E+02 -0.88209542673E+01 -0.12602256013E+02  0.28267625576E+02  0.00000000000E+00 0. -1.
</event>
<event>
 7    1  0.1465498E-013  0.7246158E+02  0.7816164E-02  0.1226708E+00
        -11   -1    0    0    0    0  0.00000000000E+00  0.00000000000E+00  0.45593999997E+02  0.45594000000E+02  0.51100000000E-03 0.  1.
         11   -1    0    0    0    0 -0.00000000000E+00 -0.00000000000E+00 -0.45593999997E+02  0.45594000000E+02  0.51100000000E-03 0. -1.
    9900012    2    1    2    0    0 -0.86339028886E+01 -0.16612261043E+02  0.40893849378E+00  0.72461582117E+02  0.70000015401E+02 0.  0.
         12    1    1    2    0    0  0.86339028886E+01  0.16612261043E+02 -0.40893849378E+00  0.18726417883E+02  0.00000000000E+00 0. -1.
         11    1    3    3    0    0  0.16175144509E+02  0.13454270298E+02 -0.15190088740E+02  0.25949787770E+02  0.51100000000E-03 0. -1.
        -11    1    3    3    0    0 -0.15181834932E+01  0.13408879310E+01  0.58826610906E+01  0.62216206354E+01  0.51100000000E-03 0.  1.
        -12    1    3    3    0    0 -0.23290863904E+02 -0.31407419271E+02  0.97163661431E+01  0.40290173712E+02  0.00000000000E+00 0.  1.
</event>
<event>
 7    1  0.1465498E-013  0.7246156E+02  0.7816164E-02  0.1226708E+00
        -11   -1    0    0    0    0  0.00000000000E+00  0.00000000000E+00  0.45593999997E+02  0.45594000000E+02  0.51100000000E-03 0.  1.
         11   -1    0    0    0    0 -0.00000000000E+00 -0.00000000000E+00 -0.45593999997E+02  0.45594000000E+02  0.51100000000E-03 0. -1.
    9900012    2    1    2    0    0 -0.11537463297E+02 -0.14450818265E+02  0.29564339956E+01  0.72461555868E+02  0.69999981207E+02 0.  0.
         12    1    1    2    0    0  0.11537463297E+02  0.14450818265E+02 -0.29564339956E+01  0.18726444132E+02  0.00000000000E+00 0. -1.
         11    1    3    3    0    0 -0.17002425985E+02 -0.11821224494E+02 -0.25772628331E+02  0.33061340101E+02  0.51100000000E-03 0. -1.
        -11    1    3    3    0    0  0.60408846249E+01  0.85225214093E+01  0.22826214771E+01  0.10692802219E+02  0.51100000000E-03 0.  1.
        -12    1    3    3    0    0 -0.57592193683E+00 -0.11152115180E+02  0.26446440849E+02  0.28707413549E+02  0.00000000000E+00 0.  1.
</event>
<event>
 7    1  0.1465498E-013  0.7246160E+02  0.7816164E-02  0.1226708E+00
        -11   -1    0    0    0    0  0.00000000000E+00  0.00000000000E+00  0.45593999997E+02  0.45594000000E+02  0.51100000000E-03 0. -1.
         11   -1    0    0    0    0 -0.00000000000E+00 -0.00000000000E+00 -0.45593999997E+02  0.45594000000E+02  0.51100000000E-03 0.  1.
    9900012    2    1    2    0    0 -0.37326426447E+01 -0.16759901705E+02  0.74733701235E+01  0.72461596521E+02  0.70000034165E+02 0.  0.
         12    1    1    2    0    0  0.37326426447E+01  0.16759901705E+02 -0.74733701235E+01  0.18726403479E+02  0.00000000000E+00 0. -1.
         11    1    3    3    0    0  0.74125442805E+01 -0.57128759606E+01 -0.14267680957E+01  0.94667012159E+01  0.51100000000E-03 0. -1.
        -11    1    3    3    0    0  0.47145811536E+01 -0.85560717275E+01 -0.24259931755E+02  0.26152971684E+02  0.51100000000E-03 0.  1.
         12    1    3    3    0    0 -0.15859768079E+02 -0.24909540165E+01  0.33160069974E+02  0.36841923621E+02  0.00000000000E+00 0. -1.
</event>
<event>
 7    1  0.1465498E-013  0.7246154E+02  0.7816164E-02  0.1226708E+00
        -11   -1    0    0    0    0  0.00000000000E+00  0.00000000000E+00  0.45593999997E+02  0.45594000000E+02  0.51100000000E-03 0.  1.
         11   -1    0    0    0    0 -0.00000000000E+00 -0.00000000000E+00 -0.45593999997E+02  0.45594000000E+02  0.51100000000E-03 0. -1.
    9900012    2    1    2    0    0 -0.10178527407E+01  0.71257169268E+01  0.17287815564E+02  0.72461536562E+02  0.69999956058E+02 0.  0.
         12    1    1    2    0    0  0.10178527407E+01 -0.71257169268E+01 -0.17287815564E+02  0.18726463438E+02  0.00000000000E+00 0. -1.
         11    1    3    3    0    0  0.22634191944E+02 -0.17917472978E+01  0.48508099787E+00  0.22710180694E+02  0.51100000000E-03 0. -1.
        -11    1    3    3    0    0 -0.72084391231E-01 -0.63862391673E+01 -0.93720235129E+01  0.11341255303E+02  0.51100000000E-03 0.  1.
        -12    1    3    3    0    0 -0.23579960293E+02  0.15303703392E+02  0.26174758079E+02  0.38410100565E+02  0.00000000000E+00 0.  1.
</event>
<event>
 7    1  0.1465498E-013  0.7246150E+02  0.7816164E-02  0.1226708E+00
        -11   -1    0    0    0    0  0.00000000000E+00  0.00000000000E+00  0.45593999997E+02  0.45594000000E+02  0.51100000000E-03 0.  1.
         11   -1    0    0    0    0 -0.00000000000E+00 -0.00000000000E+00 -0.45593999997E+02  0.45594000000E+02  0.51100000000E-03 0. -1.
    9900012    2    1    2    0    0 -0.17263493598E+02  0.56090711295E+01  0.46034712549E+01  0.72461499052E+02  0.69999907194E+02 0.  0.
         12    1    1    2    0    0  0.17263493598E+02 -0.56090711295E+01 -0.46034712549E+01  0.18726500948E+02  0.00000000000E+00 0. -1.
         11    1    3    3    0    0  0.11775042661E+02 -0.39655574056E+01 -0.78615016820E+01  0.14703077371E+02  0.51100000000E-03 0. -1.
        -11    1    3    3    0    0  0.51022112176E+01  0.47355881278E-01  0.20741421103E+02  0.21359806917E+02  0.51100000000E-03 0.  1.
         12    1    3    3    0    0 -0.34140747477E+02  0.95272726539E+01 -0.82764481665E+01  0.36398614764E+02  0.00000000000E+00 0. -1.
</event>
<event>
 7    1  0.1465498E-013  0.7246157E+02  0.7816164E-02  0.1226708E+00
        -11   -1    0    0    0    0  0.00000000000E+00  0.00000000000E+00  0.45593999997E+02  0.45594000000E+02  0.51100000000E-03 0.  1.
         11   -1    0    0    0    0 -0.00000000000E+00 -0.00000000000E+00 -0.45593999997E+02  0.45594000000E+02  0.51100000000E-03 0. -1.
    9900012    2    1    2    0    0 -0.98606789306E+00 -0.18288450856E+02  0.39037697250E+01  0.72461569943E+02  0.69999999542E+02 0.  0.
         12    1    1    2    0    0  0.98606789306E+00  0.18288450856E+02 -0.39037697250E+01  0.18726430057E+02  0.00000000000E+00 0. -1.
         11    1    3    3    0    0 -0.15627727334E+02  0.68072179583E+01  0.57542309250E+01  0.17990976954E+02  0.51100000000E-03 0. -1.
        -11    1    3    3    0    0 -0.77422262421E+01 -0.18923802812E+02 -0.17131049613E+02  0.26674430475E+02  0.51100000000E-03 0.  1.
        -12    1    3    3    0    0  0.22383885683E+02 -0.61718660029E+01  0.15280588414E+02  0.27796162514E+02  0.00000000000E+00 0.  1.
</event>
<event>
 7    1  0.1465498E-013  0.7246151E+02  0.7816164E-02  0.1226708E+00
        -11   -1    0    0    0    0  0.00000000000E+00  0.00000000000E+00  0.45593999997E+02  0.45594000000E+02  0.51100000000E-03 0.  1.
         11   -1    0    0    0    0 -0.00000000000E+00 -0.00000000000E+00 -0.45593999997E+02  0.45594000000E+02  0.51100000000E-03 0. -1.
    9900012    2    1    2    0    0  0.95445423410E+01 -0.27969842936E+01  0.15866948266E+02  0.72461509220E+02  0.69999920439E+02 0.  0.
         12    1    1    2    0    0 -0.95445423410E+01  0.27969842936E+01 -0.15866948266E+02  0.18726490780E+02  0.00000000000E+00 0. -1.
         11    1    3    3    0    0  0.14527070901E+02 -0.22875649585E+01 -0.11652957565E+02  0.18763266312E+02  0.51100000000E-03 0. -1.
        -11    1    3    3    0    0  0.19066607793E+02 -0.55683447111E+00  0.21821514525E+02  0.28983169147E+02  0.51100000000E-03 0.  1.
         12    1    3    3    0    0 -0.24049136354E+02  0.47415135954E-01  0.56983913060E+01  0.24715073761E+02  0.00000000000E+00 0. -1.
</event>
<event>
 7    1  0.1465498E-013  0.7246167E+02  0.7816164E-02  0.1226708E+00
        -11   -1    0    0    0    0  0.00000000000E+00  0.00000000000E+00  0.45593999997E+02  0.45594000000E+02  0.51100000000E-03 0.  1.
         11   -1    0    0    0    0 -0.00000000000E+00 -0.00000000000E+00 -0.45593999997E+02  0.45594000000E+02  0.51100000000E-03 0. -1.
    9900012    2    1    2    0    0 -0.12210452252E+00  0.43595800524E+01  0.18211384620E+02  0.72461671542E+02  0.70000131894E+02 0.  0.
         12    1    1    2    0    0  0.12210452252E+00 -0.43595800524E+01 -0.18211384620E+02  0.18726328458E+02  0.00000000000E+00 0. -1.
         11    1    3    3    0    0  0.22043862775E+02 -0.73080590099E+01 -0.80428706876E+00  0.23237609397E+02  0.51100000000E-03 0. -1.
        -11    1    3    3    0    0  0.47272946749E+01  0.17587648607E+01 -0.82475209658E+01  0.96675835203E+01  0.51100000000E-03 0.  1.
        -12    1    3    3    0    0 -0.26893261973E+02  0.99088742017E+01  0.27263192654E+02  0.39556478625E+02  0.00000000000E+00 0.  1.
</event>
<event>
 7    1  0.1465498E-013  0.7246156E+02  0.7816164E-02  0.1226708E+00
        -11   -1    0    0    0    0  0.00000000000E+00  0.00000000000E+00  0.45593999997E+02  0.45594000000E+02  0.51100000000E-03 0.  1.
         11   -1    0    0    0    0 -0.00000000000E+00 -0.00000000000E+00 -0.45593999997E+02  0.45594000000E+02  0.51100000000E-03 0. -1.
    9900012    2    1    2    0    0  0.11472730284E+02 -0.84300945986E+01  0.12165097426E+02  0.72461557986E+02  0.69999983966E+02 0.  0.
         12    1    1    2    0    0 -0.11472730284E+02  0.84300945986E+01 -0.12165097426E+02  0.18726442014E+02  0.00000000000E+00 0. -1.
         11    1    3    3    0    0  0.31140127309E+02 -0.81165551011E+01  0.21736735203E+01  0.32253850194E+02  0.51100000000E-03 0. -1.
        -11    1    3    3    0    0  0.81338501825E+01  0.63791664480E+01  0.31314284444E+01  0.10800885507E+02  0.51100000000E-03 0.  1.
        -12    1    3    3    0    0 -0.27801247208E+02 -0.66927059455E+01  0.68599954618E+01  0.29406822285E+02  0.00000000000E+00 0.  1.
</event>
<event>
 7    1  0.1465498E-013  0.7246168E+02  0.7816164E-02  0.1226708E+00
        -11   -1    0    0    0    0  0.00000000000E+00  0.00000000000E+00  0.45593999997E+02  0.45594000000E+02  0.51100000000E-03 0. -1.
         11   -1    0    0    0    0 -0.00000000000E+00 -0.00000000000E+00 -0.45593999997E+02  0.45594000000E+02  0.51100000000E-03 0.  1.
    9900012    2    1    2    0    0 -0.88595611781E+01  0.13503773280E+02 -0.94779334883E+01  0.72461683216E+02  0.70000147102E+02 0.  0.
         12    1    1    2    0    0  0.88595611781E+01 -0.13503773280E+02  0.94779334883E+01  0.18726316784E+02  0.00000000000E+00 0. -1.
         11    1    3    3    0    0  0.41376861252E+01  0.31111138196E+00 -0.11194778698E+01  0.42977282051E+01  0.51100000000E-03 0. -1.
        -11    1    3    3    0    0 -0.44050800937E+01 -0.17897511508E+02  0.18555943138E+02  0.26154324209E+02  0.51100000000E-03 0.  1.
        -12    1    3    3    0    0 -0.85921672096E+01  0.31090173406E+02 -0.26914398756E+02  0.42009630803E+02  0.00000000000E+00 0.  1.
</event>
<event>
 7    1  0.1465498E-013  0.7246160E+02  0.7816164E-02  0.1226708E+00
        -11   -1    0    0    0    0  0.00000000000E+00  0.00000000000E+00  0.45593999997E+02  0.45594000000E+02  0.51100000000E-03 0. -1.
         11   -1    0    0    0    0 -0.00000000000E+00 -0.00000000000E+00 -0.45593999997E+02  0.45594000000E+02  0.51100000000E-03 0.  1.
    9900012    2    1    2    0    0  0.43472772401E+01  0.18061886218E+02  0.23552813513E+01  0.72461604100E+02  0.70000044038E+02 0.  0.
         12    1    1    2    0    0 -0.43472772401E+01 -0.18061886218E+02 -0.23552813513E+01  0.18726395900E+02  0.00000000000E+00 0. -1.
         11    1    3    3    0    0  0.15612938540E+02  0.17012338699E+02  0.60478973472E+01  0.23869658155E+02  0.51100000000E-03 0. -1.
        -11    1    3    3    0    0  0.25119595785E-03  0.44080155249E+01  0.20886274805E+02  0.21346359794E+02  0.51100000000E-03 0.  1.
        -12    1    3    3    0    0 -0.11265912496E+02 -0.33584680055E+01 -0.24578890801E+02  0.27245586151E+02  0.00000000000E+00 0.  1.
</event>
<event>
 7    1  0.1465498E-013  0.7246152E+02  0.7816164E-02  0.1226708E+00
        -11   -1    0    0    0    0  0.00000000000E+00  0.00000000000E+00  0.45593999997E+02  0.45594000000E+02  0.51100000000E-03 0. -1.
         11   -1    0    0    0    0 -0.00000000000E+00 -0.00000000000E+00 -0.45593999997E+02  0.45594000000E+02  0.51100000000E-03 0.  1.
    9900012    2    1    2    0    0  0.12436613826E+02 -0.69186940840E+01 -0.12171415488E+02  0.72461520185E+02  0.69999934723E+02 0.  0.
         12    1    1    2    0    0 -0.12436613826E+02  0.69186940840E+01  0.12171415488E+02  0.18726479815E+02  0.00000000000E+00 0. -1.
         11    1    3    3    0    0  0.27283610816E+02 -0.12347402719E+02 -0.13976341587E+02  0.33048326697E+02  0.51100000000E-03 0.  1.
        -11    1    3    3    0    0  0.10427983939E+02  0.17076358842E+01  0.78459712320E+01  0.13161236043E+02  0.51100000000E-03 0. -1.
         12    1    3    3    0    0 -0.25274980929E+02  0.37210727506E+01 -0.60410451328E+01  0.26251957445E+02  0.00000000000E+00 0. -1.
</event>
<event>
 7    1  0.1465498E-013  0.7246112E+02  0.7816164E-02  0.1226709E+00
        -11   -1    0    0    0    0  0.00000000000E+00  0.00000000000E+00  0.45593999997E+02  0.45594000000E+02  0.51100000000E-03 0.  1.
         11   -1    0    0    0    0 -0.00000000000E+00 -0.00000000000E+00 -0.45593999997E+02  0.45594000000E+02  0.51100000000E-03 0. -1.
    9900012    2    1    2    0    0  0.15667226313E+01 -0.93945679889E+00  0.18637560969E+02  0.72461124186E+02  0.69999418859E+02 0.  0.
         12    1    1    2    0    0 -0.15667226313E+01  0.93945679889E+00 -0.18637560969E+02  0.18726875814E+02  0.00000000000E+00 0. -1.
         11    1    3    3    0    0 -0.28071791868E+01  0.82547728039E+00 -0.20102354704E+00  0.29329300119E+01  0.51100000000E-03 0. -1.
        -11    1    3    3    0    0 -0.17858674409E+02 -0.45115169530E+00  0.36806310182E+02  0.40912592914E+02  0.51100000000E-03 0.  1.
         12    1    3    3    0    0  0.22232576227E+02 -0.13137823840E+01 -0.17967725667E+02  0.28615601260E+02  0.00000000000E+00 0. -1.
</event>
<event>
 7    1  0.1465498E-013  0.7246155E+02  0.7816164E-02  0.1226708E+00
        -11   -1    0    0    0    0  0.00000000000E+00  0.00000000000E+00  0.45593999997E+02  0.45594000000E+02  0.51100000000E-03 0. -1.
         11   -1    0    0    0    0 -0.00000000000E+00 -0.00000000000E+00 -0.45593999997E+02  0.45594000000E+02  0.51100000000E-03 0.  1.
    9900012    2    1    2    0    0 -0.17639822802E+02  0.31780504540E+00 -0.62781798938E+01  0.72461551022E+02  0.69999974895E+02 0.  0.
         12    1    1    2    0    0  0.17639822802E+02 -0.31780504540E+00  0.62781798938E+01  0.18726448978E+02  0.00000000000E+00 0. -1.
         11    1    3    3    0    0  0.17078319141E+02  0.45991697163E+01 -0.14442710991E+02  0.22834474984E+02  0.51100000000E-03 0. -1.
        -11    1    3    3    0    0  0.12336089359E+00 -0.50370372825E+01 -0.93519263264E+01  0.10622875730E+02  0.51100000000E-03 0.  1.
         12    1    3    3    0    0 -0.34841502837E+02  0.75567261160E+00  0.17516457424E+02  0.39004200308E+02  0.00000000000E+00 0. -1.
</event>
<event>
 7    1  0.1465498E-013  0.7246157E+02  0.7816164E-02  0.1226708E+00
        -11   -1    0    0    0    0  0.00000000000E+00  0.00000000000E+00  0.45593999997E+02  0.45594000000E+02  0.51100000000E-03 0. -1.
         11   -1    0    0    0    0 -0.00000000000E+00 -0.00000000000E+00 -0.45593999997E+02  0.45594000000E+02  0.51100000000E-03 0.  1.
    9900012    2    1    2    0    0  0.74938849123E+00 -0.98419825605E+01 -0.15913922605E+02  0.72461571176E+02  0.70000001148E+02 0.  0.
         12    1    1    2    0    0 -0.74938849123E+00  0.98419825605E+01  0.15913922605E+02  0.18726428824E+02  0.00000000000E+00 0. -1.
         11    1    3    3    0    0 -0.20429419066E+02  0.18411800101E+02 -0.15545938065E+02  0.31591640302E+02  0.51100000000E-03 0. -1.
        -11    1    3    3    0    0 -0.38121846194E+01 -0.15065756494E+01 -0.11456262043E+01  0.42561698064E+01  0.51100000000E-03 0.  1.
        -12    1    3    3    0    0  0.24990992177E+02 -0.26747207013E+02  0.77764166475E+00  0.36613761068E+02  0.00000000000E+00 0.  1.
</event>
<event>
 7    1  0.1465498E-013  0.7246156E+02  0.7816164E-02  0.1226708E+00
        -11   -1    0    0    0    0  0.00000000000E+00  0.00000000000E+00  0.45593999997E+02  0.45594000000E+02  0.51100000000E-03 0. -1.
         11   -1    0    0    0    0 -0.00000000000E+00 -0.00000000000E+00 -0.45593999997E+02  0.45594000000E+02  0.51100000000E-03 0.  1.
    9900012    2    1    2    0    0 -0.48925393528E+01  0.90213027233E+01 -0.15663935825E+02  0.72461555338E+02  0.69999980517E+02 0.  0.
         12    1    1    2    0    0  0.48925393528E+01 -0.90213027233E+01  0.15663935825E+02  0.18726444662E+02  0.00000000000E+00 0. -1.
         11    1    3    3    0    0 -0.25697940697E+02  0.51054041500E+01  0.98702803669E+01  0.27997709591E+02  0.51100000000E-03 0. -1.
        -11    1    3    3    0    0  0.11199301844E+02 -0.10276847775E+02 -0.19707916059E+01  0.15327164832E+02  0.51100000000E-03 0.  1.
        -12    1    3    3    0    0  0.96060995002E+01  0.14192746348E+02 -0.23563424586E+02  0.29136680915E+02  0.00000000000E+00 0.  1.
</event>
<event>
 7    1  0.1465498E-013  0.7246157E+02  0.7816164E-02  0.1226708E+00
        -11   -1    0    0    0    0  0.00000000000E+00  0.00000000000E+00  0.45593999997E+02  0.45594000000E+02  0.51100000000E-03 0.  1.
         11   -1    0    0    0    0 -0.00000000000E+00 -0.00000000000E+00 -0.45593999997E+02  0.45594000000E+02  0.51100000000E-03 0. -1.
    9900012    2    1    2    0    0 -0.95732936925E+01  0.16086600712E+02 -0.50243228174E+00  0.72461571809E+02  0.70000001973E+02 0.  0.
         12    1    1    2    0    0  0.95732936925E+01 -0.16086600712E+02  0.50243228174E+00  0.18726428191E+02  0.00000000000E+00 0. -1.
         11    1    3    3    0    0  0.28937522289E+01 -0.19697484200E+01 -0.42497038393E+01  0.55057872991E+01  0.51100000000E-03 0. -1.
        -11    1    3    3    0    0  0.14880415743E+02 -0.16048853839E+02  0.73622773189E+01  0.23091028773E+02  0.51100000000E-03 0.  1.
         12    1    3    3    0    0 -0.27347461664E+02  0.34105202971E+02 -0.36150057614E+01  0.43864755737E+02  0.00000000000E+00 0. -1.
</event>
<event>
 7    1  0.1465498E-013  0.7246157E+02  0.7816164E-02  0.1226708E+00
        -11   -1    0    0    0    0  0.00000000000E+00  0.00000000000E+00  0.45593999997E+02  0.45594000000E+02  0.51100000000E-03 0. -1.
         11   -1    0    0    0    0 -0.00000000000E+00 -0.00000000000E+00 -0.45593999997E+02  0.45594000000E+02  0.51100000000E-03 0.  1.
    9900012    2    1    2    0    0 -0.15998643006E+02 -0.73367866768E+00 -0.97048522340E+01  0.72461574305E+02  0.70000005225E+02 0.  0.
         12    1    1    2    0    0  0.15998643006E+02  0.73367866768E+00  0.97048522340E+01  0.18726425695E+02  0.00000000000E+00 0. -1.
         11    1    3    3    0    0 -0.19388346035E+02 -0.17230043494E+02 -0.20245541653E+01  0.26016940262E+02  0.51100000000E-03 0. -1.
        -11    1    3    3    0    0 -0.18370762152E+01 -0.13272313983E+02 -0.90841604004E+01  0.16187993635E+02  0.51100000000E-03 0.  1.
         12    1    3    3    0    0  0.52267792439E+01  0.29768678810E+02  0.14038623317E+01  0.30256640408E+02  0.00000000000E+00 0. -1.
</event>
<event>
 7    1  0.1465498E-013  0.7246156E+02  0.7816164E-02  0.1226708E+00
        -11   -1    0    0    0    0  0.00000000000E+00  0.00000000000E+00  0.45593999997E+02  0.45594000000E+02  0.51100000000E-03 0. -1.
         11   -1    0    0    0    0 -0.00000000000E+00 -0.00000000000E+00 -0.45593999997E+02  0.45594000000E+02  0.51100000000E-03 0.  1.
    9900012    2    1    2    0    0 -0.16685214290E+02 -0.68977033399E+01  0.49703806767E+01  0.72461564905E+02  0.69999992980E+02 0.  0.
         12    1    1    2    0    0  0.16685214290E+02  0.68977033399E+01 -0.49703806767E+01  0.18726435095E+02  0.00000000000E+00 0. -1.
         11    1    3    3    0    0 -0.22193186028E+02 -0.11078411128E+02 -0.54790353289E+00  0.24810660969E+02  0.51100000000E-03 0. -1.
        -11    1    3    3    0    0  0.21478452707E+02 -0.88708321243E+01 -0.60366466402E+01  0.24009512618E+02  0.51100000000E-03 0.  1.
         12    1    3    3    0    0 -0.15970480969E+02  0.13051539913E+02  0.11554930850E+02  0.23641391317E+02  0.00000000000E+00 0. -1.
</event>
<event>
 7    1  0.1465498E-013  0.7246159E+02  0.7816164E-02  0.1226708E+00
        -11   -1    0    0    0    0  0.00000000000E+00  0.00000000000E+00  0.45593999997E+02  0.45594000000E+02  0.51100000000E-03 0. -1.
         11   -1    0    0    0    0 -0.00000000000E+00 -0.00000000000E+00 -0.45593999997E+02  0.45594000000E+02  0.51100000000E-03 0.  1.
    9900012    2    1    2    0    0  0.10813959489E+01 -0.11064217116E+02 -0.15069576090E+02  0.72461589743E+02  0.70000025335E+02 0.  0.
         12    1    1    2    0    0 -0.10813959489E+01  0.11064217116E+02  0.15069576090E+02  0.18726410257E+02  0.00000000000E+00 0. -1.
         11    1    3    3    0    0 -0.14621730171E+02 -0.12365772948E+02 -0.99945324630E+01  0.21600879918E+02  0.51100000000E-03 0. -1.
        -11    1    3    3    0    0 -0.61905147708E+01 -0.19444028451E+02 -0.10597892910E+01  0.20433205063E+02  0.51100000000E-03 0.  1.
         12    1    3    3    0    0  0.21893640891E+02  0.20745584283E+02 -0.40152543357E+01  0.30427504763E+02  0.00000000000E+00 0. -1.
</event>
<event>
 7    1  0.1465498E-013  0.7246153E+02  0.7816164E-02  0.1226708E+00
        -11   -1    0    0    0    0  0.00000000000E+00  0.00000000000E+00  0.45593999997E+02  0.45594000000E+02  0.51100000000E-03 0.  1.
         11   -1    0    0    0    0 -0.00000000000E+00 -0.00000000000E+00 -0.45593999997E+02  0.45594000000E+02  0.51100000000E-03 0. -1.
    9900012    2    1    2    0    0  0.13126199285E+02 -0.10067952447E+02  0.87760885967E+01  0.72461534631E+02  0.69999953542E+02 0.  0.
         12    1    1    2    0    0 -0.13126199285E+02  0.10067952447E+02 -0.87760885967E+01  0.18726465369E+02  0.00000000000E+00 0. -1.
         11    1    3    3    0    0 -0.67448308766E+00  0.13538032494E+01  0.90953255192E+00  0.17649250403E+01  0.51100000000E-03 0. -1.
        -11    1    3    3    0    0 -0.22280619796E+02 -0.16031101498E+02 -0.11178938944E+02  0.29637660331E+02  0.51100000000E-03 0.  1.
        -12    1    3    3    0    0  0.36081302169E+02  0.46093458016E+01  0.19045494989E+02  0.41058949260E+02  0.00000000000E+00 0.  1.
</event>
<event>
 7    1  0.1465498E-013  0.7246130E+02  0.7816164E-02  0.1226709E+00
        -11   -1    0    0    0    0  0.00000000000E+00  0.00000000000E+00  0.45593999997E+02  0.45594000000E+02  0.51100000000E-03 0.  1.
         11   -1    0    0    0    0 -0.00000000000E+00 -0.00000000000E+00 -0.45593999997E+02  0.45594000000E+02  0.51100000000E-03 0. -1.
    9900012    2    1    2    0    0 -0.52254154588E+00 -0.16810390665E+02  0.82357142152E+01  0.72461300541E+02  0.69999648596E+02 0.  0.
         12    1    1    2    0    0  0.52254154588E+00  0.16810390665E+02 -0.82357142152E+01  0.18726699459E+02  0.00000000000E+00 0. -1.
         11    1    3    3    0    0 -0.11932844560E+02 -0.23207773725E+02 -0.11602308875E+01  0.26121632348E+02  0.51100000000E-03 0.  1.
        -11    1    3    3    0    0 -0.64823801571E+01 -0.13017298416E+02  0.13230968518E+02  0.19660362121E+02  0.51100000000E-03 0. -1.
         12    1    3    3    0    0  0.17892683171E+02  0.19414681476E+02 -0.38350234151E+01  0.26679306072E+02  0.00000000000E+00 0. -1.
</event>
<event>
 7    1  0.1465498E-013  0.7246162E+02  0.7816164E-02  0.1226708E+00
        -11   -1    0    0    0    0  0.00000000000E+00  0.00000000000E+00  0.45593999997E+02  0.45594000000E+02  0.51100000000E-03 0.  1.
         11   -1    0    0    0    0 -0.00000000000E+00 -0.00000000000E+00 -0.45593999997E+02  0.45594000000E+02  0.51100000000E-03 0. -1.
    9900012    2    1    2    0    0  0.76088195563E+01 -0.25816297618E+01  0.16915033500E+02  0.72461620063E+02  0.70000064832E+02 0.  0.
         12    1    1    2    0    0 -0.76088195563E+01  0.25816297618E+01 -0.16915033500E+02  0.18726379937E+02  0.00000000000E+00 0. -1.
         11    1    3    3    0    0 -0.12758314368E+02  0.14369059958E+02  0.61627504267E+01  0.20179790947E+02  0.51100000000E-03 0. -1.
        -11    1    3    3    0    0  0.65383106070E+01 -0.15011136150E+02  0.26552728233E+02  0.31195049142E+02  0.51100000000E-03 0.  1.
         12    1    3    3    0    0  0.13828823317E+02 -0.19395535692E+01 -0.15800445160E+02  0.21086779973E+02  0.00000000000E+00 0. -1.
</event>
<event>
 7    1  0.1465498E-013  0.7246161E+02  0.7816164E-02  0.1226708E+00
        -11   -1    0    0    0    0  0.00000000000E+00  0.00000000000E+00  0.45593999997E+02  0.45594000000E+02  0.51100000000E-03 0.  1.
         11   -1    0    0    0    0 -0.00000000000E+00 -0.00000000000E+00 -0.45593999997E+02  0.45594000000E+02  0.51100000000E-03 0. -1.
    9900012    2    1    2    0    0 -0.17906400471E+02 -0.38333083835E+01 -0.39171515513E+01  0.72461614677E+02  0.70000057817E+02 0.  0.
         12    1    1    2    0    0  0.17906400471E+02  0.38333083835E+01  0.39171515513E+01  0.18726385323E+02  0.00000000000E+00 0. -1.
         11    1    3    3    0    0  0.10436825073E+02 -0.20789684304E+01  0.11435837087E+01  0.10703140254E+02  0.51100000000E-03 0. -1.
        -11    1    3    3    0    0  0.58911155865E+01 -0.73181535255E+01  0.17863744119E+02  0.20183507329E+02  0.51100000000E-03 0.  1.
        -12    1    3    3    0    0 -0.34234341130E+02  0.55638135725E+01 -0.22924479379E+02  0.41574967094E+02  0.00000000000E+00 0.  1.
</event>
<event>
 7    1  0.1465498E-013  0.7246159E+02  0.7816164E-02  0.1226708E+00
        -11   -1    0    0    0    0  0.00000000000E+00  0.00000000000E+00  0.45593999997E+02  0.45594000000E+02  0.51100000000E-03 0. -1.
         11   -1    0    0    0    0 -0.00000000000E+00 -0.00000000000E+00 -0.45593999997E+02  0.45594000000E+02  0.51100000000E-03 0.  1.
    9900012    2    1    2    0    0  0.68342980321E+00  0.17095687794E+02 -0.76124240851E+01  0.72461585023E+02  0.70000019187E+02 0.  0.
         12    1    1    2    0    0 -0.68342980321E+00 -0.17095687794E+02  0.76124240851E+01  0.18726414977E+02  0.00000000000E+00 0. -1.
         11    1    3    3    0    0 -0.75951761570E+01 -0.97456957182E+00 -0.12397160378E+02  0.14571412849E+02  0.51100000000E-03 0. -1.
        -11    1    3    3    0    0  0.61761100336E+01  0.12835768625E+02 -0.24352179600E+02  0.28212230378E+02  0.51100000000E-03 0.  1.
        -12    1    3    3    0    0  0.21024959266E+01  0.52344887407E+01  0.29136915893E+02  0.29677941797E+02  0.00000000000E+00 0.  1.
</event>
<event>
 7    1  0.1465498E-013  0.7246153E+02  0.7816164E-02  0.1226708E+00
        -11   -1    0    0    0    0  0.00000000000E+00  0.00000000000E+00  0.45593999997E+02  0.45594000000E+02  0.51100000000E-03 0.  1.
         11   -1    0    0    0    0 -0.00000000000E+00 -0.00000000000E+00 -0.45593999997E+02  0.45594000000E+02  0.51100000000E-03 0. -1.
    9900012    2    1    2    0    0 -0.35616557170E+01  0.16629231274E+02  0.78398990050E+01  0.72461528345E+02  0.69999945354E+02 0.  0.
         12    1    1    2    0    0  0.35616557170E+01 -0.16629231274E+02 -0.78398990050E+01  0.18726471655E+02  0.00000000000E+00 0. -1.
         11    1    3    3    0    0 -0.24933149932E+02  0.18304995614E+02  0.10650805298E+02  0.32713521420E+02  0.51100000000E-03 0. -1.
        -11    1    3    3    0    0  0.19619416347E+02  0.13774199703E+02 -0.14602138788E+00  0.23972304807E+02  0.51100000000E-03 0.  1.
         12    1    3    3    0    0  0.17520778687E+01 -0.15449964042E+02 -0.26648849047E+01  0.15775702118E+02  0.00000000000E+00 0. -1.
</event>
<event>
 7    1  0.1465498E-013  0.7246152E+02  0.7816164E-02  0.1226708E+00
        -11   -1    0    0    0    0  0.00000000000E+00  0.00000000000E+00  0.45593999997E+02  0.45594000000E+02  0.51100000000E-03 0.  1.
         11   -1    0    0    0    0 -0.00000000000E+00 -0.00000000000E+00 -0.45593999997E+02  0.45594000000E+02  0.51100000000E-03 0. -1.
    9900012    2    1    2    0    0  0.13451595487E+02  0.71116023579E+01  0.10916079315E+02  0.72461518834E+02  0.69999932964E+02 0.  0.
         12    1    1    2    0    0 -0.13451595487E+02 -0.71116023579E+01 -0.10916079315E+02  0.18726481166E+02  0.00000000000E+00 0. -1.
         11    1    3    3    0    0 -0.13929156769E+02  0.28448859987E+01 -0.13194957727E+01  0.14277809846E+02  0.51100000000E-03 0. -1.
        -11    1    3    3    0    0  0.92463929988E+01  0.21711302251E+02  0.20948616695E+02  0.31555046674E+02  0.51100000000E-03 0.  1.
         12    1    3    3    0    0  0.18134359257E+02 -0.17444585892E+02 -0.87130416068E+01  0.26628662314E+02  0.00000000000E+00 0. -1.
</event>
<event>
 7    1  0.1465498E-013  0.7246159E+02  0.7816164E-02  0.1226708E+00
        -11   -1    0    0    0    0  0.00000000000E+00  0.00000000000E+00  0.45593999997E+02  0.45594000000E+02  0.51100000000E-03 0.  1.
         11   -1    0    0    0    0 -0.00000000000E+00 -0.00000000000E+00 -0.45593999997E+02  0.45594000000E+02  0.51100000000E-03 0. -1.
    9900012    2    1    2    0    0  0.15415451946E+02 -0.18200659746E+01  0.10475184246E+02  0.72461593942E+02  0.70000030805E+02 0.  0.
         12    1    1    2    0    0 -0.15415451946E+02  0.18200659746E+01 -0.10475184246E+02  0.18726406058E+02  0.00000000000E+00 0. -1.
         11    1    3    3    0    0  0.15180079556E+02 -0.18897703164E+02 -0.19424750773E+01  0.24317302685E+02  0.51100000000E-03 0. -1.
        -11    1    3    3    0    0  0.15020084956E+02  0.25202981230E+02  0.52078830196E+01  0.29797906987E+02  0.51100000000E-03 0.  1.
         12    1    3    3    0    0 -0.14784712566E+02 -0.81253440405E+01  0.72097763038E+01  0.18346384270E+02  0.00000000000E+00 0. -1.
</event>
<event>
 7    1  0.1465498E-013  0.7246158E+02  0.7816164E-02  0.1226708E+00
        -11   -1    0    0    0    0  0.00000000000E+00  0.00000000000E+00  0.45593999997E+02  0.45594000000E+02  0.51100000000E-03 0. -1.
         11   -1    0    0    0    0 -0.00000000000E+00 -0.00000000000E+00 -0.45593999997E+02  0.45594000000E+02  0.51100000000E-03 0.  1.
    9900012    2    1    2    0    0 -0.15537933362E+02  0.20232742277E+01 -0.10254655190E+02  0.72461575760E+02  0.70000007120E+02 0.  0.
         12    1    1    2    0    0  0.15537933362E+02 -0.20232742277E+01  0.10254655190E+02  0.18726424240E+02  0.00000000000E+00 0. -1.
         11    1    3    3    0    0 -0.34231163359E+01 -0.12004900236E+01  0.41268572734E+01  0.54945293667E+01  0.51100000000E-03 0. -1.
        -11    1    3    3    0    0  0.72870808797E+01 -0.30822972364E+00  0.23312016110E+02  0.24426351523E+02  0.51100000000E-03 0.  1.
        -12    1    3    3    0    0 -0.19401897905E+02  0.35319939749E+01 -0.37693528574E+02  0.42540694871E+02  0.00000000000E+00 0.  1.
</event>
<event>
 7    1  0.1465498E-013  0.7246158E+02  0.7816164E-02  0.1226708E+00
        -11   -1    0    0    0    0  0.00000000000E+00  0.00000000000E+00  0.45593999997E+02  0.45594000000E+02  0.51100000000E-03 0. -1.
         11   -1    0    0    0    0 -0.00000000000E+00 -0.00000000000E+00 -0.45593999997E+02  0.45594000000E+02  0.51100000000E-03 0.  1.
    9900012    2    1    2    0    0  0.10305417693E+02 -0.20294004174E+01 -0.15503501247E+02  0.72461584144E+02  0.70000018042E+02 0.  0.
         12    1    1    2    0    0 -0.10305417693E+02  0.20294004174E+01  0.15503501247E+02  0.18726415856E+02  0.00000000000E+00 0. -1.
         11    1    3    3    0    0 -0.13079019835E+02 -0.13842543243E+02  0.66216762924E+01  0.20162424469E+02  0.51100000000E-03 0.  1.
        -11    1    3    3    0    0 -0.60940374161E+01  0.13912100380E+02  0.31558927643E+00  0.15191557717E+02  0.51100000000E-03 0. -1.
         12    1    3    3    0    0  0.29478474944E+02 -0.20989575542E+01 -0.22440766816E+02  0.37107601959E+02  0.00000000000E+00 0. -1.
</event>
<event>
 7    1  0.1465498E-013  0.7246165E+02  0.7816164E-02  0.1226708E+00
        -11   -1    0    0    0    0  0.00000000000E+00  0.00000000000E+00  0.45593999997E+02  0.45594000000E+02  0.51100000000E-03 0. -1.
         11   -1    0    0    0    0 -0.00000000000E+00 -0.00000000000E+00 -0.45593999997E+02  0.45594000000E+02  0.51100000000E-03 0.  1.
    9900012    2    1    2    0    0 -0.10681563912E+02  0.48573045584E+01 -0.14594067885E+02  0.72461654051E+02  0.70000109108E+02 0.  0.
         12    1    1    2    0    0  0.10681563912E+02 -0.48573045584E+01  0.14594067885E+02  0.18726345949E+02  0.00000000000E+00 0. -1.
         11    1    3    3    0    0 -0.44491801124E+01 -0.48392161051E+00  0.38658246135E+01  0.59138806211E+01  0.51100000000E-03 0. -1.
        -11    1    3    3    0    0 -0.27188096139E+02  0.18332995699E+02  0.42012075023E+01  0.33059664967E+02  0.51100000000E-03 0.  1.
         12    1    3    3    0    0  0.20955712339E+02 -0.12991769531E+02 -0.22661100001E+02  0.33488108463E+02  0.00000000000E+00 0. -1.
</event>
<event>
 7    1  0.1465498E-013  0.7246155E+02  0.7816164E-02  0.1226708E+00
        -11   -1    0    0    0    0  0.00000000000E+00  0.00000000000E+00  0.45593999997E+02  0.45594000000E+02  0.51100000000E-03 0.  1.
         11   -1    0    0    0    0 -0.00000000000E+00 -0.00000000000E+00 -0.45593999997E+02  0.45594000000E+02  0.51100000000E-03 0. -1.
    9900012    2    1    2    0    0 -0.15361530161E+02  0.58768247699E+01 -0.89535563907E+01  0.72461552118E+02  0.69999976321E+02 0.  0.
         12    1    1    2    0    0  0.15361530161E+02 -0.58768247699E+01  0.89535563907E+01  0.18726447882E+02  0.00000000000E+00 0. -1.
         11    1    3    3    0    0  0.17721777669E+02  0.36184623530E+01 -0.22913799392E+02  0.29192411281E+02  0.51100000000E-03 0. -1.
        -11    1    3    3    0    0 -0.21893790579E+01 -0.96071027003E+00 -0.59241619083E+01  0.63884301247E+01  0.51100000000E-03 0.  1.
        -12    1    3    3    0    0 -0.30893928772E+02  0.32190726869E+01  0.19884404910E+02  0.36880710711E+02  0.00000000000E+00 0.  1.
</event>
<event>
 7    1  0.1465498E-013  0.7246177E+02  0.7816164E-02  0.1226707E+00
        -11   -1    0    0    0    0  0.00000000000E+00  0.00000000000E+00  0.45593999997E+02  0.45594000000E+02  0.51100000000E-03 0.  1.
         11   -1    0    0    0    0 -0.00000000000E+00 -0.00000000000E+00 -0.45593999997E+02  0.45594000000E+02  0.51100000000E-03 0. -1.
    9900012    2    1    2    0    0  0.57741935639E+01 -0.14456175505E+02  0.10409092929E+02  0.72461774082E+02  0.70000265470E+02 0.  0.
         12    1    1    2    0    0 -0.57741935639E+01  0.14456175505E+02 -0.10409092929E+02  0.18726225918E+02  0.00000000000E+00 0. -1.
         11    1    3    3    0    0 -0.65087922861E+01 -0.19651327476E+02  0.24494242628E+01  0.20845592533E+02  0.51100000000E-03 0. -1.
        -11    1    3    3    0    0  0.26082438722E+02 -0.10887757614E+02  0.10755362160E+02  0.30240943950E+02  0.51100000000E-03 0.  1.
         12    1    3    3    0    0 -0.13799452872E+02  0.16082909584E+02 -0.27956934937E+01  0.21375237598E+02  0.00000000000E+00 0. -1.
</event>
<event>
 7    1  0.1465498E-013  0.7246159E+02  0.7816164E-02  0.1226708E+00
        -11   -1    0    0    0    0  0.00000000000E+00  0.00000000000E+00  0.45593999997E+02  0.45594000000E+02  0.51100000000E-03 0. -1.
         11   -1    0    0    0    0 -0.00000000000E+00 -0.00000000000E+00 -0.45593999997E+02  0.45594000000E+02  0.51100000000E-03 0.  1.
    9900012    2    1    2    0    0  0.13713151461E+02 -0.13522870208E+01 -0.12680663524E+02  0.72461590024E+02  0.70000025702E+02 0.  0.
         12    1    1    2    0    0 -0.13713151461E+02  0.13522870208E+01  0.12680663524E+02  0.18726409976E+02  0.00000000000E+00 0. -1.
         11    1    3    3    0    0 -0.57541999797E+00 -0.19736088624E+02 -0.19056604863E+02  0.27440817982E+02  0.51100000000E-03 0. -1.
        -11    1    3    3    0    0 -0.34807767131E+01  0.18063195400E+02 -0.99274147279E+01  0.20903310695E+02  0.51100000000E-03 0.  1.
         12    1    3    3    0    0  0.17769348172E+02  0.32060620317E+00  0.16303356067E+02  0.24117461347E+02  0.00000000000E+00 0. -1.
</event>
<event>
 7    1  0.1465498E-013  0.7246159E+02  0.7816164E-02  0.1226708E+00
        -11   -1    0    0    0    0  0.00000000000E+00  0.00000000000E+00  0.45593999997E+02  0.45594000000E+02  0.51100000000E-03 0.  1.
         11   -1    0    0    0    0 -0.00000000000E+00 -0.00000000000E+00 -0.45593999997E+02  0.45594000000E+02  0.51100000000E-03 0. -1.
    9900012    2    1    2    0    0 -0.18256296296E+02  0.18588495400E+01 -0.37324170684E+01  0.72461585148E+02  0.70000019349E+02 0.  0.
         12    1    1    2    0    0  0.18256296296E+02 -0.18588495400E+01  0.37324170684E+01  0.18726414852E+02  0.00000000000E+00 0. -1.
         11    1    3    3    0    0 -0.41434955863E+01  0.47450792582E+01 -0.26668140123E+02  0.27402080773E+02  0.51100000000E-03 0. -1.
        -11    1    3    3    0    0  0.18596645549E+01  0.65559028485E+00 -0.89804565003E+01  0.91943868797E+01  0.51100000000E-03 0.  1.
        -12    1    3    3    0    0 -0.15972465264E+02 -0.35418200030E+01  0.31916179555E+02  0.35865117495E+02  0.00000000000E+00 0.  1.
</event>
<event>
 7    1  0.1465498E-013  0.7246167E+02  0.7816164E-02  0.1226708E+00
        -11   -1    0    0    0    0  0.00000000000E+00  0.00000000000E+00  0.45593999997E+02  0.45594000000E+02  0.51100000000E-03 0.  1.
         11   -1    0    0    0    0 -0.00000000000E+00 -0.00000000000E+00 -0.45593999997E+02  0.45594000000E+02  0.51100000000E-03 0. -1.
    9900012    2    1    2    0    0 -0.47753295993E+01  0.17090740594E+02 -0.59815005789E+01  0.72461667310E+02  0.70000126381E+02 0.  0.
         12    1    1    2    0    0  0.47753295993E+01 -0.17090740594E+02  0.59815005789E+01  0.18726332690E+02  0.00000000000E+00 0. -1.
         11    1    3    3    0    0  0.61059045018E-01  0.16569081073E+02  0.33326462265E+01  0.16901026801E+02  0.51100000000E-03 0. -1.
        -11    1    3    3    0    0  0.33620806267E+01  0.20919813385E+02 -0.21699016170E+02  0.30328031278E+02  0.51100000000E-03 0.  1.
         12    1    3    3    0    0 -0.81984692711E+01 -0.20398153863E+02  0.12384869365E+02  0.25232609231E+02  0.00000000000E+00 0. -1.
</event>
<event>
 7    1  0.1465498E-013  0.7246162E+02  0.7816164E-02  0.1226708E+00
        -11   -1    0    0    0    0  0.00000000000E+00  0.00000000000E+00  0.45593999997E+02  0.45594000000E+02  0.51100000000E-03 0. -1.
         11   -1    0    0    0    0 -0.00000000000E+00 -0.00000000000E+00 -0.45593999997E+02  0.45594000000E+02  0.51100000000E-03 0.  1.
    9900012    2    1    2    0    0  0.47785850900E+01 -0.20441832087E+01 -0.17990655465E+02  0.72461621693E+02  0.70000066956E+02 0.  0.
         12    1    1    2    0    0 -0.47785850900E+01  0.20441832087E+01  0.17990655465E+02  0.18726378307E+02  0.00000000000E+00 0. -1.
         11    1    3    3    0    0 -0.22118071850E+01 -0.94428476084E+01 -0.49620829486E+01  0.10894114440E+02  0.51100000000E-03 0. -1.
        -11    1    3    3    0    0 -0.18794017791E+02  0.26264876520E+01 -0.26098625079E+02  0.32268433080E+02  0.51100000000E-03 0.  1.
         12    1    3    3    0    0  0.25784410066E+02  0.47721767478E+01  0.13070052563E+02  0.29299074173E+02  0.00000000000E+00 0. -1.
</event>
<event>
 7    1  0.1465498E-013  0.7246157E+02  0.7816164E-02  0.1226708E+00
        -11   -1    0    0    0    0  0.00000000000E+00  0.00000000000E+00  0.45593999997E+02  0.45594000000E+02  0.51100000000E-03 0.  1.
         11   -1    0    0    0    0 -0.00000000000E+00 -0.00000000000E+00 -0.45593999997E+02  0.45594000000E+02  0.51100000000E-03 0. -1.
    9900012    2    1    2    0    0 -0.16862166264E+02  0.60372815203E+01  0.54678989375E+01  0.72461565794E+02  0.69999994138E+02 0.  0.
         12    1    1    2    0    0  0.16862166264E+02 -0.60372815203E+01 -0.54678989375E+01  0.18726434206E+02  0.00000000000E+00 0. -1.
         11    1    3    3    0    0  0.69916416326E+01 -0.98899216391E+01 -0.22031639077E+02  0.25141334957E+02  0.51100000000E-03 0. -1.
        -11    1    3    3    0    0  0.11125597117E+01  0.31786559935E-01 -0.39678043941E+01  0.41209551646E+01  0.51100000000E-03 0.  1.
        -12    1    3    3    0    0 -0.24966367608E+02  0.15895416599E+02  0.31467342408E+02  0.43199275673E+02  0.00000000000E+00 0.  1.
</event>
<event>
 7    1  0.1465498E-013  0.7246151E+02  0.7816164E-02  0.1226708E+00
        -11   -1    0    0    0    0  0.00000000000E+00  0.00000000000E+00  0.45593999997E+02  0.45594000000E+02  0.51100000000E-03 0. -1.
         11   -1    0    0    0    0 -0.00000000000E+00 -0.00000000000E+00 -0.45593999997E+02  0.45594000000E+02  0.51100000000E-03 0.  1.
    9900012    2    1    2    0    0 -0.97004355180E+01 -0.28247312653E+01 -0.15767176075E+02  0.72461510811E+02  0.69999922513E+02 0.  0.
         12    1    1    2    0    0  0.97004355180E+01  0.28247312653E+01  0.15767176075E+02  0.18726489189E+02  0.00000000000E+00 0. -1.
         11    1    3    3    0    0 -0.91851708708E+01  0.66489945652E+01 -0.19982412162E+02  0.22975493221E+02  0.51100000000E-03 0. -1.
        -11    1    3    3    0    0 -0.19600058131E+02  0.77223524309E+01 -0.59000144771E+01  0.21877092515E+02  0.51100000000E-03 0.  1.
        -12    1    3    3    0    0  0.19084793484E+02 -0.17196078261E+02  0.10115250565E+02  0.27608925076E+02  0.00000000000E+00 0.  1.
</event>
<event>
 7    1  0.1799359E-013  0.7246155E+02  0.7816164E-02  0.1226708E+00
        -11   -1    0    0    0    0  0.00000000000E+00  0.00000000000E+00  0.45593999997E+02  0.45594000000E+02  0.51100000000E-03 0. -1.
         11   -1    0    0    0    0 -0.00000000000E+00 -0.00000000000E+00 -0.45593999997E+02  0.45594000000E+02  0.51100000000E-03 0.  1.
    9900012    2    1    2    0    0  0.94998156091E+01 -0.60025768363E+01 -0.14980066522E+02  0.72461552972E+02  0.69999977435E+02 0.  0.
         12    1    1    2    0    0 -0.94998156091E+01  0.60025768363E+01  0.14980066522E+02  0.18726447028E+02  0.00000000000E+00 0. -1.
         11    1    3    3    0    0  0.68893684676E+01 -0.24360574730E+02  0.46498782824E+01  0.25739509851E+02  0.51100000000E-03 0. -1.
        -11    1    3    3    0    0  0.13799020358E+02 -0.39555003236E+01 -0.16004051680E+02  0.21498572420E+02  0.51100000000E-03 0.  1.
        -12    1    3    3    0    0 -0.11188573216E+02  0.22313498217E+02 -0.36258931245E+01  0.25223470702E+02  0.00000000000E+00 0.  1.
</event>
<event>
 7    1  0.1465498E-013  0.7246155E+02  0.7816164E-02  0.1226708E+00
        -11   -1    0    0    0    0  0.00000000000E+00  0.00000000000E+00  0.45593999997E+02  0.45594000000E+02  0.51100000000E-03 0. -1.
         11   -1    0    0    0    0 -0.00000000000E+00 -0.00000000000E+00 -0.45593999997E+02  0.45594000000E+02  0.51100000000E-03 0.  1.
    9900012    2    1    2    0    0 -0.27119794450E+01 -0.12004549808E+02 -0.14114386583E+02  0.72461549263E+02  0.69999972603E+02 0.  0.
         12    1    1    2    0    0  0.27119794450E+01  0.12004549808E+02  0.14114386583E+02  0.18726450737E+02  0.00000000000E+00 0. -1.
         11    1    3    3    0    0 -0.24227166153E+02 -0.19839739236E+02  0.50302584941E+01  0.31715521965E+02  0.51100000000E-03 0. -1.
        -11    1    3    3    0    0 -0.36906680722E+01 -0.60726921974E+01 -0.48548921216E+01  0.86063115861E+01  0.51100000000E-03 0.  1.
        -12    1    3    3    0    0  0.25205854780E+02  0.13907881625E+02 -0.14289752955E+02  0.32139715712E+02  0.00000000000E+00 0.  1.
</event>
<event>
 7    1  0.1465498E-013  0.7246115E+02  0.7816164E-02  0.1226709E+00
        -11   -1    0    0    0    0  0.00000000000E+00  0.00000000000E+00  0.45593999997E+02  0.45594000000E+02  0.51100000000E-03 0.  1.
         11   -1    0    0    0    0 -0.00000000000E+00 -0.00000000000E+00 -0.45593999997E+02  0.45594000000E+02  0.51100000000E-03 0. -1.
    9900012    2    1    2    0    0 -0.10847666270E+02  0.11286668009E+02 -0.10277849190E+02  0.72461149698E+02  0.69999452093E+02 0.  0.
         12    1    1    2    0    0  0.10847666270E+02 -0.11286668009E+02  0.10277849190E+02  0.18726850302E+02  0.00000000000E+00 0. -1.
         11    1    3    3    0    0 -0.57849062522E+01  0.92732982943E+01 -0.18397537981E+02  0.21399266474E+02  0.51100000000E-03 0. -1.
        -11    1    3    3    0    0 -0.22036084344E+02  0.14306369466E+02 -0.44162014986E+01  0.26641397419E+02  0.51100000000E-03 0.  1.
        -12    1    3    3    0    0  0.16973324326E+02 -0.12292999751E+02  0.12535890290E+02  0.24420485804E+02  0.00000000000E+00 0.  1.
</event>
<event>
 7    1  0.1465498E-013  0.7246158E+02  0.7816164E-02  0.1226708E+00
        -11   -1    0    0    0    0  0.00000000000E+00  0.00000000000E+00  0.45593999997E+02  0.45594000000E+02  0.51100000000E-03 0.  1.
         11   -1    0    0    0    0 -0.00000000000E+00 -0.00000000000E+00 -0.45593999997E+02  0.45594000000E+02  0.51100000000E-03 0. -1.
    9900012    2    1    2    0    0  0.92438109018E+01  0.83135357827E+01  0.14004136014E+02  0.72461581691E+02  0.70000014846E+02 0.  0.
         12    1    1    2    0    0 -0.92438109018E+01 -0.83135357827E+01 -0.14004136014E+02  0.18726418309E+02  0.00000000000E+00 0. -1.
         11    1    3    3    0    0  0.16317177387E+02 -0.15368788576E+02 -0.15927856663E+02  0.27498119177E+02  0.51100000000E-03 0. -1.
        -11    1    3    3    0    0  0.33016563889E+00 -0.41921357804E+01  0.67859325188E+01  0.79832256740E+01  0.51100000000E-03 0.  1.
        -12    1    3    3    0    0 -0.74035321238E+01  0.27874460139E+02  0.23146060157E+02  0.36980236840E+02  0.00000000000E+00 0.  1.
</event>
<event>
 7    1  0.1465498E-013  0.7246155E+02  0.7816164E-02  0.1226708E+00
        -11   -1    0    0    0    0  0.00000000000E+00  0.00000000000E+00  0.45593999997E+02  0.45594000000E+02  0.51100000000E-03 0. -1.
         11   -1    0    0    0    0 -0.00000000000E+00 -0.00000000000E+00 -0.45593999997E+02  0.45594000000E+02  0.51100000000E-03 0.  1.
    9900012    2    1    2    0    0 -0.15490797282E+02 -0.10477156560E+02 -0.97170497439E+00  0.72461552911E+02  0.69999977355E+02 0.  0.
         12    1    1    2    0    0  0.15490797282E+02  0.10477156560E+02  0.97170497439E+00  0.18726447089E+02  0.00000000000E+00 0. -1.
         11    1    3    3    0    0  0.18876426460E+01 -0.12660733799E+02 -0.75271611692E+01  0.14849765339E+02  0.51100000000E-03 0. -1.
        -11    1    3    3    0    0 -0.25523386380E+02 -0.18902091434E+02 -0.51197709690E+01  0.32170551253E+02  0.51100000000E-03 0.  1.
         12    1    3    3    0    0  0.81449464518E+01  0.21085668674E+02  0.11675227164E+02  0.25441236319E+02  0.00000000000E+00 0. -1.
</event>
<event>
 7    1  0.1465498E-013  0.7246156E+02  0.7816164E-02  0.1226708E+00
        -11   -1    0    0    0    0  0.00000000000E+00  0.00000000000E+00  0.45593999997E+02  0.45594000000E+02  0.51100000000E-03 0. -1.
         11   -1    0    0    0    0 -0.00000000000E+00 -0.00000000000E+00 -0.45593999997E+02  0.45594000000E+02  0.51100000000E-03 0.  1.
    9900012    2    1    2    0    0  0.13690822977E+02  0.87929392768E+01  0.92695817249E+01  0.72461559861E+02  0.69999986409E+02 0.  0.
         12    1    1    2    0    0 -0.13690822977E+02 -0.87929392768E+01 -0.92695817249E+01  0.18726440139E+02  0.00000000000E+00 0. -1.
         11    1    3    3    0    0  0.10209919411E+02 -0.16823050115E+01  0.10576106541E+02  0.14796169585E+02  0.51100000000E-03 0. -1.
        -11    1    3    3    0    0  0.79806456744E+01  0.74634279310E+01  0.26852489228E+02  0.28990509479E+02  0.51100000000E-03 0.  1.
         12    1    3    3    0    0 -0.44997421085E+01  0.30118163573E+01 -0.28159014044E+02  0.28674880798E+02  0.00000000000E+00 0. -1.
</event>
<event>
 7    1  0.1465498E-013  0.7246157E+02  0.7816164E-02  0.1226708E+00
        -11   -1    0    0    0    0  0.00000000000E+00  0.00000000000E+00  0.45593999997E+02  0.45594000000E+02  0.51100000000E-03 0. -1.
         11   -1    0    0    0    0 -0.00000000000E+00 -0.00000000000E+00 -0.45593999997E+02  0.45594000000E+02  0.51100000000E-03 0.  1.
    9900012    2    1    2    0    0 -0.96226931273E+01  0.10489483035E+02 -0.12167728245E+02  0.72461572471E+02  0.70000002835E+02 0.  0.
         12    1    1    2    0    0  0.96226931273E+01 -0.10489483035E+02  0.12167728245E+02  0.18726427529E+02  0.00000000000E+00 0. -1.
         11    1    3    3    0    0  0.25975676060E+01 -0.66395827483E+00  0.13658554417E+02  0.13919206410E+02  0.51100000000E-03 0. -1.
        -11    1    3    3    0    0 -0.24364032502E+02  0.16525000848E+02  0.70617500174E-01  0.29439543473E+02  0.51100000000E-03 0.  1.
        -12    1    3    3    0    0  0.12143771769E+02 -0.53715595378E+01 -0.25896900162E+02  0.29102822588E+02  0.00000000000E+00 0.  1.
</event>
<event>
 7    1  0.1465498E-013  0.7246156E+02  0.7816164E-02  0.1226708E+00
        -11   -1    0    0    0    0  0.00000000000E+00  0.00000000000E+00  0.45593999997E+02  0.45594000000E+02  0.51100000000E-03 0.  1.
         11   -1    0    0    0    0 -0.00000000000E+00 -0.00000000000E+00 -0.45593999997E+02  0.45594000000E+02  0.51100000000E-03 0. -1.
    9900012    2    1    2    0    0 -0.11683097730E+02  0.14602465950E+02  0.97613262934E+00  0.72461558285E+02  0.69999984356E+02 0.  0.
         12    1    1    2    0    0  0.11683097730E+02 -0.14602465950E+02 -0.97613262934E+00  0.18726441715E+02  0.00000000000E+00 0. -1.
         11    1    3    3    0    0 -0.10806592088E+01 -0.20454290221E+02  0.82474616260E+01  0.22080906600E+02  0.51100000000E-03 0. -1.
        -11    1    3    3    0    0  0.22021965895E+00  0.14726843825E+01 -0.14321218552E+02  0.14398423422E+02  0.51100000000E-03 0.  1.
        -12    1    3    3    0    0 -0.10822658180E+02  0.33584071788E+02  0.70498895550E+01  0.35982228262E+02  0.00000000000E+00 0.  1.
</event>
<event>
 7    1  0.1465498E-013  0.7246159E+02  0.7816164E-02  0.1226708E+00
        -11   -1    0    0    0    0  0.00000000000E+00  0.00000000000E+00  0.45593999997E+02  0.45594000000E+02  0.51100000000E-03 0. -1.
         11   -1    0    0    0    0 -0.00000000000E+00 -0.00000000000E+00 -0.45593999997E+02  0.45594000000E+02  0.51100000000E-03 0.  1.
    9900012    2    1    2    0    0  0.32018015965E+01  0.15028613929E+02 -0.10703621211E+02  0.72461594121E+02  0.70000031039E+02 0.  0.
         12    1    1    2    0    0 -0.32018015965E+01 -0.15028613929E+02  0.10703621211E+02  0.18726405879E+02  0.00000000000E+00 0. -1.
         11    1    3    3    0    0  0.13193425189E+02 -0.34542529948E+01  0.15629619717E+02  0.20743272276E+02  0.51100000000E-03 0. -1.
        -11    1    3    3    0    0 -0.13714545734E+02 -0.45817453783E+01  0.24297223564E+01  0.14662356781E+02  0.51100000000E-03 0.  1.
         12    1    3    3    0    0  0.37229221408E+01  0.23064612302E+02 -0.28762963284E+02  0.37055965064E+02  0.00000000000E+00 0. -1.
</event>
<event>
 7    1  0.1465498E-013  0.7246160E+02  0.7816164E-02  0.1226708E+00
        -11   -1    0    0    0    0  0.00000000000E+00  0.00000000000E+00  0.45593999997E+02  0.45594000000E+02  0.51100000000E-03 0. -1.
         11   -1    0    0    0    0 -0.00000000000E+00 -0.00000000000E+00 -0.45593999997E+02  0.45594000000E+02  0.51100000000E-03 0.  1.
    9900012    2    1    2    0    0  0.67628987925E-01 -0.17109453848E+02 -0.76118322074E+01  0.72461602209E+02  0.70000041575E+02 0.  0.
         12    1    1    2    0    0 -0.67628987925E-01  0.17109453848E+02  0.76118322074E+01  0.18726397791E+02  0.00000000000E+00 0. -1.
         11    1    3    3    0    0 -0.41676616642E+01 -0.12413333280E+02 -0.12135331572E+02  0.17852913474E+02  0.51100000000E-03 0. -1.
        -11    1    3    3    0    0  0.25136504009E+02  0.10751303635E+02 -0.31232258020E+01  0.27517065674E+02  0.51100000000E-03 0.  1.
         12    1    3    3    0    0 -0.20901213357E+02 -0.15447424204E+02  0.76467251669E+01  0.27091623061E+02  0.00000000000E+00 0. -1.
</event>
<event>
 7    1  0.1465498E-013  0.7246158E+02  0.7816164E-02  0.1226708E+00
        -11   -1    0    0    0    0  0.00000000000E+00  0.00000000000E+00  0.45593999997E+02  0.45594000000E+02  0.51100000000E-03 0. -1.
         11   -1    0    0    0    0 -0.00000000000E+00 -0.00000000000E+00 -0.45593999997E+02  0.45594000000E+02  0.51100000000E-03 0.  1.
    9900012    2    1    2    0    0  0.18163720668E+02  0.20104493157E+01 -0.40885603419E+01  0.72461575338E+02  0.70000006570E+02 0.  0.
         12    1    1    2    0    0 -0.18163720668E+02 -0.20104493157E+01  0.40885603419E+01  0.18726424662E+02  0.00000000000E+00 0. -1.
         11    1    3    3    0    0  0.33396756841E+02  0.12516150798E+02  0.88750306677E+01  0.36752735516E+02  0.51100000000E-03 0. -1.
        -11    1    3    3    0    0  0.76150621339E+01  0.18298930541E+00 -0.55257574878E+01  0.94104544239E+01  0.51100000000E-03 0.  1.
        -12    1    3    3    0    0 -0.22848098307E+02 -0.10688690788E+02 -0.74378335218E+01  0.26298385397E+02  0.00000000000E+00 0.  1.
</event>
<event>
 7    1  0.1465498E-013  0.7246159E+02  0.7816164E-02  0.1226708E+00
        -11   -1    0    0    0    0  0.00000000000E+00  0.00000000000E+00  0.45593999997E+02  0.45594000000E+02  0.51100000000E-03 0.  1.
         11   -1    0    0    0    0 -0.00000000000E+00 -0.00000000000E+00 -0.45593999997E+02  0.45594000000E+02  0.51100000000E-03 0. -1.
    9900012    2    1    2    0    0  0.15455036961E+02 -0.84000315116E+01  0.64233763179E+01  0.72461589234E+02  0.70000024672E+02 0.  0.
         12    1    1    2    0    0 -0.15455036961E+02  0.84000315116E+01 -0.64233763179E+01  0.18726410766E+02  0.00000000000E+00 0. -1.
         11    1    3    3    0    0 -0.26790205073E+01  0.17960019574E+01  0.19971762324E+02  0.20230523090E+02  0.51100000000E-03 0. -1.
        -11    1    3    3    0    0  0.13492229063E+02  0.10024467744E+02  0.11001592813E+02  0.20088933355E+02  0.51100000000E-03 0.  1.
         12    1    3    3    0    0  0.46418284051E+01 -0.20220501213E+02 -0.24549978819E+02  0.32142132789E+02  0.00000000000E+00 0. -1.
</event>
<event>
 7    1  0.1465498E-013  0.7246157E+02  0.7816164E-02  0.1226708E+00
        -11   -1    0    0    0    0  0.00000000000E+00  0.00000000000E+00  0.45593999997E+02  0.45594000000E+02  0.51100000000E-03 0. -1.
         11   -1    0    0    0    0 -0.00000000000E+00 -0.00000000000E+00 -0.45593999997E+02  0.45594000000E+02  0.51100000000E-03 0.  1.
    9900012    2    1    2    0    0 -0.18418364567E+02  0.22795773000E+01 -0.24993420182E+01  0.72461565836E+02  0.69999994192E+02 0.  0.
         12    1    1    2    0    0  0.18418364567E+02 -0.22795773000E+01  0.24993420182E+01  0.18726434164E+02  0.00000000000E+00 0. -1.
         11    1    3    3    0    0  0.49153558585E+01  0.21273191816E+02  0.14643135548E+02  0.26289367284E+02  0.51100000000E-03 0. -1.
        -11    1    3    3    0    0 -0.82118412737E+01  0.67052626605E+01 -0.11829081531E+02  0.15884648393E+02  0.51100000000E-03 0.  1.
        -12    1    3    3    0    0 -0.15121879152E+02 -0.25698877176E+02 -0.53133960359E+01  0.30287550159E+02  0.00000000000E+00 0.  1.
</event>
<event>
 7    1  0.1465498E-013  0.7246158E+02  0.7816164E-02  0.1226708E+00
        -11   -1    0    0    0    0  0.00000000000E+00  0.00000000000E+00  0.45593999997E+02  0.45594000000E+02  0.51100000000E-03 0.  1.
         11   -1    0    0    0    0 -0.00000000000E+00 -0.00000000000E+00 -0.45593999997E+02  0.45594000000E+02  0.51100000000E-03 0. -1.
    9900012    2    1    2    0    0 -0.18380299824E+02 -0.19391511202E+01 -0.30138078675E+01  0.72461581053E+02  0.70000014016E+02 0.  0.
         12    1    1    2    0    0  0.18380299824E+02  0.19391511202E+01  0.30138078675E+01  0.18726418947E+02  0.00000000000E+00 0. -1.
         11    1    3    3    0    0  0.65149826568E+01  0.14504229601E+02 -0.11094484564E+01  0.15938900573E+02  0.51100000000E-03 0. -1.
        -11    1    3    3    0    0 -0.77268653969E+01  0.12988790907E+02 -0.13766527969E+02  0.20443346856E+02  0.51100000000E-03 0.  1.
        -12    1    3    3    0    0 -0.17168417084E+02 -0.29432171628E+02  0.11862168558E+02  0.36079333625E+02  0.00000000000E+00 0.  1.
</event>
<event>
 7    1  0.1465498E-013  0.7246156E+02  0.7816164E-02  0.1226708E+00
        -11   -1    0    0    0    0  0.00000000000E+00  0.00000000000E+00  0.45593999997E+02  0.45594000000E+02  0.51100000000E-03 0. -1.
         11   -1    0    0    0    0 -0.00000000000E+00 -0.00000000000E+00 -0.45593999997E+02  0.45594000000E+02  0.51100000000E-03 0.  1.
    9900012    2    1    2    0    0 -0.35802952163E+01  0.10201688118E+02 -0.15290087430E+02  0.72461555385E+02  0.69999980578E+02 0.  0.
         12    1    1    2    0    0  0.35802952163E+01 -0.10201688118E+02  0.15290087430E+02  0.18726444615E+02  0.00000000000E+00 0. -1.
         11    1    3    3    0    0 -0.64296262419E+01  0.19743521164E+02 -0.22704642308E+02  0.30767637286E+02  0.51100000000E-03 0. -1.
        -11    1    3    3    0    0  0.10259399282E+02  0.66624480531E+01 -0.10723750006E+02  0.16267830284E+02  0.51100000000E-03 0.  1.
         12    1    3    3    0    0 -0.74100682565E+01 -0.16204281099E+02  0.18138304885E+02  0.25426087815E+02  0.00000000000E+00 0. -1.
</event>
<event>
 7    1  0.1465498E-013  0.7246153E+02  0.7816164E-02  0.1226708E+00
        -11   -1    0    0    0    0  0.00000000000E+00  0.00000000000E+00  0.45593999997E+02  0.45594000000E+02  0.51100000000E-03 0.  1.
         11   -1    0    0    0    0 -0.00000000000E+00 -0.00000000000E+00 -0.45593999997E+02  0.45594000000E+02  0.51100000000E-03 0. -1.
    9900012    2    1    2    0    0  0.95147610564E+01  0.14847647726E+02  0.63005818161E+01  0.72461530707E+02  0.69999948430E+02 0.  0.
         12    1    1    2    0    0 -0.95147610564E+01 -0.14847647726E+02 -0.63005818161E+01  0.18726469293E+02  0.00000000000E+00 0. -1.
         11    1    3    3    0    0 -0.26929779335E+01  0.91723666616E+01  0.97181305801E+01  0.13631819488E+02  0.51100000000E-03 0. -1.
        -11    1    3    3    0    0 -0.19138524313E+02  0.13243908880E+02  0.80157636270E+01  0.24615781566E+02  0.51100000000E-03 0.  1.
         12    1    3    3    0    0  0.31346263303E+02 -0.75686278154E+01 -0.11433312391E+02  0.34213929653E+02  0.00000000000E+00 0. -1.
</event>
<event>
 7    1  0.1465498E-013  0.7246153E+02  0.7816164E-02  0.1226708E+00
        -11   -1    0    0    0    0  0.00000000000E+00  0.00000000000E+00  0.45593999997E+02  0.45594000000E+02  0.51100000000E-03 0. -1.
         11   -1    0    0    0    0 -0.00000000000E+00 -0.00000000000E+00 -0.45593999997E+02  0.45594000000E+02  0.51100000000E-03 0.  1.
    9900012    2    1    2    0    0 -0.15950631457E+02  0.43066896395E+01 -0.88153495673E+01  0.72461531899E+02  0.69999949983E+02 0.  0.
         12    1    1    2    0    0  0.15950631457E+02 -0.43066896395E+01  0.88153495673E+01  0.18726468101E+02  0.00000000000E+00 0. -1.
         11    1    3    3    0    0 -0.95774715447E+00  0.11529433738E+02 -0.57436870801E+01  0.12916464821E+02  0.51100000000E-03 0. -1.
        -11    1    3    3    0    0  0.73223869097E+01  0.21938832471E+01 -0.25447333874E+02  0.26570609239E+02  0.51100000000E-03 0.  1.
         12    1    3    3    0    0 -0.22315271212E+02 -0.94166273454E+01  0.22375671387E+02  0.32974457840E+02  0.00000000000E+00 0. -1.
</event>
<event>
 7    1  0.1465498E-013  0.7246155E+02  0.7816164E-02  0.1226708E+00
        -11   -1    0    0    0    0  0.00000000000E+00  0.00000000000E+00  0.45593999997E+02  0.45594000000E+02  0.51100000000E-03 0.  1.
         11   -1    0    0    0    0 -0.00000000000E+00 -0.00000000000E+00 -0.45593999997E+02  0.45594000000E+02  0.51100000000E-03 0. -1.
    9900012    2    1    2    0    0  0.12624835619E+01 -0.98315906322E+01  0.15887919637E+02  0.72461547333E+02  0.69999970088E+02 0.  0.
         12    1    1    2    0    0 -0.12624835619E+01  0.98315906322E+01 -0.15887919637E+02  0.18726452667E+02  0.00000000000E+00 0. -1.
         11    1    3    3    0    0 -0.28617809071E+01 -0.78888685949E+01 -0.81519205852E+01  0.11699480636E+02  0.51100000000E-03 0. -1.
        -11    1    3    3    0    0  0.28143669323E+02 -0.10570503331E+02  0.15674274514E+02  0.33904049100E+02  0.51100000000E-03 0.  1.
         12    1    3    3    0    0 -0.24019404854E+02  0.86277812936E+01  0.83655657085E+01  0.26858017596E+02  0.00000000000E+00 0. -1.
</event>
<event>
 7    1  0.1465498E-013  0.7246159E+02  0.7816164E-02  0.1226708E+00
        -11   -1    0    0    0    0  0.00000000000E+00  0.00000000000E+00  0.45593999997E+02  0.45594000000E+02  0.51100000000E-03 0. -1.
         11   -1    0    0    0    0 -0.00000000000E+00 -0.00000000000E+00 -0.45593999997E+02  0.45594000000E+02  0.51100000000E-03 0.  1.
    9900012    2    1    2    0    0  0.71060581110E+01 -0.10473462561E+02  0.13801767208E+02  0.72461594633E+02  0.70000031706E+02 0.  0.
         12    1    1    2    0    0 -0.71060581110E+01  0.10473462561E+02 -0.13801767208E+02  0.18726405367E+02  0.00000000000E+00 0. -1.
         11    1    3    3    0    0 -0.35340664626E+01 -0.59657210474E+01  0.45243680127E+01  0.82794540613E+01  0.51100000000E-03 0. -1.
        -11    1    3    3    0    0 -0.97387811388E+01 -0.22635459614E+02 -0.13985863373E+02  0.28333941917E+02  0.51100000000E-03 0.  1.
        -12    1    3    3    0    0  0.20378905712E+02  0.18127718100E+02  0.23263262568E+02  0.35848198655E+02  0.00000000000E+00 0.  1.
</event>
<event>
 7    1  0.1465498E-013  0.7246197E+02  0.7816164E-02  0.1226707E+00
        -11   -1    0    0    0    0  0.00000000000E+00  0.00000000000E+00  0.45593999997E+02  0.45594000000E+02  0.51100000000E-03 0. -1.
         11   -1    0    0    0    0 -0.00000000000E+00 -0.00000000000E+00 -0.45593999997E+02  0.45594000000E+02  0.51100000000E-03 0.  1.
    9900012    2    1    2    0    0  0.13573421592E+02  0.26077471954E+01 -0.12634317032E+02  0.72461973032E+02  0.70000524638E+02 0.  0.
         12    1    1    2    0    0 -0.13573421592E+02 -0.26077471954E+01  0.12634317032E+02  0.18726026968E+02  0.00000000000E+00 0. -1.
         11    1    3    3    0    0  0.80964993753E+00  0.18211213676E+01 -0.88794988194E+01  0.91004129358E+01  0.51100000000E-03 0. -1.
        -11    1    3    3    0    0  0.28436632049E+02  0.26251299911E+01 -0.24271220459E+02  0.37478333642E+02  0.51100000000E-03 0.  1.
         12    1    3    3    0    0 -0.15672860395E+02 -0.18385041634E+01  0.20516402246E+02  0.25883226453E+02  0.00000000000E+00 0. -1.
</event>
<event>
 7    1  0.1465498E-013  0.7246158E+02  0.7816164E-02  0.1226708E+00
        -11   -1    0    0    0    0  0.00000000000E+00  0.00000000000E+00  0.45593999997E+02  0.45594000000E+02  0.51100000000E-03 0. -1.
         11   -1    0    0    0    0 -0.00000000000E+00 -0.00000000000E+00 -0.45593999997E+02  0.45594000000E+02  0.51100000000E-03 0.  1.
    9900012    2    1    2    0    0  0.18108832808E+02 -0.17333059907E+01  0.44435021152E+01  0.72461577854E+02  0.70000009848E+02 0.  0.
         12    1    1    2    0    0 -0.18108832808E+02  0.17333059907E+01 -0.44435021152E+01  0.18726422146E+02  0.00000000000E+00 0. -1.
         11    1    3    3    0    0  0.18019277137E+02 -0.13817351348E+02  0.13855133522E+00  0.22707548163E+02  0.51100000000E-03 0.  1.
        -11    1    3    3    0    0  0.19091619299E+02  0.10665240181E+02  0.16267193112E+02  0.27255437028E+02  0.51100000000E-03 0. -1.
        -12    1    3    3    0    0 -0.19002063628E+02  0.14188051771E+01 -0.11962242332E+02  0.22498592664E+02  0.00000000000E+00 0.  1.
</event>
<event>
 7    1  0.1465498E-013  0.7246164E+02  0.7816164E-02  0.1226708E+00
        -11   -1    0    0    0    0  0.00000000000E+00  0.00000000000E+00  0.45593999997E+02  0.45594000000E+02  0.51100000000E-03 0. -1.
         11   -1    0    0    0    0 -0.00000000000E+00 -0.00000000000E+00 -0.45593999997E+02  0.45594000000E+02  0.51100000000E-03 0.  1.
    9900012    2    1    2    0    0  0.13682787481E+02 -0.34112840530E+01 -0.12321574288E+02  0.72461635562E+02  0.70000085024E+02 0.  0.
         12    1    1    2    0    0 -0.13682787481E+02  0.34112840530E+01  0.12321574288E+02  0.18726364438E+02  0.00000000000E+00 0. -1.
         11    1    3    3    0    0  0.11865796018E+02  0.12954538717E+02 -0.34988886739E+01  0.17912548973E+02  0.51100000000E-03 0. -1.
        -11    1    3    3    0    0 -0.23077296140E+02 -0.21678449176E+01 -0.11294452674E+02  0.25784216300E+02  0.51100000000E-03 0.  1.
         12    1    3    3    0    0  0.24894287603E+02 -0.14197977852E+02  0.24717670606E+01  0.28764870289E+02  0.00000000000E+00 0. -1.
</event>
<event>
 7    1  0.1465498E-013  0.7246236E+02  0.7816164E-02  0.1226706E+00
        -11   -1    0    0    0    0  0.00000000000E+00  0.00000000000E+00  0.45593999997E+02  0.45594000000E+02  0.51100000000E-03 0. -1.
         11   -1    0    0    0    0 -0.00000000000E+00 -0.00000000000E+00 -0.45593999997E+02  0.45594000000E+02  0.51100000000E-03 0.  1.
    9900012    2    1    2    0    0 -0.49237426092E+01 -0.15207911497E+02 -0.97532409633E+01  0.72462361889E+02  0.70001031191E+02 0.  0.
         12    1    1    2    0    0  0.49237426092E+01  0.15207911497E+02  0.97532409633E+01  0.18725638111E+02  0.00000000000E+00 0. -1.
         11    1    3    3    0    0 -0.24834588233E+02 -0.18281411980E+02  0.15897985814E+02  0.34694563693E+02  0.51100000000E-03 0. -1.
        -11    1    3    3    0    0  0.46635180604E+01  0.81540268150E+01 -0.27457796368E+01  0.97865141943E+01  0.51100000000E-03 0.  1.
        -12    1    3    3    0    0  0.15247327563E+02 -0.50805263322E+01 -0.22905447141E+02  0.27981284001E+02  0.00000000000E+00 0.  1.
</event>
<event>
 7    1  0.1465498E-013  0.7246156E+02  0.7816164E-02  0.1226708E+00
        -11   -1    0    0    0    0  0.00000000000E+00  0.00000000000E+00  0.45593999997E+02  0.45594000000E+02  0.51100000000E-03 0.  1.
         11   -1    0    0    0    0 -0.00000000000E+00 -0.00000000000E+00 -0.45593999997E+02  0.45594000000E+02  0.51100000000E-03 0. -1.
    9900012    2    1    2    0    0 -0.10703392197E+02  0.73505123457E+01  0.13493964524E+02  0.72461555734E+02  0.69999981032E+02 0.  0.
         12    1    1    2    0    0  0.10703392197E+02 -0.73505123457E+01 -0.13493964524E+02  0.18726444266E+02  0.00000000000E+00 0. -1.
         11    1    3    3    0    0 -0.29645044659E+02  0.32156052697E+00 -0.27350696023E+01  0.29772683453E+02  0.51100000000E-03 0. -1.
        -11    1    3    3    0    0  0.46997647367E+01 -0.84657662612E+01  0.19133234064E+02  0.21443825055E+02  0.51100000000E-03 0.  1.
        -12    1    3    3    0    0  0.14241887725E+02  0.15494718080E+02 -0.29041999375E+01  0.21245047226E+02  0.00000000000E+00 0.  1.
</event>
<event>
 7    1  0.1465498E-013  0.7246158E+02  0.7816164E-02  0.1226708E+00
        -11   -1    0    0    0    0  0.00000000000E+00  0.00000000000E+00  0.45593999997E+02  0.45594000000E+02  0.51100000000E-03 0.  1.
         11   -1    0    0    0    0 -0.00000000000E+00 -0.00000000000E+00 -0.45593999997E+02  0.45594000000E+02  0.51100000000E-03 0. -1.
    9900012    2    1    2    0    0 -0.51531060236E+01  0.77077935399E+01  0.16270037125E+02  0.72461583071E+02  0.70000016644E+02 0.  0.
         12    1    1    2    0    0  0.51531060236E+01 -0.77077935399E+01 -0.16270037125E+02  0.18726416929E+02  0.00000000000E+00 0. -1.
         11    1    3    3    0    0 -0.54046391240E+01  0.36944503961E+00 -0.15313720153E+02  0.16243664577E+02  0.51100000000E-03 0. -1.
        -11    1    3    3    0    0  0.72223890157E+01  0.17755686039E+02 -0.30282937034E+01  0.19406129259E+02  0.51100000000E-03 0.  1.
        -12    1    3    3    0    0 -0.69708559153E+01 -0.10417337538E+02  0.34612050981E+02  0.36811789235E+02  0.00000000000E+00 0.  1.
</event>
<event>
 7    1  0.1465498E-013  0.7246165E+02  0.7816164E-02  0.1226708E+00
        -11   -1    0    0    0    0  0.00000000000E+00  0.00000000000E+00  0.45593999997E+02  0.45594000000E+02  0.51100000000E-03 0. -1.
         11   -1    0    0    0    0 -0.00000000000E+00 -0.00000000000E+00 -0.45593999997E+02  0.45594000000E+02  0.51100000000E-03 0.  1.
    9900012    2    1    2    0    0 -0.63230655785E+01  0.12096362383E+02 -0.12820810377E+02  0.72461646379E+02  0.70000099115E+02 0.  0.
         12    1    1    2    0    0  0.63230655785E+01 -0.12096362383E+02  0.12820810377E+02  0.18726353621E+02  0.00000000000E+00 0. -1.
         11    1    3    3    0    0 -0.61993260343E+01  0.23697660256E+02 -0.12706089579E+02  0.27594482375E+02  0.51100000000E-03 0. -1.
        -11    1    3    3    0    0 -0.47009493080E+01 -0.49691998891E+00 -0.20591873190E+02  0.21127496199E+02  0.51100000000E-03 0.  1.
        -12    1    3    3    0    0  0.45772097638E+01 -0.11104377885E+02  0.20477152392E+02  0.23739667805E+02  0.00000000000E+00 0.  1.
</event>
<event>
 7    1  0.1465498E-013  0.7246162E+02  0.7816164E-02  0.1226708E+00
        -11   -1    0    0    0    0  0.00000000000E+00  0.00000000000E+00  0.45593999997E+02  0.45594000000E+02  0.51100000000E-03 0.  1.
         11   -1    0    0    0    0 -0.00000000000E+00 -0.00000000000E+00 -0.45593999997E+02  0.45594000000E+02  0.51100000000E-03 0. -1.
    9900012    2    1    2    0    0  0.15267875246E+02  0.10467291529E+02  0.28293390229E+01  0.72461618454E+02  0.70000062737E+02 0.  0.
         12    1    1    2    0    0 -0.15267875246E+02 -0.10467291529E+02 -0.28293390229E+01  0.18726381546E+02  0.00000000000E+00 0. -1.
         11    1    3    3    0    0 -0.62806452573E+01 -0.30909417301E+00 -0.20464300233E+02  0.21408634434E+02  0.51100000000E-03 0. -1.
        -11    1    3    3    0    0  0.78869792910E+00  0.19176547832E+02  0.64755449080E+00  0.19203680851E+02  0.51100000000E-03 0.  1.
        -12    1    3    3    0    0  0.20759822575E+02 -0.84001621293E+01  0.22646084765E+02  0.31849303168E+02  0.00000000000E+00 0.  1.
</event>
<event>
 7    1  0.1465498E-013  0.7246163E+02  0.7816164E-02  0.1226708E+00
        -11   -1    0    0    0    0  0.00000000000E+00  0.00000000000E+00  0.45593999997E+02  0.45594000000E+02  0.51100000000E-03 0.  1.
         11   -1    0    0    0    0 -0.00000000000E+00 -0.00000000000E+00 -0.45593999997E+02  0.45594000000E+02  0.51100000000E-03 0. -1.
    9900012    2    1    2    0    0  0.17398374708E+02  0.59569082177E+01  0.35339509695E+01  0.72461628022E+02  0.70000075201E+02 0.  0.
         12    1    1    2    0    0 -0.17398374708E+02 -0.59569082177E+01 -0.35339509695E+01  0.18726371978E+02  0.00000000000E+00 0. -1.
         11    1    3    3    0    0 -0.16145415813E+02 -0.11507854673E+01  0.74287073727E+00  0.16203413719E+02  0.51100000000E-03 0. -1.
        -11    1    3    3    0    0  0.22364024506E+02 -0.14210364123E+02  0.13701037578E+02  0.29829557013E+02  0.51100000000E-03 0.  1.
         12    1    3    3    0    0  0.11179766015E+02  0.21318057808E+02 -0.10909957346E+02  0.26428657290E+02  0.00000000000E+00 0. -1.
</event>
<event>
 7    1  0.1465498E-013  0.7246158E+02  0.7816164E-02  0.1226708E+00
        -11   -1    0    0    0    0  0.00000000000E+00  0.00000000000E+00  0.45593999997E+02  0.45594000000E+02  0.51100000000E-03 0.  1.
         11   -1    0    0    0    0 -0.00000000000E+00 -0.00000000000E+00 -0.45593999997E+02  0.45594000000E+02  0.51100000000E-03 0. -1.
    9900012    2    1    2    0    0 -0.12206782776E+02  0.14159854826E+02  0.10824039737E+01  0.72461584626E+02  0.70000018669E+02 0.  0.
         12    1    1    2    0    0  0.12206782776E+02 -0.14159854826E+02 -0.10824039737E+01  0.18726415374E+02  0.00000000000E+00 0. -1.
         11    1    3    3    0    0  0.89392031575E+01  0.15155153654E+02 -0.25106269200E+01  0.17773330672E+02  0.51100000000E-03 0. -1.
        -11    1    3    3    0    0 -0.23410354328E+02  0.16688307178E+02  0.16062257056E+02  0.32932360805E+02  0.51100000000E-03 0.  1.
         12    1    3    3    0    0  0.22643683951E+01 -0.17683606006E+02 -0.12469226162E+02  0.21755893149E+02  0.00000000000E+00 0. -1.
</event>
<event>
 7    1  0.1465498E-013  0.7246158E+02  0.7816164E-02  0.1226708E+00
        -11   -1    0    0    0    0  0.00000000000E+00  0.00000000000E+00  0.45593999997E+02  0.45594000000E+02  0.51100000000E-03 0.  1.
         11   -1    0    0    0    0 -0.00000000000E+00 -0.00000000000E+00 -0.45593999997E+02  0.45594000000E+02  0.51100000000E-03 0. -1.
    9900012    2    1    2    0    0 -0.15154385348E+02  0.10905711408E+02  0.14453565226E+01  0.72461575033E+02  0.70000006172E+02 0.  0.
         12    1    1    2    0    0  0.15154385348E+02 -0.10905711408E+02 -0.14453565226E+01  0.18726424967E+02  0.00000000000E+00 0. -1.
         11    1    3    3    0    0  0.17227189273E+02  0.44630816165E+01 -0.91572421036E+01  0.20013751047E+02  0.51100000000E-03 0. -1.
        -11    1    3    3    0    0 -0.11403114010E+02 -0.16634532486E+02  0.46655323229E+01  0.20700383385E+02  0.51100000000E-03 0.  1.
        -12    1    3    3    0    0 -0.20978460611E+02  0.23077162278E+02  0.59370663033E+01  0.31747440600E+02  0.00000000000E+00 0.  1.
</event>
<event>
 7    1  0.1465498E-013  0.7246155E+02  0.7816164E-02  0.1226708E+00
        -11   -1    0    0    0    0  0.00000000000E+00  0.00000000000E+00  0.45593999997E+02  0.45594000000E+02  0.51100000000E-03 0.  1.
         11   -1    0    0    0    0 -0.00000000000E+00 -0.00000000000E+00 -0.45593999997E+02  0.45594000000E+02  0.51100000000E-03 0. -1.
    9900012    2    1    2    0    0  0.16061573794E+02  0.89507380239E+01 -0.35482449842E+01  0.72461550620E+02  0.69999974371E+02 0.  0.
         12    1    1    2    0    0 -0.16061573794E+02 -0.89507380239E+01  0.35482449842E+01  0.18726449380E+02  0.00000000000E+00 0. -1.
         11    1    3    3    0    0  0.45282603599E+01  0.15592997290E+01 -0.14362581378E+02  0.15140023171E+02  0.51100000000E-03 0. -1.
        -11    1    3    3    0    0 -0.12822847354E+02  0.13257465133E+02 -0.13150694396E+02  0.22652297000E+02  0.51100000000E-03 0.  1.
        -12    1    3    3    0    0  0.24356160788E+02 -0.58660268379E+01  0.23965030790E+02  0.34669230449E+02  0.00000000000E+00 0.  1.
</event>
<event>
 7    1  0.1465498E-013  0.7246152E+02  0.7816164E-02  0.1226708E+00
        -11   -1    0    0    0    0  0.00000000000E+00  0.00000000000E+00  0.45593999997E+02  0.45594000000E+02  0.51100000000E-03 0.  1.
         11   -1    0    0    0    0 -0.00000000000E+00 -0.00000000000E+00 -0.45593999997E+02  0.45594000000E+02  0.51100000000E-03 0. -1.
    9900012    2    1    2    0    0 -0.15394877570E+02 -0.60214737189E+01 -0.87989085066E+01  0.72461516293E+02  0.69999929653E+02 0.  0.
         12    1    1    2    0    0  0.15394877570E+02  0.60214737189E+01  0.87989085066E+01  0.18726483707E+02  0.00000000000E+00 0. -1.
         11    1    3    3    0    0 -0.74886861257E+01  0.76656484734E+01  0.81526722495E+00  0.10747429800E+02  0.51100000000E-03 0. -1.
        -11    1    3    3    0    0 -0.22457930636E+02  0.51124846459E+01 -0.24530293387E+02  0.33648646950E+02  0.51100000000E-03 0.  1.
        -12    1    3    3    0    0  0.14551739192E+02 -0.18799606838E+02  0.14916117655E+02  0.28065439542E+02  0.00000000000E+00 0.  1.
</event>
<event>
 7    1  0.1465498E-013  0.7246165E+02  0.7816164E-02  0.1226708E+00
        -11   -1    0    0    0    0  0.00000000000E+00  0.00000000000E+00  0.45593999997E+02  0.45594000000E+02  0.51100000000E-03 0.  1.
         11   -1    0    0    0    0 -0.00000000000E+00 -0.00000000000E+00 -0.45593999997E+02  0.45594000000E+02  0.51100000000E-03 0. -1.
    9900012    2    1    2    0    0  0.13475559528E+02 -0.11810597591E+02  0.54401372293E+01  0.72461654572E+02  0.70000109787E+02 0.  0.
         12    1    1    2    0    0 -0.13475559528E+02  0.11810597591E+02 -0.54401372293E+01  0.18726345428E+02  0.00000000000E+00 0. -1.
         11    1    3    3    0    0 -0.59206524854E+01 -0.51923513204E+01 -0.18421785595E+02  0.20034391003E+02  0.51100000000E-03 0. -1.
        -11    1    3    3    0    0  0.10248054136E+02  0.16377420445E+02  0.20307789996E+01  0.19425925399E+02  0.51100000000E-03 0.  1.
        -12    1    3    3    0    0  0.91481578770E+01 -0.22995666716E+02  0.21831143825E+02  0.33001338169E+02  0.00000000000E+00 0.  1.
</event>
<event>
 7    1  0.1477462E-013  0.7246164E+02  0.7816164E-02  0.1226708E+00
        -11   -1    0    0    0    0  0.00000000000E+00  0.00000000000E+00  0.45593999997E+02  0.45594000000E+02  0.51100000000E-03 0. -1.
         11   -1    0    0    0    0 -0.00000000000E+00 -0.00000000000E+00 -0.45593999997E+02  0.45594000000E+02  0.51100000000E-03 0.  1.
    9900012    2    1    2    0    0 -0.10993745023E+02  0.10247730809E+02 -0.11171314744E+02  0.72461636513E+02  0.70000086262E+02 0.  0.
         12    1    1    2    0    0  0.10993745023E+02 -0.10247730809E+02  0.11171314744E+02  0.18726363487E+02  0.00000000000E+00 0. -1.
         11    1    3    3    0    0 -0.18376135720E+02  0.29328097917E+02 -0.37190135101E+01  0.34808774083E+02  0.51100000000E-03 0. -1.
        -11    1    3    3    0    0  0.10324077938E+02 -0.22605092452E+01  0.90444768249E+01  0.13910393546E+02  0.51100000000E-03 0.  1.
        -12    1    3    3    0    0 -0.29416872410E+01 -0.16819857863E+02 -0.16496778058E+02  0.23742468883E+02  0.00000000000E+00 0.  1.
</event>
<event>
 7    1  0.1465498E-013  0.7246154E+02  0.7816164E-02  0.1226708E+00
        -11   -1    0    0    0    0  0.00000000000E+00  0.00000000000E+00  0.45593999997E+02  0.45594000000E+02  0.51100000000E-03 0.  1.
         11   -1    0    0    0    0 -0.00000000000E+00 -0.00000000000E+00 -0.45593999997E+02  0.45594000000E+02  0.51100000000E-03 0. -1.
    9900012    2    1    2    0    0 -0.11383464766E+02 -0.12906819585E+02  0.73831674851E+01  0.72461536800E+02  0.69999956367E+02 0.  0.
         12    1    1    2    0    0  0.11383464766E+02  0.12906819585E+02 -0.73831674851E+01  0.18726463200E+02  0.00000000000E+00 0. -1.
         11    1    3    3    0    0 -0.18464898194E+01 -0.18999273642E+02  0.14357505932E+02  0.23885558407E+02  0.51100000000E-03 0.  1.
        -11    1    3    3    0    0 -0.10686271868E+02  0.24948566590E+00 -0.26281094583E+02  0.28371721525E+02  0.51100000000E-03 0. -1.
         12    1    3    3    0    0  0.11492969216E+01  0.58429683911E+01  0.19306756137E+02  0.20204256867E+02  0.00000000000E+00 0. -1.
</event>
<event>
 7    1  0.1465498E-013  0.7246154E+02  0.7816164E-02  0.1226708E+00
        -11   -1    0    0    0    0  0.00000000000E+00  0.00000000000E+00  0.45593999997E+02  0.45594000000E+02  0.51100000000E-03 0.  1.
         11   -1    0    0    0    0 -0.00000000000E+00 -0.00000000000E+00 -0.45593999997E+02  0.45594000000E+02  0.51100000000E-03 0. -1.
    9900012    2    1    2    0    0  0.81466983033E+01  0.30111922240E+01  0.16590485451E+02  0.72461543332E+02  0.69999964876E+02 0.  0.
         12    1    1    2    0    0 -0.81466983033E+01 -0.30111922240E+01 -0.16590485451E+02  0.18726456668E+02  0.00000000000E+00 0. -1.
         11    1    3    3    0    0 -0.20410413242E+01  0.75152288075E+01  0.81515475296E+01  0.11273519464E+02  0.51100000000E-03 0. -1.
        -11    1    3    3    0    0 -0.15146861564E+02 -0.11094317104E+02  0.24201922468E+02  0.30630774373E+02  0.51100000000E-03 0.  1.
         12    1    3    3    0    0  0.25334601192E+02  0.65902805204E+01 -0.15762984547E+02  0.30557249495E+02  0.00000000000E+00 0. -1.
</event>
<event>
 7    1  0.1465498E-013  0.7246156E+02  0.7816164E-02  0.1226708E+00
        -11   -1    0    0    0    0  0.00000000000E+00  0.00000000000E+00  0.45593999997E+02  0.45594000000E+02  0.51100000000E-03 0.  1.
         11   -1    0    0    0    0 -0.00000000000E+00 -0.00000000000E+00 -0.45593999997E+02  0.45594000000E+02  0.51100000000E-03 0. -1.
    9900012    2    1    2    0    0 -0.49713671721E+01 -0.17652955002E+02  0.37866098479E+01  0.72461555436E+02  0.69999980644E+02 0.  0.
         12    1    1    2    0    0  0.49713671721E+01  0.17652955002E+02 -0.37866098479E+01  0.18726444564E+02  0.00000000000E+00 0. -1.
         11    1    3    3    0    0 -0.15743962385E+02 -0.76822679967E+01 -0.33674031115E+01  0.17838974106E+02  0.51100000000E-03 0. -1.
        -11    1    3    3    0    0 -0.80244841888E+00 -0.44964872483E+00  0.28514030127E+02  0.28528862959E+02  0.51100000000E-03 0.  1.
         12    1    3    3    0    0  0.11575043632E+02 -0.95210382808E+01 -0.21360017167E+02  0.26093718371E+02  0.00000000000E+00 0. -1.
</event>
<event>
 7    1  0.1465498E-013  0.7246172E+02  0.7816164E-02  0.1226708E+00
        -11   -1    0    0    0    0  0.00000000000E+00  0.00000000000E+00  0.45593999997E+02  0.45594000000E+02  0.51100000000E-03 0.  1.
         11   -1    0    0    0    0 -0.00000000000E+00 -0.00000000000E+00 -0.45593999997E+02  0.45594000000E+02  0.51100000000E-03 0. -1.
    9900012    2    1    2    0    0  0.89835546811E+01 -0.16371713620E+02 -0.13915705531E+01  0.72461715527E+02  0.70000189192E+02 0.  0.
         12    1    1    2    0    0 -0.89835546811E+01  0.16371713620E+02  0.13915705531E+01  0.18726284473E+02  0.00000000000E+00 0. -1.
         11    1    3    3    0    0  0.75835915458E+01  0.68177500339E+01  0.37836035838E+01  0.10876958794E+02  0.51100000000E-03 0. -1.
        -11    1    3    3    0    0  0.16587972899E+02 -0.21253889139E+02  0.18990040227E+02  0.32977420707E+02  0.51100000000E-03 0.  1.
         12    1    3    3    0    0 -0.15188009763E+02 -0.19355745146E+01 -0.24165214364E+02  0.28607336026E+02  0.00000000000E+00 0. -1.
</event>
<event>
 7    1  0.1465498E-013  0.7246157E+02  0.7816164E-02  0.1226708E+00
        -11   -1    0    0    0    0  0.00000000000E+00  0.00000000000E+00  0.45593999997E+02  0.45594000000E+02  0.51100000000E-03 0. -1.
         11   -1    0    0    0    0 -0.00000000000E+00 -0.00000000000E+00 -0.45593999997E+02  0.45594000000E+02  0.51100000000E-03 0.  1.
    9900012    2    1    2    0    0  0.13066857925E+01 -0.10739836797E+02 -0.15284882538E+02  0.72461570645E+02  0.70000000457E+02 0.  0.
         12    1    1    2    0    0 -0.13066857925E+01  0.10739836797E+02  0.15284882538E+02  0.18726429355E+02  0.00000000000E+00 0. -1.
         11    1    3    3    0    0 -0.47928114382E+01  0.10638470587E+02  0.73117629357E+01  0.13769893805E+02  0.51100000000E-03 0.  1.
        -11    1    3    3    0    0  0.16222301430E+02 -0.27006625808E+01  0.10392321830E+02  0.19453971198E+02  0.51100000000E-03 0. -1.
        -12    1    3    3    0    0 -0.10122804200E+02 -0.18677644804E+02 -0.32988967304E+02  0.39237705642E+02  0.00000000000E+00 0.  1.
</event>
<event>
 7    1  0.1465498E-013  0.7246134E+02  0.7816164E-02  0.1226709E+00
        -11   -1    0    0    0    0  0.00000000000E+00  0.00000000000E+00  0.45593999997E+02  0.45594000000E+02  0.51100000000E-03 0.  1.
         11   -1    0    0    0    0 -0.00000000000E+00 -0.00000000000E+00 -0.45593999997E+02  0.45594000000E+02  0.51100000000E-03 0. -1.
    9900012    2    1    2    0    0  0.14158284919E+02  0.12197239409E+02 -0.12074774202E+01  0.72461342990E+02  0.69999703894E+02 0.  0.
         12    1    1    2    0    0 -0.14158284919E+02 -0.12197239409E+02  0.12074774202E+01  0.18726657010E+02  0.00000000000E+00 0. -1.
         11    1    3    3    0    0  0.11640781524E+02 -0.11517933543E+02 -0.47665893933E+01  0.17055525859E+02  0.51100000000E-03 0. -1.
        -11    1    3    3    0    0 -0.45790718884E+01  0.55735727575E+01  0.25244937707E+02  0.26255275522E+02  0.51100000000E-03 0.  1.
         12    1    3    3    0    0  0.70965752826E+01  0.18141600195E+02 -0.21685825734E+02  0.29150541610E+02  0.00000000000E+00 0. -1.
</event>
<event>
 7    1  0.1465498E-013  0.7246155E+02  0.7816164E-02  0.1226708E+00
        -11   -1    0    0    0    0  0.00000000000E+00  0.00000000000E+00  0.45593999997E+02  0.45594000000E+02  0.51100000000E-03 0.  1.
         11   -1    0    0    0    0 -0.00000000000E+00 -0.00000000000E+00 -0.45593999997E+02  0.45594000000E+02  0.51100000000E-03 0. -1.
    9900012    2    1    2    0    0  0.17645433257E+02  0.48179899062E+01 -0.40131573016E+01  0.72461554179E+02  0.69999979006E+02 0.  0.
         12    1    1    2    0    0 -0.17645433257E+02 -0.48179899062E+01  0.40131573016E+01  0.18726445821E+02  0.00000000000E+00 0. -1.
         11    1    3    3    0    0 -0.30212454021E+01  0.13041913248E+02 -0.47457305442E+01  0.14203569397E+02  0.51100000000E-03 0. -1.
        -11    1    3    3    0    0  0.24937330195E+02  0.12672802262E+02  0.15816413732E+02  0.32134549912E+02  0.51100000000E-03 0.  1.
         12    1    3    3    0    0 -0.42706515360E+01 -0.20896725604E+02 -0.15083840489E+02  0.26123434870E+02  0.00000000000E+00 0. -1.
</event>
<event>
 7    1  0.1465498E-013  0.7246156E+02  0.7816164E-02  0.1226708E+00
        -11   -1    0    0    0    0  0.00000000000E+00  0.00000000000E+00  0.45593999997E+02  0.45594000000E+02  0.51100000000E-03 0. -1.
         11   -1    0    0    0    0 -0.00000000000E+00 -0.00000000000E+00 -0.45593999997E+02  0.45594000000E+02  0.51100000000E-03 0.  1.
    9900012    2    1    2    0    0  0.17258799952E+02 -0.61775124744E+01 -0.38277680427E+01  0.72461557617E+02  0.69999983485E+02 0.  0.
         12    1    1    2    0    0 -0.17258799952E+02  0.61775124744E+01  0.38277680427E+01  0.18726442383E+02  0.00000000000E+00 0. -1.
         11    1    3    3    0    0  0.67339565677E+00 -0.18470231437E+01  0.63579462749E+01  0.66549558450E+01  0.51100000000E-03 0. -1.
        -11    1    3    3    0    0  0.15706792707E+02 -0.32654430823E+02 -0.19122762040E+01  0.36285975115E+02  0.51100000000E-03 0.  1.
        -12    1    3    3    0    0  0.87861158840E+00  0.28323941492E+02 -0.82734381136E+01  0.29520626657E+02  0.00000000000E+00 0.  1.
</event>
<event>
 7    1  0.1465498E-013  0.7246157E+02  0.7816164E-02  0.1226708E+00
        -11   -1    0    0    0    0  0.00000000000E+00  0.00000000000E+00  0.45593999997E+02  0.45594000000E+02  0.51100000000E-03 0.  1.
         11   -1    0    0    0    0 -0.00000000000E+00 -0.00000000000E+00 -0.45593999997E+02  0.45594000000E+02  0.51100000000E-03 0. -1.
    9900012    2    1    2    0    0 -0.57799646142E+01 -0.39935270085E+01  0.17358653964E+02  0.72461571714E+02  0.70000001849E+02 0.  0.
         12    1    1    2    0    0  0.57799646142E+01  0.39935270085E+01 -0.17358653964E+02  0.18726428286E+02  0.00000000000E+00 0. -1.
         11    1    3    3    0    0 -0.57650674940E+01 -0.17833715798E+02  0.85327557502E+01  0.20593332497E+02  0.51100000000E-03 0. -1.
        -11    1    3    3    0    0 -0.21227295544E+02  0.17990496811E+02  0.11461481048E+02  0.30093547476E+02  0.51100000000E-03 0.  1.
         12    1    3    3    0    0  0.21212398423E+02 -0.41503080216E+01 -0.26355828343E+01  0.21774691741E+02  0.00000000000E+00 0. -1.
</event>
<event>
 7    1  0.1465498E-013  0.7246159E+02  0.7816164E-02  0.1226708E+00
        -11   -1    0    0    0    0  0.00000000000E+00  0.00000000000E+00  0.45593999997E+02  0.45594000000E+02  0.51100000000E-03 0.  1.
         11   -1    0    0    0    0 -0.00000000000E+00 -0.00000000000E+00 -0.45593999997E+02  0.45594000000E+02  0.51100000000E-03 0. -1.
    9900012    2    1    2    0    0 -0.23973666655E+01 -0.16381586183E+02  0.87507019195E+01  0.72461587720E+02  0.70000022700E+02 0.  0.
         12    1    1    2    0    0  0.23973666655E+01  0.16381586183E+02 -0.87507019195E+01  0.18726412280E+02  0.00000000000E+00 0. -1.
         11    1    3    3    0    0 -0.76991157838E+01 -0.54821915701E+01 -0.14065119607E+02  0.16945748673E+02  0.51100000000E-03 0. -1.
        -11    1    3    3    0    0  0.47047679237E+01  0.18909863012E+02  0.29993484833E+01  0.19715827447E+02  0.51100000000E-03 0.  1.
        -12    1    3    3    0    0  0.59698119459E+00 -0.29809257625E+02  0.19816473043E+02  0.35800011600E+02  0.00000000000E+00 0.  1.
</event>
<event>
 7    1  0.1465498E-013  0.7246157E+02  0.7816164E-02  0.1226708E+00
        -11   -1    0    0    0    0  0.00000000000E+00  0.00000000000E+00  0.45593999997E+02  0.45594000000E+02  0.51100000000E-03 0.  1.
         11   -1    0    0    0    0 -0.00000000000E+00 -0.00000000000E+00 -0.45593999997E+02  0.45594000000E+02  0.51100000000E-03 0. -1.
    9900012    2    1    2    0    0  0.97552485071E+01 -0.14619659366E+02  0.64637284710E+01  0.72461572173E+02  0.70000002447E+02 0.  0.
         12    1    1    2    0    0 -0.97552485071E+01  0.14619659366E+02 -0.64637284710E+01  0.18726427827E+02  0.00000000000E+00 0. -1.
         11    1    3    3    0    0 -0.78354388596E+00 -0.68291422654E+01 -0.21885985919E+02  0.22940085113E+02  0.51100000000E-03 0. -1.
        -11    1    3    3    0    0  0.19690430974E+02  0.13482515709E+01  0.15902780663E+01  0.19800500974E+02  0.51100000000E-03 0.  1.
         12    1    3    3    0    0 -0.91516385805E+01 -0.91387686719E+01  0.26759436324E+02  0.29720986086E+02  0.00000000000E+00 0. -1.
</event>
<event>
 7    1  0.1465498E-013  0.7246159E+02  0.7816164E-02  0.1226708E+00
        -11   -1    0    0    0    0  0.00000000000E+00  0.00000000000E+00  0.45593999997E+02  0.45594000000E+02  0.51100000000E-03 0.  1.
         11   -1    0    0    0    0 -0.00000000000E+00 -0.00000000000E+00 -0.45593999997E+02  0.45594000000E+02  0.51100000000E-03 0. -1.
    9900012    2    1    2    0    0  0.89498260408E+01 -0.13214840076E+01  0.16396120445E+02  0.72461588924E+02  0.70000024268E+02 0.  0.
         12    1    1    2    0    0 -0.89498260408E+01  0.13214840076E+01 -0.16396120445E+02  0.18726411076E+02  0.00000000000E+00 0. -1.
         11    1    3    3    0    0  0.26001322680E+02  0.73625883753E+01 -0.11839963547E+02  0.29503579881E+02  0.51100000000E-03 0. -1.
        -11    1    3    3    0    0  0.40300884191E+01 -0.70216582680E+01  0.54324278153E+00  0.81142104040E+01  0.51100000000E-03 0.  1.
        -12    1    3    3    0    0 -0.21081585059E+02 -0.16624141148E+01  0.27692841211E+02  0.34843798639E+02  0.00000000000E+00 0.  1.
</event>
<event>
 7    1  0.1465498E-013  0.7246156E+02  0.7816164E-02  0.1226708E+00
        -11   -1    0    0    0    0  0.00000000000E+00  0.00000000000E+00  0.45593999997E+02  0.45594000000E+02  0.51100000000E-03 0. -1.
         11   -1    0    0    0    0 -0.00000000000E+00 -0.00000000000E+00 -0.45593999997E+02  0.45594000000E+02  0.51100000000E-03 0.  1.
    9900012    2    1    2    0    0  0.93823388706E+01 -0.98755937936E+01  0.12850056631E+02  0.72461559044E+02  0.69999985345E+02 0.  0.
         12    1    1    2    0    0 -0.93823388706E+01  0.98755937936E+01 -0.12850056631E+02  0.18726440956E+02  0.00000000000E+00 0. -1.
         11    1    3    3    0    0  0.24418536863E+02  0.12317606845E+02  0.80687836877E+01  0.28514797060E+02  0.51100000000E-03 0. -1.
        -11    1    3    3    0    0  0.42657738785E+01  0.70744840227E+01 -0.13033731130E+01  0.83632489322E+01  0.51100000000E-03 0.  1.
        -12    1    3    3    0    0 -0.19301971871E+02 -0.29267684661E+02  0.60846460560E+01  0.35583513052E+02  0.00000000000E+00 0.  1.
</event>
<event>
 7    1  0.1465498E-013  0.7246156E+02  0.7816164E-02  0.1226708E+00
        -11   -1    0    0    0    0  0.00000000000E+00  0.00000000000E+00  0.45593999997E+02  0.45594000000E+02  0.51100000000E-03 0. -1.
         11   -1    0    0    0    0 -0.00000000000E+00 -0.00000000000E+00 -0.45593999997E+02  0.45594000000E+02  0.51100000000E-03 0.  1.
    9900012    2    1    2    0    0 -0.11499980982E+02  0.88971231016E+01 -0.11801325102E+02  0.72461557833E+02  0.69999983767E+02 0.  0.
         12    1    1    2    0    0  0.11499980982E+02 -0.88971231016E+01  0.11801325102E+02  0.18726442167E+02  0.00000000000E+00 0. -1.
         11    1    3    3    0    0  0.19348074760E+01 -0.86231984055E+01  0.50355208273E+01  0.10171504361E+02  0.51100000000E-03 0. -1.
        -11    1    3    3    0    0 -0.33786041558E+02  0.24908948846E+01 -0.14607006955E+02  0.36892625468E+02  0.51100000000E-03 0.  1.
         12    1    3    3    0    0  0.20351253100E+02  0.15029426622E+02 -0.22298389740E+01  0.25397428003E+02  0.00000000000E+00 0. -1.
</event>
<event>
 7    1  0.1465498E-013  0.7246168E+02  0.7816164E-02  0.1226708E+00
        -11   -1    0    0    0    0  0.00000000000E+00  0.00000000000E+00  0.45593999997E+02  0.45594000000E+02  0.51100000000E-03 0.  1.
         11   -1    0    0    0    0 -0.00000000000E+00 -0.00000000000E+00 -0.45593999997E+02  0.45594000000E+02  0.51100000000E-03 0. -1.
    9900012    2    1    2    0    0  0.22060825325E+01  0.97031998809E+01  0.15863675112E+02  0.72461679589E+02  0.70000142377E+02 0.  0.
         12    1    1    2    0    0 -0.22060825325E+01 -0.97031998809E+01 -0.15863675112E+02  0.18726320411E+02  0.00000000000E+00 0. -1.
         11    1    3    3    0    0  0.15299568577E+02 -0.12975020135E+02  0.29371768362E+02  0.35568648036E+02  0.51100000000E-03 0.  1.
        -11    1    3    3    0    0 -0.14996260741E+02  0.50646286468E+01 -0.10311508602E+02  0.18890884295E+02  0.51100000000E-03 0. -1.
        -12    1    3    3    0    0  0.19027746967E+01  0.17613591370E+02 -0.31965846486E+01  0.18002147258E+02  0.00000000000E+00 0.  1.
</event>
<event>
 7    1  0.1465498E-013  0.7246161E+02  0.7816164E-02  0.1226708E+00
        -11   -1    0    0    0    0  0.00000000000E+00  0.00000000000E+00  0.45593999997E+02  0.45594000000E+02  0.51100000000E-03 0.  1.
         11   -1    0    0    0    0 -0.00000000000E+00 -0.00000000000E+00 -0.45593999997E+02  0.45594000000E+02  0.51100000000E-03 0. -1.
    9900012    2    1    2    0    0  0.13430686289E+02 -0.33703714246E+01  0.12606947105E+02  0.72461605445E+02  0.70000045790E+02 0.  0.
         12    1    1    2    0    0 -0.13430686289E+02  0.33703714246E+01 -0.12606947105E+02  0.18726394555E+02  0.00000000000E+00 0. -1.
         11    1    3    3    0    0 -0.10291280423E+02  0.99319078722E+01 -0.20553187693E+01  0.14449137768E+02  0.51100000000E-03 0. -1.
        -11    1    3    3    0    0 -0.12204643933E+02 -0.64730794454E+01  0.16348221369E+02  0.21403701391E+02  0.51100000000E-03 0.  1.
         12    1    3    3    0    0  0.35926610645E+02 -0.68291998513E+01 -0.16859554950E+01  0.36608766286E+02  0.00000000000E+00 0. -1.
</event>
<event>
 7    1  0.1465498E-013  0.7246158E+02  0.7816164E-02  0.1226708E+00
        -11   -1    0    0    0    0  0.00000000000E+00  0.00000000000E+00  0.45593999997E+02  0.45594000000E+02  0.51100000000E-03 0.  1.
         11   -1    0    0    0    0 -0.00000000000E+00 -0.00000000000E+00 -0.45593999997E+02  0.45594000000E+02  0.51100000000E-03 0. -1.
    9900012    2    1    2    0    0  0.23143124740E+01 -0.63563912203E+01  0.17461926716E+02  0.72461584534E+02  0.70000018550E+02 0.  0.
         12    1    1    2    0    0 -0.23143124740E+01  0.63563912203E+01 -0.17461926716E+02  0.18726415466E+02  0.00000000000E+00 0. -1.
         11    1    3    3    0    0 -0.20647158328E+02  0.85589012654E+01  0.20120270771E+02  0.30072998422E+02  0.51100000000E-03 0. -1.
        -11    1    3    3    0    0 -0.80029942301E+01 -0.71415636271E+00 -0.21567139400E+01  0.83192157826E+01  0.51100000000E-03 0.  1.
        -12    1    3    3    0    0  0.30964465032E+02 -0.14201136123E+02 -0.50163011558E+00  0.34069370330E+02  0.00000000000E+00 0.  1.
</event>
<event>
 7    1  0.1465498E-013  0.7246156E+02  0.7816164E-02  0.1226708E+00
        -11   -1    0    0    0    0  0.00000000000E+00  0.00000000000E+00  0.45593999997E+02  0.45594000000E+02  0.51100000000E-03 0.  1.
         11   -1    0    0    0    0 -0.00000000000E+00 -0.00000000000E+00 -0.45593999997E+02  0.45594000000E+02  0.51100000000E-03 0. -1.
    9900012    2    1    2    0    0  0.16680707110E+02  0.16547098082E+01  0.83483749271E+01  0.72461563656E+02  0.69999991352E+02 0.  0.
         12    1    1    2    0    0 -0.16680707110E+02 -0.16547098082E+01 -0.83483749271E+01  0.18726436344E+02  0.00000000000E+00 0. -1.
         11    1    3    3    0    0 -0.92646541251E+00  0.12743315067E+02 -0.14470009155E+02  0.19303667586E+02  0.51100000000E-03 0.  1.
        -11    1    3    3    0    0  0.13667599678E+02 -0.57145165270E+01 -0.11150487497E+02  0.18541638325E+02  0.51100000000E-03 0. -1.
        -12    1    3    3    0    0  0.39395728448E+01 -0.53740887322E+01  0.33968871579E+02  0.34616257745E+02  0.00000000000E+00 0.  1.
</event>
<event>
 7    1  0.1465498E-013  0.7246158E+02  0.7816164E-02  0.1226708E+00
        -11   -1    0    0    0    0  0.00000000000E+00  0.00000000000E+00  0.45593999997E+02  0.45594000000E+02  0.51100000000E-03 0.  1.
         11   -1    0    0    0    0 -0.00000000000E+00 -0.00000000000E+00 -0.45593999997E+02  0.45594000000E+02  0.51100000000E-03 0. -1.
    9900012    2    1    2    0    0 -0.10249496001E+02 -0.14804309945E+02  0.51438301744E+01  0.72461581493E+02  0.70000014588E+02 0.  0.
         12    1    1    2    0    0  0.10249496001E+02  0.14804309945E+02 -0.51438301744E+01  0.18726418507E+02  0.00000000000E+00 0. -1.
         11    1    3    3    0    0 -0.74715748829E+01 -0.17136009935E+02 -0.17083964389E+02  0.25324476445E+02  0.51100000000E-03 0. -1.
        -11    1    3    3    0    0  0.14461286778E+01  0.98949198279E+01 -0.97741551408E+01  0.13983377115E+02  0.51100000000E-03 0.  1.
        -12    1    3    3    0    0 -0.42240497963E+01 -0.75632198380E+01  0.32001949704E+02  0.33153727933E+02  0.00000000000E+00 0.  1.
</event>
<event>
 7    1  0.1465498E-013  0.7246158E+02  0.7816164E-02  0.1226708E+00
        -11   -1    0    0    0    0  0.00000000000E+00  0.00000000000E+00  0.45593999997E+02  0.45594000000E+02  0.51100000000E-03 0.  1.
         11   -1    0    0    0    0 -0.00000000000E+00 -0.00000000000E+00 -0.45593999997E+02  0.45594000000E+02  0.51100000000E-03 0. -1.
    9900012    2    1    2    0    0  0.11044526993E+02 -0.75684685298E+01  0.13092577031E+02  0.72461578406E+02  0.70000010567E+02 0.  0.
         12    1    1    2    0    0 -0.11044526993E+02  0.75684685298E+01 -0.13092577031E+02  0.18726421594E+02  0.00000000000E+00 0. -1.
         11    1    3    3    0    0 -0.64139720595E+01  0.39794269890E+01 -0.58071794242E+01  0.95235607767E+01  0.51100000000E-03 0. -1.
        -11    1    3    3    0    0  0.15576475767E+02  0.19960768073E+02 -0.14857075391E+01  0.25362692810E+02  0.51100000000E-03 0.  1.
        -12    1    3    3    0    0  0.18820232856E+01 -0.31508663592E+02  0.20385463995E+02  0.37575324820E+02  0.00000000000E+00 0.  1.
</event>
<event>
 7    1  0.1538927E-013  0.7246169E+02  0.7816164E-02  0.1226708E+00
        -11   -1    0    0    0    0  0.00000000000E+00  0.00000000000E+00  0.45593999997E+02  0.45594000000E+02  0.51100000000E-03 0. -1.
         11   -1    0    0    0    0 -0.00000000000E+00 -0.00000000000E+00 -0.45593999997E+02  0.45594000000E+02  0.51100000000E-03 0.  1.
    9900012    2    1    2    0    0 -0.64007153570E+01 -0.58143178114E+01 -0.16610218025E+02  0.72461687188E+02  0.70000152275E+02 0.  0.
         12    1    1    2    0    0  0.64007153570E+01  0.58143178114E+01  0.16610218025E+02  0.18726312812E+02  0.00000000000E+00 0. -1.
         11    1    3    3    0    0 -0.14427120258E+02  0.35939396831E+00  0.12849414868E+02  0.19323002502E+02  0.51100000000E-03 0. -1.
        -11    1    3    3    0    0  0.36580977451E+01 -0.95986604259E+01  0.93763673244E+01  0.13907991428E+02  0.51100000000E-03 0.  1.
        -12    1    3    3    0    0  0.43683071561E+01  0.34249486462E+01 -0.38836000218E+02  0.39230693259E+02  0.00000000000E+00 0.  1.
</event>
<event>
 7    1  0.1465498E-013  0.7246157E+02  0.7816164E-02  0.1226708E+00
        -11   -1    0    0    0    0  0.00000000000E+00  0.00000000000E+00  0.45593999997E+02  0.45594000000E+02  0.51100000000E-03 0.  1.
         11   -1    0    0    0    0 -0.00000000000E+00 -0.00000000000E+00 -0.45593999997E+02  0.45594000000E+02  0.51100000000E-03 0. -1.
    9900012    2    1    2    0    0  0.14925842818E+02  0.10944873905E+02  0.28474565412E+01  0.72461573289E+02  0.70000003901E+02 0.  0.
         12    1    1    2    0    0 -0.14925842818E+02 -0.10944873905E+02 -0.28474565412E+01  0.18726426711E+02  0.00000000000E+00 0. -1.
         11    1    3    3    0    0 -0.63056830606E+01  0.61092833589E+01  0.27148929639E+01  0.91899742157E+01  0.51100000000E-03 0. -1.
        -11    1    3    3    0    0  0.21436517757E+02 -0.18452849291E+02  0.18339466183E+02  0.33710057263E+02  0.51100000000E-03 0.  1.
         12    1    3    3    0    0 -0.20499187862E+00  0.23288439837E+02 -0.18206902606E+02  0.29561541811E+02  0.00000000000E+00 0. -1.
</event>
<event>
 7    1  0.1465498E-013  0.7246153E+02  0.7816164E-02  0.1226708E+00
        -11   -1    0    0    0    0  0.00000000000E+00  0.00000000000E+00  0.45593999997E+02  0.45594000000E+02  0.51100000000E-03 0. -1.
         11   -1    0    0    0    0 -0.00000000000E+00 -0.00000000000E+00 -0.45593999997E+02  0.45594000000E+02  0.51100000000E-03 0.  1.
    9900012    2    1    2    0    0  0.73571082606E+01 -0.77144198825E+01 -0.15396152282E+02  0.72461526195E+02  0.69999942552E+02 0.  0.
         12    1    1    2    0    0 -0.73571082606E+01  0.77144198825E+01  0.15396152282E+02  0.18726473805E+02  0.00000000000E+00 0. -1.
         11    1    3    3    0    0 -0.11238543039E+02 -0.11530348371E+02  0.52284034782E+01  0.16928968851E+02  0.51100000000E-03 0. -1.
        -11    1    3    3    0    0 -0.16299776996E+02  0.12072345175E+01 -0.90055587461E+01  0.18661195940E+02  0.51100000000E-03 0.  1.
         12    1    3    3    0    0  0.34895428295E+02  0.26086939706E+01 -0.11618997014E+02  0.36871361404E+02  0.00000000000E+00 0. -1.
</event>
<event>
 7    1  0.1465498E-013  0.7246157E+02  0.7816164E-02  0.1226708E+00
        -11   -1    0    0    0    0  0.00000000000E+00  0.00000000000E+00  0.45593999997E+02  0.45594000000E+02  0.51100000000E-03 0.  1.
         11   -1    0    0    0    0 -0.00000000000E+00 -0.00000000000E+00 -0.45593999997E+02  0.45594000000E+02  0.51100000000E-03 0. -1.
    9900012    2    1    2    0    0 -0.12042149080E+02 -0.24638279560E+01  0.14127822104E+02  0.72461570547E+02  0.70000000329E+02 0.  0.
         12    1    1    2    0    0  0.12042149080E+02  0.24638279560E+01 -0.14127822104E+02  0.18726429453E+02  0.00000000000E+00 0. -1.
         11    1    3    3    0    0  0.37454147263E+01  0.72660791047E+01  0.57580914221E+00  0.81948516434E+01  0.51100000000E-03 0. -1.
        -11    1    3    3    0    0 -0.35923036431E+02 -0.11762838165E+02  0.20334900488E+02  0.42922454337E+02  0.51100000000E-03 0.  1.
         12    1    3    3    0    0  0.20135472625E+02  0.20329311047E+01 -0.67828875268E+01  0.21344264567E+02  0.00000000000E+00 0. -1.
</event>
<event>
 7    1  0.1465498E-013  0.7246165E+02  0.7816164E-02  0.1226708E+00
        -11   -1    0    0    0    0  0.00000000000E+00  0.00000000000E+00  0.45593999997E+02  0.45594000000E+02  0.51100000000E-03 0.  1.
         11   -1    0    0    0    0 -0.00000000000E+00 -0.00000000000E+00 -0.45593999997E+02  0.45594000000E+02  0.51100000000E-03 0. -1.
    9900012    2    1    2    0    0 -0.16712210907E+02 -0.24961768596E+00  0.84448624467E+01  0.72461654811E+02  0.70000110099E+02 0.  0.
         12    1    1    2    0    0  0.16712210907E+02  0.24961768596E+00 -0.84448624467E+01  0.18726345189E+02  0.00000000000E+00 0. -1.
         11    1    3    3    0    0  0.50357002787E+01  0.10031160687E+02 -0.81308023778E+00  0.11253602168E+02  0.51100000000E-03 0. -1.
        -11    1    3    3    0    0 -0.34505096795E+01  0.18245046443E+02  0.18364633654E+02  0.26116039253E+02  0.51100000000E-03 0.  1.
         12    1    3    3    0    0 -0.18297401506E+02 -0.28525824816E+02 -0.91066909697E+01  0.35092013390E+02  0.00000000000E+00 0. -1.
</event>
<event>
 7    1  0.1465498E-013  0.7246157E+02  0.7816164E-02  0.1226708E+00
        -11   -1    0    0    0    0  0.00000000000E+00  0.00000000000E+00  0.45593999997E+02  0.45594000000E+02  0.51100000000E-03 0.  1.
         11   -1    0    0    0    0 -0.00000000000E+00 -0.00000000000E+00 -0.45593999997E+02  0.45594000000E+02  0.51100000000E-03 0. -1.
    9900012    2    1    2    0    0  0.13785613381E+02 -0.10706540158E+01  0.12628923067E+02  0.72461571239E+02  0.70000001230E+02 0.  0.
         12    1    1    2    0    0 -0.13785613381E+02  0.10706540158E+01 -0.12628923067E+02  0.18726428761E+02  0.00000000000E+00 0. -1.
         11    1    3    3    0    0 -0.94270735299E+01  0.70022000596E+01  0.13594240473E+02  0.17963961014E+02  0.51100000000E-03 0. -1.
        -11    1    3    3    0    0 -0.18133202495E+01  0.18027564398E+02  0.19354984166E+01  0.18221618008E+02  0.51100000000E-03 0.  1.
         12    1    3    3    0    0  0.25026007161E+02 -0.26100418473E+02 -0.29008158221E+01  0.36275992217E+02  0.00000000000E+00 0. -1.
</event>
<event>
 7    1  0.1465498E-013  0.7246158E+02  0.7816164E-02  0.1226708E+00
        -11   -1    0    0    0    0  0.00000000000E+00  0.00000000000E+00  0.45593999997E+02  0.45594000000E+02  0.51100000000E-03 0. -1.
         11   -1    0    0    0    0 -0.00000000000E+00 -0.00000000000E+00 -0.45593999997E+02  0.45594000000E+02  0.51100000000E-03 0.  1.
    9900012    2    1    2    0    0 -0.14981591622E+02  0.14179809367E+00 -0.11234357782E+02  0.72461575114E+02  0.70000006279E+02 0.  0.
         12    1    1    2    0    0  0.14981591622E+02 -0.14179809367E+00  0.11234357782E+02  0.18726424886E+02  0.00000000000E+00 0. -1.
         11    1    3    3    0    0 -0.55368107427E+01 -0.13634629419E+02 -0.22812647234E+02  0.27147306803E+02  0.51100000000E-03 0. -1.
        -11    1    3    3    0    0  0.12155788459E+02  0.83465875075E-01 -0.66988418647E+01  0.13879648490E+02  0.51100000000E-03 0.  1.
         12    1    3    3    0    0 -0.21600569338E+02  0.13692961638E+02  0.18277131317E+02  0.31434619821E+02  0.00000000000E+00 0. -1.
</event>
<event>
 7    1  0.1465498E-013  0.7246156E+02  0.7816164E-02  0.1226708E+00
        -11   -1    0    0    0    0  0.00000000000E+00  0.00000000000E+00  0.45593999997E+02  0.45594000000E+02  0.51100000000E-03 0.  1.
         11   -1    0    0    0    0 -0.00000000000E+00 -0.00000000000E+00 -0.45593999997E+02  0.45594000000E+02  0.51100000000E-03 0. -1.
    9900012    2    1    2    0    0  0.15441007553E+01  0.18552070629E+02 -0.20287428195E+01  0.72461564963E+02  0.69999993055E+02 0.  0.
         12    1    1    2    0    0 -0.15441007553E+01 -0.18552070629E+02  0.20287428195E+01  0.18726435037E+02  0.00000000000E+00 0. -1.
         11    1    3    3    0    0  0.69352109121E+01 -0.73068094796E+01 -0.19580932848E+02  0.22020434751E+02  0.51100000000E-03 0. -1.
        -11    1    3    3    0    0 -0.60988764256E+01  0.26150200078E+02 -0.54722945268E+01  0.27403927920E+02  0.51100000000E-03 0.  1.
        -12    1    3    3    0    0  0.70776626889E+00 -0.29131996981E+00  0.23024484555E+02  0.23037202292E+02  0.00000000000E+00 0.  1.
</event>
<event>
 7    1  0.1465498E-013  0.7246163E+02  0.7816164E-02  0.1226708E+00
        -11   -1    0    0    0    0  0.00000000000E+00  0.00000000000E+00  0.45593999997E+02  0.45594000000E+02  0.51100000000E-03 0.  1.
         11   -1    0    0    0    0 -0.00000000000E+00 -0.00000000000E+00 -0.45593999997E+02  0.45594000000E+02  0.51100000000E-03 0. -1.
    9900012    2    1    2    0    0  0.37498723721E+01  0.16829456974E+02 -0.73064900023E+01  0.72461629262E+02  0.70000076816E+02 0.  0.
         12    1    1    2    0    0 -0.37498723721E+01 -0.16829456974E+02  0.73064900023E+01  0.18726370738E+02  0.00000000000E+00 0. -1.
         11    1    3    3    0    0 -0.24173309754E+02  0.19154135303E+02 -0.13073422678E+02  0.33498420626E+02  0.51100000000E-03 0. -1.
        -11    1    3    3    0    0 -0.15583084204E+01 -0.21003629061E+01 -0.65184922072E+01  0.70235739041E+01  0.51100000000E-03 0.  1.
        -12    1    3    3    0    0  0.29481490546E+02 -0.22431542233E+00  0.12285424883E+02  0.31939634732E+02  0.00000000000E+00 0.  1.
</event>
<event>
 7    1  0.1465498E-013  0.7246153E+02  0.7816164E-02  0.1226708E+00
        -11   -1    0    0    0    0  0.00000000000E+00  0.00000000000E+00  0.45593999997E+02  0.45594000000E+02  0.51100000000E-03 0. -1.
         11   -1    0    0    0    0 -0.00000000000E+00 -0.00000000000E+00 -0.45593999997E+02  0.45594000000E+02  0.51100000000E-03 0.  1.
    9900012    2    1    2    0    0 -0.15694477364E+02  0.97075754166E+01 -0.31823124979E+01  0.72461528015E+02  0.69999944923E+02 0.  0.
         12    1    1    2    0    0  0.15694477364E+02 -0.97075754166E+01  0.31823124979E+01  0.18726471985E+02  0.00000000000E+00 0. -1.
         11    1    3    3    0    0  0.53881220524E+00  0.23932809218E+02  0.21924419307E+02  0.32461513179E+02  0.51100000000E-03 0.  1.
        -11    1    3    3    0    0  0.48822850927E+01 -0.43179042497E+00 -0.84691939130E+01  0.97852131553E+01  0.51100000000E-03 0. -1.
        -12    1    3    3    0    0 -0.21115574661E+02 -0.13793443377E+02 -0.16637537892E+02  0.30214801680E+02  0.00000000000E+00 0.  1.
</event>
<event>
 7    1  0.1465498E-013  0.7246152E+02  0.7816164E-02  0.1226708E+00
        -11   -1    0    0    0    0  0.00000000000E+00  0.00000000000E+00  0.45593999997E+02  0.45594000000E+02  0.51100000000E-03 0. -1.
         11   -1    0    0    0    0 -0.00000000000E+00 -0.00000000000E+00 -0.45593999997E+02  0.45594000000E+02  0.51100000000E-03 0.  1.
    9900012    2    1    2    0    0 -0.13927506918E+02  0.10670011002E+02 -0.65464820413E+01  0.72461521130E+02  0.69999935954E+02 0.  0.
         12    1    1    2    0    0  0.13927506918E+02 -0.10670011002E+02  0.65464820413E+01  0.18726478870E+02  0.00000000000E+00 0. -1.
         11    1    3    3    0    0 -0.30143081045E+02  0.31151847273E+01 -0.90220891359E+01  0.31618156230E+02  0.51100000000E-03 0. -1.
        -11    1    3    3    0    0  0.49177257869E+01 -0.98463444973E+01 -0.11429731203E+02  0.15867365330E+02  0.51100000000E-03 0.  1.
        -12    1    3    3    0    0  0.11297848339E+02  0.17401170772E+02  0.13905338298E+02  0.24975999570E+02  0.00000000000E+00 0.  1.
</event>
<event>
 7    1  0.1465498E-013  0.7246152E+02  0.7816164E-02  0.1226708E+00
        -11   -1    0    0    0    0  0.00000000000E+00  0.00000000000E+00  0.45593999997E+02  0.45594000000E+02  0.51100000000E-03 0. -1.
         11   -1    0    0    0    0 -0.00000000000E+00 -0.00000000000E+00 -0.45593999997E+02  0.45594000000E+02  0.51100000000E-03 0.  1.
    9900012    2    1    2    0    0 -0.17314741773E+02 -0.60391233691E+01 -0.37960116613E+01  0.72461521466E+02  0.69999936393E+02 0.  0.
         12    1    1    2    0    0  0.17314741773E+02  0.60391233691E+01  0.37960116613E+01  0.18726478534E+02  0.00000000000E+00 0. -1.
         11    1    3    3    0    0 -0.12003785828E+02  0.90401883907E+01 -0.20519064817E+02  0.25433204705E+02  0.51100000000E-03 0. -1.
        -11    1    3    3    0    0 -0.14022746912E+02 -0.61367270162E+01 -0.94788958481E+01  0.18004063880E+02  0.51100000000E-03 0.  1.
         12    1    3    3    0    0  0.87117909673E+01 -0.89425847435E+01  0.26201949004E+02  0.29024252882E+02  0.00000000000E+00 0. -1.
</event>
<event>
 7    1  0.1465498E-013  0.7246159E+02  0.7816164E-02  0.1226708E+00
        -11   -1    0    0    0    0  0.00000000000E+00  0.00000000000E+00  0.45593999997E+02  0.45594000000E+02  0.51100000000E-03 0. -1.
         11   -1    0    0    0    0 -0.00000000000E+00 -0.00000000000E+00 -0.45593999997E+02  0.45594000000E+02  0.51100000000E-03 0.  1.
    9900012    2    1    2    0    0  0.65629411763E+01  0.11901354220E+02 -0.12882708709E+02  0.72461585158E+02  0.70000019363E+02 0.  0.
         12    1    1    2    0    0 -0.65629411763E+01 -0.11901354220E+02  0.12882708709E+02  0.18726414842E+02  0.00000000000E+00 0. -1.
         11    1    3    3    0    0  0.71858936717E+01  0.24350358434E+02 -0.23973244891E+01  0.25501454639E+02  0.51100000000E-03 0. -1.
        -11    1    3    3    0    0 -0.37716816930E+01  0.16103039621E+02 -0.49156275086E+00  0.16546150671E+02  0.51100000000E-03 0.  1.
         12    1    3    3    0    0  0.31487291976E+01 -0.28552043835E+02 -0.99938214690E+01  0.30413979849E+02  0.00000000000E+00 0. -1.
</event>
<event>
 7    1  0.1465498E-013  0.7246158E+02  0.7816164E-02  0.1226708E+00
        -11   -1    0    0    0    0  0.00000000000E+00  0.00000000000E+00  0.45593999997E+02  0.45594000000E+02  0.51100000000E-03 0.  1.
         11   -1    0    0    0    0 -0.00000000000E+00 -0.00000000000E+00 -0.45593999997E+02  0.45594000000E+02  0.51100000000E-03 0. -1.
    9900012    2    1    2    0    0 -0.65994911539E+01  0.15158425489E+02  0.87947560561E+01  0.72461578001E+02  0.70000010040E+02 0.  0.
         12    1    1    2    0    0  0.65994911539E+01 -0.15158425489E+02 -0.87947560561E+01  0.18726421999E+02  0.00000000000E+00 0. -1.
         11    1    3    3    0    0 -0.28633333401E+02  0.60579125961E+01  0.15655191472E+01  0.29308990722E+02  0.51100000000E-03 0. -1.
        -11    1    3    3    0    0  0.57874730895E+01 -0.10154044824E+01  0.19534883765E+02  0.20399450360E+02  0.51100000000E-03 0.  1.
        -12    1    3    3    0    0  0.16246369157E+02  0.10115917375E+02 -0.12305646856E+02  0.22753136920E+02  0.00000000000E+00 0.  1.
</event>
<event>
 7    1  0.1465498E-013  0.7246148E+02  0.7816164E-02  0.1226708E+00
        -11   -1    0    0    0    0  0.00000000000E+00  0.00000000000E+00  0.45593999997E+02  0.45594000000E+02  0.51100000000E-03 0. -1.
         11   -1    0    0    0    0 -0.00000000000E+00 -0.00000000000E+00 -0.45593999997E+02  0.45594000000E+02  0.51100000000E-03 0.  1.
    9900012    2    1    2    0    0  0.25543516024E+01 -0.17203573240E+02  0.69422482109E+01  0.72461482583E+02  0.69999885740E+02 0.  0.
         12    1    1    2    0    0 -0.25543516024E+01  0.17203573240E+02 -0.69422482109E+01  0.18726517417E+02  0.00000000000E+00 0. -1.
         11    1    3    3    0    0 -0.18497488419E+02  0.19283033859E+01  0.16385002202E+01  0.18669764728E+02  0.51100000000E-03 0. -1.
        -11    1    3    3    0    0 -0.77295971191E+01  0.96671389745E+01 -0.16491414686E+01  0.12486789636E+02  0.51100000000E-03 0.  1.
         12    1    3    3    0    0  0.28781437140E+02 -0.28799015600E+02  0.69528894592E+01  0.41304928220E+02  0.00000000000E+00 0. -1.
</event>
<event>
 7    1  0.1465498E-013  0.7246157E+02  0.7816164E-02  0.1226708E+00
        -11   -1    0    0    0    0  0.00000000000E+00  0.00000000000E+00  0.45593999997E+02  0.45594000000E+02  0.51100000000E-03 0. -1.
         11   -1    0    0    0    0 -0.00000000000E+00 -0.00000000000E+00 -0.45593999997E+02  0.45594000000E+02  0.51100000000E-03 0.  1.
    9900012    2    1    2    0    0  0.13385250693E+02  0.54144702232E+01 -0.11924668284E+02  0.72461571147E+02  0.70000001110E+02 0.  0.
         12    1    1    2    0    0 -0.13385250693E+02 -0.54144702232E+01  0.11924668284E+02  0.18726428853E+02  0.00000000000E+00 0. -1.
         11    1    3    3    0    0 -0.80898379803E+01  0.17961919099E+02  0.86019003765E+01  0.21495783461E+02  0.51100000000E-03 0. -1.
        -11    1    3    3    0    0 -0.94363009288E+01  0.52445903994E+01 -0.28823361812E+01  0.11173959271E+02  0.51100000000E-03 0.  1.
        -12    1    3    3    0    0  0.30911389602E+02 -0.17792039275E+02 -0.17644232479E+02  0.39791828414E+02  0.00000000000E+00 0.  1.
</event>
<event>
 7    1  0.1465498E-013  0.7246163E+02  0.7816164E-02  0.1226708E+00
        -11   -1    0    0    0    0  0.00000000000E+00  0.00000000000E+00  0.45593999997E+02  0.45594000000E+02  0.51100000000E-03 0. -1.
         11   -1    0    0    0    0 -0.00000000000E+00 -0.00000000000E+00 -0.45593999997E+02  0.45594000000E+02  0.51100000000E-03 0.  1.
    9900012    2    1    2    0    0  0.14032698982E+02 -0.65932356253E+01 -0.10501887410E+02  0.72461627262E+02  0.70000074211E+02 0.  0.
         12    1    1    2    0    0 -0.14032698982E+02  0.65932356253E+01  0.10501887410E+02  0.18726372738E+02  0.00000000000E+00 0. -1.
         11    1    3    3    0    0  0.18842443232E+02  0.27940888891E+01  0.58542071847E+01  0.19927778142E+02  0.51100000000E-03 0. -1.
        -11    1    3    3    0    0  0.17139669426E+02  0.10570264383E+02 -0.48370979986E+01  0.20709811068E+02  0.51100000000E-03 0.  1.
        -12    1    3    3    0    0 -0.21949413676E+02 -0.19957588897E+02 -0.11518996596E+02  0.31824038052E+02  0.00000000000E+00 0.  1.
</event>
<event>
 7    1  0.1465498E-013  0.7246155E+02  0.7816164E-02  0.1226708E+00
        -11   -1    0    0    0    0  0.00000000000E+00  0.00000000000E+00  0.45593999997E+02  0.45594000000E+02  0.51100000000E-03 0. -1.
         11   -1    0    0    0    0 -0.00000000000E+00 -0.00000000000E+00 -0.45593999997E+02  0.45594000000E+02  0.51100000000E-03 0.  1.
    9900012    2    1    2    0    0 -0.18301160373E+02 -0.37065249255E+01 -0.14174601308E+01  0.72461548355E+02  0.69999971419E+02 0.  0.
         12    1    1    2    0    0  0.18301160373E+02  0.37065249255E+01  0.14174601308E+01  0.18726451645E+02  0.00000000000E+00 0. -1.
         11    1    3    3    0    0  0.66311058145E+01  0.15400724429E+02 -0.57146091105E+01  0.17714701093E+02  0.51100000000E-03 0. -1.
        -11    1    3    3    0    0 -0.19000052325E+02 -0.83517042135E+01 -0.19174038068E+02  0.28255914208E+02  0.51100000000E-03 0.  1.
         12    1    3    3    0    0 -0.59322138620E+01 -0.10755545141E+02  0.23471187048E+02  0.26490933053E+02  0.00000000000E+00 0. -1.
</event>
<event>
 7    1  0.1465498E-013  0.7246152E+02  0.7816164E-02  0.1226708E+00
        -11   -1    0    0    0    0  0.00000000000E+00  0.00000000000E+00  0.45593999997E+02  0.45594000000E+02  0.51100000000E-03 0. -1.
         11   -1    0    0    0    0 -0.00000000000E+00 -0.00000000000E+00 -0.45593999997E+02  0.45594000000E+02  0.51100000000E-03 0.  1.
    9900012    2    1    2    0    0 -0.18116397492E+02  0.27585556513E+01 -0.38558355849E+01  0.72461522610E+02  0.69999937882E+02 0.  0.
         12    1    1    2    0    0  0.18116397492E+02 -0.27585556513E+01  0.38558355849E+01  0.18726477390E+02  0.00000000000E+00 0. -1.
         11    1    3    3    0    0  0.97159622646E+01  0.25372741163E+02  0.36501044298E+01  0.27413485358E+02  0.51100000000E-03 0. -1.
        -11    1    3    3    0    0 -0.14686199272E+02  0.35387664617E+01 -0.16440411674E+01  0.15195729293E+02  0.51100000000E-03 0.  1.
        -12    1    3    3    0    0 -0.13146160485E+02 -0.26152951973E+02 -0.58618988473E+01  0.29852307959E+02  0.00000000000E+00 0.  1.
</event>
<event>
 7    1  0.1465498E-013  0.7246159E+02  0.7816164E-02  0.1226708E+00
        -11   -1    0    0    0    0  0.00000000000E+00  0.00000000000E+00  0.45593999997E+02  0.45594000000E+02  0.51100000000E-03 0.  1.
         11   -1    0    0    0    0 -0.00000000000E+00 -0.00000000000E+00 -0.45593999997E+02  0.45594000000E+02  0.51100000000E-03 0. -1.
    9900012    2    1    2    0    0 -0.15115573950E+02  0.10875097316E+02  0.19824892499E+01  0.72461586006E+02  0.70000020467E+02 0.  0.
         12    1    1    2    0    0  0.15115573950E+02 -0.10875097316E+02 -0.19824892499E+01  0.18726413994E+02  0.00000000000E+00 0. -1.
         11    1    3    3    0    0 -0.16846162259E+02  0.14058038863E+02 -0.11370041981E+02  0.24712334864E+02  0.51100000000E-03 0. -1.
        -11    1    3    3    0    0 -0.27176506591E+01  0.20814800985E+02  0.28696792364E+01  0.21186708671E+02  0.51100000000E-03 0.  1.
         12    1    3    3    0    0  0.44482389682E+01 -0.23997742532E+02  0.10482851994E+02  0.26562542470E+02  0.00000000000E+00 0. -1.
</event>
<event>
 7    1  0.1465498E-013  0.7246157E+02  0.7816164E-02  0.1226708E+00
        -11   -1    0    0    0    0  0.00000000000E+00  0.00000000000E+00  0.45593999997E+02  0.45594000000E+02  0.51100000000E-03 0. -1.
         11   -1    0    0    0    0 -0.00000000000E+00 -0.00000000000E+00 -0.45593999997E+02  0.45594000000E+02  0.51100000000E-03 0.  1.
    9900012    2    1    2    0    0 -0.18704815323E+02  0.89819865213E+00 -0.46082830557E-01  0.72461574802E+02  0.70000005872E+02 0.  0.
         12    1    1    2    0    0  0.18704815323E+02 -0.89819865213E+00  0.46082830557E-01  0.18726425198E+02  0.00000000000E+00 0. -1.
         11    1    3    3    0    0 -0.68886815663E+01 -0.11273465344E+02  0.45341930323E+01  0.13967958380E+02  0.51100000000E-03 0. -1.
        -11    1    3    3    0    0  0.61931136343E+01 -0.19925106036E+02  0.25003802685E+01  0.21014671274E+02  0.51100000000E-03 0.  1.
         12    1    3    3    0    0 -0.18009247391E+02  0.32096770032E+02 -0.70806561314E+01  0.37478945147E+02  0.00000000000E+00 0. -1.
</event>
<event>
 7    1  0.1465498E-013  0.7246157E+02  0.7816164E-02  0.1226708E+00
        -11   -1    0    0    0    0  0.00000000000E+00  0.00000000000E+00  0.45593999997E+02  0.45594000000E+02  0.51100000000E-03 0.  1.
         11   -1    0    0    0    0 -0.00000000000E+00 -0.00000000000E+00 -0.45593999997E+02  0.45594000000E+02  0.51100000000E-03 0. -1.
    9900012    2    1    2    0    0  0.12579379385E+02 -0.97150061242E+01 -0.99023837506E+01  0.72461565912E+02  0.69999994291E+02 0.  0.
         12    1    1    2    0    0 -0.12579379385E+02  0.97150061242E+01  0.99023837506E+01  0.18726434088E+02  0.00000000000E+00 0. -1.
         11    1    3    3    0    0 -0.12432755803E+01  0.57733301680E+01  0.14627582288E+02  0.15774765901E+02  0.51100000000E-03 0. -1.
        -11    1    3    3    0    0  0.14690781987E+02 -0.29203008932E+02 -0.54006333405E+01  0.33133089908E+02  0.51100000000E-03 0.  1.
         12    1    3    3    0    0 -0.86812702147E+00  0.13714672640E+02 -0.19129332698E+02  0.23553710103E+02  0.00000000000E+00 0. -1.
</event>
<event>
 7    1  0.1465498E-013  0.7246154E+02  0.7816164E-02  0.1226708E+00
        -11   -1    0    0    0    0  0.00000000000E+00  0.00000000000E+00  0.45593999997E+02  0.45594000000E+02  0.51100000000E-03 0. -1.
         11   -1    0    0    0    0 -0.00000000000E+00 -0.00000000000E+00 -0.45593999997E+02  0.45594000000E+02  0.51100000000E-03 0.  1.
    9900012    2    1    2    0    0  0.56890467222E+01 -0.62524587392E+01 -0.16709926998E+02  0.72461544031E+02  0.69999965787E+02 0.  0.
         12    1    1    2    0    0 -0.56890467222E+01  0.62524587392E+01  0.16709926998E+02  0.18726455969E+02  0.00000000000E+00 0. -1.
         11    1    3    3    0    0  0.30560784787E+00  0.72766930478E+01  0.74509684575E+00  0.73211220069E+01  0.51100000000E-03 0. -1.
        -11    1    3    3    0    0  0.55057117186E+01  0.67220891051E+01 -0.36391630954E+02  0.37414571322E+02  0.51100000000E-03 0.  1.
        -12    1    3    3    0    0 -0.12227284433E+00 -0.20251240892E+02  0.18936607110E+02  0.27725850702E+02  0.00000000000E+00 0.  1.
</event>
<event>
 7    1  0.1465498E-013  0.7246177E+02  0.7816164E-02  0.1226707E+00
        -11   -1    0    0    0    0  0.00000000000E+00  0.00000000000E+00  0.45593999997E+02  0.45594000000E+02  0.51100000000E-03 0.  1.
         11   -1    0    0    0    0 -0.00000000000E+00 -0.00000000000E+00 -0.45593999997E+02  0.45594000000E+02  0.51100000000E-03 0. -1.
    9900012    2    1    2    0    0 -0.31424513401E+01 -0.43226641969E+01  0.17947454706E+02  0.72461773562E+02  0.70000264793E+02 0.  0.
         12    1    1    2    0    0  0.31424513401E+01  0.43226641969E+01 -0.17947454706E+02  0.18726226438E+02  0.00000000000E+00 0. -1.
         11    1    3    3    0    0  0.26605429440E+01  0.19868739251E+02 -0.85310429438E+01  0.21785866569E+02  0.51100000000E-03 0. -1.
        -11    1    3    3    0    0  0.70718701599E+01  0.69730457732E-01 -0.51781131423E+01  0.87652191000E+01  0.51100000000E-03 0.  1.
        -12    1    3    3    0    0 -0.12874864444E+02 -0.24261133905E+02  0.31656610792E+02  0.41910687893E+02  0.00000000000E+00 0.  1.
</event>
<event>
 7    1  0.1465498E-013  0.7246164E+02  0.7816164E-02  0.1226708E+00
        -11   -1    0    0    0    0  0.00000000000E+00  0.00000000000E+00  0.45593999997E+02  0.45594000000E+02  0.51100000000E-03 0.  1.
         11   -1    0    0    0    0 -0.00000000000E+00 -0.00000000000E+00 -0.45593999997E+02  0.45594000000E+02  0.51100000000E-03 0. -1.
    9900012    2    1    2    0    0  0.12900561082E+02 -0.10520258682E+02 -0.85776588282E+01  0.72461640238E+02  0.70000091115E+02 0.  0.
         12    1    1    2    0    0 -0.12900561082E+02  0.10520258682E+02  0.85776588282E+01  0.18726359762E+02  0.00000000000E+00 0. -1.
         11    1    3    3    0    0 -0.64647182395E+01 -0.84903856770E+01 -0.12995048725E+02  0.16815187257E+02  0.51100000000E-03 0. -1.
        -11    1    3    3    0    0  0.21984106962E+02 -0.24138496436E+02  0.64866674512E+01  0.33287307250E+02  0.51100000000E-03 0.  1.
        -12    1    3    3    0    0 -0.26188276407E+01  0.22108623431E+02 -0.20692775547E+01  0.22359145731E+02  0.00000000000E+00 0.  1.
</event>
<event>
 7    1  0.1465498E-013  0.7246157E+02  0.7816164E-02  0.1226708E+00
        -11   -1    0    0    0    0  0.00000000000E+00  0.00000000000E+00  0.45593999997E+02  0.45594000000E+02  0.51100000000E-03 0. -1.
         11   -1    0    0    0    0 -0.00000000000E+00 -0.00000000000E+00 -0.45593999997E+02  0.45594000000E+02  0.51100000000E-03 0.  1.
    9900012    2    1    2    0    0  0.41505109678E+01  0.17983659115E+02  0.31686399353E+01  0.72461574407E+02  0.70000005357E+02 0.  0.
         12    1    1    2    0    0 -0.41505109678E+01 -0.17983659115E+02 -0.31686399353E+01  0.18726425593E+02  0.00000000000E+00 0. -1.
         11    1    3    3    0    0  0.15690564950E+02 -0.16941880401E+02  0.15361589253E+02  0.27734447256E+02  0.51100000000E-03 0. -1.
        -11    1    3    3    0    0 -0.12723613642E+02  0.63432295631E+01 -0.19923134329E+01  0.14356051632E+02  0.51100000000E-03 0.  1.
        -12    1    3    3    0    0  0.11835596593E+01  0.28582309953E+02 -0.10200635885E+02  0.30371075518E+02  0.00000000000E+00 0.  1.
</event>
<event>
 7    1  0.1465498E-013  0.7246157E+02  0.7816164E-02  0.1226708E+00
        -11   -1    0    0    0    0  0.00000000000E+00  0.00000000000E+00  0.45593999997E+02  0.45594000000E+02  0.51100000000E-03 0.  1.
         11   -1    0    0    0    0 -0.00000000000E+00 -0.00000000000E+00 -0.45593999997E+02  0.45594000000E+02  0.51100000000E-03 0. -1.
    9900012    2    1    2    0    0 -0.10322569329E+02  0.10046950362E+02  0.11965896306E+02  0.72461566183E+02  0.69999994644E+02 0.  0.
         12    1    1    2    0    0  0.10322569329E+02 -0.10046950362E+02 -0.11965896306E+02  0.18726433817E+02  0.00000000000E+00 0. -1.
         11    1    3    3    0    0  0.18998651339E+02  0.10341799526E+02  0.82579106776E+01  0.23153718041E+02  0.51100000000E-03 0. -1.
        -11    1    3    3    0    0 -0.99539258328E+01 -0.18469422202E+02  0.79011556892E+01  0.22419376830E+02  0.51100000000E-03 0.  1.
         12    1    3    3    0    0 -0.19367294835E+02  0.18174573038E+02 -0.41931700611E+01  0.26888471312E+02  0.00000000000E+00 0. -1.
</event>
<event>
 7    1  0.1465498E-013  0.7246166E+02  0.7816164E-02  0.1226708E+00
        -11   -1    0    0    0    0  0.00000000000E+00  0.00000000000E+00  0.45593999997E+02  0.45594000000E+02  0.51100000000E-03 0.  1.
         11   -1    0    0    0    0 -0.00000000000E+00 -0.00000000000E+00 -0.45593999997E+02  0.45594000000E+02  0.51100000000E-03 0. -1.
    9900012    2    1    2    0    0  0.10014510928E+02 -0.54674172461E+01  0.14848994187E+02  0.72461662696E+02  0.70000120370E+02 0.  0.
         12    1    1    2    0    0 -0.10014510928E+02  0.54674172461E+01 -0.14848994187E+02  0.18726337304E+02  0.00000000000E+00 0. -1.
         11    1    3    3    0    0 -0.50937845731E+01  0.98464830768E+00 -0.17810006816E+00  0.51911360474E+01  0.51100000000E-03 0. -1.
        -11    1    3    3    0    0 -0.32486881898E+01  0.25983115446E+02  0.14637618193E+02  0.29998935479E+02  0.51100000000E-03 0.  1.
         12    1    3    3    0    0  0.18356983691E+02 -0.32435181000E+02  0.38947606208E+00  0.37271591169E+02  0.00000000000E+00 0. -1.
</event>
<event>
 7    1  0.2118533E-013  0.7246164E+02  0.7816164E-02  0.1226708E+00
        -11   -1    0    0    0    0  0.00000000000E+00  0.00000000000E+00  0.45593999997E+02  0.45594000000E+02  0.51100000000E-03 0. -1.
         11   -1    0    0    0    0 -0.00000000000E+00 -0.00000000000E+00 -0.45593999997E+02  0.45594000000E+02  0.51100000000E-03 0.  1.
    9900012    2    1    2    0    0 -0.92146268063E+01  0.69998502407E+01 -0.14723089438E+02  0.72461638550E+02  0.70000088915E+02 0.  0.
         12    1    1    2    0    0  0.92146268063E+01 -0.69998502407E+01  0.14723089438E+02  0.18726361450E+02  0.00000000000E+00 0. -1.
         11    1    3    3    0    0  0.52255665000E+01 -0.10233149576E+02  0.20982752035E+02  0.23922787854E+02  0.51100000000E-03 0. -1.
        -11    1    3    3    0    0 -0.11027980782E+02  0.12958349566E+01 -0.22575917404E+01  0.11331031246E+02  0.51100000000E-03 0.  1.
        -12    1    3    3    0    0 -0.34122125240E+01  0.15937164860E+02 -0.33448249732E+02  0.37207819450E+02  0.00000000000E+00 0.  1.
</event>
<event>
 7    1  0.1465498E-013  0.7246162E+02  0.7816164E-02  0.1226708E+00
        -11   -1    0    0    0    0  0.00000000000E+00  0.00000000000E+00  0.45593999997E+02  0.45594000000E+02  0.51100000000E-03 0. -1.
         11   -1    0    0    0    0 -0.00000000000E+00 -0.00000000000E+00 -0.45593999997E+02  0.45594000000E+02  0.51100000000E-03 0.  1.
    9900012    2    1    2    0    0  0.11235869065E+02  0.58428167080E+01 -0.13794709693E+02  0.72461620845E+02  0.70000065852E+02 0.  0.
         12    1    1    2    0    0 -0.11235869065E+02 -0.58428167080E+01  0.13794709693E+02  0.18726379155E+02  0.00000000000E+00 0. -1.
         11    1    3    3    0    0  0.21727172942E+01  0.66807331665E+01  0.15607083803E+02  0.17115313646E+02  0.51100000000E-03 0. -1.
        -11    1    3    3    0    0  0.23840648740E+02  0.12509370138E+02 -0.15575515428E+02  0.31103979725E+02  0.51100000000E-03 0.  1.
        -12    1    3    3    0    0 -0.14777496970E+02 -0.13347286596E+02 -0.13826278069E+02  0.24242327475E+02  0.00000000000E+00 0.  1.
</event>
<event>
 7    1  0.1465498E-013  0.7246158E+02  0.7816164E-02  0.1226708E+00
        -11   -1    0    0    0    0  0.00000000000E+00  0.00000000000E+00  0.45593999997E+02  0.45594000000E+02  0.51100000000E-03 0.  1.
         11   -1    0    0    0    0 -0.00000000000E+00 -0.00000000000E+00 -0.45593999997E+02  0.45594000000E+02  0.51100000000E-03 0. -1.
    9900012    2    1    2    0    0 -0.30370000164E+01  0.12166293407E+00  0.18478112067E+02  0.72461580254E+02  0.70000012974E+02 0.  0.
         12    1    1    2    0    0  0.30370000164E+01 -0.12166293407E+00 -0.18478112067E+02  0.18726419746E+02  0.00000000000E+00 0. -1.
         11    1    3    3    0    0  0.18102188971E+02 -0.14527141773E+02 -0.68609684713E+01  0.24203305193E+02  0.51100000000E-03 0. -1.
        -11    1    3    3    0    0 -0.25053799594E+01 -0.82731812513E+01 -0.97283589528E+00  0.86987853576E+01  0.51100000000E-03 0.  1.
        -12    1    3    3    0    0 -0.18633809028E+02  0.22921985959E+02  0.26311916433E+02  0.39559489703E+02  0.00000000000E+00 0.  1.
</event>
<event>
 7    1  0.1465498E-013  0.7246160E+02  0.7816164E-02  0.1226708E+00
        -11   -1    0    0    0    0  0.00000000000E+00  0.00000000000E+00  0.45593999997E+02  0.45594000000E+02  0.51100000000E-03 0.  1.
         11   -1    0    0    0    0 -0.00000000000E+00 -0.00000000000E+00 -0.45593999997E+02  0.45594000000E+02  0.51100000000E-03 0. -1.
    9900012    2    1    2    0    0  0.36672401216E+01 -0.26519399573E+01  0.18171316869E+02  0.72461596384E+02  0.70000033986E+02 0.  0.
         12    1    1    2    0    0 -0.36672401216E+01  0.26519399573E+01 -0.18171316869E+02  0.18726403616E+02  0.00000000000E+00 0. -1.
         11    1    3    3    0    0  0.80288679923E+01  0.12801810383E+02 -0.15515140140E+02  0.21657992615E+02  0.51100000000E-03 0. -1.
        -11    1    3    3    0    0 -0.45825839008E+01 -0.88098328253E+01 -0.52987732628E+01  0.11255675367E+02  0.51100000000E-03 0.  1.
        -12    1    3    3    0    0  0.22095603011E+00 -0.66439175146E+01  0.38985230272E+02  0.39547928401E+02  0.00000000000E+00 0.  1.
</event>
<event>
 7    1  0.1465498E-013  0.7246155E+02  0.7816164E-02  0.1226708E+00
        -11   -1    0    0    0    0  0.00000000000E+00  0.00000000000E+00  0.45593999997E+02  0.45594000000E+02  0.51100000000E-03 0.  1.
         11   -1    0    0    0    0 -0.00000000000E+00 -0.00000000000E+00 -0.45593999997E+02  0.45594000000E+02  0.51100000000E-03 0. -1.
    9900012    2    1    2    0    0  0.15495937000E+02  0.17400691554E+00  0.10513109273E+02  0.72461553233E+02  0.69999977775E+02 0.  0.
         12    1    1    2    0    0 -0.15495937000E+02 -0.17400691554E+00 -0.10513109273E+02  0.18726446767E+02  0.00000000000E+00 0. -1.
         11    1    3    3    0    0 -0.19708721589E+02 -0.32231307108E+01  0.17305581386E+02  0.26425469260E+02  0.51100000000E-03 0. -1.
        -11    1    3    3    0    0 -0.16893607996E+00 -0.81713198407E+01  0.16209577302E+00  0.81746732436E+01  0.51100000000E-03 0.  1.
        -12    1    3    3    0    0  0.35373594669E+02  0.11568457467E+02 -0.69545678862E+01  0.37861410730E+02  0.00000000000E+00 0.  1.
</event>
<event>
 7    1  0.1465498E-013  0.7246157E+02  0.7816164E-02  0.1226708E+00
        -11   -1    0    0    0    0  0.00000000000E+00  0.00000000000E+00  0.45593999997E+02  0.45594000000E+02  0.51100000000E-03 0. -1.
         11   -1    0    0    0    0 -0.00000000000E+00 -0.00000000000E+00 -0.45593999997E+02  0.45594000000E+02  0.51100000000E-03 0.  1.
    9900012    2    1    2    0    0  0.18121124605E+02 -0.20909741096E+01 -0.42345817043E+01  0.72461574504E+02  0.70000005483E+02 0.  0.
         12    1    1    2    0    0 -0.18121124605E+02  0.20909741096E+01  0.42345817043E+01  0.18726425496E+02  0.00000000000E+00 0. -1.
         11    1    3    3    0    0  0.24421983023E+02 -0.35879111233E+00  0.17329791218E+02  0.29948015790E+02  0.51100000000E-03 0. -1.
        -11    1    3    3    0    0 -0.42909335702E+01  0.12460968202E+02  0.35032463898E+01  0.13636736229E+02  0.51100000000E-03 0.  1.
        -12    1    3    3    0    0 -0.20099248480E+01 -0.14193151200E+02 -0.25067619312E+02  0.28876822485E+02  0.00000000000E+00 0.  1.
</event>
<event>
 7    1  0.1465498E-013  0.7246161E+02  0.7816164E-02  0.1226708E+00
        -11   -1    0    0    0    0  0.00000000000E+00  0.00000000000E+00  0.45593999997E+02  0.45594000000E+02  0.51100000000E-03 0.  1.
         11   -1    0    0    0    0 -0.00000000000E+00 -0.00000000000E+00 -0.45593999997E+02  0.45594000000E+02  0.51100000000E-03 0. -1.
    9900012    2    1    2    0    0 -0.83961659221E+01  0.16542911961E+02  0.25523068680E+01  0.72461606629E+02  0.70000047332E+02 0.  0.
         12    1    1    2    0    0  0.83961659221E+01 -0.16542911961E+02 -0.25523068680E+01  0.18726393371E+02  0.00000000000E+00 0. -1.
         11    1    3    3    0    0  0.98741409698E+01  0.22002788313E+02 -0.10675002317E+01  0.24140441389E+02  0.51100000000E-03 0. -1.
        -11    1    3    3    0    0  0.13170487962E+02 -0.21850544830E+01  0.92108836289E+01  0.16219636054E+02  0.51100000000E-03 0.  1.
         12    1    3    3    0    0 -0.31440794854E+02 -0.32748218685E+01 -0.55910765292E+01  0.32101529186E+02  0.00000000000E+00 0. -1.
</event>
<event>
 7    1  0.1465498E-013  0.7246158E+02  0.7816164E-02  0.1226708E+00
        -11   -1    0    0    0    0  0.00000000000E+00  0.00000000000E+00  0.45593999997E+02  0.45594000000E+02  0.51100000000E-03 0.  1.
         11   -1    0    0    0    0 -0.00000000000E+00 -0.00000000000E+00 -0.45593999997E+02  0.45594000000E+02  0.51100000000E-03 0. -1.
    9900012    2    1    2    0    0  0.15841165537E+02  0.52669651823E+01  0.84850090383E+01  0.72461579462E+02  0.70000011942E+02 0.  0.
         12    1    1    2    0    0 -0.15841165537E+02 -0.52669651823E+01 -0.84850090383E+01  0.18726420538E+02  0.00000000000E+00 0. -1.
         11    1    3    3    0    0  0.22134987774E+02  0.10824801808E+02  0.92001259672E+01  0.26301641317E+02  0.51100000000E-03 0. -1.
        -11    1    3    3    0    0  0.16184874483E+02 -0.68686042207E+00 -0.12363244884E+02  0.20378217871E+02  0.51100000000E-03 0.  1.
        -12    1    3    3    0    0 -0.22478696720E+02 -0.48709762032E+01  0.11648127955E+02  0.25781720273E+02  0.00000000000E+00 0.  1.
</event>
<event>
 7    1  0.1465498E-013  0.7246161E+02  0.7816164E-02  0.1226708E+00
        -11   -1    0    0    0    0  0.00000000000E+00  0.00000000000E+00  0.45593999997E+02  0.45594000000E+02  0.51100000000E-03 0.  1.
         11   -1    0    0    0    0 -0.00000000000E+00 -0.00000000000E+00 -0.45593999997E+02  0.45594000000E+02  0.51100000000E-03 0. -1.
    9900012    2    1    2    0    0  0.19289449647E+01  0.17346412039E+02  0.67866544936E+01  0.72461614376E+02  0.70000057425E+02 0.  0.
         12    1    1    2    0    0 -0.19289449647E+01 -0.17346412039E+02 -0.67866544936E+01  0.18726385624E+02  0.00000000000E+00 0. -1.
         11    1    3    3    0    0  0.12628156379E+02  0.78873633128E+01 -0.98528225879E+01  0.17853821630E+02  0.51100000000E-03 0. -1.
        -11    1    3    3    0    0  0.19832382250E+02  0.70800761291E+01  0.98110414548E+01  0.23231603440E+02  0.51100000000E-03 0.  1.
        -12    1    3    3    0    0 -0.30531593664E+02  0.23789725974E+01  0.68284356268E+01  0.31376189307E+02  0.00000000000E+00 0.  1.
</event>
<event>
 7    1  0.1465498E-013  0.7246154E+02  0.7816164E-02  0.1226708E+00
        -11   -1    0    0    0    0  0.00000000000E+00  0.00000000000E+00  0.45593999997E+02  0.45594000000E+02  0.51100000000E-03 0.  1.
         11   -1    0    0    0    0 -0.00000000000E+00 -0.00000000000E+00 -0.45593999997E+02  0.45594000000E+02  0.51100000000E-03 0. -1.
    9900012    2    1    2    0    0  0.47602909970E+01 -0.96093672828E+01  0.15351874076E+02  0.72461538839E+02  0.69999959024E+02 0.  0.
         12    1    1    2    0    0 -0.47602909970E+01  0.96093672828E+01 -0.15351874076E+02  0.18726461161E+02  0.00000000000E+00 0. -1.
         11    1    3    3    0    0  0.10152484743E+02 -0.25209760619E+01 -0.11353129693E+01  0.10522224222E+02  0.51100000000E-03 0. -1.
        -11    1    3    3    0    0  0.12698019805E+02 -0.28255841405E+02  0.13966911379E+02  0.33980978418E+02  0.51100000000E-03 0.  1.
         12    1    3    3    0    0 -0.18090213552E+02  0.21167450184E+02  0.25202756661E+01  0.27958336200E+02  0.00000000000E+00 0. -1.
</event>
<event>
 7    1  0.1465498E-013  0.7246123E+02  0.7816164E-02  0.1226709E+00
        -11   -1    0    0    0    0  0.00000000000E+00  0.00000000000E+00  0.45593999997E+02  0.45594000000E+02  0.51100000000E-03 0.  1.
         11   -1    0    0    0    0 -0.00000000000E+00 -0.00000000000E+00 -0.45593999997E+02  0.45594000000E+02  0.51100000000E-03 0. -1.
    9900012    2    1    2    0    0  0.92603698122E+01  0.31866176911E+01  0.15961926512E+02  0.72461225602E+02  0.69999550973E+02 0.  0.
         12    1    1    2    0    0 -0.92603698122E+01 -0.31866176911E+01 -0.15961926512E+02  0.18726774398E+02  0.00000000000E+00 0. -1.
         11    1    3    3    0    0  0.14018700236E+02 -0.13915944894E+02  0.31947211726E+02  0.37560641846E+02  0.51100000000E-03 0. -1.
        -11    1    3    3    0    0 -0.36807491544E+01 -0.36676456507E+01  0.36087261399E+01  0.63263293915E+01  0.51100000000E-03 0.  1.
         12    1    3    3    0    0 -0.10775812690E+01  0.20770208236E+02 -0.19594011354E+02  0.28574254365E+02  0.00000000000E+00 0. -1.
</event>
<event>
 7    1  0.1465498E-013  0.7246160E+02  0.7816164E-02  0.1226708E+00
        -11   -1    0    0    0    0  0.00000000000E+00  0.00000000000E+00  0.45593999997E+02  0.45594000000E+02  0.51100000000E-03 0.  1.
         11   -1    0    0    0    0 -0.00000000000E+00 -0.00000000000E+00 -0.45593999997E+02  0.45594000000E+02  0.51100000000E-03 0. -1.
    9900012    2    1    2    0    0  0.66886131948E+01 -0.17385084290E+02  0.19233300551E+01  0.72461604171E+02  0.70000044130E+02 0.  0.
         12    1    1    2    0    0 -0.66886131948E+01  0.17385084290E+02 -0.19233300551E+01  0.18726395829E+02  0.00000000000E+00 0. -1.
         11    1    3    3    0    0 -0.18027839208E+02 -0.30603816236E+01  0.81699845254E+01  0.20027919752E+02  0.51100000000E-03 0. -1.
        -11    1    3    3    0    0 -0.90063556114E+01 -0.11300330547E+02  0.70248717886E+01  0.16067381111E+02  0.51100000000E-03 0.  1.
        -12    1    3    3    0    0  0.33722808014E+02 -0.30243721201E+01 -0.13271526259E+02  0.36366303308E+02  0.00000000000E+00 0.  1.
</event>
<event>
 7    1  0.1465498E-013  0.7246159E+02  0.7816164E-02  0.1226708E+00
        -11   -1    0    0    0    0  0.00000000000E+00  0.00000000000E+00  0.45593999997E+02  0.45594000000E+02  0.51100000000E-03 0.  1.
         11   -1    0    0    0    0 -0.00000000000E+00 -0.00000000000E+00 -0.45593999997E+02  0.45594000000E+02  0.51100000000E-03 0. -1.
    9900012    2    1    2    0    0 -0.11638911843E+02  0.13687108234E+02 -0.52798870666E+01  0.72461590624E+02  0.70000026483E+02 0.  0.
         12    1    1    2    0    0  0.11638911843E+02 -0.13687108234E+02  0.52798870666E+01  0.18726409376E+02  0.00000000000E+00 0. -1.
         11    1    3    3    0    0 -0.26541329050E+02  0.70222525226E+01 -0.26195895274E+01  0.27579275331E+02  0.51100000000E-03 0.  1.
        -11    1    3    3    0    0  0.24923117377E+01  0.20294164797E+02 -0.12522903262E+02  0.23976818992E+02  0.51100000000E-03 0. -1.
        -12    1    3    3    0    0  0.12410105470E+02 -0.13629309085E+02  0.98626057231E+01  0.20905496300E+02  0.00000000000E+00 0.  1.
</event>
<event>
 7    1  0.1465498E-013  0.7246153E+02  0.7816164E-02  0.1226708E+00
        -11   -1    0    0    0    0  0.00000000000E+00  0.00000000000E+00  0.45593999997E+02  0.45594000000E+02  0.51100000000E-03 0.  1.
         11   -1    0    0    0    0 -0.00000000000E+00 -0.00000000000E+00 -0.45593999997E+02  0.45594000000E+02  0.51100000000E-03 0. -1.
    9900012    2    1    2    0    0  0.87393877574E+00 -0.14748705420E+02  0.11506193617E+02  0.72461532845E+02  0.69999951215E+02 0.  0.
         12    1    1    2    0    0 -0.87393877574E+00  0.14748705420E+02 -0.11506193617E+02  0.18726467155E+02  0.00000000000E+00 0. -1.
         11    1    3    3    0    0  0.12600430481E+02  0.27142533298E+00 -0.95541984058E-01  0.12603715664E+02  0.51100000000E-03 0. -1.
        -11    1    3    3    0    0  0.15532362314E+02 -0.84276418235E+01  0.23492112777E+02  0.29396577841E+02  0.51100000000E-03 0.  1.
         12    1    3    3    0    0 -0.27258854019E+02 -0.65924889294E+01 -0.11890377176E+02  0.30461239340E+02  0.00000000000E+00 0. -1.
</event>
<event>
 7    1  0.1465498E-013  0.7246158E+02  0.7816164E-02  0.1226708E+00
        -11   -1    0    0    0    0  0.00000000000E+00  0.00000000000E+00  0.45593999997E+02  0.45594000000E+02  0.51100000000E-03 0.  1.
         11   -1    0    0    0    0 -0.00000000000E+00 -0.00000000000E+00 -0.45593999997E+02  0.45594000000E+02  0.51100000000E-03 0. -1.
    9900012    2    1    2    0    0 -0.12253463263E+02 -0.13549247584E+02  0.41169643783E+01  0.72461578353E+02  0.70000010498E+02 0.  0.
         12    1    1    2    0    0  0.12253463263E+02  0.13549247584E+02 -0.41169643783E+01  0.18726421647E+02  0.00000000000E+00 0. -1.
         11    1    3    3    0    0 -0.18339303761E+01 -0.17189049854E+02  0.11629408392E+02  0.20834343650E+02  0.51100000000E-03 0. -1.
        -11    1    3    3    0    0  0.44284254143E+01  0.27606636733E+01  0.19827738959E+02  0.20502961934E+02  0.51100000000E-03 0.  1.
         12    1    3    3    0    0 -0.14847958301E+02  0.87913859743E+00 -0.27340182973E+02  0.31124272769E+02  0.00000000000E+00 0. -1.
</event>
<event>
 7    1  0.1465498E-013  0.7246157E+02  0.7816164E-02  0.1226708E+00
        -11   -1    0    0    0    0  0.00000000000E+00  0.00000000000E+00  0.45593999997E+02  0.45594000000E+02  0.51100000000E-03 0. -1.
         11   -1    0    0    0    0 -0.00000000000E+00 -0.00000000000E+00 -0.45593999997E+02  0.45594000000E+02  0.51100000000E-03 0.  1.
    9900012    2    1    2    0    0  0.10137308421E+02 -0.11420365184E+02 -0.10839245496E+02  0.72461574664E+02  0.70000005692E+02 0.  0.
         12    1    1    2    0    0 -0.10137308421E+02  0.11420365184E+02  0.10839245496E+02  0.18726425336E+02  0.00000000000E+00 0. -1.
         11    1    3    3    0    0 -0.84990711185E+01 -0.30491407617E-03 -0.88502489593E+01  0.12270334831E+02  0.51100000000E-03 0. -1.
        -11    1    3    3    0    0  0.22150258838E+01  0.29812165772E+01 -0.26845912597E+02  0.27101605402E+02  0.51100000000E-03 0.  1.
         12    1    3    3    0    0  0.16421353655E+02 -0.14401276847E+02  0.24856916060E+02  0.33089634430E+02  0.00000000000E+00 0. -1.
</event>
<event>
 7    1  0.1465498E-013  0.7246157E+02  0.7816164E-02  0.1226708E+00
        -11   -1    0    0    0    0  0.00000000000E+00  0.00000000000E+00  0.45593999997E+02  0.45594000000E+02  0.51100000000E-03 0. -1.
         11   -1    0    0    0    0 -0.00000000000E+00 -0.00000000000E+00 -0.45593999997E+02  0.45594000000E+02  0.51100000000E-03 0.  1.
    9900012    2    1    2    0    0 -0.85694081502E+00 -0.16236584796E+02  0.92907603085E+01  0.72461567865E+02  0.69999996836E+02 0.  0.
         12    1    1    2    0    0  0.85694081502E+00  0.16236584796E+02 -0.92907603085E+01  0.18726432135E+02  0.00000000000E+00 0. -1.
         11    1    3    3    0    0  0.15092607337E+01 -0.16535396637E+02 -0.99306461737E+00  0.16633802557E+02  0.51100000000E-03 0. -1.
        -11    1    3    3    0    0  0.15097422182E+02 -0.21402607772E+02  0.16768244640E+00  0.26192210553E+02  0.51100000000E-03 0.  1.
         12    1    3    3    0    0 -0.17463623731E+02  0.21701419613E+02  0.10116142479E+02  0.29635554756E+02  0.00000000000E+00 0. -1.
</event>
<event>
 7    1  0.1465498E-013  0.7246155E+02  0.7816164E-02  0.1226708E+00
        -11   -1    0    0    0    0  0.00000000000E+00  0.00000000000E+00  0.45593999997E+02  0.45594000000E+02  0.51100000000E-03 0. -1.
         11   -1    0    0    0    0 -0.00000000000E+00 -0.00000000000E+00 -0.45593999997E+02  0.45594000000E+02  0.51100000000E-03 0.  1.
    9900012    2    1    2    0    0  0.49241389241E+00 -0.17669862482E+02  0.61817114892E+01  0.72461546291E+02  0.69999968731E+02 0.  0.
         12    1    1    2    0    0 -0.49241389241E+00  0.17669862482E+02 -0.61817114892E+01  0.18726453709E+02  0.00000000000E+00 0. -1.
         11    1    3    3    0    0  0.10793464617E+01 -0.28961226361E+00 -0.35933525716E+01  0.37631166621E+01  0.51100000000E-03 0. -1.
        -11    1    3    3    0    0 -0.16405532219E+02 -0.22317439178E+02 -0.20313139288E+02  0.34348700220E+02  0.51100000000E-03 0.  1.
         12    1    3    3    0    0  0.15818599649E+02  0.49371889589E+01  0.30088203349E+02  0.34349729408E+02  0.00000000000E+00 0. -1.
</event>
<event>
 7    1  0.1465498E-013  0.7246152E+02  0.7816164E-02  0.1226708E+00
        -11   -1    0    0    0    0  0.00000000000E+00  0.00000000000E+00  0.45593999997E+02  0.45594000000E+02  0.51100000000E-03 0.  1.
         11   -1    0    0    0    0 -0.00000000000E+00 -0.00000000000E+00 -0.45593999997E+02  0.45594000000E+02  0.51100000000E-03 0. -1.
    9900012    2    1    2    0    0 -0.12831454745E+02  0.13442877142E+02 -0.23073923426E+01  0.72461515115E+02  0.69999928118E+02 0.  0.
         12    1    1    2    0    0  0.12831454745E+02 -0.13442877142E+02  0.23073923426E+01  0.18726484885E+02  0.00000000000E+00 0. -1.
         11    1    3    3    0    0  0.19771288485E+02  0.16300874057E+02 -0.35884312192E+01  0.25874682264E+02  0.51100000000E-03 0. -1.
        -11    1    3    3    0    0  0.50407971441E+01  0.12372656134E+01 -0.60990670581E+01  0.80086878630E+01  0.51100000000E-03 0.  1.
        -12    1    3    3    0    0 -0.37643540374E+02 -0.40952625284E+01  0.73801059347E+01  0.38578144988E+02  0.00000000000E+00 0.  1.
</event>
<event>
 7    1  0.1465498E-013  0.7246152E+02  0.7816164E-02  0.1226708E+00
        -11   -1    0    0    0    0  0.00000000000E+00  0.00000000000E+00  0.45593999997E+02  0.45594000000E+02  0.51100000000E-03 0.  1.
         11   -1    0    0    0    0 -0.00000000000E+00 -0.00000000000E+00 -0.45593999997E+02  0.45594000000E+02  0.51100000000E-03 0. -1.
    9900012    2    1    2    0    0  0.24789543909E+01 -0.19210137348E+01  0.18462002089E+02  0.72461520626E+02  0.69999935297E+02 0.  0.
         12    1    1    2    0    0 -0.24789543909E+01  0.19210137348E+01 -0.18462002089E+02  0.18726479374E+02  0.00000000000E+00 0. -1.
         11    1    3    3    0    0  0.38052757266E+01 -0.23711477306E+02  0.20632859421E+01  0.24103348907E+02  0.51100000000E-03 0. -1.
        -11    1    3    3    0    0 -0.14135447338E+02 -0.53125794378E+01  0.86200779243E+01  0.17387930165E+02  0.51100000000E-03 0.  1.
         12    1    3    3    0    0  0.12809126002E+02  0.27103043009E+02  0.77786382222E+01  0.30970241554E+02  0.00000000000E+00 0. -1.
</event>
<event>
 7    1  0.1465498E-013  0.7246155E+02  0.7816164E-02  0.1226708E+00
        -11   -1    0    0    0    0  0.00000000000E+00  0.00000000000E+00  0.45593999997E+02  0.45594000000E+02  0.51100000000E-03 0.  1.
         11   -1    0    0    0    0 -0.00000000000E+00 -0.00000000000E+00 -0.45593999997E+02  0.45594000000E+02  0.51100000000E-03 0. -1.
    9900012    2    1    2    0    0 -0.33152137622E+01 -0.36237134932E+01  0.18070911612E+02  0.72461553774E+02  0.69999978479E+02 0.  0.
         12    1    1    2    0    0  0.33152137622E+01  0.36237134932E+01 -0.18070911612E+02  0.18726446226E+02  0.00000000000E+00 0. -1.
         11    1    3    3    0    0 -0.15974477708E+01 -0.23776863194E+02  0.10661153129E+02  0.26106536519E+02  0.51100000000E-03 0. -1.
        -11    1    3    3    0    0  0.11212802850E+02  0.52287068855E+01  0.19578398792E+02  0.23159879598E+02  0.51100000000E-03 0.  1.
         12    1    3    3    0    0 -0.12930568842E+02  0.14924442815E+02 -0.12168640310E+02  0.23195137657E+02  0.00000000000E+00 0. -1.
</event>
<event>
 7    1  0.1465498E-013  0.7246156E+02  0.7816164E-02  0.1226708E+00
        -11   -1    0    0    0    0  0.00000000000E+00  0.00000000000E+00  0.45593999997E+02  0.45594000000E+02  0.51100000000E-03 0.  1.
         11   -1    0    0    0    0 -0.00000000000E+00 -0.00000000000E+00 -0.45593999997E+02  0.45594000000E+02  0.51100000000E-03 0. -1.
    9900012    2    1    2    0    0 -0.39282330573E+01  0.33295725471E+01  0.18004513835E+02  0.72461559155E+02  0.69999985489E+02 0.  0.
         12    1    1    2    0    0  0.39282330573E+01 -0.33295725471E+01 -0.18004513835E+02  0.18726440845E+02  0.00000000000E+00 0. -1.
         11    1    3    3    0    0  0.12645125130E+02 -0.10817370488E+02  0.71365849514E+01  0.18106505429E+02  0.51100000000E-03 0. -1.
        -11    1    3    3    0    0 -0.33738918988E+02  0.65675325191E+01  0.52732095102E+01  0.34774327839E+02  0.51100000000E-03 0.  1.
         12    1    3    3    0    0  0.17165560801E+02  0.75794105157E+01  0.55947193732E+01  0.19580725886E+02  0.00000000000E+00 0. -1.
</event>
<event>
 7    1  0.1465498E-013  0.7246157E+02  0.7816164E-02  0.1226708E+00
        -11   -1    0    0    0    0  0.00000000000E+00  0.00000000000E+00  0.45593999997E+02  0.45594000000E+02  0.51100000000E-03 0. -1.
         11   -1    0    0    0    0 -0.00000000000E+00 -0.00000000000E+00 -0.45593999997E+02  0.45594000000E+02  0.51100000000E-03 0.  1.
    9900012    2    1    2    0    0  0.82735374653E+01 -0.16345881894E+02 -0.38781247501E+01  0.72461571385E+02  0.70000001421E+02 0.  0.
         12    1    1    2    0    0 -0.82735374653E+01  0.16345881894E+02  0.38781247501E+01  0.18726428615E+02  0.00000000000E+00 0. -1.
         11    1    3    3    0    0  0.11440977722E+01 -0.10183337897E+02  0.34763407361E+01  0.10821010841E+02  0.51100000000E-03 0. -1.
        -11    1    3    3    0    0  0.33677936939E+02 -0.30299888126E+00 -0.87011598104E+00  0.33690537942E+02  0.51100000000E-03 0.  1.
         12    1    3    3    0    0 -0.26548497245E+02 -0.58595451156E+01 -0.64843495051E+01  0.27950022602E+02  0.00000000000E+00 0. -1.
</event>
<event>
 7    1  0.1465498E-013  0.7246160E+02  0.7816164E-02  0.1226708E+00
        -11   -1    0    0    0    0  0.00000000000E+00  0.00000000000E+00  0.45593999997E+02  0.45594000000E+02  0.51100000000E-03 0.  1.
         11   -1    0    0    0    0 -0.00000000000E+00 -0.00000000000E+00 -0.45593999997E+02  0.45594000000E+02  0.51100000000E-03 0. -1.
    9900012    2    1    2    0    0 -0.16608195961E+02 -0.30288862442E+00 -0.86460580950E+01  0.72461595241E+02  0.70000032498E+02 0.  0.
         12    1    1    2    0    0  0.16608195961E+02  0.30288862442E+00  0.86460580950E+01  0.18726404759E+02  0.00000000000E+00 0. -1.
         11    1    3    3    0    0  0.11426581910E+02 -0.25375728860E+01 -0.11947313303E+02  0.16725559654E+02  0.51100000000E-03 0. -1.
        -11    1    3    3    0    0  0.66568608491E+01  0.87316927918E+01 -0.12866369227E+02  0.16914482337E+02  0.51100000000E-03 0.  1.
        -12    1    3    3    0    0 -0.34691638720E+02 -0.64970085302E+01  0.16167624435E+02  0.38821553251E+02  0.00000000000E+00 0.  1.
</event>
<event>
 7    1  0.1465498E-013  0.7246153E+02  0.7816164E-02  0.1226708E+00
        -11   -1    0    0    0    0  0.00000000000E+00  0.00000000000E+00  0.45593999997E+02  0.45594000000E+02  0.51100000000E-03 0.  1.
         11   -1    0    0    0    0 -0.00000000000E+00 -0.00000000000E+00 -0.45593999997E+02  0.45594000000E+02  0.51100000000E-03 0. -1.
    9900012    2    1    2    0    0 -0.93907330674E+01  0.15230247596E+02 -0.55257837722E+01  0.72461532216E+02  0.69999950396E+02 0.  0.
         12    1    1    2    0    0  0.93907330674E+01 -0.15230247596E+02  0.55257837722E+01  0.18726467784E+02  0.00000000000E+00 0. -1.
         11    1    3    3    0    0 -0.18642174710E+02 -0.99564956930E+01  0.14954369198E+02  0.25890068420E+02  0.51100000000E-03 0. -1.
        -11    1    3    3    0    0 -0.99893820491E+01  0.15851267723E+00 -0.27420018823E+01  0.10360089506E+02  0.51100000000E-03 0.  1.
         12    1    3    3    0    0  0.19240823692E+02  0.25028230612E+02 -0.17738151088E+02  0.36211374289E+02  0.00000000000E+00 0. -1.
</event>
<event>
 7    1  0.1465498E-013  0.7246152E+02  0.7816164E-02  0.1226708E+00
        -11   -1    0    0    0    0  0.00000000000E+00  0.00000000000E+00  0.45593999997E+02  0.45594000000E+02  0.51100000000E-03 0.  1.
         11   -1    0    0    0    0 -0.00000000000E+00 -0.00000000000E+00 -0.45593999997E+02  0.45594000000E+02  0.51100000000E-03 0. -1.
    9900012    2    1    2    0    0  0.66293139273E+00 -0.55776728812E+01  0.17864239516E+02  0.72461522320E+02  0.69999937504E+02 0.  0.
         12    1    1    2    0    0 -0.66293139273E+00  0.55776728812E+01 -0.17864239516E+02  0.18726477680E+02  0.00000000000E+00 0. -1.
         11    1    3    3    0    0 -0.92730761556E+01  0.24775626853E+02  0.14115281838E+02  0.29984376081E+02  0.51100000000E-03 0. -1.
        -11    1    3    3    0    0  0.15484745741E+02 -0.48723091769E+01  0.14687515201E+01  0.16299508541E+02  0.51100000000E-03 0.  1.
        -12    1    3    3    0    0 -0.55487381926E+01 -0.25480990558E+02  0.22802061588E+01  0.26177637698E+02  0.00000000000E+00 0.  1.
</event>
<event>
 7    1  0.1465498E-013  0.7246169E+02  0.7816164E-02  0.1226708E+00
        -11   -1    0    0    0    0  0.00000000000E+00  0.00000000000E+00  0.45593999997E+02  0.45594000000E+02  0.51100000000E-03 0.  1.
         11   -1    0    0    0    0 -0.00000000000E+00 -0.00000000000E+00 -0.45593999997E+02  0.45594000000E+02  0.51100000000E-03 0. -1.
    9900012    2    1    2    0    0 -0.53917067502E+01  0.16472752515E+02  0.70889047142E+01  0.72461691043E+02  0.70000157298E+02 0.  0.
         12    1    1    2    0    0  0.53917067502E+01 -0.16472752515E+02 -0.70889047142E+01  0.18726308957E+02  0.00000000000E+00 0. -1.
         11    1    3    3    0    0 -0.22955907509E+02 -0.60654819934E+00  0.11835880567E+00  0.22964224336E+02  0.51100000000E-03 0. -1.
        -11    1    3    3    0    0  0.73670594285E+00 -0.13790600845E+02  0.28157571182E+01  0.14094392350E+02  0.51100000000E-03 0.  1.
        -12    1    3    3    0    0  0.16827494816E+02  0.30869901559E+02  0.41547887903E+01  0.35403074357E+02  0.00000000000E+00 0.  1.
</event>
<event>
 7    1  0.1465498E-013  0.7246158E+02  0.7816164E-02  0.1226708E+00
        -11   -1    0    0    0    0  0.00000000000E+00  0.00000000000E+00  0.45593999997E+02  0.45594000000E+02  0.51100000000E-03 0.  1.
         11   -1    0    0    0    0 -0.00000000000E+00 -0.00000000000E+00 -0.45593999997E+02  0.45594000000E+02  0.51100000000E-03 0. -1.
    9900012    2    1    2    0    0 -0.13076585822E+02 -0.71505313407E+01 -0.11338057969E+02  0.72461581396E+02  0.70000014462E+02 0.  0.
         12    1    1    2    0    0  0.13076585822E+02  0.71505313407E+01  0.11338057969E+02  0.18726418604E+02  0.00000000000E+00 0. -1.
         11    1    3    3    0    0 -0.40779545589E+01 -0.19627717282E+01 -0.10821499589E+02  0.11729750205E+02  0.51100000000E-03 0. -1.
        -11    1    3    3    0    0 -0.26510789958E+02  0.26345613319E+01 -0.20060001992E+02  0.33349161575E+02  0.51100000000E-03 0.  1.
         12    1    3    3    0    0  0.17512158694E+02 -0.78223209443E+01  0.19543443612E+02  0.27382669616E+02  0.00000000000E+00 0. -1.
</event>
<event>
 7    1  0.1465498E-013  0.7246152E+02  0.7816164E-02  0.1226708E+00
        -11   -1    0    0    0    0  0.00000000000E+00  0.00000000000E+00  0.45593999997E+02  0.45594000000E+02  0.51100000000E-03 0. -1.
         11   -1    0    0    0    0 -0.00000000000E+00 -0.00000000000E+00 -0.45593999997E+02  0.45594000000E+02  0.51100000000E-03 0.  1.
    9900012    2    1    2    0    0  0.16665022179E+02 -0.61327363244E+01 -0.59453741080E+01  0.72461524294E+02  0.69999940077E+02 0.  0.
         12    1    1    2    0    0 -0.16665022179E+02  0.61327363244E+01  0.59453741080E+01  0.18726475706E+02  0.00000000000E+00 0. -1.
         11    1    3    3    0    0 -0.59769284102E+01 -0.17616663973E+01 -0.22101741656E+02  0.22963321324E+02  0.51100000000E-03 0. -1.
        -11    1    3    3    0    0 -0.31278633123E+01  0.14461199692E+02  0.64210240518E+01  0.16128836771E+02  0.51100000000E-03 0.  1.
         12    1    3    3    0    0  0.25769813902E+02 -0.18832269620E+02  0.97353434965E+01  0.33369366200E+02  0.00000000000E+00 0. -1.
</event>
<event>
 7    1  0.1465498E-013  0.7246160E+02  0.7816164E-02  0.1226708E+00
        -11   -1    0    0    0    0  0.00000000000E+00  0.00000000000E+00  0.45593999997E+02  0.45594000000E+02  0.51100000000E-03 0. -1.
         11   -1    0    0    0    0 -0.00000000000E+00 -0.00000000000E+00 -0.45593999997E+02  0.45594000000E+02  0.51100000000E-03 0.  1.
    9900012    2    1    2    0    0 -0.12967985973E+02  0.66658597551E+01 -0.11750562720E+02  0.72461599633E+02  0.70000038219E+02 0.  0.
         12    1    1    2    0    0  0.12967985973E+02 -0.66658597551E+01  0.11750562720E+02  0.18726400367E+02  0.00000000000E+00 0. -1.
         11    1    3    3    0    0  0.64229500200E+01 -0.11213185553E+02 -0.28973412155E+02  0.31724571382E+02  0.51100000000E-03 0. -1.
        -11    1    3    3    0    0  0.60942216920E+01  0.63091469495E+00  0.33274938420E+01  0.69720733582E+01  0.51100000000E-03 0.  1.
        -12    1    3    3    0    0 -0.25485157685E+02  0.17248130613E+02  0.13895355593E+02  0.33764954893E+02  0.00000000000E+00 0.  1.
</event>
<event>
 7    1  0.1465498E-013  0.7246159E+02  0.7816164E-02  0.1226708E+00
        -11   -1    0    0    0    0  0.00000000000E+00  0.00000000000E+00  0.45593999997E+02  0.45594000000E+02  0.51100000000E-03 0.  1.
         11   -1    0    0    0    0 -0.00000000000E+00 -0.00000000000E+00 -0.45593999997E+02  0.45594000000E+02  0.51100000000E-03 0. -1.
    9900012    2    1    2    0    0 -0.69539058682E+01 -0.16625184708E+02  0.50916576820E+01  0.72461586800E+02  0.70000021501E+02 0.  0.
         12    1    1    2    0    0  0.69539058682E+01  0.16625184708E+02 -0.50916576820E+01  0.18726413200E+02  0.00000000000E+00 0. -1.
         11    1    3    3    0    0  0.46476180958E+01  0.23137977779E+02 -0.71010983065E+01  0.24645323433E+02  0.51100000000E-03 0. -1.
        -11    1    3    3    0    0 -0.10124593088E+02 -0.56131807766E+01  0.61352417718E+01  0.13101769937E+02  0.51100000000E-03 0.  1.
        -12    1    3    3    0    0 -0.14769308763E+01 -0.34149981710E+02  0.60575142167E+01  0.34714493430E+02  0.00000000000E+00 0.  1.
</event>
<event>
 7    1  0.1465498E-013  0.7246153E+02  0.7816164E-02  0.1226708E+00
        -11   -1    0    0    0    0  0.00000000000E+00  0.00000000000E+00  0.45593999997E+02  0.45594000000E+02  0.51100000000E-03 0. -1.
         11   -1    0    0    0    0 -0.00000000000E+00 -0.00000000000E+00 -0.45593999997E+02  0.45594000000E+02  0.51100000000E-03 0.  1.
    9900012    2    1    2    0    0  0.57596056201E+01  0.31761106171E+01 -0.17533393074E+02  0.72461531880E+02  0.69999949958E+02 0.  0.
         12    1    1    2    0    0 -0.57596056201E+01 -0.31761106171E+01  0.17533393074E+02  0.18726468120E+02  0.00000000000E+00 0. -1.
         11    1    3    3    0    0 -0.69877886097E+01  0.80354182687E+01 -0.57855862177E+01  0.12118999321E+02  0.51100000000E-03 0. -1.
        -11    1    3    3    0    0 -0.17017859687E+01  0.43193588599E+01 -0.32846540729E+02  0.33173003701E+02  0.51100000000E-03 0.  1.
         12    1    3    3    0    0  0.14449180199E+02 -0.91786665115E+01  0.21098733872E+02  0.27169528858E+02  0.00000000000E+00 0. -1.
</event>
<event>
 7    1  0.1465498E-013  0.7246157E+02  0.7816164E-02  0.1226708E+00
        -11   -1    0    0    0    0  0.00000000000E+00  0.00000000000E+00  0.45593999997E+02  0.45594000000E+02  0.51100000000E-03 0. -1.
         11   -1    0    0    0    0 -0.00000000000E+00 -0.00000000000E+00 -0.45593999997E+02  0.45594000000E+02  0.51100000000E-03 0.  1.
    9900012    2    1    2    0    0  0.21720820256E+01  0.18562037705E+02  0.11883242668E+01  0.72461566846E+02  0.69999995509E+02 0.  0.
         12    1    1    2    0    0 -0.21720820256E+01 -0.18562037705E+02 -0.11883242668E+01  0.18726433154E+02  0.00000000000E+00 0. -1.
         11    1    3    3    0    0 -0.52246883576E+01  0.89323752229E+00  0.47766095590E+01  0.71352113385E+01  0.51100000000E-03 0. -1.
        -11    1    3    3    0    0 -0.18206085015E+02  0.25586192677E+02 -0.16617049967E+02  0.35528033116E+02  0.51100000000E-03 0.  1.
         12    1    3    3    0    0  0.25602855398E+02 -0.79173924937E+01  0.13028764675E+02  0.29798322392E+02  0.00000000000E+00 0. -1.
</event>
<event>
 7    1  0.1465498E-013  0.7246162E+02  0.7816164E-02  0.1226708E+00
        -11   -1    0    0    0    0  0.00000000000E+00  0.00000000000E+00  0.45593999997E+02  0.45594000000E+02  0.51100000000E-03 0.  1.
         11   -1    0    0    0    0 -0.00000000000E+00 -0.00000000000E+00 -0.45593999997E+02  0.45594000000E+02  0.51100000000E-03 0. -1.
    9900012    2    1    2    0    0 -0.78071578418E+01  0.16546973984E+02  0.39903843456E+01  0.72461622112E+02  0.70000067502E+02 0.  0.
         12    1    1    2    0    0  0.78071578418E+01 -0.16546973984E+02 -0.39903843456E+01  0.18726377888E+02  0.00000000000E+00 0. -1.
         11    1    3    3    0    0 -0.32172048798E+01 -0.58170479385E+00 -0.41772210413E+01  0.53045229375E+01  0.51100000000E-03 0. -1.
        -11    1    3    3    0    0 -0.29634475048E+02 -0.84629469014E+01  0.27390355769E+01  0.30940683537E+02  0.51100000000E-03 0.  1.
         12    1    3    3    0    0  0.25044522086E+02  0.25591625679E+02  0.54285698100E+01  0.36216415637E+02  0.00000000000E+00 0. -1.
</event>
<event>
 7    1  0.1465498E-013  0.7246159E+02  0.7816164E-02  0.1226708E+00
        -11   -1    0    0    0    0  0.00000000000E+00  0.00000000000E+00  0.45593999997E+02  0.45594000000E+02  0.51100000000E-03 0.  1.
         11   -1    0    0    0    0 -0.00000000000E+00 -0.00000000000E+00 -0.45593999997E+02  0.45594000000E+02  0.51100000000E-03 0. -1.
    9900012    2    1    2    0    0 -0.13024595525E+02  0.52421459973E+01 -0.12391869274E+02  0.72461585304E+02  0.70000019553E+02 0.  0.
         12    1    1    2    0    0  0.13024595525E+02 -0.52421459973E+01  0.12391869274E+02  0.18726414696E+02  0.00000000000E+00 0. -1.
         11    1    3    3    0    0 -0.19209719590E+01 -0.16600686539E+02  0.70758758557E+01  0.18147753200E+02  0.51100000000E-03 0. -1.
        -11    1    3    3    0    0  0.10969054269E+02  0.13054865674E+02  0.72783078547E+01  0.18539779794E+02  0.51100000000E-03 0.  1.
         12    1    3    3    0    0 -0.22072677836E+02  0.87879668623E+01 -0.26746052985E+02  0.35774052310E+02  0.00000000000E+00 0. -1.
</event>
<event>
 7    1  0.1465498E-013  0.7246156E+02  0.7816164E-02  0.1226708E+00
        -11   -1    0    0    0    0  0.00000000000E+00  0.00000000000E+00  0.45593999997E+02  0.45594000000E+02  0.51100000000E-03 0.  1.
         11   -1    0    0    0    0 -0.00000000000E+00 -0.00000000000E+00 -0.45593999997E+02  0.45594000000E+02  0.51100000000E-03 0. -1.
    9900012    2    1    2    0    0  0.77263825631E+01 -0.74174132099E+01  0.15361138906E+02  0.72461558941E+02  0.69999985210E+02 0.  0.
         12    1    1    2    0    0 -0.77263825631E+01  0.74174132099E+01 -0.15361138906E+02  0.18726441059E+02  0.00000000000E+00 0. -1.
         11    1    3    3    0    0  0.27072349918E+01  0.63417471327E+01  0.84919303891E+01  0.10938910366E+02  0.51100000000E-03 0. -1.
        -11    1    3    3    0    0 -0.13774778487E+02 -0.48722683156E+01  0.28185339201E+02  0.31747391500E+02  0.51100000000E-03 0.  1.
         12    1    3    3    0    0  0.18793926058E+02 -0.88868920270E+01 -0.21316130684E+02  0.29775257076E+02  0.00000000000E+00 0. -1.
</event>
<event>
 7    1  0.1465498E-013  0.7246160E+02  0.7816164E-02  0.1226708E+00
        -11   -1    0    0    0    0  0.00000000000E+00  0.00000000000E+00  0.45593999997E+02  0.45594000000E+02  0.51100000000E-03 0. -1.
         11   -1    0    0    0    0 -0.00000000000E+00 -0.00000000000E+00 -0.45593999997E+02  0.45594000000E+02  0.51100000000E-03 0.  1.
    9900012    2    1    2    0    0 -0.13358279420E+02 -0.80890648478E+01 -0.10334481998E+02  0.72461598388E+02  0.70000036597E+02 0.  0.
         12    1    1    2    0    0  0.13358279420E+02  0.80890648478E+01  0.10334481998E+02  0.18726401612E+02  0.00000000000E+00 0. -1.
         11    1    3    3    0    0  0.97171280027E+01 -0.92349776429E+01  0.27619235321E+01  0.13687059967E+02  0.51100000000E-03 0. -1.
        -11    1    3    3    0    0 -0.29666103163E+02 -0.14809401321E+02  0.52647663129E+01  0.33572515678E+02  0.51100000000E-03 0.  1.
         12    1    3    3    0    0  0.65906957403E+01  0.15955314116E+02 -0.18361171843E+02  0.25202022743E+02  0.00000000000E+00 0. -1.
</event>
<event>
 7    1  0.1465498E-013  0.7246147E+02  0.7816164E-02  0.1226708E+00
        -11   -1    0    0    0    0  0.00000000000E+00  0.00000000000E+00  0.45593999997E+02  0.45594000000E+02  0.51100000000E-03 0.  1.
         11   -1    0    0    0    0 -0.00000000000E+00 -0.00000000000E+00 -0.45593999997E+02  0.45594000000E+02  0.51100000000E-03 0. -1.
    9900012    2    1    2    0    0 -0.16389509683E+02 -0.78964679392E+01  0.44398917664E+01  0.72461471425E+02  0.69999871205E+02 0.  0.
         12    1    1    2    0    0  0.16389509683E+02  0.78964679392E+01 -0.44398917664E+01  0.18726528575E+02  0.00000000000E+00 0. -1.
         11    1    3    3    0    0  0.16326115013E+02  0.13127881975E+02 -0.65217365959E+01  0.21941202453E+02  0.51100000000E-03 0. -1.
        -11    1    3    3    0    0  0.38106945630E+01 -0.97053343274E+01 -0.94544251485E+00  0.10469420675E+02  0.51100000000E-03 0.  1.
        -12    1    3    3    0    0 -0.36526319259E+02 -0.11319015587E+02  0.11907070877E+02  0.40050848298E+02  0.00000000000E+00 0.  1.
</event>
<event>
 7    1  0.1465498E-013  0.7246164E+02  0.7816164E-02  0.1226708E+00
        -11   -1    0    0    0    0  0.00000000000E+00  0.00000000000E+00  0.45593999997E+02  0.45594000000E+02  0.51100000000E-03 0. -1.
         11   -1    0    0    0    0 -0.00000000000E+00 -0.00000000000E+00 -0.45593999997E+02  0.45594000000E+02  0.51100000000E-03 0.  1.
    9900012    2    1    2    0    0 -0.25577872385E+01  0.45352028638E+01 -0.17987944582E+02  0.72461641815E+02  0.70000093169E+02 0.  0.
         12    1    1    2    0    0  0.25577872385E+01 -0.45352028638E+01  0.17987944582E+02  0.18726358185E+02  0.00000000000E+00 0. -1.
         11    1    3    3    0    0  0.42827233005E+01  0.30721848059E+02  0.32222659460E+01  0.31185840780E+02  0.51100000000E-03 0. -1.
        -11    1    3    3    0    0 -0.37782732071E+01  0.35426685172E+01 -0.53307043250E+01  0.74325135393E+01  0.51100000000E-03 0.  1.
         12    1    3    3    0    0 -0.30622373320E+01 -0.29729313713E+02 -0.15879506203E+02  0.33843287496E+02  0.00000000000E+00 0. -1.
</event>
<event>
 7    1  0.1465498E-013  0.7246152E+02  0.7816164E-02  0.1226708E+00
        -11   -1    0    0    0    0  0.00000000000E+00  0.00000000000E+00  0.45593999997E+02  0.45594000000E+02  0.51100000000E-03 0.  1.
         11   -1    0    0    0    0 -0.00000000000E+00 -0.00000000000E+00 -0.45593999997E+02  0.45594000000E+02  0.51100000000E-03 0. -1.
    9900012    2    1    2    0    0 -0.16050256500E+02 -0.36725060022E+01 -0.89209316128E+01  0.72461519954E+02  0.69999934423E+02 0.  0.
         12    1    1    2    0    0  0.16050256500E+02  0.36725060022E+01  0.89209316128E+01  0.18726480046E+02  0.00000000000E+00 0. -1.
         11    1    3    3    0    0  0.18636319431E+02  0.15355211440E+02  0.80445001324E+01  0.25452090345E+02  0.51100000000E-03 0.  1.
        -11    1    3    3    0    0 -0.20233440515E+02 -0.11268186961E+02  0.34331111731E+00  0.23162081410E+02  0.51100000000E-03 0. -1.
        -12    1    3    3    0    0 -0.14453135416E+02 -0.77595304819E+01 -0.17308742863E+02  0.23847348199E+02  0.00000000000E+00 0.  1.
</event>
<event>
 7    1  0.1465498E-013  0.7246144E+02  0.7816164E-02  0.1226708E+00
        -11   -1    0    0    0    0  0.00000000000E+00  0.00000000000E+00  0.45593999997E+02  0.45594000000E+02  0.51100000000E-03 0.  1.
         11   -1    0    0    0    0 -0.00000000000E+00 -0.00000000000E+00 -0.45593999997E+02  0.45594000000E+02  0.51100000000E-03 0. -1.
    9900012    2    1    2    0    0 -0.38795200806E+01 -0.15585442478E+02  0.96294984883E+01  0.72461443071E+02  0.69999834268E+02 0.  0.
         12    1    1    2    0    0  0.38795200806E+01  0.15585442478E+02 -0.96294984883E+01  0.18726556929E+02  0.00000000000E+00 0. -1.
         11    1    3    3    0    0  0.72335865646E+01  0.19834809372E+01 -0.22128679901E+02  0.23365304313E+02  0.51100000000E-03 0. -1.
        -11    1    3    3    0    0  0.10431284381E+02 -0.62728010610E+01  0.56760493158E+01  0.13430460271E+02  0.51100000000E-03 0.  1.
        -12    1    3    3    0    0 -0.21544391026E+02 -0.11296122354E+02  0.26082129074E+02  0.35665678487E+02  0.00000000000E+00 0.  1.
</event>
<event>
 7    1  0.1465498E-013  0.7246154E+02  0.7816164E-02  0.1226708E+00
        -11   -1    0    0    0    0  0.00000000000E+00  0.00000000000E+00  0.45593999997E+02  0.45594000000E+02  0.51100000000E-03 0. -1.
         11   -1    0    0    0    0 -0.00000000000E+00 -0.00000000000E+00 -0.45593999997E+02  0.45594000000E+02  0.51100000000E-03 0.  1.
    9900012    2    1    2    0    0 -0.14536804401E+01 -0.50038824465E+00 -0.18663249767E+02  0.72461535650E+02  0.69999954869E+02 0.  0.
         12    1    1    2    0    0  0.14536804401E+01  0.50038824465E+00  0.18663249767E+02  0.18726464350E+02  0.00000000000E+00 0. -1.
         11    1    3    3    0    0 -0.21352651882E+02  0.44228237256E+01 -0.30957298167E+01  0.22024546657E+02  0.51100000000E-03 0. -1.
        -11    1    3    3    0    0  0.10577406080E+02  0.18547509855E+02 -0.12075482468E+01  0.21385738571E+02  0.51100000000E-03 0.  1.
        -12    1    3    3    0    0  0.93215653618E+01 -0.23470721825E+02 -0.14359971703E+02  0.29051250422E+02  0.00000000000E+00 0.  1.
</event>
<event>
 7    1  0.1465498E-013  0.7246155E+02  0.7816164E-02  0.1226708E+00
        -11   -1    0    0    0    0  0.00000000000E+00  0.00000000000E+00  0.45593999997E+02  0.45594000000E+02  0.51100000000E-03 0.  1.
         11   -1    0    0    0    0 -0.00000000000E+00 -0.00000000000E+00 -0.45593999997E+02  0.45594000000E+02  0.51100000000E-03 0. -1.
    9900012    2    1    2    0    0 -0.56311444374E+01  0.10738577701E+02  0.14270711348E+02  0.72461547023E+02  0.69999969685E+02 0.  0.
         12    1    1    2    0    0  0.56311444374E+01 -0.10738577701E+02 -0.14270711348E+02  0.18726452977E+02  0.00000000000E+00 0. -1.
         11    1    3    3    0    0  0.11840446655E+02  0.12174872467E+02  0.29488679093E+02  0.34029485619E+02  0.51100000000E-03 0. -1.
        -11    1    3    3    0    0  0.17672716948E+01  0.10362372989E+02  0.11184390173E+01  0.10571325807E+02  0.51100000000E-03 0.  1.
        -12    1    3    3    0    0 -0.19238862788E+02 -0.11798667755E+02 -0.16336406762E+02  0.27860735598E+02  0.00000000000E+00 0.  1.
</event>
<event>
 7    1  0.1465498E-013  0.7246161E+02  0.7816164E-02  0.1226708E+00
        -11   -1    0    0    0    0  0.00000000000E+00  0.00000000000E+00  0.45593999997E+02  0.45594000000E+02  0.51100000000E-03 0.  1.
         11   -1    0    0    0    0 -0.00000000000E+00 -0.00000000000E+00 -0.45593999997E+02  0.45594000000E+02  0.51100000000E-03 0. -1.
    9900012    2    1    2    0    0  0.14173081696E+02  0.11943473930E+02  0.26748717280E+01  0.72461608115E+02  0.70000049268E+02 0.  0.
         12    1    1    2    0    0 -0.14173081696E+02 -0.11943473930E+02 -0.26748717280E+01  0.18726391885E+02  0.00000000000E+00 0. -1.
         11    1    3    3    0    0 -0.22107316555E+02 -0.15914388983E+01 -0.92657008493E+01  0.24023308171E+02  0.51100000000E-03 0. -1.
        -11    1    3    3    0    0 -0.11608842385E+01  0.43395623851E+01  0.86466641145E+01  0.97439342403E+01  0.51100000000E-03 0.  1.
        -12    1    3    3    0    0  0.37441282489E+02  0.91953504437E+01  0.32939084628E+01  0.38694365703E+02  0.00000000000E+00 0.  1.
</event>
<event>
 7    1  0.1465498E-013  0.7246157E+02  0.7816164E-02  0.1226708E+00
        -11   -1    0    0    0    0  0.00000000000E+00  0.00000000000E+00  0.45593999997E+02  0.45594000000E+02  0.51100000000E-03 0.  1.
         11   -1    0    0    0    0 -0.00000000000E+00 -0.00000000000E+00 -0.45593999997E+02  0.45594000000E+02  0.51100000000E-03 0. -1.
    9900012    2    1    2    0    0 -0.14410989738E+02  0.11222231851E+01  0.11905601380E+02  0.72461565360E+02  0.69999993572E+02 0.  0.
         12    1    1    2    0    0  0.14410989738E+02 -0.11222231851E+01 -0.11905601380E+02  0.18726434640E+02  0.00000000000E+00 0. -1.
         11    1    3    3    0    0 -0.82824012173E+01 -0.76398515031E+01 -0.88209243629E+00  0.11302370912E+02  0.51100000000E-03 0. -1.
        -11    1    3    3    0    0 -0.30775877036E+02  0.11031720798E+02  0.15643828844E+02  0.36243383565E+02  0.51100000000E-03 0.  1.
         12    1    3    3    0    0  0.24647288515E+02 -0.22696461102E+01 -0.28561350276E+01  0.24915810882E+02  0.00000000000E+00 0. -1.
</event>
<event>
 7    1  0.1465498E-013  0.7246158E+02  0.7816164E-02  0.1226708E+00
        -11   -1    0    0    0    0  0.00000000000E+00  0.00000000000E+00  0.45593999997E+02  0.45594000000E+02  0.51100000000E-03 0.  1.
         11   -1    0    0    0    0 -0.00000000000E+00 -0.00000000000E+00 -0.45593999997E+02  0.45594000000E+02  0.51100000000E-03 0. -1.
    9900012    2    1    2    0    0 -0.17312045936E+02  0.47562326351E+01 -0.53244739421E+01  0.72461582667E+02  0.70000016118E+02 0.  0.
         12    1    1    2    0    0  0.17312045936E+02 -0.47562326351E+01  0.53244739421E+01  0.18726417333E+02  0.00000000000E+00 0. -1.
         11    1    3    3    0    0 -0.21868684774E+02 -0.12351168551E+02 -0.21097185161E+02  0.32800639632E+02  0.51100000000E-03 0. -1.
        -11    1    3    3    0    0 -0.13105051091E+02  0.12426013350E+02  0.67158473223E+01  0.19267869042E+02  0.51100000000E-03 0.  1.
         12    1    3    3    0    0  0.17661689930E+02  0.46813878351E+01  0.90568638967E+01  0.20393073993E+02  0.00000000000E+00 0. -1.
</event>
<event>
 7    1  0.1465498E-013  0.7246160E+02  0.7816164E-02  0.1226708E+00
        -11   -1    0    0    0    0  0.00000000000E+00  0.00000000000E+00  0.45593999997E+02  0.45594000000E+02  0.51100000000E-03 0. -1.
         11   -1    0    0    0    0 -0.00000000000E+00 -0.00000000000E+00 -0.45593999997E+02  0.45594000000E+02  0.51100000000E-03 0.  1.
    9900012    2    1    2    0    0  0.63071869829E+01  0.12390351328E+02 -0.12544980379E+02  0.72461602952E+02  0.70000042543E+02 0.  0.
         12    1    1    2    0    0 -0.63071869829E+01 -0.12390351328E+02  0.12544980379E+02  0.18726397048E+02  0.00000000000E+00 0. -1.
         11    1    3    3    0    0  0.61058241095E+01  0.26126146808E+02 -0.13047169582E+02  0.29834296865E+02  0.51100000000E-03 0. -1.
        -11    1    3    3    0    0  0.13686781171E+01 -0.20280267540E+02 -0.15327946590E+02  0.25457974747E+02  0.51100000000E-03 0.  1.
         12    1    3    3    0    0 -0.11673152438E+01  0.65444720608E+01  0.15830135793E+02  0.17169331340E+02  0.00000000000E+00 0. -1.
</event>
<event>
 7    1  0.1465498E-013  0.7246155E+02  0.7816164E-02  0.1226708E+00
        -11   -1    0    0    0    0  0.00000000000E+00  0.00000000000E+00  0.45593999997E+02  0.45594000000E+02  0.51100000000E-03 0. -1.
         11   -1    0    0    0    0 -0.00000000000E+00 -0.00000000000E+00 -0.45593999997E+02  0.45594000000E+02  0.51100000000E-03 0.  1.
    9900012    2    1    2    0    0  0.48295434453E+01  0.27444393250E+00 -0.18090880128E+02  0.72461554711E+02  0.69999979699E+02 0.  0.
         12    1    1    2    0    0 -0.48295434453E+01 -0.27444393250E+00  0.18090880128E+02  0.18726445289E+02  0.00000000000E+00 0. -1.
         11    1    3    3    0    0 -0.17281507995E+02 -0.13092688508E+02  0.46716315212E+01  0.22178664348E+02  0.51100000000E-03 0. -1.
        -11    1    3    3    0    0 -0.65624049199E+01 -0.33421320850E+01  0.33150637319E+01  0.80761781192E+01  0.51100000000E-03 0.  1.
        -12    1    3    3    0    0  0.28673456360E+02  0.16709264526E+02 -0.26077575381E+02  0.42206712243E+02  0.00000000000E+00 0.  1.
</event>
<event>
 7    1  0.1568392E-013  0.7246159E+02  0.7816164E-02  0.1226708E+00
        -11   -1    0    0    0    0  0.00000000000E+00  0.00000000000E+00  0.45593999997E+02  0.45594000000E+02  0.51100000000E-03 0. -1.
         11   -1    0    0    0    0 -0.00000000000E+00 -0.00000000000E+00 -0.45593999997E+02  0.45594000000E+02  0.51100000000E-03 0.  1.
    9900012    2    1    2    0    0  0.12508868148E+02 -0.26573153857E+01 -0.13680107682E+02  0.72461589410E+02  0.70000024902E+02 0.  0.
         12    1    1    2    0    0 -0.12508868148E+02  0.26573153857E+01  0.13680107682E+02  0.18726410590E+02  0.00000000000E+00 0. -1.
         11    1    3    3    0    0  0.36757675214E+01 -0.18840040119E+02  0.58623515727E+01  0.20070514313E+02  0.51100000000E-03 0. -1.
        -11    1    3    3    0    0  0.18919006549E+02 -0.88597606361E+01 -0.41000275071E+01  0.21289302317E+02  0.51100000000E-03 0.  1.
        -12    1    3    3    0    0 -0.10085905923E+02  0.25042485370E+02 -0.15442431747E+02  0.31101772780E+02  0.00000000000E+00 0.  1.
</event>
<event>
 7    1  0.1465498E-013  0.7246153E+02  0.7816164E-02  0.1226708E+00
        -11   -1    0    0    0    0  0.00000000000E+00  0.00000000000E+00  0.45593999997E+02  0.45594000000E+02  0.51100000000E-03 0.  1.
         11   -1    0    0    0    0 -0.00000000000E+00 -0.00000000000E+00 -0.45593999997E+02  0.45594000000E+02  0.51100000000E-03 0. -1.
    9900012    2    1    2    0    0  0.15863038194E+02 -0.14676082820E+00  0.99510344670E+01  0.72461531928E+02  0.69999950021E+02 0.  0.
         12    1    1    2    0    0 -0.15863038194E+02  0.14676082820E+00 -0.99510344670E+01  0.18726468072E+02  0.00000000000E+00 0. -1.
         11    1    3    3    0    0  0.91947060515E+01 -0.26758097901E+01  0.26978345930E+01  0.99489139689E+01  0.51100000000E-03 0. -1.
        -11    1    3    3    0    0  0.25432580208E+02  0.17170822700E+02  0.18874257890E+02  0.36026252919E+02  0.51100000000E-03 0.  1.
         12    1    3    3    0    0 -0.18764248065E+02 -0.14641773738E+02 -0.11621058016E+02  0.26486365040E+02  0.00000000000E+00 0. -1.
</event>
<event>
 7    1  0.1465498E-013  0.7246175E+02  0.7816164E-02  0.1226708E+00
        -11   -1    0    0    0    0  0.00000000000E+00  0.00000000000E+00  0.45593999997E+02  0.45594000000E+02  0.51100000000E-03 0. -1.
         11   -1    0    0    0    0 -0.00000000000E+00 -0.00000000000E+00 -0.45593999997E+02  0.45594000000E+02  0.51100000000E-03 0.  1.
    9900012    2    1    2    0    0  0.15723924902E+02  0.15101361542E+01  0.10057332957E+02  0.72461754468E+02  0.70000239920E+02 0.  0.
         12    1    1    2    0    0 -0.15723924902E+02 -0.15101361542E+01 -0.10057332957E+02  0.18726245532E+02  0.00000000000E+00 0. -1.
         11    1    3    3    0    0 -0.15657091700E+02  0.32589941855E+01  0.13794583703E+02  0.21120040327E+02  0.51100000000E-03 0. -1.
        -11    1    3    3    0    0  0.12541829020E+02  0.76420789785E+01  0.16536067044E+02  0.22116517805E+02  0.51100000000E-03 0.  1.
        -12    1    3    3    0    0  0.18839187582E+02 -0.93909370098E+01 -0.20273317790E+02  0.29225196336E+02  0.00000000000E+00 0.  1.
</event>
<event>
 7    1  0.1465498E-013  0.7246158E+02  0.7816164E-02  0.1226708E+00
        -11   -1    0    0    0    0  0.00000000000E+00  0.00000000000E+00  0.45593999997E+02  0.45594000000E+02  0.51100000000E-03 0.  1.
         11   -1    0    0    0    0 -0.00000000000E+00 -0.00000000000E+00 -0.45593999997E+02  0.45594000000E+02  0.51100000000E-03 0. -1.
    9900012    2    1    2    0    0  0.25722704376E+01  0.13325621692E+02  0.12903102455E+02  0.72461579582E+02  0.70000012099E+02 0.  0.
         12    1    1    2    0    0 -0.25722704376E+01 -0.13325621692E+02 -0.12903102455E+02  0.18726420418E+02  0.00000000000E+00 0. -1.
         11    1    3    3    0    0 -0.44371033302E+01 -0.14987977472E+02 -0.89107657632E+01  0.17992473466E+02  0.51100000000E-03 0. -1.
        -11    1    3    3    0    0 -0.14714308683E+02  0.12764748678E+02  0.19646429800E+02  0.27666439832E+02  0.51100000000E-03 0.  1.
        -12    1    3    3    0    0  0.21723682450E+02  0.15548850486E+02  0.21674384187E+01  0.26802666285E+02  0.00000000000E+00 0.  1.
</event>
<event>
 7    1  0.1465498E-013  0.7246153E+02  0.7816164E-02  0.1226708E+00
        -11   -1    0    0    0    0  0.00000000000E+00  0.00000000000E+00  0.45593999997E+02  0.45594000000E+02  0.51100000000E-03 0.  1.
         11   -1    0    0    0    0 -0.00000000000E+00 -0.00000000000E+00 -0.45593999997E+02  0.45594000000E+02  0.51100000000E-03 0. -1.
    9900012    2    1    2    0    0  0.46482663093E+01 -0.17082915208E+02  0.61031249703E+01  0.72461534608E+02  0.69999953511E+02 0.  0.
         12    1    1    2    0    0 -0.46482663093E+01  0.17082915208E+02 -0.61031249703E+01  0.18726465392E+02  0.00000000000E+00 0. -1.
         11    1    3    3    0    0  0.11009359346E+02 -0.44151245453E+01 -0.90307650084E+01  0.14908186840E+02  0.51100000000E-03 0. -1.
        -11    1    3    3    0    0 -0.11296994680E+02 -0.32360881532E+02  0.43099150028E+01  0.34545970966E+02  0.51100000000E-03 0.  1.
         12    1    3    3    0    0  0.49359016435E+01  0.19693090869E+02  0.10823974976E+02  0.23007376802E+02  0.00000000000E+00 0. -1.
</event>
<event>
 7    1  0.1465498E-013  0.7246175E+02  0.7816164E-02  0.1226708E+00
        -11   -1    0    0    0    0  0.00000000000E+00  0.00000000000E+00  0.45593999997E+02  0.45594000000E+02  0.51100000000E-03 0.  1.
         11   -1    0    0    0    0 -0.00000000000E+00 -0.00000000000E+00 -0.45593999997E+02  0.45594000000E+02  0.51100000000E-03 0. -1.
    9900012    2    1    2    0    0 -0.10242670964E+02 -0.13894493074E+02  0.72596902982E+01  0.72461752391E+02  0.70000237215E+02 0.  0.
         12    1    1    2    0    0  0.10242670964E+02  0.13894493074E+02 -0.72596902982E+01  0.18726247609E+02  0.00000000000E+00 0. -1.
         11    1    3    3    0    0  0.10968948951E+02 -0.11220694431E+02 -0.23150033245E+02  0.27966870832E+02  0.51100000000E-03 0. -1.
        -11    1    3    3    0    0  0.12385617867E+01 -0.81278201118E+01  0.32566606120E+01  0.88431517952E+01  0.51100000000E-03 0.  1.
        -12    1    3    3    0    0 -0.22450181702E+02  0.54540214686E+01  0.27153062931E+02  0.35651729764E+02  0.00000000000E+00 0.  1.
</event>
<event>
 7    1  0.1465498E-013  0.7246156E+02  0.7816164E-02  0.1226708E+00
        -11   -1    0    0    0    0  0.00000000000E+00  0.00000000000E+00  0.45593999997E+02  0.45594000000E+02  0.51100000000E-03 0.  1.
         11   -1    0    0    0    0 -0.00000000000E+00 -0.00000000000E+00 -0.45593999997E+02  0.45594000000E+02  0.51100000000E-03 0. -1.
    9900012    2    1    2    0    0 -0.95638396479E+01  0.16099991607E+02  0.51206760601E-01  0.72461564656E+02  0.69999992655E+02 0.  0.
         12    1    1    2    0    0  0.95638396479E+01 -0.16099991607E+02 -0.51206760601E-01  0.18726435344E+02  0.00000000000E+00 0. -1.
         11    1    3    3    0    0  0.11191900376E+00 -0.58354919280E+01 -0.22464154866E+02  0.23209992374E+02  0.51100000000E-03 0. -1.
        -11    1    3    3    0    0 -0.15872924794E+02  0.28752326038E+02  0.11288511203E+02  0.34728611828E+02  0.51100000000E-03 0.  1.
        -12    1    3    3    0    0  0.61971661420E+01 -0.68168425032E+01  0.11226850424E+02  0.14522960454E+02  0.00000000000E+00 0.  1.
</event>
<event>
 7    1  0.1465498E-013  0.7246158E+02  0.7816164E-02  0.1226708E+00
        -11   -1    0    0    0    0  0.00000000000E+00  0.00000000000E+00  0.45593999997E+02  0.45594000000E+02  0.51100000000E-03 0.  1.
         11   -1    0    0    0    0 -0.00000000000E+00 -0.00000000000E+00 -0.45593999997E+02  0.45594000000E+02  0.51100000000E-03 0. -1.
    9900012    2    1    2    0    0  0.46506375113E+01  0.43921242164E+01  0.17599991444E+02  0.72461577939E+02  0.70000009958E+02 0.  0.
         12    1    1    2    0    0 -0.46506375113E+01 -0.43921242164E+01 -0.17599991444E+02  0.18726422061E+02  0.00000000000E+00 0. -1.
         11    1    3    3    0    0 -0.50618525965E+01  0.87983472398E+01 -0.24039882574E+02  0.26095003742E+02  0.51100000000E-03 0. -1.
        -11    1    3    3    0    0  0.58220618637E+01  0.57205559097E+00  0.19344919252E+01  0.61616484170E+01  0.51100000000E-03 0.  1.
        -12    1    3    3    0    0  0.38904282440E+01 -0.49782786144E+01  0.39705382092E+02  0.40204925780E+02  0.00000000000E+00 0.  1.
</event>
<event>
 7    1  0.1465498E-013  0.7246154E+02  0.7816164E-02  0.1226708E+00
        -11   -1    0    0    0    0  0.00000000000E+00  0.00000000000E+00  0.45593999997E+02  0.45594000000E+02  0.51100000000E-03 0.  1.
         11   -1    0    0    0    0 -0.00000000000E+00 -0.00000000000E+00 -0.45593999997E+02  0.45594000000E+02  0.51100000000E-03 0. -1.
    9900012    2    1    2    0    0  0.65206152696E+01 -0.14924323461E+02 -0.92426464069E+01  0.72461538325E+02  0.69999958354E+02 0.  0.
         12    1    1    2    0    0 -0.65206152696E+01  0.14924323461E+02  0.92426464069E+01  0.18726461675E+02  0.00000000000E+00 0. -1.
         11    1    3    3    0    0 -0.64025848432E+01 -0.12951282103E+02 -0.50841402783E+01  0.15315916016E+02  0.51100000000E-03 0. -1.
        -11    1    3    3    0    0  0.15499752821E+02 -0.17610088915E+02  0.18233905693E+02  0.29712503869E+02  0.51100000000E-03 0.  1.
         12    1    3    3    0    0 -0.25765527084E+01  0.15637047556E+02 -0.22392411821E+02  0.27433118439E+02  0.00000000000E+00 0. -1.
</event>
<event>
 7    1  0.1465498E-013  0.7246156E+02  0.7816164E-02  0.1226708E+00
        -11   -1    0    0    0    0  0.00000000000E+00  0.00000000000E+00  0.45593999997E+02  0.45594000000E+02  0.51100000000E-03 0. -1.
         11   -1    0    0    0    0 -0.00000000000E+00 -0.00000000000E+00 -0.45593999997E+02  0.45594000000E+02  0.51100000000E-03 0.  1.
    9900012    2    1    2    0    0  0.12152872891E+02 -0.96872869406E+01 -0.10447188670E+02  0.72461558830E+02  0.69999985066E+02 0.  0.
         12    1    1    2    0    0 -0.12152872891E+02  0.96872869406E+01  0.10447188670E+02  0.18726441170E+02  0.00000000000E+00 0. -1.
         11    1    3    3    0    0  0.13881230915E+02  0.80027829703E+01 -0.74014352271E+01  0.17649769139E+02  0.51100000000E-03 0. -1.
        -11    1    3    3    0    0 -0.22951729930E+02 -0.21096191502E+01 -0.13237807395E+02  0.26579539962E+02  0.51100000000E-03 0.  1.
         12    1    3    3    0    0  0.21223371906E+02 -0.15580450761E+02  0.10192053952E+02  0.28232249729E+02  0.00000000000E+00 0. -1.
</event>
<event>
 7    1  0.1465498E-013  0.7246159E+02  0.7816164E-02  0.1226708E+00
        -11   -1    0    0    0    0  0.00000000000E+00  0.00000000000E+00  0.45593999997E+02  0.45594000000E+02  0.51100000000E-03 0. -1.
         11   -1    0    0    0    0 -0.00000000000E+00 -0.00000000000E+00 -0.45593999997E+02  0.45594000000E+02  0.51100000000E-03 0.  1.
    9900012    2    1    2    0    0 -0.96753890390E+01  0.71516165990E+01 -0.14349907050E+02  0.72461585357E+02  0.70000019622E+02 0.  0.
         12    1    1    2    0    0  0.96753890390E+01 -0.71516165990E+01  0.14349907050E+02  0.18726414643E+02  0.00000000000E+00 0. -1.
         11    1    3    3    0    0  0.24559448442E+01 -0.60761666630E+00  0.23845181974E+01  0.34766061591E+01  0.51100000000E-03 0. -1.
        -11    1    3    3    0    0 -0.13881081272E+02 -0.27409544069E+02 -0.13706466033E+02  0.33642751593E+02  0.51100000000E-03 0.  1.
         12    1    3    3    0    0  0.17497473889E+01  0.35168777334E+02 -0.30279592143E+01  0.35342227605E+02  0.00000000000E+00 0. -1.
</event>
<event>
 7    1  0.1465498E-013  0.7246164E+02  0.7816164E-02  0.1226708E+00
        -11   -1    0    0    0    0  0.00000000000E+00  0.00000000000E+00  0.45593999997E+02  0.45594000000E+02  0.51100000000E-03 0.  1.
         11   -1    0    0    0    0 -0.00000000000E+00 -0.00000000000E+00 -0.45593999997E+02  0.45594000000E+02  0.51100000000E-03 0. -1.
    9900012    2    1    2    0    0  0.97457018975E+01 -0.15932234225E+02  0.13644661629E+01  0.72461639949E+02  0.70000090738E+02 0.  0.
         12    1    1    2    0    0 -0.97457018975E+01  0.15932234225E+02 -0.13644661629E+01  0.18726360051E+02  0.00000000000E+00 0. -1.
         11    1    3    3    0    0  0.75899402650E+01  0.77335971263E+01 -0.12489587652E+02  0.16534978613E+02  0.51100000000E-03 0. -1.
        -11    1    3    3    0    0  0.13267713806E+02  0.10914629809E+02  0.37508849148E+00  0.17184355244E+02  0.51100000000E-03 0.  1.
         12    1    3    3    0    0 -0.11111952173E+02 -0.34580461160E+02  0.13478965324E+02  0.38742306092E+02  0.00000000000E+00 0. -1.
</event>
<event>
 7    1  0.1465498E-013  0.7246158E+02  0.7816164E-02  0.1226708E+00
        -11   -1    0    0    0    0  0.00000000000E+00  0.00000000000E+00  0.45593999997E+02  0.45594000000E+02  0.51100000000E-03 0.  1.
         11   -1    0    0    0    0 -0.00000000000E+00 -0.00000000000E+00 -0.45593999997E+02  0.45594000000E+02  0.51100000000E-03 0. -1.
    9900012    2    1    2    0    0  0.15051711423E+02  0.98024478351E+01  0.52949794740E+01  0.72461579948E+02  0.70000012576E+02 0.  0.
         12    1    1    2    0    0 -0.15051711423E+02 -0.98024478351E+01 -0.52949794740E+01  0.18726420052E+02  0.00000000000E+00 0. -1.
         11    1    3    3    0    0  0.17900629547E+02  0.22188579574E+02 -0.14600403586E+02  0.32030257364E+02  0.51100000000E-03 0. -1.
        -11    1    3    3    0    0 -0.68595581590E+01  0.96610853530E+01  0.26161214707E+01  0.12134010060E+02  0.51100000000E-03 0.  1.
        -12    1    3    3    0    0  0.40106400351E+01 -0.22047217091E+02  0.17279261590E+02  0.28297312523E+02  0.00000000000E+00 0.  1.
</event>
<event>
 7    1  0.1465498E-013  0.7246153E+02  0.7816164E-02  0.1226708E+00
        -11   -1    0    0    0    0  0.00000000000E+00  0.00000000000E+00  0.45593999997E+02  0.45594000000E+02  0.51100000000E-03 0.  1.
         11   -1    0    0    0    0 -0.00000000000E+00 -0.00000000000E+00 -0.45593999997E+02  0.45594000000E+02  0.51100000000E-03 0. -1.
    9900012    2    1    2    0    0  0.14835091104E+02 -0.38682613147E+01  0.10753473512E+02  0.72461533002E+02  0.69999951419E+02 0.  0.
         12    1    1    2    0    0 -0.14835091104E+02  0.38682613147E+01 -0.10753473512E+02  0.18726466998E+02  0.00000000000E+00 0. -1.
         11    1    3    3    0    0  0.65604549834E+01  0.95515188687E+01  0.83729365203E+01  0.14296053600E+02  0.51100000000E-03 0. -1.
        -11    1    3    3    0    0 -0.16802212723E+01 -0.25711892989E+02  0.21352813027E+02  0.33464417058E+02  0.51100000000E-03 0.  1.
         12    1    3    3    0    0  0.99548573930E+01  0.12292112806E+02 -0.18972276036E+02  0.24701062344E+02  0.00000000000E+00 0. -1.
</event>
<event>
 7    1  0.1465498E-013  0.7246186E+02  0.7816164E-02  0.1226707E+00
        -11   -1    0    0    0    0  0.00000000000E+00  0.00000000000E+00  0.45593999997E+02  0.45594000000E+02  0.51100000000E-03 0. -1.
         11   -1    0    0    0    0 -0.00000000000E+00 -0.00000000000E+00 -0.45593999997E+02  0.45594000000E+02  0.51100000000E-03 0.  1.
    9900012    2    1    2    0    0  0.16842220685E+01  0.15546220864E+02 -0.10302750855E+02  0.72461861521E+02  0.70000379376E+02 0.  0.
         12    1    1    2    0    0 -0.16842220685E+01 -0.15546220864E+02  0.10302750855E+02  0.18726138479E+02  0.00000000000E+00 0. -1.
         11    1    3    3    0    0  0.42706288016E+01 -0.54102731789E+01  0.11084720504E+02  0.13052982615E+02  0.51100000000E-03 0. -1.
        -11    1    3    3    0    0 -0.74835108025E+01 -0.23666260544E+01  0.14407211674E+02  0.16406449990E+02  0.51100000000E-03 0.  1.
        -12    1    3    3    0    0  0.48971040694E+01  0.23323120098E+02 -0.35794683032E+02  0.43002428917E+02  0.00000000000E+00 0.  1.
</event>
<event>
 7    1  0.1465498E-013  0.7246160E+02  0.7816164E-02  0.1226708E+00
        -11   -1    0    0    0    0  0.00000000000E+00  0.00000000000E+00  0.45593999997E+02  0.45594000000E+02  0.51100000000E-03 0.  1.
         11   -1    0    0    0    0 -0.00000000000E+00 -0.00000000000E+00 -0.45593999997E+02  0.45594000000E+02  0.51100000000E-03 0. -1.
    9900012    2    1    2    0    0 -0.39013835893E+01  0.13510965675E+01  0.18265587945E+02  0.72461602620E+02  0.70000042111E+02 0.  0.
         12    1    1    2    0    0  0.39013835893E+01 -0.13510965675E+01 -0.18265587945E+02  0.18726397380E+02  0.00000000000E+00 0. -1.
         11    1    3    3    0    0  0.21591489850E+02  0.14980553985E+02 -0.86623985515E+01  0.27670319487E+02  0.51100000000E-03 0. -1.
        -11    1    3    3    0    0 -0.10959741947E+01  0.15390570024E+01 -0.28469728814E+01  0.34168861176E+01  0.51100000000E-03 0.  1.
        -12    1    3    3    0    0 -0.24396899244E+02 -0.15168514419E+02  0.29774959378E+02  0.41374397015E+02  0.00000000000E+00 0.  1.
</event>
<event>
 7    1  0.1465498E-013  0.7246159E+02  0.7816164E-02  0.1226708E+00
        -11   -1    0    0    0    0  0.00000000000E+00  0.00000000000E+00  0.45593999997E+02  0.45594000000E+02  0.51100000000E-03 0. -1.
         11   -1    0    0    0    0 -0.00000000000E+00 -0.00000000000E+00 -0.45593999997E+02  0.45594000000E+02  0.51100000000E-03 0.  1.
    9900012    2    1    2    0    0  0.11658914591E+02 -0.82831466551E+01 -0.12088732333E+02  0.72461594649E+02  0.70000031727E+02 0.  0.
         12    1    1    2    0    0 -0.11658914591E+02  0.82831466551E+01  0.12088732333E+02  0.18726405351E+02  0.00000000000E+00 0. -1.
         11    1    3    3    0    0  0.15486332219E+02 -0.12408710506E+02 -0.16476242700E+02  0.25792812096E+02  0.51100000000E-03 0. -1.
        -11    1    3    3    0    0  0.20915116689E+02 -0.17004463327E+01  0.31524402614E+01  0.21219601874E+02  0.51100000000E-03 0.  1.
         12    1    3    3    0    0 -0.24742534317E+02  0.58260101839E+01  0.12350701055E+01  0.25449180680E+02  0.00000000000E+00 0. -1.
</event>
<event>
 7    1  0.1465498E-013  0.7246154E+02  0.7816164E-02  0.1226708E+00
        -11   -1    0    0    0    0  0.00000000000E+00  0.00000000000E+00  0.45593999997E+02  0.45594000000E+02  0.51100000000E-03 0.  1.
         11   -1    0    0    0    0 -0.00000000000E+00 -0.00000000000E+00 -0.45593999997E+02  0.45594000000E+02  0.51100000000E-03 0. -1.
    9900012    2    1    2    0    0 -0.48566013675E+01  0.17802321561E+01  0.17997899401E+02  0.72461543148E+02  0.69999964637E+02 0.  0.
         12    1    1    2    0    0  0.48566013675E+01 -0.17802321561E+01 -0.17997899401E+02  0.18726456852E+02  0.00000000000E+00 0. -1.
         11    1    3    3    0    0 -0.12296870689E+02  0.17607012500E+02  0.64811371299E+01  0.22432678321E+02  0.51100000000E-03 0. -1.
        -11    1    3    3    0    0 -0.18427655392E+02 -0.40869281087E+01  0.10508993777E+02  0.21603712993E+02  0.51100000000E-03 0.  1.
         12    1    3    3    0    0  0.25867924713E+02 -0.11739852235E+02  0.10077684938E+01  0.28425151834E+02  0.00000000000E+00 0. -1.
</event>
<event>
 7    1  0.1465498E-013  0.7246159E+02  0.7816164E-02  0.1226708E+00
        -11   -1    0    0    0    0  0.00000000000E+00  0.00000000000E+00  0.45593999997E+02  0.45594000000E+02  0.51100000000E-03 0. -1.
         11   -1    0    0    0    0 -0.00000000000E+00 -0.00000000000E+00 -0.45593999997E+02  0.45594000000E+02  0.51100000000E-03 0.  1.
    9900012    2    1    2    0    0 -0.80409383059E+01 -0.15099727802E+02 -0.76170866013E+01  0.72461588789E+02  0.70000024093E+02 0.  0.
         12    1    1    2    0    0  0.80409383059E+01  0.15099727802E+02  0.76170866013E+01  0.18726411211E+02  0.00000000000E+00 0. -1.
         11    1    3    3    0    0  0.48955622211E+01  0.16725524876E+02 -0.15460886172E+01  0.17495716679E+02  0.51100000000E-03 0. -1.
        -11    1    3    3    0    0 -0.13151413259E+02  0.72434849117E+01  0.17676605450E+01  0.15117948553E+02  0.51100000000E-03 0.  1.
        -12    1    3    3    0    0  0.21491273200E+00 -0.39068737590E+02 -0.78386585291E+01  0.39847923558E+02  0.00000000000E+00 0.  1.
</event>
<event>
 7    1  0.1465498E-013  0.7246158E+02  0.7816164E-02  0.1226708E+00
        -11   -1    0    0    0    0  0.00000000000E+00  0.00000000000E+00  0.45593999997E+02  0.45594000000E+02  0.51100000000E-03 0. -1.
         11   -1    0    0    0    0 -0.00000000000E+00 -0.00000000000E+00 -0.45593999997E+02  0.45594000000E+02  0.51100000000E-03 0.  1.
    9900012    2    1    2    0    0 -0.10782663359E+02  0.12235238596E+02  0.92039117134E+01  0.72461577932E+02  0.70000009950E+02 0.  0.
         12    1    1    2    0    0  0.10782663359E+02 -0.12235238596E+02 -0.92039117134E+01  0.18726422068E+02  0.00000000000E+00 0. -1.
         11    1    3    3    0    0 -0.96948481913E+01  0.17446037673E+02  0.31783560497E+02  0.37530641216E+02  0.51100000000E-03 0. -1.
        -11    1    3    3    0    0 -0.11762182566E+02 -0.52200802598E+01 -0.39520797769E+01  0.13461690513E+02  0.51100000000E-03 0.  1.
        -12    1    3    3    0    0  0.10674367398E+02  0.92811826165E-02 -0.18627569006E+02  0.21469246204E+02  0.00000000000E+00 0.  1.
</event>
<event>
 7    1  0.1465498E-013  0.7246157E+02  0.7816164E-02  0.1226708E+00
        -11   -1    0    0    0    0  0.00000000000E+00  0.00000000000E+00  0.45593999997E+02  0.45594000000E+02  0.51100000000E-03 0. -1.
         11   -1    0    0    0    0 -0.00000000000E+00 -0.00000000000E+00 -0.45593999997E+02  0.45594000000E+02  0.51100000000E-03 0.  1.
    9900012    2    1    2    0    0 -0.16035141740E+02  0.13836201790E+01 -0.95728221893E+01  0.72461572148E+02  0.70000002415E+02 0.  0.
         12    1    1    2    0    0  0.16035141740E+02 -0.13836201790E+01  0.95728221893E+01  0.18726427852E+02  0.00000000000E+00 0. -1.
         11    1    3    3    0    0  0.93712848808E+00  0.67469179541E+01  0.14167852391E+02  0.15720278411E+02  0.51100000000E-03 0. -1.
        -11    1    3    3    0    0 -0.24005163137E+02  0.11808196167E+02 -0.26877582859E+02  0.37922101927E+02  0.51100000000E-03 0.  1.
         12    1    3    3    0    0  0.70328929087E+01 -0.17171493942E+02  0.31369082785E+01  0.18819191811E+02  0.00000000000E+00 0. -1.
</event>
<event>
 7    1  0.1465498E-013  0.7246156E+02  0.7816164E-02  0.1226708E+00
        -11   -1    0    0    0    0  0.00000000000E+00  0.00000000000E+00  0.45593999997E+02  0.45594000000E+02  0.51100000000E-03 0.  1.
         11   -1    0    0    0    0 -0.00000000000E+00 -0.00000000000E+00 -0.45593999997E+02  0.45594000000E+02  0.51100000000E-03 0. -1.
    9900012    2    1    2    0    0  0.51078970425E+01  0.79739968027E+01  0.16155632446E+02  0.72461556212E+02  0.69999981656E+02 0.  0.
         12    1    1    2    0    0 -0.51078970425E+01 -0.79739968027E+01 -0.16155632446E+02  0.18726443788E+02  0.00000000000E+00 0. -1.
         11    1    3    3    0    0  0.94895593864E+01 -0.56910020091E+01 -0.62741415658E+01  0.12720223813E+02  0.51100000000E-03 0. -1.
        -11    1    3    3    0    0  0.21495990755E+02  0.15892571493E+02  0.22075448232E+01  0.26823957605E+02  0.51100000000E-03 0.  1.
         12    1    3    3    0    0 -0.25877653099E+02 -0.22275726811E+01  0.20222229188E+02  0.32917374794E+02  0.00000000000E+00 0. -1.
</event>
<event>
 7    1  0.1465498E-013  0.7246159E+02  0.7816164E-02  0.1226708E+00
        -11   -1    0    0    0    0  0.00000000000E+00  0.00000000000E+00  0.45593999997E+02  0.45594000000E+02  0.51100000000E-03 0. -1.
         11   -1    0    0    0    0 -0.00000000000E+00 -0.00000000000E+00 -0.45593999997E+02  0.45594000000E+02  0.51100000000E-03 0.  1.
    9900012    2    1    2    0    0 -0.86732009109E+00 -0.18504799678E+02 -0.27383689885E+01  0.72461587637E+02  0.70000022592E+02 0.  0.
         12    1    1    2    0    0  0.86732009109E+00  0.18504799678E+02  0.27383689885E+01  0.18726412363E+02  0.00000000000E+00 0. -1.
         11    1    3    3    0    0 -0.14415082577E+02 -0.16219782480E+02 -0.22421741281E+02  0.31202731158E+02  0.51100000000E-03 0. -1.
        -11    1    3    3    0    0  0.73187621602E+01 -0.10807992003E+02 -0.53376455171E+01  0.14102036400E+02  0.51100000000E-03 0.  1.
        -12    1    3    3    0    0  0.62290003260E+01  0.85229748053E+01  0.25021017809E+02  0.27156820079E+02  0.00000000000E+00 0.  1.
</event>
<event>
 7    1  0.1465498E-013  0.7246161E+02  0.7816164E-02  0.1226708E+00
        -11   -1    0    0    0    0  0.00000000000E+00  0.00000000000E+00  0.45593999997E+02  0.45594000000E+02  0.51100000000E-03 0.  1.
         11   -1    0    0    0    0 -0.00000000000E+00 -0.00000000000E+00 -0.45593999997E+02  0.45594000000E+02  0.51100000000E-03 0. -1.
    9900012    2    1    2    0    0  0.17452294333E+02 -0.66989188569E+01  0.11044271473E+01  0.72461605508E+02  0.70000045873E+02 0.  0.
         12    1    1    2    0    0 -0.17452294333E+02  0.66989188569E+01 -0.11044271473E+01  0.18726394492E+02  0.00000000000E+00 0. -1.
         11    1    3    3    0    0  0.29582861970E+02  0.12190693917E+02 -0.93232194970E+01  0.33326883481E+02  0.51100000000E-03 0. -1.
        -11    1    3    3    0    0 -0.94146753957E+01  0.69649091612E+01  0.27795680043E+01  0.12036281443E+02  0.51100000000E-03 0.  1.
        -12    1    3    3    0    0 -0.27158922413E+01 -0.25854521935E+02  0.76480786401E+01  0.27098440584E+02  0.00000000000E+00 0.  1.
</event>
<event>
 7    1  0.1465498E-013  0.7246156E+02  0.7816164E-02  0.1226708E+00
        -11   -1    0    0    0    0  0.00000000000E+00  0.00000000000E+00  0.45593999997E+02  0.45594000000E+02  0.51100000000E-03 0.  1.
         11   -1    0    0    0    0 -0.00000000000E+00 -0.00000000000E+00 -0.45593999997E+02  0.45594000000E+02  0.51100000000E-03 0. -1.
    9900012    2    1    2    0    0 -0.97148326702E+01  0.37136643033E+01  0.15572737846E+02  0.72461563062E+02  0.69999990578E+02 0.  0.
         12    1    1    2    0    0  0.97148326702E+01 -0.37136643033E+01 -0.15572737846E+02  0.18726436938E+02  0.00000000000E+00 0. -1.
         11    1    3    3    0    0 -0.28029184814E+02  0.89210595717E+01  0.14957543936E+02  0.32999221599E+02  0.51100000000E-03 0. -1.
        -11    1    3    3    0    0 -0.52028477424E+01 -0.28960723819E+01 -0.11467971658E+02  0.12921734949E+02  0.51100000000E-03 0.  1.
        -12    1    3    3    0    0  0.23517199887E+02 -0.23113228865E+01  0.12083165568E+02  0.26540606514E+02  0.00000000000E+00 0.  1.
</event>
<event>
 7    1  0.1465498E-013  0.7246160E+02  0.7816164E-02  0.1226708E+00
        -11   -1    0    0    0    0  0.00000000000E+00  0.00000000000E+00  0.45593999997E+02  0.45594000000E+02  0.51100000000E-03 0. -1.
         11   -1    0    0    0    0 -0.00000000000E+00 -0.00000000000E+00 -0.45593999997E+02  0.45594000000E+02  0.51100000000E-03 0.  1.
    9900012    2    1    2    0    0  0.58991839296E+01  0.15054452247E+02 -0.94467597500E+01  0.72461596895E+02  0.70000034652E+02 0.  0.
         12    1    1    2    0    0 -0.58991839296E+01 -0.15054452247E+02  0.94467597500E+01  0.18726403105E+02  0.00000000000E+00 0. -1.
         11    1    3    3    0    0  0.57588783786E+01 -0.53199287496E+01 -0.87460695630E+00  0.78886792095E+01  0.51100000000E-03 0. -1.
        -11    1    3    3    0    0 -0.46291821558E+01 -0.14541081550E+02 -0.22073883566E+02  0.26835214104E+02  0.51100000000E-03 0.  1.
         12    1    3    3    0    0  0.47694877067E+01  0.34915462546E+02  0.13501730772E+02  0.37737703582E+02  0.00000000000E+00 0. -1.
</event>
<event>
 7    1  0.1465498E-013  0.7246158E+02  0.7816164E-02  0.1226708E+00
        -11   -1    0    0    0    0  0.00000000000E+00  0.00000000000E+00  0.45593999997E+02  0.45594000000E+02  0.51100000000E-03 0. -1.
         11   -1    0    0    0    0 -0.00000000000E+00 -0.00000000000E+00 -0.45593999997E+02  0.45594000000E+02  0.51100000000E-03 0.  1.
    9900012    2    1    2    0    0  0.76807333095E+01 -0.14181549562E+02 -0.95167666547E+01  0.72461578566E+02  0.70000010776E+02 0.  0.
         12    1    1    2    0    0 -0.76807333095E+01  0.14181549562E+02  0.95167666547E+01  0.18726421434E+02  0.00000000000E+00 0. -1.
         11    1    3    3    0    0 -0.22770264350E+01 -0.50702926127E+01 -0.62678173725E+00  0.55933507106E+01  0.51100000000E-03 0. -1.
        -11    1    3    3    0    0  0.25611115277E+02 -0.21746469759E+02 -0.24352601982E+02  0.41495631050E+02  0.51100000000E-03 0.  1.
         12    1    3    3    0    0 -0.15653355532E+02  0.12635212810E+02  0.15462617065E+02  0.25372596805E+02  0.00000000000E+00 0. -1.
</event>
<event>
 7    1  0.1465498E-013  0.7246159E+02  0.7816164E-02  0.1226708E+00
        -11   -1    0    0    0    0  0.00000000000E+00  0.00000000000E+00  0.45593999997E+02  0.45594000000E+02  0.51100000000E-03 0. -1.
         11   -1    0    0    0    0 -0.00000000000E+00 -0.00000000000E+00 -0.45593999997E+02  0.45594000000E+02  0.51100000000E-03 0.  1.
    9900012    2    1    2    0    0  0.28463772135E+01  0.17424125392E+02  0.62430960883E+01  0.72461594641E+02  0.70000031715E+02 0.  0.
         12    1    1    2    0    0 -0.28463772135E+01 -0.17424125392E+02 -0.62430960883E+01  0.18726405359E+02  0.00000000000E+00 0. -1.
         11    1    3    3    0    0  0.14140083797E+02 -0.94463399240E+00  0.52196231296E+01  0.15102276949E+02  0.51100000000E-03 0. -1.
        -11    1    3    3    0    0  0.24402093046E+01  0.15184160171E+02 -0.24077595683E+02  0.28569983474E+02  0.51100000000E-03 0.  1.
        -12    1    3    3    0    0 -0.13733915888E+02  0.31845992135E+01  0.25101068642E+02  0.28789334218E+02  0.00000000000E+00 0.  1.
</event>
<event>
 7    1  0.1465498E-013  0.7246153E+02  0.7816164E-02  0.1226708E+00
        -11   -1    0    0    0    0  0.00000000000E+00  0.00000000000E+00  0.45593999997E+02  0.45594000000E+02  0.51100000000E-03 0.  1.
         11   -1    0    0    0    0 -0.00000000000E+00 -0.00000000000E+00 -0.45593999997E+02  0.45594000000E+02  0.51100000000E-03 0. -1.
    9900012    2    1    2    0    0  0.14190196399E+02 -0.60686198356E+01  0.10606171050E+02  0.72461529833E+02  0.69999947292E+02 0.  0.
         12    1    1    2    0    0 -0.14190196399E+02  0.60686198356E+01 -0.10606171050E+02  0.18726470167E+02  0.00000000000E+00 0. -1.
         11    1    3    3    0    0  0.25213332042E+02 -0.16972166979E+02  0.52856846664E+01  0.30849716810E+02  0.51100000000E-03 0. -1.
        -11    1    3    3    0    0 -0.33486842906E+01 -0.42644260530E+01  0.19021224840E+02  0.19778928452E+02  0.51100000000E-03 0.  1.
         12    1    3    3    0    0 -0.76744513522E+01  0.15167973196E+02 -0.13700738456E+02  0.21832884571E+02  0.00000000000E+00 0. -1.
</event>
<event>
 7    1  0.1465498E-013  0.7246160E+02  0.7816164E-02  0.1226708E+00
        -11   -1    0    0    0    0  0.00000000000E+00  0.00000000000E+00  0.45593999997E+02  0.45594000000E+02  0.51100000000E-03 0.  1.
         11   -1    0    0    0    0 -0.00000000000E+00 -0.00000000000E+00 -0.45593999997E+02  0.45594000000E+02  0.51100000000E-03 0. -1.
    9900012    2    1    2    0    0 -0.17972914713E+02 -0.69383453517E+00  0.52125962861E+01  0.72461595388E+02  0.70000032690E+02 0.  0.
         12    1    1    2    0    0  0.17972914713E+02  0.69383453517E+00 -0.52125962861E+01  0.18726404612E+02  0.00000000000E+00 0. -1.
         11    1    3    3    0    0  0.57997991003E+01  0.45924810280E+01 -0.13344351908E+02  0.15257794064E+02  0.51100000000E-03 0. -1.
        -11    1    3    3    0    0 -0.15066641405E+02  0.18446447872E+02 -0.29682509038E+01  0.24001784017E+02  0.51100000000E-03 0.  1.
        -12    1    3    3    0    0 -0.87060724083E+01 -0.23732763435E+02  0.21525199098E+02  0.33202017307E+02  0.00000000000E+00 0.  1.
</event>
<event>
 7    1  0.1465498E-013  0.7246161E+02  0.7816164E-02  0.1226708E+00
        -11   -1    0    0    0    0  0.00000000000E+00  0.00000000000E+00  0.45593999997E+02  0.45594000000E+02  0.51100000000E-03 0.  1.
         11   -1    0    0    0    0 -0.00000000000E+00 -0.00000000000E+00 -0.45593999997E+02  0.45594000000E+02  0.51100000000E-03 0. -1.
    9900012    2    1    2    0    0 -0.79615077280E+01 -0.12051959419E+01  0.16906793963E+02  0.72461607270E+02  0.70000048168E+02 0.  0.
         12    1    1    2    0    0  0.79615077280E+01  0.12051959419E+01 -0.16906793963E+02  0.18726392730E+02  0.00000000000E+00 0. -1.
         11    1    3    3    0    0 -0.33811606107E+02  0.32156379686E+01  0.11479841906E+02  0.35851803379E+02  0.51100000000E-03 0. -1.
        -11    1    3    3    0    0 -0.46476548936E+01  0.27061261859E+00  0.32478255861E+01  0.56764688406E+01  0.51100000000E-03 0.  1.
        -12    1    3    3    0    0  0.30497753272E+02 -0.46914465291E+01  0.21791264716E+01  0.30933335051E+02  0.00000000000E+00 0.  1.
</event>
<event>
 7    1  0.1465498E-013  0.7246154E+02  0.7816164E-02  0.1226708E+00
        -11   -1    0    0    0    0  0.00000000000E+00  0.00000000000E+00  0.45593999997E+02  0.45594000000E+02  0.51100000000E-03 0. -1.
         11   -1    0    0    0    0 -0.00000000000E+00 -0.00000000000E+00 -0.45593999997E+02  0.45594000000E+02  0.51100000000E-03 0.  1.
    9900012    2    1    2    0    0  0.45767182380E+01  0.14886822123E+02 -0.10397906651E+02  0.72461540498E+02  0.69999961185E+02 0.  0.
         12    1    1    2    0    0 -0.45767182380E+01 -0.14886822123E+02  0.10397906651E+02  0.18726459502E+02  0.00000000000E+00 0. -1.
         11    1    3    3    0    0 -0.26557754559E+02 -0.60310763695E+01  0.80580980960E+01  0.28401076644E+02  0.51100000000E-03 0. -1.
        -11    1    3    3    0    0  0.45587767340E+01  0.63087496567E+01  0.12651272216E+01  0.78856397768E+01  0.51100000000E-03 0.  1.
        -12    1    3    3    0    0  0.26575696063E+02  0.14609148836E+02 -0.19721131968E+02  0.36174824077E+02  0.00000000000E+00 0.  1.
</event>
<event>
 7    1  0.1465498E-013  0.7246154E+02  0.7816164E-02  0.1226708E+00
        -11   -1    0    0    0    0  0.00000000000E+00  0.00000000000E+00  0.45593999997E+02  0.45594000000E+02  0.51100000000E-03 0.  1.
         11   -1    0    0    0    0 -0.00000000000E+00 -0.00000000000E+00 -0.45593999997E+02  0.45594000000E+02  0.51100000000E-03 0. -1.
    9900012    2    1    2    0    0 -0.31574090820E+01 -0.18445596895E+02 -0.68636714652E+00  0.72461538060E+02  0.69999958009E+02 0.  0.
         12    1    1    2    0    0  0.31574090820E+01  0.18445596895E+02  0.68636714652E+00  0.18726461940E+02  0.00000000000E+00 0. -1.
         11    1    3    3    0    0 -0.65705542723E+01  0.48776836564E+00  0.90604857866E+01  0.11202790026E+02  0.51100000000E-03 0. -1.
        -11    1    3    3    0    0 -0.90754171713E+01  0.14690804895E+02  0.10361641676E+02  0.20138186705E+02  0.51100000000E-03 0.  1.
         12    1    3    3    0    0  0.12488562362E+02 -0.33624170156E+02 -0.20108494609E+02  0.41120561328E+02  0.00000000000E+00 0. -1.
</event>
<event>
 7    1  0.1465498E-013  0.7246158E+02  0.7816164E-02  0.1226708E+00
        -11   -1    0    0    0    0  0.00000000000E+00  0.00000000000E+00  0.45593999997E+02  0.45594000000E+02  0.51100000000E-03 0. -1.
         11   -1    0    0    0    0 -0.00000000000E+00 -0.00000000000E+00 -0.45593999997E+02  0.45594000000E+02  0.51100000000E-03 0.  1.
    9900012    2    1    2    0    0  0.15588505081E+02  0.13735130829E+00 -0.10375867305E+02  0.72461575398E+02  0.70000006649E+02 0.  0.
         12    1    1    2    0    0 -0.15588505081E+02 -0.13735130829E+00  0.10375867305E+02  0.18726424602E+02  0.00000000000E+00 0. -1.
         11    1    3    3    0    0  0.38436587321E+01  0.93335809095E+01 -0.48065071131E+00  0.10105467352E+02  0.51100000000E-03 0. -1.
        -11    1    3    3    0    0  0.24724126497E+02  0.16864324970E+02 -0.13845476966E+02  0.32975523050E+02  0.51100000000E-03 0.  1.
         12    1    3    3    0    0 -0.12979280148E+02 -0.26060554571E+02  0.39502603725E+01  0.29380584996E+02  0.00000000000E+00 0. -1.
</event>
<event>
 7    1  0.1465498E-013  0.7246157E+02  0.7816164E-02  0.1226708E+00
        -11   -1    0    0    0    0  0.00000000000E+00  0.00000000000E+00  0.45593999997E+02  0.45594000000E+02  0.51100000000E-03 0.  1.
         11   -1    0    0    0    0 -0.00000000000E+00 -0.00000000000E+00 -0.45593999997E+02  0.45594000000E+02  0.51100000000E-03 0. -1.
    9900012    2    1    2    0    0  0.99139826762E+01 -0.22430900566E+01  0.15727706018E+02  0.72461568356E+02  0.69999997475E+02 0.  0.
         12    1    1    2    0    0 -0.99139826762E+01  0.22430900566E+01 -0.15727706018E+02  0.18726431644E+02  0.00000000000E+00 0. -1.
         11    1    3    3    0    0  0.12569366012E+02 -0.21608307719E+02  0.11227108621E+02  0.27403574450E+02  0.51100000000E-03 0. -1.
        -11    1    3    3    0    0  0.18956267680E+01  0.23887437038E+02  0.18094010132E+02  0.30026592414E+02  0.51100000000E-03 0.  1.
         12    1    3    3    0    0 -0.45510101042E+01 -0.45222193755E+01 -0.13593412734E+02  0.15031401492E+02  0.00000000000E+00 0. -1.
</event>
<event>
 7    1  0.1465498E-013  0.7246154E+02  0.7816164E-02  0.1226708E+00
        -11   -1    0    0    0    0  0.00000000000E+00  0.00000000000E+00  0.45593999997E+02  0.45594000000E+02  0.51100000000E-03 0.  1.
         11   -1    0    0    0    0 -0.00000000000E+00 -0.00000000000E+00 -0.45593999997E+02  0.45594000000E+02  0.51100000000E-03 0. -1.
    9900012    2    1    2    0    0  0.12359948423E+01 -0.10159114356E+02  0.15682634506E+02  0.72461539769E+02  0.69999960234E+02 0.  0.
         12    1    1    2    0    0 -0.12359948423E+01  0.10159114356E+02 -0.15682634506E+02  0.18726460231E+02  0.00000000000E+00 0. -1.
         11    1    3    3    0    0  0.32140442699E+01 -0.97762363139E+01 -0.38033513858E+01  0.10971342628E+02  0.51100000000E-03 0. -1.
        -11    1    3    3    0    0  0.85526224777E+01  0.17267110797E+02  0.32053486076E+02  0.37399551286E+02  0.51100000000E-03 0.  1.
         12    1    3    3    0    0 -0.10530671905E+02 -0.17649988839E+02 -0.12567500184E+02  0.24090645854E+02  0.00000000000E+00 0. -1.
</event>
<event>
 7    1  0.1465498E-013  0.7246146E+02  0.7816164E-02  0.1226708E+00
        -11   -1    0    0    0    0  0.00000000000E+00  0.00000000000E+00  0.45593999997E+02  0.45594000000E+02  0.51100000000E-03 0.  1.
         11   -1    0    0    0    0 -0.00000000000E+00 -0.00000000000E+00 -0.45593999997E+02  0.45594000000E+02  0.51100000000E-03 0. -1.
    9900012    2    1    2    0    0 -0.14011685372E+02 -0.11412409903E+02  0.49104777871E+01  0.72461462176E+02  0.69999859156E+02 0.  0.
         12    1    1    2    0    0  0.14011685372E+02  0.11412409903E+02 -0.49104777871E+01  0.18726537824E+02  0.00000000000E+00 0. -1.
         11    1    3    3    0    0  0.79593438663E+01  0.75121903843E+01 -0.99776198199E+01  0.14810032299E+02  0.51100000000E-03 0. -1.
        -11    1    3    3    0    0  0.10775177302E+00  0.14950885982E+02  0.13597391924E+01  0.15012977487E+02  0.51100000000E-03 0.  1.
         12    1    3    3    0    0 -0.22078781012E+02 -0.33875486269E+02  0.13528358415E+02  0.42638452391E+02  0.00000000000E+00 0. -1.
</event>
<event>
 7    1  0.1465498E-013  0.7246159E+02  0.7816164E-02  0.1226708E+00
        -11   -1    0    0    0    0  0.00000000000E+00  0.00000000000E+00  0.45593999997E+02  0.45594000000E+02  0.51100000000E-03 0. -1.
         11   -1    0    0    0    0 -0.00000000000E+00 -0.00000000000E+00 -0.45593999997E+02  0.45594000000E+02  0.51100000000E-03 0.  1.
    9900012    2    1    2    0    0 -0.20876795133E+01 -0.34563349247E+01 -0.18285893914E+02  0.72461586219E+02  0.70000020745E+02 0.  0.
         12    1    1    2    0    0  0.20876795133E+01  0.34563349247E+01  0.18285893914E+02  0.18726413781E+02  0.00000000000E+00 0. -1.
         11    1    3    3    0    0  0.19911432183E+02  0.14222510426E+02 -0.15060578683E+02  0.28732663729E+02  0.51100000000E-03 0. -1.
        -11    1    3    3    0    0 -0.45034942323E+00 -0.21625628794E+02 -0.34415282621E+00  0.21633055188E+02  0.51100000000E-03 0.  1.
        -12    1    3    3    0    0 -0.21548762273E+02  0.39467834425E+01 -0.28811624046E+01  0.22095867303E+02  0.00000000000E+00 0.  1.
</event>
<event>
 7    1  0.1465498E-013  0.7246158E+02  0.7816164E-02  0.1226708E+00
        -11   -1    0    0    0    0  0.00000000000E+00  0.00000000000E+00  0.45593999997E+02  0.45594000000E+02  0.51100000000E-03 0.  1.
         11   -1    0    0    0    0 -0.00000000000E+00 -0.00000000000E+00 -0.45593999997E+02  0.45594000000E+02  0.51100000000E-03 0. -1.
    9900012    2    1    2    0    0  0.10615323057E+02 -0.11953567617E+02  0.97522241591E+01  0.72461581805E+02  0.70000014994E+02 0.  0.
         12    1    1    2    0    0 -0.10615323057E+02  0.11953567617E+02 -0.97522241591E+01  0.18726418195E+02  0.00000000000E+00 0. -1.
         11    1    3    3    0    0  0.27380613239E+01  0.14203607475E+02 -0.10485682440E+01  0.14503066598E+02  0.51100000000E-03 0. -1.
        -11    1    3    3    0    0 -0.12245414347E+02  0.39033153351E+01 -0.99513635764E+01  0.16254712560E+02  0.51100000000E-03 0.  1.
        -12    1    3    3    0    0  0.20122676080E+02 -0.30060490427E+02  0.20752155980E+02  0.41703802646E+02  0.00000000000E+00 0.  1.
</event>
<event>
 7    1  0.1465498E-013  0.7246153E+02  0.7816164E-02  0.1226708E+00
        -11   -1    0    0    0    0  0.00000000000E+00  0.00000000000E+00  0.45593999997E+02  0.45594000000E+02  0.51100000000E-03 0.  1.
         11   -1    0    0    0    0 -0.00000000000E+00 -0.00000000000E+00 -0.45593999997E+02  0.45594000000E+02  0.51100000000E-03 0. -1.
    9900012    2    1    2    0    0 -0.89688627390E+01 -0.48356588778E+01  0.15711666856E+02  0.72461532874E+02  0.69999951254E+02 0.  0.
         12    1    1    2    0    0  0.89688627390E+01  0.48356588778E+01 -0.15711666856E+02  0.18726467126E+02  0.00000000000E+00 0. -1.
         11    1    3    3    0    0  0.11057782833E+02 -0.35517418600E+01  0.13296226292E+02  0.17654434720E+02  0.51100000000E-03 0. -1.
        -11    1    3    3    0    0  0.30432527633E+01  0.16079604437E+02  0.16008911170E+02  0.22893237065E+02  0.51100000000E-03 0.  1.
         12    1    3    3    0    0 -0.23069898335E+02 -0.17363521455E+02 -0.13593470606E+02  0.31913861089E+02  0.00000000000E+00 0. -1.
</event>
<event>
 7    1  0.1465498E-013  0.7246166E+02  0.7816164E-02  0.1226708E+00
        -11   -1    0    0    0    0  0.00000000000E+00  0.00000000000E+00  0.45593999997E+02  0.45594000000E+02  0.51100000000E-03 0.  1.
         11   -1    0    0    0    0 -0.00000000000E+00 -0.00000000000E+00 -0.45593999997E+02  0.45594000000E+02  0.51100000000E-03 0. -1.
    9900012    2    1    2    0    0 -0.10258533115E+02 -0.13691663653E+02  0.76142436554E+01  0.72461658614E+02  0.70000115053E+02 0.  0.
         12    1    1    2    0    0  0.10258533115E+02  0.13691663653E+02 -0.76142436554E+01  0.18726341386E+02  0.00000000000E+00 0. -1.
         11    1    3    3    0    0  0.43800402154E+01 -0.17128728166E+02  0.25327433258E+01  0.17860371493E+02  0.51100000000E-03 0. -1.
        -11    1    3    3    0    0  0.11584372694E+02  0.23946894599E+01  0.20859205423E+02  0.23979964126E+02  0.51100000000E-03 0.  1.
         12    1    3    3    0    0 -0.26222946025E+02  0.10423750527E+01 -0.15777705093E+02  0.30621322995E+02  0.00000000000E+00 0. -1.
</event>
<event>
 7    1  0.1465498E-013  0.7246155E+02  0.7816164E-02  0.1226708E+00
        -11   -1    0    0    0    0  0.00000000000E+00  0.00000000000E+00  0.45593999997E+02  0.45594000000E+02  0.51100000000E-03 0.  1.
         11   -1    0    0    0    0 -0.00000000000E+00 -0.00000000000E+00 -0.45593999997E+02  0.45594000000E+02  0.51100000000E-03 0. -1.
    9900012    2    1    2    0    0 -0.13790885928E+01  0.16543712415E+02  0.86650753434E+01  0.72461552485E+02  0.69999976800E+02 0.  0.
         12    1    1    2    0    0  0.13790885928E+01 -0.16543712415E+02 -0.86650753434E+01  0.18726447515E+02  0.00000000000E+00 0. -1.
         11    1    3    3    0    0  0.90482072514E+01  0.33026966803E+01  0.20709910913E+02  0.22840277365E+02  0.51100000000E-03 0.  1.
        -11    1    3    3    0    0 -0.24858919091E+02  0.54376905708E+01  0.50330757120E+01  0.25939664387E+02  0.51100000000E-03 0. -1.
         12    1    3    3    0    0  0.14431623247E+02  0.78033251642E+01 -0.17077911282E+02  0.23681610733E+02  0.00000000000E+00 0. -1.
</event>
<event>
 7    1  0.1465498E-013  0.7246154E+02  0.7816164E-02  0.1226708E+00
        -11   -1    0    0    0    0  0.00000000000E+00  0.00000000000E+00  0.45593999997E+02  0.45594000000E+02  0.51100000000E-03 0.  1.
         11   -1    0    0    0    0 -0.00000000000E+00 -0.00000000000E+00 -0.45593999997E+02  0.45594000000E+02  0.51100000000E-03 0. -1.
    9900012    2    1    2    0    0  0.91702417083E+00  0.13318811444E+02 -0.13131967482E+02  0.72461541671E+02  0.69999962713E+02 0.  0.
         12    1    1    2    0    0 -0.91702417083E+00 -0.13318811444E+02  0.13131967482E+02  0.18726458329E+02  0.00000000000E+00 0. -1.
         11    1    3    3    0    0 -0.13976503305E+01 -0.39608449050E+01  0.17497697873E+01  0.45501003701E+01  0.51100000000E-03 0. -1.
        -11    1    3    3    0    0  0.30409829995E+02 -0.24557585912E+01 -0.45001578073E-01  0.30508859959E+02  0.51100000000E-03 0.  1.
         12    1    3    3    0    0 -0.28095155494E+02  0.19735414940E+02 -0.14836735691E+02  0.37402581342E+02  0.00000000000E+00 0. -1.
</event>
<event>
 7    1  0.1465498E-013  0.7246155E+02  0.7816164E-02  0.1226708E+00
        -11   -1    0    0    0    0  0.00000000000E+00  0.00000000000E+00  0.45593999997E+02  0.45594000000E+02  0.51100000000E-03 0. -1.
         11   -1    0    0    0    0 -0.00000000000E+00 -0.00000000000E+00 -0.45593999997E+02  0.45594000000E+02  0.51100000000E-03 0.  1.
    9900012    2    1    2    0    0  0.98100025764E+01  0.15316235304E+02 -0.44560866906E+01  0.72461550175E+02  0.69999973791E+02 0.  0.
         12    1    1    2    0    0 -0.98100025764E+01 -0.15316235304E+02  0.44560866906E+01  0.18726449825E+02  0.00000000000E+00 0. -1.
         11    1    3    3    0    0 -0.13563742392E+02 -0.10383576783E+02  0.12444117849E+02  0.21134091979E+02  0.51100000000E-03 0. -1.
        -11    1    3    3    0    0 -0.18326551299E+01  0.11193330321E+02  0.73037738284E+01  0.13490529304E+02  0.51100000000E-03 0.  1.
         12    1    3    3    0    0  0.25206400099E+02  0.14506481766E+02 -0.24203978368E+02  0.37836928892E+02  0.00000000000E+00 0. -1.
</event>
<event>
 7    1  0.1465498E-013  0.7246155E+02  0.7816164E-02  0.1226708E+00
        -11   -1    0    0    0    0  0.00000000000E+00  0.00000000000E+00  0.45593999997E+02  0.45594000000E+02  0.51100000000E-03 0.  1.
         11   -1    0    0    0    0 -0.00000000000E+00 -0.00000000000E+00 -0.45593999997E+02  0.45594000000E+02  0.51100000000E-03 0. -1.
    9900012    2    1    2    0    0  0.16165638041E+02 -0.72882861635E+01  0.60193892253E+01  0.72461547717E+02  0.69999970589E+02 0.  0.
         12    1    1    2    0    0 -0.16165638041E+02  0.72882861635E+01 -0.60193892253E+01  0.18726452283E+02  0.00000000000E+00 0. -1.
         11    1    3    3    0    0  0.26238680285E+00 -0.24718034855E+01  0.40779835411E+01  0.47758359821E+01  0.51100000000E-03 0. -1.
        -11    1    3    3    0    0  0.14375488543E+02  0.19074460632E+02  0.24908985445E+02  0.34510103961E+02  0.51100000000E-03 0.  1.
         12    1    3    3    0    0  0.15277626947E+01 -0.23890943310E+02 -0.22967579761E+02  0.33175607774E+02  0.00000000000E+00 0. -1.
</event>
<event>
 7    1  0.1465498E-013  0.7246156E+02  0.7816164E-02  0.1226708E+00
        -11   -1    0    0    0    0  0.00000000000E+00  0.00000000000E+00  0.45593999997E+02  0.45594000000E+02  0.51100000000E-03 0. -1.
         11   -1    0    0    0    0 -0.00000000000E+00 -0.00000000000E+00 -0.45593999997E+02  0.45594000000E+02  0.51100000000E-03 0.  1.
    9900012    2    1    2    0    0 -0.15630644200E+02  0.99683284646E+01  0.26448301110E+01  0.72461555148E+02  0.69999980269E+02 0.  0.
         12    1    1    2    0    0  0.15630644200E+02 -0.99683284646E+01 -0.26448301110E+01  0.18726444852E+02  0.00000000000E+00 0. -1.
         11    1    3    3    0    0 -0.35508268257E+02 -0.62177981623E+01  0.10453760277E+02  0.37533707954E+02  0.51100000000E-03 0. -1.
        -11    1    3    3    0    0  0.52986305008E+01  0.24760090506E+01 -0.12997992379E+02  0.14253207083E+02  0.51100000000E-03 0.  1.
        -12    1    3    3    0    0  0.14578993556E+02  0.13710117576E+02  0.51890622133E+01  0.20674640111E+02  0.00000000000E+00 0.  1.
</event>
<event>
 7    1  0.1465498E-013  0.7246154E+02  0.7816164E-02  0.1226708E+00
        -11   -1    0    0    0    0  0.00000000000E+00  0.00000000000E+00  0.45593999997E+02  0.45594000000E+02  0.51100000000E-03 0.  1.
         11   -1    0    0    0    0 -0.00000000000E+00 -0.00000000000E+00 -0.45593999997E+02  0.45594000000E+02  0.51100000000E-03 0. -1.
    9900012    2    1    2    0    0  0.17733451798E+02  0.20472188093E+01  0.56580691077E+01  0.72461543753E+02  0.69999965425E+02 0.  0.
         12    1    1    2    0    0 -0.17733451798E+02 -0.20472188093E+01 -0.56580691077E+01  0.18726456247E+02  0.00000000000E+00 0. -1.
         11    1    3    3    0    0 -0.28085912418E+01  0.12348249595E+02 -0.28188737280E+02  0.30902627114E+02  0.51100000000E-03 0. -1.
        -11    1    3    3    0    0  0.14088524405E+01 -0.12624486844E+01  0.32871109767E+00  0.19200763336E+01  0.51100000000E-03 0.  1.
        -12    1    3    3    0    0  0.19133190600E+02 -0.90385821017E+01  0.33518095290E+02  0.39638840306E+02  0.00000000000E+00 0.  1.
</event>
<event>
 7    1  0.1465498E-013  0.7246157E+02  0.7816164E-02  0.1226708E+00
        -11   -1    0    0    0    0  0.00000000000E+00  0.00000000000E+00  0.45593999997E+02  0.45594000000E+02  0.51100000000E-03 0. -1.
         11   -1    0    0    0    0 -0.00000000000E+00 -0.00000000000E+00 -0.45593999997E+02  0.45594000000E+02  0.51100000000E-03 0.  1.
    9900012    2    1    2    0    0  0.72063372961E+01  0.17082648180E+02 -0.26326743853E+01  0.72461571070E+02  0.70000001010E+02 0.  0.
         12    1    1    2    0    0 -0.72063372961E+01 -0.17082648180E+02  0.26326743853E+01  0.18726428930E+02  0.00000000000E+00 0. -1.
         11    1    3    3    0    0 -0.33242831427E+01 -0.98756636086E+00 -0.49856702107E+01  0.60731419744E+01  0.51100000000E-03 0. -1.
        -11    1    3    3    0    0  0.35566855294E+02  0.69501890197E+00  0.44014840888E+01  0.35844906322E+02  0.51100000000E-03 0.  1.
         12    1    3    3    0    0 -0.25036234856E+02  0.17375195639E+02 -0.20484882634E+01  0.30543522773E+02  0.00000000000E+00 0. -1.
</event>
<event>
 7    1  0.1465498E-013  0.7246157E+02  0.7816164E-02  0.1226708E+00
        -11   -1    0    0    0    0  0.00000000000E+00  0.00000000000E+00  0.45593999997E+02  0.45594000000E+02  0.51100000000E-03 0. -1.
         11   -1    0    0    0    0 -0.00000000000E+00 -0.00000000000E+00 -0.45593999997E+02  0.45594000000E+02  0.51100000000E-03 0.  1.
    9900012    2    1    2    0    0 -0.16914532363E+02 -0.72350278709E+01 -0.34974479060E+01  0.72461570142E+02  0.69999999802E+02 0.  0.
         12    1    1    2    0    0  0.16914532363E+02  0.72350278709E+01  0.34974479060E+01  0.18726429858E+02  0.00000000000E+00 0. -1.
         11    1    3    3    0    0  0.92527789570E+01  0.93670954395E+01  0.28268365422E+01  0.13466528896E+02  0.51100000000E-03 0. -1.
        -11    1    3    3    0    0 -0.12093680597E+02  0.21219156987E+01  0.20181132574E+02  0.23622822627E+02  0.51100000000E-03 0.  1.
        -12    1    3    3    0    0 -0.14073630724E+02 -0.18724039009E+02 -0.26505417022E+02  0.35372218620E+02  0.00000000000E+00 0.  1.
</event>
<event>
 7    1  0.1465498E-013  0.7246160E+02  0.7816164E-02  0.1226708E+00
        -11   -1    0    0    0    0  0.00000000000E+00  0.00000000000E+00  0.45593999997E+02  0.45594000000E+02  0.51100000000E-03 0.  1.
         11   -1    0    0    0    0 -0.00000000000E+00 -0.00000000000E+00 -0.45593999997E+02  0.45594000000E+02  0.51100000000E-03 0. -1.
    9900012    2    1    2    0    0 -0.46467318384E+01  0.16795037531E+02  0.68565903667E+01  0.72461595275E+02  0.70000032542E+02 0.  0.
         12    1    1    2    0    0  0.46467318384E+01 -0.16795037531E+02 -0.68565903667E+01  0.18726404725E+02  0.00000000000E+00 0. -1.
         11    1    3    3    0    0 -0.10693874716E+02  0.59060637520E+01 -0.16515654460E+02  0.20542818404E+02  0.51100000000E-03 0. -1.
        -11    1    3    3    0    0 -0.30792999340E+01 -0.80034901016E+01 -0.95777333703E+01  0.12855773748E+02  0.51100000000E-03 0.  1.
        -12    1    3    3    0    0  0.91264428111E+01  0.18892463881E+02  0.32949978197E+02  0.39063003124E+02  0.00000000000E+00 0.  1.
</event>
<event>
 7    1  0.1465498E-013  0.7246181E+02  0.7816164E-02  0.1226707E+00
        -11   -1    0    0    0    0  0.00000000000E+00  0.00000000000E+00  0.45593999997E+02  0.45594000000E+02  0.51100000000E-03 0.  1.
         11   -1    0    0    0    0 -0.00000000000E+00 -0.00000000000E+00 -0.45593999997E+02  0.45594000000E+02  0.51100000000E-03 0. -1.
    9900012    2    1    2    0    0  0.15106559664E+02  0.52983598410E+01  0.97154179730E+01  0.72461812233E+02  0.70000315169E+02 0.  0.
         12    1    1    2    0    0 -0.15106559664E+02 -0.52983598410E+01 -0.97154179730E+01  0.18726187767E+02  0.00000000000E+00 0. -1.
         11    1    3    3    0    0  0.43771228597E+00  0.10713317666E+02 -0.90381619707E+01  0.14023378321E+02  0.51100000000E-03 0. -1.
        -11    1    3    3    0    0  0.18571793746E+02  0.21055167212E+02  0.13576830443E+02  0.31185924941E+02  0.51100000000E-03 0.  1.
         12    1    3    3    0    0 -0.39029463677E+01 -0.26470125037E+02  0.51767495004E+01  0.27252508971E+02  0.00000000000E+00 0. -1.
</event>
<event>
 7    1  0.1465498E-013  0.7246210E+02  0.7816164E-02  0.1226707E+00
        -11   -1    0    0    0    0  0.00000000000E+00  0.00000000000E+00  0.45593999997E+02  0.45594000000E+02  0.51100000000E-03 0. -1.
         11   -1    0    0    0    0 -0.00000000000E+00 -0.00000000000E+00 -0.45593999997E+02  0.45594000000E+02  0.51100000000E-03 0.  1.
    9900012    2    1    2    0    0 -0.50446741234E+01 -0.18020099890E+02  0.69766404719E+00  0.72462096225E+02  0.70000685119E+02 0.  0.
         12    1    1    2    0    0  0.50446741234E+01  0.18020099890E+02 -0.69766404719E+00  0.18725903775E+02  0.00000000000E+00 0. -1.
         11    1    3    3    0    0  0.21665160484E+02 -0.15131363034E+02  0.18821691346E+02  0.32443695712E+02  0.51100000000E-03 0. -1.
        -11    1    3    3    0    0  0.30170192928E+01  0.24853618155E+01 -0.66307614777E+01  0.76971700515E+01  0.51100000000E-03 0.  1.
        -12    1    3    3    0    0 -0.29726853900E+02 -0.53740986717E+01 -0.11493265821E+02  0.32321230462E+02  0.00000000000E+00 0.  1.
</event>
<event>
 7    1  0.1465498E-013  0.7246160E+02  0.7816164E-02  0.1226708E+00
        -11   -1    0    0    0    0  0.00000000000E+00  0.00000000000E+00  0.45593999997E+02  0.45594000000E+02  0.51100000000E-03 0. -1.
         11   -1    0    0    0    0 -0.00000000000E+00 -0.00000000000E+00 -0.45593999997E+02  0.45594000000E+02  0.51100000000E-03 0.  1.
    9900012    2    1    2    0    0  0.18362779502E+02 -0.33177059715E+01  0.15745770149E+01  0.72461597870E+02  0.70000035922E+02 0.  0.
         12    1    1    2    0    0 -0.18362779502E+02  0.33177059715E+01 -0.15745770149E+01  0.18726402130E+02  0.00000000000E+00 0. -1.
         11    1    3    3    0    0 -0.73019337263E+01  0.97446259559E+01 -0.80886313065E+01  0.14618547391E+02  0.51100000000E-03 0. -1.
        -11    1    3    3    0    0 -0.10501462967E+01 -0.95607688215E+01 -0.17256593108E+02  0.19756039929E+02  0.51100000000E-03 0.  1.
         12    1    3    3    0    0  0.26714859525E+02 -0.35015631059E+01  0.26919801429E+02  0.38087010550E+02  0.00000000000E+00 0. -1.
</event>
<event>
 7    1  0.1465498E-013  0.7246161E+02  0.7816164E-02  0.1226708E+00
        -11   -1    0    0    0    0  0.00000000000E+00  0.00000000000E+00  0.45593999997E+02  0.45594000000E+02  0.51100000000E-03 0. -1.
         11   -1    0    0    0    0 -0.00000000000E+00 -0.00000000000E+00 -0.45593999997E+02  0.45594000000E+02  0.51100000000E-03 0.  1.
    9900012    2    1    2    0    0 -0.15275486785E+02 -0.10351729844E+02 -0.31904337417E+01  0.72461610206E+02  0.70000051992E+02 0.  0.
         12    1    1    2    0    0  0.15275486785E+02  0.10351729844E+02  0.31904337417E+01  0.18726389794E+02  0.00000000000E+00 0. -1.
         11    1    3    3    0    0 -0.84430056486E+01  0.14163648038E+02 -0.55501333435E+01  0.17398196761E+02  0.51100000000E-03 0. -1.
        -11    1    3    3    0    0 -0.17635351085E+02  0.75213288641E+01 -0.62680029469E+01  0.20170866540E+02  0.51100000000E-03 0.  1.
         12    1    3    3    0    0  0.10802869949E+02 -0.32036706746E+02  0.86277025487E+01  0.34892546905E+02  0.00000000000E+00 0. -1.
</event>
<event>
 7    1  0.1465498E-013  0.7246154E+02  0.7816164E-02  0.1226708E+00
        -11   -1    0    0    0    0  0.00000000000E+00  0.00000000000E+00  0.45593999997E+02  0.45594000000E+02  0.51100000000E-03 0.  1.
         11   -1    0    0    0    0 -0.00000000000E+00 -0.00000000000E+00 -0.45593999997E+02  0.45594000000E+02  0.51100000000E-03 0. -1.
    9900012    2    1    2    0    0  0.12537508361E+02  0.13285585100E+02  0.41212117025E+01  0.72461540825E+02  0.69999961611E+02 0.  0.
         12    1    1    2    0    0 -0.12537508361E+02 -0.13285585100E+02 -0.41212117025E+01  0.18726459175E+02  0.00000000000E+00 0. -1.
         11    1    3    3    0    0 -0.74524963924E+01 -0.96966591126E+01  0.19777841744E+00  0.12231272092E+02  0.51100000000E-03 0. -1.
        -11    1    3    3    0    0  0.30142646591E+02  0.56361423412E+01  0.18124337873E+02  0.35620736484E+02  0.51100000000E-03 0.  1.
         12    1    3    3    0    0 -0.10152641838E+02  0.17346101871E+02 -0.14200904588E+02  0.24609532249E+02  0.00000000000E+00 0. -1.
</event>
<event>
 7    1  0.1465498E-013  0.7246152E+02  0.7816164E-02  0.1226708E+00
        -11   -1    0    0    0    0  0.00000000000E+00  0.00000000000E+00  0.45593999997E+02  0.45594000000E+02  0.51100000000E-03 0. -1.
         11   -1    0    0    0    0 -0.00000000000E+00 -0.00000000000E+00 -0.45593999997E+02  0.45594000000E+02  0.51100000000E-03 0.  1.
    9900012    2    1    2    0    0  0.15518898598E+01 -0.11219289156E+02 -0.14913093465E+02  0.72461516934E+02  0.69999930489E+02 0.  0.
         12    1    1    2    0    0 -0.15518898598E+01  0.11219289156E+02  0.14913093465E+02  0.18726483066E+02  0.00000000000E+00 0. -1.
         11    1    3    3    0    0 -0.14789565801E+01 -0.58067732337E+01  0.43537240940E+01  0.74068104945E+01  0.51100000000E-03 0. -1.
        -11    1    3    3    0    0 -0.24684498016E+02 -0.52586429608E+01 -0.26309906942E+02  0.36458043991E+02  0.51100000000E-03 0.  1.
         12    1    3    3    0    0  0.27715344456E+02 -0.15387296176E+00  0.70430893824E+01  0.28596662449E+02  0.00000000000E+00 0. -1.
</event>
<event>
 7    1  0.1465498E-013  0.7246154E+02  0.7816164E-02  0.1226708E+00
        -11   -1    0    0    0    0  0.00000000000E+00  0.00000000000E+00  0.45593999997E+02  0.45594000000E+02  0.51100000000E-03 0. -1.
         11   -1    0    0    0    0 -0.00000000000E+00 -0.00000000000E+00 -0.45593999997E+02  0.45594000000E+02  0.51100000000E-03 0.  1.
    9900012    2    1    2    0    0  0.59393619235E+01 -0.15423944132E+02 -0.88037518188E+01  0.72461544950E+02  0.69999966984E+02 0.  0.
         12    1    1    2    0    0 -0.59393619235E+01  0.15423944132E+02  0.88037518188E+01  0.18726455050E+02  0.00000000000E+00 0. -1.
         11    1    3    3    0    0 -0.12427674533E+01  0.14082808374E+00  0.94176222625E+01  0.95003111966E+01  0.51100000000E-03 0. -1.
        -11    1    3    3    0    0  0.14556018514E+02  0.75671314560E+01  0.14718756838E+02  0.22040439120E+02  0.51100000000E-03 0.  1.
        -12    1    3    3    0    0 -0.73738891376E+01 -0.23131903672E+02 -0.32940130919E+02  0.40920794634E+02  0.00000000000E+00 0.  1.
</event>
<event>
 7    1  0.1465498E-013  0.7246158E+02  0.7816164E-02  0.1226708E+00
        -11   -1    0    0    0    0  0.00000000000E+00  0.00000000000E+00  0.45593999997E+02  0.45594000000E+02  0.51100000000E-03 0. -1.
         11   -1    0    0    0    0 -0.00000000000E+00 -0.00000000000E+00 -0.45593999997E+02  0.45594000000E+02  0.51100000000E-03 0.  1.
    9900012    2    1    2    0    0  0.13306697780E+02  0.66548567477E+00 -0.13159326993E+02  0.72461575785E+02  0.70000007152E+02 0.  0.
         12    1    1    2    0    0 -0.13306697780E+02 -0.66548567477E+00  0.13159326993E+02  0.18726424215E+02  0.00000000000E+00 0. -1.
         11    1    3    3    0    0  0.17483880919E+02  0.13314733988E+02  0.12605701684E+02  0.25335191896E+02  0.51100000000E-03 0. -1.
        -11    1    3    3    0    0  0.98677378029E+01  0.79838059306E+01 -0.15760715233E+02  0.20236441174E+02  0.51100000000E-03 0.  1.
         12    1    3    3    0    0 -0.14044920942E+02 -0.20633054244E+02 -0.10004313444E+02  0.26889942715E+02  0.00000000000E+00 0. -1.
</event>
<event>
 7    1  0.1465498E-013  0.7246156E+02  0.7816164E-02  0.1226708E+00
        -11   -1    0    0    0    0  0.00000000000E+00  0.00000000000E+00  0.45593999997E+02  0.45594000000E+02  0.51100000000E-03 0.  1.
         11   -1    0    0    0    0 -0.00000000000E+00 -0.00000000000E+00 -0.45593999997E+02  0.45594000000E+02  0.51100000000E-03 0. -1.
    9900012    2    1    2    0    0 -0.15461308926E+02 -0.82466110528E+01  0.66046000803E+01  0.72461563880E+02  0.69999991644E+02 0.  0.
         12    1    1    2    0    0  0.15461308926E+02  0.82466110528E+01 -0.66046000803E+01  0.18726436120E+02  0.00000000000E+00 0. -1.
         11    1    3    3    0    0 -0.32904265424E+02 -0.16880155906E+02 -0.48013052696E+01  0.37291860762E+02  0.51100000000E-03 0. -1.
        -11    1    3    3    0    0 -0.56559607692E+01 -0.10645978607E+01  0.80470040907E+01  0.98933076331E+01  0.51100000000E-03 0.  1.
         12    1    3    3    0    0  0.23098917267E+02  0.96981427142E+01  0.33589012592E+01  0.25276395485E+02  0.00000000000E+00 0. -1.
</event>
<event>
 7    1  0.1465498E-013  0.7246151E+02  0.7816164E-02  0.1226708E+00
        -11   -1    0    0    0    0  0.00000000000E+00  0.00000000000E+00  0.45593999997E+02  0.45594000000E+02  0.51100000000E-03 0. -1.
         11   -1    0    0    0    0 -0.00000000000E+00 -0.00000000000E+00 -0.45593999997E+02  0.45594000000E+02  0.51100000000E-03 0.  1.
    9900012    2    1    2    0    0 -0.13660814785E+02  0.87886776091E+01 -0.93178763752E+01  0.72461507139E+02  0.69999917729E+02 0.  0.
         12    1    1    2    0    0  0.13660814785E+02 -0.87886776091E+01  0.93178763752E+01  0.18726492861E+02  0.00000000000E+00 0. -1.
         11    1    3    3    0    0 -0.13425593598E+02 -0.53140357407E+01  0.19965477668E+02  0.24639517814E+02  0.51100000000E-03 0. -1.
        -11    1    3    3    0    0 -0.11907955094E+02  0.16368192934E+02 -0.51008468232E+01  0.20874284970E+02  0.51100000000E-03 0.  1.
         12    1    3    3    0    0  0.11672733906E+02 -0.22654795838E+01 -0.24182507220E+02  0.26947704356E+02  0.00000000000E+00 0. -1.
</event>
<event>
 7    1  0.1465498E-013  0.7246158E+02  0.7816164E-02  0.1226708E+00
        -11   -1    0    0    0    0  0.00000000000E+00  0.00000000000E+00  0.45593999997E+02  0.45594000000E+02  0.51100000000E-03 0.  1.
         11   -1    0    0    0    0 -0.00000000000E+00 -0.00000000000E+00 -0.45593999997E+02  0.45594000000E+02  0.51100000000E-03 0. -1.
    9900012    2    1    2    0    0  0.15165094015E+02 -0.10984543371E+02  0.19658816972E+00  0.72461577051E+02  0.70000008802E+02 0.  0.
         12    1    1    2    0    0 -0.15165094015E+02  0.10984543371E+02 -0.19658816972E+00  0.18726422949E+02  0.00000000000E+00 0. -1.
         11    1    3    3    0    0 -0.54385804473E+01 -0.19731784151E+02  0.17005727583E+02  0.26610453472E+02  0.51100000000E-03 0. -1.
        -11    1    3    3    0    0  0.16292720198E+02 -0.76160486153E+00  0.85581107151E+01  0.18419392843E+02  0.51100000000E-03 0.  1.
         12    1    3    3    0    0  0.43109542635E+01  0.95088456416E+01 -0.25367250129E+02  0.27431730736E+02  0.00000000000E+00 0. -1.
</event>
<event>
 7    1  0.1465498E-013  0.7246170E+02  0.7816164E-02  0.1226708E+00
        -11   -1    0    0    0    0  0.00000000000E+00  0.00000000000E+00  0.45593999997E+02  0.45594000000E+02  0.51100000000E-03 0.  1.
         11   -1    0    0    0    0 -0.00000000000E+00 -0.00000000000E+00 -0.45593999997E+02  0.45594000000E+02  0.51100000000E-03 0. -1.
    9900012    2    1    2    0    0  0.56479459425E+01 -0.12207214250E+02  0.13029158322E+02  0.72461699252E+02  0.70000167991E+02 0.  0.
         12    1    1    2    0    0 -0.56479459425E+01  0.12207214250E+02 -0.13029158322E+02  0.18726300748E+02  0.00000000000E+00 0. -1.
         11    1    3    3    0    0 -0.18840654641E+02  0.28579761215E+01 -0.84150945044E+01  0.20831517242E+02  0.51100000000E-03 0. -1.
        -11    1    3    3    0    0 -0.27753756698E+01 -0.18613042602E+02  0.12986770726E+02  0.22864913715E+02  0.51100000000E-03 0.  1.
         12    1    3    3    0    0  0.27263976254E+02  0.35478522308E+01  0.84574821006E+01  0.28765268295E+02  0.00000000000E+00 0. -1.
</event>
<event>
 7    1  0.1465498E-013  0.7246163E+02  0.7816164E-02  0.1226708E+00
        -11   -1    0    0    0    0  0.00000000000E+00  0.00000000000E+00  0.45593999997E+02  0.45594000000E+02  0.51100000000E-03 0. -1.
         11   -1    0    0    0    0 -0.00000000000E+00 -0.00000000000E+00 -0.45593999997E+02  0.45594000000E+02  0.51100000000E-03 0.  1.
    9900012    2    1    2    0    0  0.34514177182E+01 -0.55225207856E+01 -0.17557515330E+02  0.72461631835E+02  0.70000080168E+02 0.  0.
         12    1    1    2    0    0 -0.34514177182E+01  0.55225207856E+01  0.17557515330E+02  0.18726368165E+02  0.00000000000E+00 0. -1.
         11    1    3    3    0    0 -0.15164758073E+02 -0.27906271830E+02 -0.25197862816E+02  0.40542103862E+02  0.51100000000E-03 0. -1.
        -11    1    3    3    0    0 -0.11105093515E+01  0.52249113179E-01  0.73649919835E+00  0.13335637667E+01  0.51100000000E-03 0.  1.
        -12    1    3    3    0    0  0.19726685143E+02  0.22331501931E+02  0.69038482870E+01  0.30585964206E+02  0.00000000000E+00 0.  1.
</event>
<event>
 7    1  0.1465498E-013  0.7246156E+02  0.7816164E-02  0.1226708E+00
        -11   -1    0    0    0    0  0.00000000000E+00  0.00000000000E+00  0.45593999997E+02  0.45594000000E+02  0.51100000000E-03 0.  1.
         11   -1    0    0    0    0 -0.00000000000E+00 -0.00000000000E+00 -0.45593999997E+02  0.45594000000E+02  0.51100000000E-03 0. -1.
    9900012    2    1    2    0    0  0.55071126628E+01 -0.82759373562E+01  0.15870106513E+02  0.72461555870E+02  0.69999981210E+02 0.  0.
         12    1    1    2    0    0 -0.55071126628E+01  0.82759373562E+01 -0.15870106513E+02  0.18726444130E+02  0.00000000000E+00 0. -1.
         11    1    3    3    0    0 -0.81572657824E-01 -0.12258382554E+02  0.35660530220E+02  0.37708725950E+02  0.51100000000E-03 0.  1.
        -11    1    3    3    0    0 -0.31512090950E+01  0.18155379076E+01  0.62325437474E+01  0.72160168014E+01  0.51100000000E-03 0. -1.
         12    1    3    3    0    0  0.87398944157E+01  0.21669072900E+01 -0.26022967454E+02  0.27536813119E+02  0.00000000000E+00 0. -1.
</event>
<event>
 7    1  0.1465498E-013  0.7246158E+02  0.7816164E-02  0.1226708E+00
        -11   -1    0    0    0    0  0.00000000000E+00  0.00000000000E+00  0.45593999997E+02  0.45594000000E+02  0.51100000000E-03 0.  1.
         11   -1    0    0    0    0 -0.00000000000E+00 -0.00000000000E+00 -0.45593999997E+02  0.45594000000E+02  0.51100000000E-03 0. -1.
    9900012    2    1    2    0    0 -0.11823986762E+02  0.92425141177E+01  0.11200352406E+02  0.72461584855E+02  0.70000018968E+02 0.  0.
         12    1    1    2    0    0  0.11823986762E+02 -0.92425141177E+01 -0.11200352406E+02  0.18726415145E+02  0.00000000000E+00 0. -1.
         11    1    3    3    0    0  0.95197801365E+01 -0.16046518992E+02 -0.98633130279E+01  0.21104547609E+02  0.51100000000E-03 0. -1.
        -11    1    3    3    0    0  0.31541328256E+01  0.56708655700E+01 -0.67918082436E+01  0.93933981962E+01  0.51100000000E-03 0.  1.
        -12    1    3    3    0    0 -0.24497899725E+02  0.19618167540E+02  0.27855473677E+02  0.41963639050E+02  0.00000000000E+00 0.  1.
</event>
<event>
 7    1  0.1465498E-013  0.7246156E+02  0.7816164E-02  0.1226708E+00
        -11   -1    0    0    0    0  0.00000000000E+00  0.00000000000E+00  0.45593999997E+02  0.45594000000E+02  0.51100000000E-03 0. -1.
         11   -1    0    0    0    0 -0.00000000000E+00 -0.00000000000E+00 -0.45593999997E+02  0.45594000000E+02  0.51100000000E-03 0.  1.
    9900012    2    1    2    0    0 -0.13703031537E+02 -0.12236057613E+02  0.36311566538E+01  0.72461562061E+02  0.69999989275E+02 0.  0.
         12    1    1    2    0    0  0.13703031537E+02  0.12236057613E+02 -0.36311566538E+01  0.18726437939E+02  0.00000000000E+00 0. -1.
         11    1    3    3    0    0  0.36674899281E+01 -0.46973876115E+01  0.71744850215E+01  0.93267983966E+01  0.51100000000E-03 0. -1.
        -11    1    3    3    0    0  0.86807142265E+01 -0.26891279909E+02 -0.10133089112E+02  0.30019580774E+02  0.51100000000E-03 0.  1.
         12    1    3    3    0    0 -0.26051235691E+02  0.19352609907E+02  0.65897607442E+01  0.33115182891E+02  0.00000000000E+00 0. -1.
</event>
<event>
 7    1  0.1465498E-013  0.7246156E+02  0.7816164E-02  0.1226708E+00
        -11   -1    0    0    0    0  0.00000000000E+00  0.00000000000E+00  0.45593999997E+02  0.45594000000E+02  0.51100000000E-03 0. -1.
         11   -1    0    0    0    0 -0.00000000000E+00 -0.00000000000E+00 -0.45593999997E+02  0.45594000000E+02  0.51100000000E-03 0.  1.
    9900012    2    1    2    0    0  0.11957647293E+02  0.73156397685E+01  0.12416746070E+02  0.72461561551E+02  0.69999988610E+02 0.  0.
         12    1    1    2    0    0 -0.11957647293E+02 -0.73156397685E+01 -0.12416746070E+02  0.18726438449E+02  0.00000000000E+00 0. -1.
         11    1    3    3    0    0 -0.17612243423E+02  0.28972107084E+01 -0.59196745382E+01  0.18804985913E+02  0.51100000000E-03 0. -1.
        -11    1    3    3    0    0  0.18920848798E+02 -0.20434103324E+01 -0.10861798942E+02  0.21912387399E+02  0.51100000000E-03 0.  1.
         12    1    3    3    0    0  0.10649041918E+02  0.64618393926E+01  0.29198219550E+02  0.31744188239E+02  0.00000000000E+00 0. -1.
</event>
<event>
 7    1  0.1465498E-013  0.7246159E+02  0.7816164E-02  0.1226708E+00
        -11   -1    0    0    0    0  0.00000000000E+00  0.00000000000E+00  0.45593999997E+02  0.45594000000E+02  0.51100000000E-03 0. -1.
         11   -1    0    0    0    0 -0.00000000000E+00 -0.00000000000E+00 -0.45593999997E+02  0.45594000000E+02  0.51100000000E-03 0.  1.
    9900012    2    1    2    0    0  0.51440710587E+00 -0.19907423113E+01 -0.18613192065E+02  0.72461585809E+02  0.70000020210E+02 0.  0.
         12    1    1    2    0    0 -0.51440710587E+00  0.19907423113E+01  0.18613192065E+02  0.18726414191E+02  0.00000000000E+00 0. -1.
         11    1    3    3    0    0  0.56226293068E+00 -0.41123990986E+01  0.80801841556E+01  0.90839056687E+01  0.51100000000E-03 0. -1.
        -11    1    3    3    0    0 -0.14987223296E+02 -0.23302836466E+02 -0.97736502714E+01  0.29379640729E+02  0.51100000000E-03 0.  1.
        -12    1    3    3    0    0  0.14939367471E+02  0.25424493253E+02 -0.16919725949E+02  0.33998039411E+02  0.00000000000E+00 0.  1.
</event>
<event>
 7    1  0.1465498E-013  0.7246158E+02  0.7816164E-02  0.1226708E+00
        -11   -1    0    0    0    0  0.00000000000E+00  0.00000000000E+00  0.45593999997E+02  0.45594000000E+02  0.51100000000E-03 0. -1.
         11   -1    0    0    0    0 -0.00000000000E+00 -0.00000000000E+00 -0.45593999997E+02  0.45594000000E+02  0.51100000000E-03 0.  1.
    9900012    2    1    2    0    0 -0.65474764782E+01  0.11760439230E+02 -0.13019264793E+02  0.72461584570E+02  0.70000018597E+02 0.  0.
         12    1    1    2    0    0  0.65474764782E+01 -0.11760439230E+02  0.13019264793E+02  0.18726415430E+02  0.00000000000E+00 0. -1.
         11    1    3    3    0    0 -0.14468375720E+02  0.64528924072E+00  0.38586273536E+01  0.14987971827E+02  0.51100000000E-03 0. -1.
        -11    1    3    3    0    0  0.33127525552E+01 -0.16564309463E+02 -0.23211217846E+02  0.28707338985E+02  0.51100000000E-03 0.  1.
         12    1    3    3    0    0  0.46081466869E+01  0.27679459452E+02  0.63333256993E+01  0.28766273757E+02  0.00000000000E+00 0. -1.
</event>
<event>
 7    1  0.1465498E-013  0.7246164E+02  0.7816164E-02  0.1226708E+00
        -11   -1    0    0    0    0  0.00000000000E+00  0.00000000000E+00  0.45593999997E+02  0.45594000000E+02  0.51100000000E-03 0.  1.
         11   -1    0    0    0    0 -0.00000000000E+00 -0.00000000000E+00 -0.45593999997E+02  0.45594000000E+02  0.51100000000E-03 0. -1.
    9900012    2    1    2    0    0  0.97639089905E+01 -0.13767885704E+02  0.81109749994E+01  0.72461641278E+02  0.70000092470E+02 0.  0.
         12    1    1    2    0    0 -0.97639089905E+01  0.13767885704E+02 -0.81109749994E+01  0.18726358722E+02  0.00000000000E+00 0. -1.
         11    1    3    3    0    0 -0.71136850086E+01  0.15052478533E+02 -0.10570308814E+02  0.19720878608E+02  0.51100000000E-03 0. -1.
        -11    1    3    3    0    0 -0.81510284896E+00 -0.10253538501E+02 -0.99440840272E+01  0.14306790410E+02  0.51100000000E-03 0.  1.
        -12    1    3    3    0    0  0.17692696848E+02 -0.18566825736E+02  0.28625367841E+02  0.38433972260E+02  0.00000000000E+00 0.  1.
</event>
<event>
 7    1  0.1465498E-013  0.7246163E+02  0.7816164E-02  0.1226708E+00
        -11   -1    0    0    0    0  0.00000000000E+00  0.00000000000E+00  0.45593999997E+02  0.45594000000E+02  0.51100000000E-03 0. -1.
         11   -1    0    0    0    0 -0.00000000000E+00 -0.00000000000E+00 -0.45593999997E+02  0.45594000000E+02  0.51100000000E-03 0.  1.
    9900012    2    1    2    0    0  0.75926926253E+01  0.11613155216E+02  0.12576276351E+02  0.72461626026E+02  0.70000072601E+02 0.  0.
         12    1    1    2    0    0 -0.75926926253E+01 -0.11613155216E+02 -0.12576276351E+02  0.18726373974E+02  0.00000000000E+00 0. -1.
         11    1    3    3    0    0  0.13069590369E+02 -0.30335158373E+01 -0.10316596276E+01  0.13456624116E+02  0.51100000000E-03 0. -1.
        -11    1    3    3    0    0  0.53216118141E+01 -0.39036491785E+01  0.30803189749E+02  0.31502294014E+02  0.51100000000E-03 0.  1.
        -12    1    3    3    0    0 -0.10798509558E+02  0.18550320232E+02 -0.17195253771E+02  0.27502707896E+02  0.00000000000E+00 0.  1.
</event>
<event>
 7    1  0.1465498E-013  0.7246156E+02  0.7816164E-02  0.1226708E+00
        -11   -1    0    0    0    0  0.00000000000E+00  0.00000000000E+00  0.45593999997E+02  0.45594000000E+02  0.51100000000E-03 0.  1.
         11   -1    0    0    0    0 -0.00000000000E+00 -0.00000000000E+00 -0.45593999997E+02  0.45594000000E+02  0.51100000000E-03 0. -1.
    9900012    2    1    2    0    0  0.14151571680E+02 -0.18909458833E+01  0.12117622096E+02  0.72461563537E+02  0.69999991197E+02 0.  0.
         12    1    1    2    0    0 -0.14151571680E+02  0.18909458833E+01 -0.12117622096E+02  0.18726436463E+02  0.00000000000E+00 0. -1.
         11    1    3    3    0    0 -0.10852007570E+02 -0.13610932159E+02  0.17580577789E+02  0.24740660020E+02  0.51100000000E-03 0. -1.
        -11    1    3    3    0    0  0.48103655700E+01  0.90622188959E+01 -0.20149144821E+02  0.22610870517E+02  0.51100000000E-03 0.  1.
         12    1    3    3    0    0  0.20193213680E+02  0.26577673797E+01  0.14686189128E+02  0.25110033001E+02  0.00000000000E+00 0. -1.
</event>
<event>
 7    1  0.1465498E-013  0.7246157E+02  0.7816164E-02  0.1226708E+00
        -11   -1    0    0    0    0  0.00000000000E+00  0.00000000000E+00  0.45593999997E+02  0.45594000000E+02  0.51100000000E-03 0.  1.
         11   -1    0    0    0    0 -0.00000000000E+00 -0.00000000000E+00 -0.45593999997E+02  0.45594000000E+02  0.51100000000E-03 0. -1.
    9900012    2    1    2    0    0 -0.17791661591E+02  0.29410724004E+01 -0.50483706699E+01  0.72461570135E+02  0.69999999793E+02 0.  0.
         12    1    1    2    0    0  0.17791661591E+02 -0.29410724004E+01  0.50483706699E+01  0.18726429865E+02  0.00000000000E+00 0. -1.
         11    1    3    3    0    0  0.40540943918E+01 -0.18546533313E+02 -0.50343645957E+01  0.19640631518E+02  0.51100000000E-03 0. -1.
        -11    1    3    3    0    0 -0.61320468257E+01 -0.13298066726E+02  0.37979192408E+00  0.14648713906E+02  0.51100000000E-03 0.  1.
        -12    1    3    3    0    0 -0.15713709158E+02  0.34785672440E+02 -0.39379799822E+00  0.38172224712E+02  0.00000000000E+00 0.  1.
</event>
<event>
 7    1  0.1465498E-013  0.7246163E+02  0.7816164E-02  0.1226708E+00
        -11   -1    0    0    0    0  0.00000000000E+00  0.00000000000E+00  0.45593999997E+02  0.45594000000E+02  0.51100000000E-03 0.  1.
         11   -1    0    0    0    0 -0.00000000000E+00 -0.00000000000E+00 -0.45593999997E+02  0.45594000000E+02  0.51100000000E-03 0. -1.
    9900012    2    1    2    0    0 -0.14225846742E+01 -0.17250691320E+02 -0.71461184817E+01  0.72461625350E+02  0.70000071720E+02 0.  0.
         12    1    1    2    0    0  0.14225846742E+01  0.17250691320E+02  0.71461184817E+01  0.18726374650E+02  0.00000000000E+00 0. -1.
         11    1    3    3    0    0 -0.21238074053E+01  0.17046622042E+01 -0.97605153398E+01  0.10133315898E+02  0.51100000000E-03 0. -1.
        -11    1    3    3    0    0  0.31549480477E+00 -0.12346255185E+02 -0.28213144537E+02  0.30797907055E+02  0.51100000000E-03 0.  1.
        -12    1    3    3    0    0  0.38572792637E+00 -0.66090983396E+01  0.30827541395E+02  0.31530402397E+02  0.00000000000E+00 0.  1.
</event>
<event>
 7    1  0.1465498E-013  0.7246154E+02  0.7816164E-02  0.1226708E+00
        -11   -1    0    0    0    0  0.00000000000E+00  0.00000000000E+00  0.45593999997E+02  0.45594000000E+02  0.51100000000E-03 0.  1.
         11   -1    0    0    0    0 -0.00000000000E+00 -0.00000000000E+00 -0.45593999997E+02  0.45594000000E+02  0.51100000000E-03 0. -1.
    9900012    2    1    2    0    0 -0.18470714778E+02 -0.30023890622E+01 -0.70621568102E+00  0.72461537839E+02  0.69999957721E+02 0.  0.
         12    1    1    2    0    0  0.18470714778E+02  0.30023890622E+01  0.70621568102E+00  0.18726462161E+02  0.00000000000E+00 0. -1.
         11    1    3    3    0    0 -0.86910081828E+01  0.62650711338E+00 -0.15187639024E+02  0.17509726263E+02  0.51100000000E-03 0. -1.
        -11    1    3    3    0    0 -0.22797647029E+02  0.16941240065E+00  0.27794382112E+02  0.35948422606E+02  0.51100000000E-03 0.  1.
         12    1    3    3    0    0  0.13017940435E+02 -0.37983085762E+01 -0.13312958768E+02  0.19003388971E+02  0.00000000000E+00 0. -1.
</event>
<event>
 7    1  0.1465498E-013  0.7246152E+02  0.7816164E-02  0.1226708E+00
        -11   -1    0    0    0    0  0.00000000000E+00  0.00000000000E+00  0.45593999997E+02  0.45594000000E+02  0.51100000000E-03 0. -1.
         11   -1    0    0    0    0 -0.00000000000E+00 -0.00000000000E+00 -0.45593999997E+02  0.45594000000E+02  0.51100000000E-03 0.  1.
    9900012    2    1    2    0    0  0.93610244209E+01  0.64086637213E+01 -0.14899040400E+02  0.72461517315E+02  0.69999930985E+02 0.  0.
         12    1    1    2    0    0 -0.93610244209E+01 -0.64086637213E+01  0.14899040400E+02  0.18726482685E+02  0.00000000000E+00 0. -1.
         11    1    3    3    0    0 -0.92090293400E+01 -0.11929708810E+02 -0.24827359369E+02  0.29043449299E+02  0.51100000000E-03 0. -1.
        -11    1    3    3    0    0  0.19329156919E+01  0.19510091943E+02 -0.58491188386E+01  0.20459522041E+02  0.51100000000E-03 0.  1.
         12    1    3    3    0    0  0.16637138069E+02 -0.11717194113E+01  0.15777437807E+02  0.22958545975E+02  0.00000000000E+00 0. -1.
</event>
<event>
 7    1  0.1465498E-013  0.7246154E+02  0.7816164E-02  0.1226708E+00
        -11   -1    0    0    0    0  0.00000000000E+00  0.00000000000E+00  0.45593999997E+02  0.45594000000E+02  0.51100000000E-03 0.  1.
         11   -1    0    0    0    0 -0.00000000000E+00 -0.00000000000E+00 -0.45593999997E+02  0.45594000000E+02  0.51100000000E-03 0. -1.
    9900012    2    1    2    0    0  0.14180275105E+02 -0.20098838068E+01  0.12064849876E+02  0.72461536439E+02  0.69999955898E+02 0.  0.
         12    1    1    2    0    0 -0.14180275105E+02  0.20098838068E+01 -0.12064849876E+02  0.18726463561E+02  0.00000000000E+00 0. -1.
         11    1    3    3    0    0 -0.67748951174E+01  0.11547076908E+02 -0.10486822745E+02  0.17006105978E+02  0.51100000000E-03 0. -1.
        -11    1    3    3    0    0 -0.11931171224E+02 -0.72799322877E+01 -0.17492133656E+01  0.14085808765E+02  0.51100000000E-03 0.  1.
        -12    1    3    3    0    0  0.32886341447E+02 -0.62770284275E+01  0.24300885986E+02  0.41369621697E+02  0.00000000000E+00 0.  1.
</event>
<event>
 7    1  0.1465498E-013  0.7246159E+02  0.7816164E-02  0.1226708E+00
        -11   -1    0    0    0    0  0.00000000000E+00  0.00000000000E+00  0.45593999997E+02  0.45594000000E+02  0.51100000000E-03 0.  1.
         11   -1    0    0    0    0 -0.00000000000E+00 -0.00000000000E+00 -0.45593999997E+02  0.45594000000E+02  0.51100000000E-03 0. -1.
    9900012    2    1    2    0    0 -0.11658060954E+02  0.30176409494E+01  0.14340919389E+02  0.72461587876E+02  0.70000022904E+02 0.  0.
         12    1    1    2    0    0  0.11658060954E+02 -0.30176409494E+01 -0.14340919389E+02  0.18726412124E+02  0.00000000000E+00 0. -1.
         11    1    3    3    0    0  0.16204797157E+02 -0.62892423589E+01  0.13963364867E+02  0.22296313126E+02  0.51100000000E-03 0. -1.
        -11    1    3    3    0    0  0.10608221159E+02  0.14950150542E+01 -0.17333117283E+01  0.10852363613E+02  0.51100000000E-03 0.  1.
        -12    1    3    3    0    0 -0.38471079270E+02  0.78118682541E+01  0.21108662501E+01  0.39312911138E+02  0.00000000000E+00 0.  1.
</event>
<event>
 7    1  0.1465498E-013  0.7246159E+02  0.7816164E-02  0.1226708E+00
        -11   -1    0    0    0    0  0.00000000000E+00  0.00000000000E+00  0.45593999997E+02  0.45594000000E+02  0.51100000000E-03 0.  1.
         11   -1    0    0    0    0 -0.00000000000E+00 -0.00000000000E+00 -0.45593999997E+02  0.45594000000E+02  0.51100000000E-03 0. -1.
    9900012    2    1    2    0    0  0.16659739078E+02  0.67576806268E+01 -0.52407265316E+01  0.72461591690E+02  0.70000027872E+02 0.  0.
         12    1    1    2    0    0 -0.16659739078E+02 -0.67576806268E+01  0.52407265316E+01  0.18726408310E+02  0.00000000000E+00 0. -1.
         11    1    3    3    0    0 -0.13033744014E+02  0.56651021579E+01 -0.37743788964E+01  0.14704346357E+02  0.51100000000E-03 0. -1.
        -11    1    3    3    0    0  0.31942662658E+01 -0.20393484259E+02  0.83356388208E+01  0.22261635430E+02  0.51100000000E-03 0.  1.
         12    1    3    3    0    0  0.26499216826E+02  0.21486062728E+02 -0.98019864560E+01  0.35495609903E+02  0.00000000000E+00 0. -1.
</event>
<event>
 7    1  0.1465498E-013  0.7246161E+02  0.7816164E-02  0.1226708E+00
        -11   -1    0    0    0    0  0.00000000000E+00  0.00000000000E+00  0.45593999997E+02  0.45594000000E+02  0.51100000000E-03 0.  1.
         11   -1    0    0    0    0 -0.00000000000E+00 -0.00000000000E+00 -0.45593999997E+02  0.45594000000E+02  0.51100000000E-03 0. -1.
    9900012    2    1    2    0    0  0.88192791251E+01 -0.85013507832E+01  0.14164218037E+02  0.72461608943E+02  0.70000050347E+02 0.  0.
         12    1    1    2    0    0 -0.88192791251E+01  0.85013507832E+01 -0.14164218037E+02  0.18726391057E+02  0.00000000000E+00 0. -1.
         11    1    3    3    0    0  0.98954150375E+01 -0.19785461446E+02 -0.15679551076E+02  0.27115162651E+02  0.51100000000E-03 0. -1.
        -11    1    3    3    0    0 -0.15983451161E+02  0.19072875584E+01  0.10669926692E+02  0.19312063399E+02  0.51100000000E-03 0.  1.
        -12    1    3    3    0    0  0.14907315249E+02  0.93768231041E+01  0.19173842421E+02  0.26034382893E+02  0.00000000000E+00 0.  1.
</event>
<event>
 7    1  0.1465498E-013  0.7246155E+02  0.7816164E-02  0.1226708E+00
        -11   -1    0    0    0    0  0.00000000000E+00  0.00000000000E+00  0.45593999997E+02  0.45594000000E+02  0.51100000000E-03 0. -1.
         11   -1    0    0    0    0 -0.00000000000E+00 -0.00000000000E+00 -0.45593999997E+02  0.45594000000E+02  0.51100000000E-03 0.  1.
    9900012    2    1    2    0    0 -0.44016120671E+01 -0.12826718312E+02 -0.12914372201E+02  0.72461550769E+02  0.69999974565E+02 0.  0.
         12    1    1    2    0    0  0.44016120671E+01  0.12826718312E+02  0.12914372201E+02  0.18726449231E+02  0.00000000000E+00 0. -1.
         11    1    3    3    0    0  0.14175717672E+02 -0.62218252594E+00  0.92575985412E+00  0.14219532840E+02  0.51100000000E-03 0. -1.
        -11    1    3    3    0    0  0.83177446220E+01 -0.86921496416E+01 -0.25900385846E+02  0.28558156947E+02  0.51100000000E-03 0.  1.
         12    1    3    3    0    0 -0.26895074361E+02 -0.35123861446E+01  0.12060253790E+02  0.29683860982E+02  0.00000000000E+00 0. -1.
</event>
<event>
 7    1  0.1465498E-013  0.7246155E+02  0.7816164E-02  0.1226708E+00
        -11   -1    0    0    0    0  0.00000000000E+00  0.00000000000E+00  0.45593999997E+02  0.45594000000E+02  0.51100000000E-03 0. -1.
         11   -1    0    0    0    0 -0.00000000000E+00 -0.00000000000E+00 -0.45593999997E+02  0.45594000000E+02  0.51100000000E-03 0.  1.
    9900012    2    1    2    0    0 -0.12610582170E+02 -0.27278843601E+01 -0.13572461245E+02  0.72461552393E+02  0.69999976680E+02 0.  0.
         12    1    1    2    0    0  0.12610582170E+02  0.27278843601E+01  0.13572461245E+02  0.18726447607E+02  0.00000000000E+00 0. -1.
         11    1    3    3    0    0 -0.15043663148E+02  0.38691524828E+01 -0.59170251251E+01  0.16622073530E+02  0.51100000000E-03 0. -1.
        -11    1    3    3    0    0 -0.24041512220E+02 -0.12689090459E+02 -0.90109408563E+01  0.28639210567E+02  0.51100000000E-03 0.  1.
        -12    1    3    3    0    0  0.26474593198E+02  0.60920536161E+01  0.13555047364E+01  0.27200268296E+02  0.00000000000E+00 0.  1.
</event>
<event>
 7    1  0.1465498E-013  0.7246153E+02  0.7816164E-02  0.1226708E+00
        -11   -1    0    0    0    0  0.00000000000E+00  0.00000000000E+00  0.45593999997E+02  0.45594000000E+02  0.51100000000E-03 0. -1.
         11   -1    0    0    0    0 -0.00000000000E+00 -0.00000000000E+00 -0.45593999997E+02  0.45594000000E+02  0.51100000000E-03 0.  1.
    9900012    2    1    2    0    0 -0.17435850103E+02 -0.50497049342E+01  0.46013494079E+01  0.72461526624E+02  0.69999943111E+02 0.  0.
         12    1    1    2    0    0  0.17435850103E+02  0.50497049342E+01 -0.46013494079E+01  0.18726473376E+02  0.00000000000E+00 0. -1.
         11    1    3    3    0    0  0.14723083662E+02  0.38800807275E+01  0.10257051216E+02  0.18358412755E+02  0.51100000000E-03 0. -1.
        -11    1    3    3    0    0  0.35635339919E+01  0.41590868456E+00 -0.15482809222E+02  0.15893053080E+02  0.51100000000E-03 0.  1.
         12    1    3    3    0    0 -0.35722467756E+02 -0.93456943462E+01  0.98271074135E+01  0.38210060789E+02  0.00000000000E+00 0. -1.
</event>
<event>
 7    1  0.1465498E-013  0.7246156E+02  0.7816164E-02  0.1226708E+00
        -11   -1    0    0    0    0  0.00000000000E+00  0.00000000000E+00  0.45593999997E+02  0.45594000000E+02  0.51100000000E-03 0. -1.
         11   -1    0    0    0    0 -0.00000000000E+00 -0.00000000000E+00 -0.45593999997E+02  0.45594000000E+02  0.51100000000E-03 0.  1.
    9900012    2    1    2    0    0 -0.11827576648E+02  0.13667779785E+02  0.48969189039E+01  0.72461559111E+02  0.69999985431E+02 0.  0.
         12    1    1    2    0    0  0.11827576648E+02 -0.13667779785E+02 -0.48969189039E+01  0.18726440889E+02  0.00000000000E+00 0. -1.
         11    1    3    3    0    0 -0.10597263772E+02 -0.48917715972E+00  0.91931287096E+01  0.14037624780E+02  0.51100000000E-03 0. -1.
        -11    1    3    3    0    0  0.45391017536E+01  0.97112314836E+01 -0.29921426857E+02  0.31783694673E+02  0.51100000000E-03 0.  1.
         12    1    3    3    0    0 -0.57694146299E+01  0.44457254613E+01  0.25625217052E+02  0.26640239657E+02  0.00000000000E+00 0. -1.
</event>
<event>
 7    1  0.1465498E-013  0.7246163E+02  0.7816164E-02  0.1226708E+00
        -11   -1    0    0    0    0  0.00000000000E+00  0.00000000000E+00  0.45593999997E+02  0.45594000000E+02  0.51100000000E-03 0. -1.
         11   -1    0    0    0    0 -0.00000000000E+00 -0.00000000000E+00 -0.45593999997E+02  0.45594000000E+02  0.51100000000E-03 0.  1.
    9900012    2    1    2    0    0 -0.54394993336E+01  0.10661545548E+02 -0.14402087393E+02  0.72461632821E+02  0.70000081452E+02 0.  0.
         12    1    1    2    0    0  0.54394993336E+01 -0.10661545548E+02  0.14402087393E+02  0.18726367179E+02  0.00000000000E+00 0. -1.
         11    1    3    3    0    0 -0.19219708318E+02  0.10730743478E+02  0.96439702537E+01  0.24032315867E+02  0.51100000000E-03 0. -1.
        -11    1    3    3    0    0 -0.71567341929E+01  0.14743882903E+02 -0.95800870833E+01  0.18983650759E+02  0.51100000000E-03 0.  1.
         12    1    3    3    0    0  0.20936943177E+02 -0.14813080832E+02 -0.14465970563E+02  0.29445666195E+02  0.00000000000E+00 0. -1.
</event>
<event>
 7    1  0.1465498E-013  0.7246153E+02  0.7816164E-02  0.1226708E+00
        -11   -1    0    0    0    0  0.00000000000E+00  0.00000000000E+00  0.45593999997E+02  0.45594000000E+02  0.51100000000E-03 0. -1.
         11   -1    0    0    0    0 -0.00000000000E+00 -0.00000000000E+00 -0.45593999997E+02  0.45594000000E+02  0.51100000000E-03 0.  1.
    9900012    2    1    2    0    0  0.25948155724E+01 -0.10747598852E+02 -0.15114126416E+02  0.72461527661E+02  0.69999944462E+02 0.  0.
         12    1    1    2    0    0 -0.25948155724E+01  0.10747598852E+02  0.15114126416E+02  0.18726472339E+02  0.00000000000E+00 0. -1.
         11    1    3    3    0    0  0.72701823069E-02 -0.13770876951E+02  0.88541072226E+01  0.16371692637E+02  0.51100000000E-03 0. -1.
        -11    1    3    3    0    0 -0.41495730582E+01 -0.12347825549E+02 -0.34087976434E+02  0.36492162035E+02  0.51100000000E-03 0.  1.
         12    1    3    3    0    0  0.67371184483E+01  0.15371103647E+02  0.10119742796E+02  0.19597672989E+02  0.00000000000E+00 0. -1.
</event>
<event>
 7    1  0.1465498E-013  0.7246149E+02  0.7816164E-02  0.1226708E+00
        -11   -1    0    0    0    0  0.00000000000E+00  0.00000000000E+00  0.45593999997E+02  0.45594000000E+02  0.51100000000E-03 0.  1.
         11   -1    0    0    0    0 -0.00000000000E+00 -0.00000000000E+00 -0.45593999997E+02  0.45594000000E+02  0.51100000000E-03 0. -1.
    9900012    2    1    2    0    0 -0.19850760934E+01 -0.25414616608E+01  0.18446755462E+02  0.72461485601E+02  0.69999889671E+02 0.  0.
         12    1    1    2    0    0  0.19850760934E+01  0.25414616608E+01 -0.18446755462E+02  0.18726514399E+02  0.00000000000E+00 0. -1.
         11    1    3    3    0    0  0.10957942925E+01  0.42799132299E+01  0.13421284967E+02  0.14129731519E+02  0.51100000000E-03 0. -1.
        -11    1    3    3    0    0  0.25199653705E+02 -0.84649053736E+01  0.11986455119E+02  0.29160800339E+02  0.51100000000E-03 0.  1.
         12    1    3    3    0    0 -0.28280524091E+02  0.16435304829E+01 -0.69609846233E+01  0.29170953742E+02  0.00000000000E+00 0. -1.
</event>
<event>
 7    1  0.1465498E-013  0.7246159E+02  0.7816164E-02  0.1226708E+00
        -11   -1    0    0    0    0  0.00000000000E+00  0.00000000000E+00  0.45593999997E+02  0.45594000000E+02  0.51100000000E-03 0. -1.
         11   -1    0    0    0    0 -0.00000000000E+00 -0.00000000000E+00 -0.45593999997E+02  0.45594000000E+02  0.51100000000E-03 0.  1.
    9900012    2    1    2    0    0  0.40619785251E+01  0.15838358126E+02 -0.91282531232E+01  0.72461594505E+02  0.70000031539E+02 0.  0.
         12    1    1    2    0    0 -0.40619785251E+01 -0.15838358126E+02  0.91282531232E+01  0.18726405495E+02  0.00000000000E+00 0. -1.
         11    1    3    3    0    0  0.10006698381E+02  0.79873976092E+01  0.94304739602E+01  0.15901772619E+02  0.51100000000E-03 0.  1.
        -11    1    3    3    0    0 -0.15448815750E+01  0.23566418586E+02  0.83830719709E+01  0.25060699112E+02  0.51100000000E-03 0. -1.
        -12    1    3    3    0    0 -0.43998382810E+01 -0.15715458069E+02 -0.26941799054E+02  0.31499122774E+02  0.00000000000E+00 0.  1.
</event>
<event>
 7    1  0.1465498E-013  0.7246151E+02  0.7816164E-02  0.1226708E+00
        -11   -1    0    0    0    0  0.00000000000E+00  0.00000000000E+00  0.45593999997E+02  0.45594000000E+02  0.51100000000E-03 0. -1.
         11   -1    0    0    0    0 -0.00000000000E+00 -0.00000000000E+00 -0.45593999997E+02  0.45594000000E+02  0.51100000000E-03 0.  1.
    9900012    2    1    2    0    0 -0.24319672768E+01  0.16592990166E+02 -0.83330389339E+01  0.72461512733E+02  0.69999925016E+02 0.  0.
         12    1    1    2    0    0  0.24319672768E+01 -0.16592990166E+02  0.83330389339E+01  0.18726487267E+02  0.00000000000E+00 0. -1.
         11    1    3    3    0    0 -0.18829609224E+01  0.18971524111E+02  0.77104197352E+01  0.20564893428E+02  0.51100000000E-03 0. -1.
        -11    1    3    3    0    0  0.11996912879E+02  0.16477089987E+02 -0.20395782591E+02  0.28834152681E+02  0.51100000000E-03 0.  1.
         12    1    3    3    0    0 -0.12545919233E+02 -0.18855623932E+02  0.43523239217E+01  0.23062466625E+02  0.00000000000E+00 0. -1.
</event>
<event>
 7    1  0.1465498E-013  0.7246156E+02  0.7816164E-02  0.1226708E+00
        -11   -1    0    0    0    0  0.00000000000E+00  0.00000000000E+00  0.45593999997E+02  0.45594000000E+02  0.51100000000E-03 0. -1.
         11   -1    0    0    0    0 -0.00000000000E+00 -0.00000000000E+00 -0.45593999997E+02  0.45594000000E+02  0.51100000000E-03 0.  1.
    9900012    2    1    2    0    0 -0.17623189713E+02  0.36269090886E+01 -0.51911840382E+01  0.72461556747E+02  0.69999982352E+02 0.  0.
         12    1    1    2    0    0  0.17623189713E+02 -0.36269090886E+01  0.51911840382E+01  0.18726443253E+02  0.00000000000E+00 0. -1.
         11    1    3    3    0    0 -0.50849424406E+01 -0.27557923775E+01 -0.17169620357E+02  0.18117585235E+02  0.51100000000E-03 0. -1.
        -11    1    3    3    0    0 -0.27721739026E+02 -0.11035608308E+02  0.54372880815E+01  0.30328922949E+02  0.51100000000E-03 0.  1.
         12    1    3    3    0    0  0.15183491753E+02  0.17418309774E+02  0.65411482378E+01  0.24015048563E+02  0.00000000000E+00 0. -1.
</event>
<event>
 7    1  0.1509974E-013  0.7246155E+02  0.7816164E-02  0.1226708E+00
        -11   -1    0    0    0    0  0.00000000000E+00  0.00000000000E+00  0.45593999997E+02  0.45594000000E+02  0.51100000000E-03 0. -1.
         11   -1    0    0    0    0 -0.00000000000E+00 -0.00000000000E+00 -0.45593999997E+02  0.45594000000E+02  0.51100000000E-03 0.  1.
    9900012    2    1    2    0    0 -0.35535719694E-02 -0.18308214197E+02  0.39356215340E+01  0.72461552484E+02  0.69999976799E+02 0.  0.
         12    1    1    2    0    0  0.35535719694E-02  0.18308214197E+02 -0.39356215340E+01  0.18726447516E+02  0.00000000000E+00 0. -1.
         11    1    3    3    0    0  0.68368232123E+01  0.19802770410E+02  0.46707796430E+01  0.21464110750E+02  0.51100000000E-03 0. -1.
        -11    1    3    3    0    0  0.12437882416E+02 -0.74054248743E+01  0.21174974332E+01  0.14629594397E+02  0.51100000000E-03 0.  1.
        -12    1    3    3    0    0 -0.19278259201E+02 -0.30705559733E+02 -0.28526555422E+01  0.36367847337E+02  0.00000000000E+00 0.  1.
</event>
<event>
 7    1  0.1465498E-013  0.7246154E+02  0.7816164E-02  0.1226708E+00
        -11   -1    0    0    0    0  0.00000000000E+00  0.00000000000E+00  0.45593999997E+02  0.45594000000E+02  0.51100000000E-03 0.  1.
         11   -1    0    0    0    0 -0.00000000000E+00 -0.00000000000E+00 -0.45593999997E+02  0.45594000000E+02  0.51100000000E-03 0. -1.
    9900012    2    1    2    0    0 -0.78435119960E+01 -0.15776890978E+02  0.63442462875E+01  0.72461536631E+02  0.69999956147E+02 0.  0.
         12    1    1    2    0    0  0.78435119960E+01  0.15776890978E+02 -0.63442462875E+01  0.18726463369E+02  0.00000000000E+00 0. -1.
         11    1    3    3    0    0 -0.14015181181E+01  0.86850510454E+01 -0.35992293470E+01  0.95051994640E+01  0.51100000000E-03 0. -1.
        -11    1    3    3    0    0 -0.12258657165E+02  0.19582917096E+00  0.28848470295E+02  0.31345609950E+02  0.51100000000E-03 0.  1.
         12    1    3    3    0    0  0.58166632874E+01 -0.24657771194E+02 -0.18904994660E+02  0.31610727217E+02  0.00000000000E+00 0. -1.
</event>
<event>
 7    1  0.1465498E-013  0.7246156E+02  0.7816164E-02  0.1226708E+00
        -11   -1    0    0    0    0  0.00000000000E+00  0.00000000000E+00  0.45593999997E+02  0.45594000000E+02  0.51100000000E-03 0. -1.
         11   -1    0    0    0    0 -0.00000000000E+00 -0.00000000000E+00 -0.45593999997E+02  0.45594000000E+02  0.51100000000E-03 0.  1.
    9900012    2    1    2    0    0 -0.12595867961E+02  0.13854895390E+02 -0.25569549974E+00  0.72461564244E+02  0.69999992118E+02 0.  0.
         12    1    1    2    0    0  0.12595867961E+02 -0.13854895390E+02  0.25569549974E+00  0.18726435756E+02  0.00000000000E+00 0. -1.
         11    1    3    3    0    0  0.67080382677E+01 -0.19003248823E+02 -0.15941727247E+02  0.25695523172E+02  0.51100000000E-03 0.  1.
        -11    1    3    3    0    0 -0.11519995641E+02  0.48991959486E+01 -0.21491227138E+01  0.12701619944E+02  0.51100000000E-03 0. -1.
        -12    1    3    3    0    0 -0.77839105877E+01  0.27958948264E+02  0.17835154461E+02  0.34064421127E+02  0.00000000000E+00 0.  1.
</event>
<event>
 7    1  0.1465498E-013  0.7246159E+02  0.7816164E-02  0.1226708E+00
        -11   -1    0    0    0    0  0.00000000000E+00  0.00000000000E+00  0.45593999997E+02  0.45594000000E+02  0.51100000000E-03 0. -1.
         11   -1    0    0    0    0 -0.00000000000E+00 -0.00000000000E+00 -0.45593999997E+02  0.45594000000E+02  0.51100000000E-03 0.  1.
    9900012    2    1    2    0    0  0.17927248300E+02  0.46280355225E+01 -0.28059635727E+01  0.72461591482E+02  0.70000027601E+02 0.  0.
         12    1    1    2    0    0 -0.17927248300E+02 -0.46280355225E+01  0.28059635727E+01  0.18726408518E+02  0.00000000000E+00 0. -1.
         11    1    3    3    0    0  0.22808197054E+02  0.14052759710E+02  0.10421549158E+02  0.28745479565E+02  0.51100000000E-03 0. -1.
        -11    1    3    3    0    0  0.78053537965E+01  0.13111785141E+02 -0.15424272145E+01  0.15336933834E+02  0.51100000000E-03 0.  1.
        -12    1    3    3    0    0 -0.12686302550E+02 -0.22536509328E+02 -0.11685085517E+02  0.28379178082E+02  0.00000000000E+00 0.  1.
</event>
<event>
 7    1  0.1465498E-013  0.7246161E+02  0.7816164E-02  0.1226708E+00
        -11   -1    0    0    0    0  0.00000000000E+00  0.00000000000E+00  0.45593999997E+02  0.45594000000E+02  0.51100000000E-03 0.  1.
         11   -1    0    0    0    0 -0.00000000000E+00 -0.00000000000E+00 -0.45593999997E+02  0.45594000000E+02  0.51100000000E-03 0. -1.
    9900012    2    1    2    0    0 -0.18233826779E+02  0.41827073513E+01 -0.84265233761E+00  0.72461613729E+02  0.70000056582E+02 0.  0.
         12    1    1    2    0    0  0.18233826779E+02 -0.41827073513E+01  0.84265233761E+00  0.18726386271E+02  0.00000000000E+00 0. -1.
         11    1    3    3    0    0 -0.37417094323E+02 -0.26142851914E+01 -0.36283809012E+01  0.37683399301E+02  0.51100000000E-03 0. -1.
        -11    1    3    3    0    0 -0.25849214966E+01  0.11999964995E+02  0.58951924985E+00  0.12289365819E+02  0.51100000000E-03 0.  1.
        -12    1    3    3    0    0  0.21768189040E+02 -0.52029724523E+01  0.21962093138E+01  0.22488848610E+02  0.00000000000E+00 0.  1.
</event>
<event>
 7    1  0.1465498E-013  0.7246164E+02  0.7816164E-02  0.1226708E+00
        -11   -1    0    0    0    0  0.00000000000E+00  0.00000000000E+00  0.45593999997E+02  0.45594000000E+02  0.51100000000E-03 0.  1.
         11   -1    0    0    0    0 -0.00000000000E+00 -0.00000000000E+00 -0.45593999997E+02  0.45594000000E+02  0.51100000000E-03 0. -1.
    9900012    2    1    2    0    0  0.62079159109E+00  0.17942626152E+02  0.53248031498E+01  0.72461635056E+02  0.70000084364E+02 0.  0.
         12    1    1    2    0    0 -0.62079159109E+00 -0.17942626152E+02 -0.53248031498E+01  0.18726364944E+02  0.00000000000E+00 0. -1.
         11    1    3    3    0    0 -0.20012291282E+02  0.24920468339E+02 -0.11935506999E+02  0.34117119928E+02  0.51100000000E-03 0. -1.
        -11    1    3    3    0    0 -0.15893110279E-01 -0.11848033658E+02  0.11142715687E+02  0.16264570923E+02  0.51100000000E-03 0.  1.
        -12    1    3    3    0    0  0.20648975983E+02  0.48701914709E+01  0.61175944616E+01  0.22079944206E+02  0.00000000000E+00 0.  1.
</event>
<event>
 7    1  0.1465498E-013  0.7246165E+02  0.7816164E-02  0.1226708E+00
        -11   -1    0    0    0    0  0.00000000000E+00  0.00000000000E+00  0.45593999997E+02  0.45594000000E+02  0.51100000000E-03 0.  1.
         11   -1    0    0    0    0 -0.00000000000E+00 -0.00000000000E+00 -0.45593999997E+02  0.45594000000E+02  0.51100000000E-03 0. -1.
    9900012    2    1    2    0    0  0.12495982178E+02  0.70011748557E+00  0.13929703223E+02  0.72461645123E+02  0.70000097479E+02 0.  0.
         12    1    1    2    0    0 -0.12495982178E+02 -0.70011748557E+00 -0.13929703223E+02  0.18726354877E+02  0.00000000000E+00 0. -1.
         11    1    3    3    0    0  0.20766471242E+01  0.72317101272E+01 -0.24768272115E+01  0.79211595072E+01  0.51100000000E-03 0. -1.
        -11    1    3    3    0    0 -0.59626603268E+01 -0.87613912134E+00  0.37078369276E+02  0.37564962484E+02  0.51100000000E-03 0.  1.
         12    1    3    3    0    0  0.16381995381E+02 -0.56554535203E+01 -0.20671838842E+02  0.26975523133E+02  0.00000000000E+00 0. -1.
</event>
<event>
 7    1  0.1465498E-013  0.7246139E+02  0.7816164E-02  0.1226708E+00
        -11   -1    0    0    0    0  0.00000000000E+00  0.00000000000E+00  0.45593999997E+02  0.45594000000E+02  0.51100000000E-03 0. -1.
         11   -1    0    0    0    0 -0.00000000000E+00 -0.00000000000E+00 -0.45593999997E+02  0.45594000000E+02  0.51100000000E-03 0.  1.
    9900012    2    1    2    0    0  0.10558626034E+02 -0.15085431852E+02 -0.34104119001E+01  0.72461394670E+02  0.69999771216E+02 0.  0.
         12    1    1    2    0    0 -0.10558626034E+02  0.15085431852E+02  0.34104119001E+01  0.18726605330E+02  0.00000000000E+00 0. -1.
         11    1    3    3    0    0  0.12968878982E+02  0.43938688060E+01 -0.72232948039E+01  0.15481404756E+02  0.51100000000E-03 0. -1.
        -11    1    3    3    0    0  0.77753247503E+01  0.17087558999E+02  0.30055727701E+01  0.19012464739E+02  0.51100000000E-03 0.  1.
         12    1    3    3    0    0 -0.10185577698E+02 -0.36566859657E+02  0.80731013363E+00  0.37967525174E+02  0.00000000000E+00 0. -1.
</event>
<event>
 7    1  0.1465498E-013  0.7246153E+02  0.7816164E-02  0.1226708E+00
        -11   -1    0    0    0    0  0.00000000000E+00  0.00000000000E+00  0.45593999997E+02  0.45594000000E+02  0.51100000000E-03 0. -1.
         11   -1    0    0    0    0 -0.00000000000E+00 -0.00000000000E+00 -0.45593999997E+02  0.45594000000E+02  0.51100000000E-03 0.  1.
    9900012    2    1    2    0    0 -0.88196310059E+01 -0.16463489858E+02 -0.13594776512E+01  0.72461532931E+02  0.69999951328E+02 0.  0.
         12    1    1    2    0    0  0.88196310059E+01  0.16463489858E+02  0.13594776512E+01  0.18726467069E+02  0.00000000000E+00 0. -1.
         11    1    3    3    0    0 -0.71778986018E+01 -0.27007964955E+01 -0.25064636102E+02  0.26211686578E+02  0.51100000000E-03 0. -1.
        -11    1    3    3    0    0  0.55178781264E+01  0.63059470893E+01 -0.55551894690E+01  0.10053460996E+02  0.51100000000E-03 0.  1.
         12    1    3    3    0    0 -0.71596105304E+01 -0.20068640452E+02  0.29260347920E+02  0.36196385357E+02  0.00000000000E+00 0. -1.
</event>
<event>
 7    1  0.1465498E-013  0.7246158E+02  0.7816164E-02  0.1226708E+00
        -11   -1    0    0    0    0  0.00000000000E+00  0.00000000000E+00  0.45593999997E+02  0.45594000000E+02  0.51100000000E-03 0. -1.
         11   -1    0    0    0    0 -0.00000000000E+00 -0.00000000000E+00 -0.45593999997E+02  0.45594000000E+02  0.51100000000E-03 0.  1.
    9900012    2    1    2    0    0  0.15884685162E+01  0.52615912967E+01 -0.17901708143E+02  0.72461582039E+02  0.70000015300E+02 0.  0.
         12    1    1    2    0    0 -0.15884685162E+01 -0.52615912967E+01  0.17901708143E+02  0.18726417961E+02  0.00000000000E+00 0. -1.
         11    1    3    3    0    0 -0.12517831322E+02 -0.17702697473E+02 -0.14125640481E+02  0.25876926365E+02  0.51100000000E-03 0. -1.
        -11    1    3    3    0    0  0.52280687565E+01 -0.10379120150E+02 -0.32817542133E+01  0.12075957477E+02  0.51100000000E-03 0.  1.
        -12    1    3    3    0    0  0.88782310821E+01  0.33343408919E+02 -0.49431344852E+00  0.34508698198E+02  0.00000000000E+00 0.  1.
</event>
<event>
 7    1  0.1465498E-013  0.7246151E+02  0.7816164E-02  0.1226708E+00
        -11   -1    0    0    0    0  0.00000000000E+00  0.00000000000E+00  0.45593999997E+02  0.45594000000E+02  0.51100000000E-03 0.  1.
         11   -1    0    0    0    0 -0.00000000000E+00 -0.00000000000E+00 -0.45593999997E+02  0.45594000000E+02  0.51100000000E-03 0. -1.
    9900012    2    1    2    0    0 -0.18429204999E+02  0.70587707914E+00 -0.32477168617E+01  0.72461507425E+02  0.69999918101E+02 0.  0.
         12    1    1    2    0    0  0.18429204999E+02 -0.70587707914E+00  0.32477168617E+01  0.18726492575E+02  0.00000000000E+00 0. -1.
         11    1    3    3    0    0 -0.94086923599E+01  0.10255483882E+02 -0.15313526406E+02  0.20693055183E+02  0.51100000000E-03 0. -1.
        -11    1    3    3    0    0 -0.28932914167E+02 -0.24795030542E+01  0.48573041825E+01  0.29442399049E+02  0.51100000000E-03 0.  1.
        -12    1    3    3    0    0  0.19912401528E+02 -0.70701037486E+01  0.72085053617E+01  0.22326053193E+02  0.00000000000E+00 0.  1.
</event>
<event>
 7    1  0.1465498E-013  0.7246160E+02  0.7816164E-02  0.1226708E+00
        -11   -1    0    0    0    0  0.00000000000E+00  0.00000000000E+00  0.45593999997E+02  0.45594000000E+02  0.51100000000E-03 0. -1.
         11   -1    0    0    0    0 -0.00000000000E+00 -0.00000000000E+00 -0.45593999997E+02  0.45594000000E+02  0.51100000000E-03 0.  1.
    9900012    2    1    2    0    0  0.41774750045E+01  0.15437974924E+02 -0.97414420976E+01  0.72461599884E+02  0.70000038546E+02 0.  0.
         12    1    1    2    0    0 -0.41774750045E+01 -0.15437974924E+02  0.97414420976E+01  0.18726400116E+02  0.00000000000E+00 0. -1.
         11    1    3    3    0    0  0.10275092393E+01 -0.24859097955E+02 -0.11798875242E+02  0.27536230381E+02  0.51100000000E-03 0. -1.
        -11    1    3    3    0    0  0.65142645044E+01  0.26706123447E+01 -0.52953384881E+00  0.70603270949E+01  0.51100000000E-03 0.  1.
        -12    1    3    3    0    0 -0.33642987392E+01  0.37626460534E+02  0.25869669933E+01  0.37865042408E+02  0.00000000000E+00 0.  1.
</event>
<event>
 7    1  0.1465498E-013  0.7246158E+02  0.7816164E-02  0.1226708E+00
        -11   -1    0    0    0    0  0.00000000000E+00  0.00000000000E+00  0.45593999997E+02  0.45594000000E+02  0.51100000000E-03 0.  1.
         11   -1    0    0    0    0 -0.00000000000E+00 -0.00000000000E+00 -0.45593999997E+02  0.45594000000E+02  0.51100000000E-03 0. -1.
    9900012    2    1    2    0    0 -0.12107077148E+02 -0.93474836652E+01  0.10803801563E+02  0.72461577593E+02  0.70000009508E+02 0.  0.
         12    1    1    2    0    0  0.12107077148E+02  0.93474836652E+01 -0.10803801563E+02  0.18726422407E+02  0.00000000000E+00 0. -1.
         11    1    3    3    0    0 -0.23691382096E+02 -0.12618980599E+02  0.19552655758E+02  0.33208833229E+02  0.51100000000E-03 0.  1.
        -11    1    3    3    0    0 -0.64244764048E+00 -0.14262182469E+02 -0.10622608307E+02  0.17795010404E+02  0.51100000000E-03 0. -1.
         12    1    3    3    0    0  0.12226752588E+02  0.17533679403E+02  0.18737541126E+01  0.21457733960E+02  0.00000000000E+00 0. -1.
</event>
<event>
 7    1  0.1634910E-013  0.7246157E+02  0.7816164E-02  0.1226708E+00
        -11   -1    0    0    0    0  0.00000000000E+00  0.00000000000E+00  0.45593999997E+02  0.45594000000E+02  0.51100000000E-03 0. -1.
         11   -1    0    0    0    0 -0.00000000000E+00 -0.00000000000E+00 -0.45593999997E+02  0.45594000000E+02  0.51100000000E-03 0.  1.
    9900012    2    1    2    0    0 -0.23611786220E+01  0.10198554418E+02 -0.15527183745E+02  0.72461571837E+02  0.70000002009E+02 0.  0.
         12    1    1    2    0    0  0.23611786220E+01 -0.10198554418E+02  0.15527183745E+02  0.18726428163E+02  0.00000000000E+00 0. -1.
         11    1    3    3    0    0  0.13626273764E+02 -0.16001006889E+02  0.75030744459E+01  0.22315996159E+02  0.51100000000E-03 0. -1.
        -11    1    3    3    0    0  0.81188528399E+01 -0.90696478014E+00 -0.29643122106E+01  0.86905410471E+01  0.51100000000E-03 0.  1.
        -12    1    3    3    0    0 -0.24106305226E+02  0.27106526087E+02 -0.20065945980E+02  0.41455034631E+02  0.00000000000E+00 0.  1.
</event>
<event>
 7    1  0.1465498E-013  0.7246155E+02  0.7816164E-02  0.1226708E+00
        -11   -1    0    0    0    0  0.00000000000E+00  0.00000000000E+00  0.45593999997E+02  0.45594000000E+02  0.51100000000E-03 0.  1.
         11   -1    0    0    0    0 -0.00000000000E+00 -0.00000000000E+00 -0.45593999997E+02  0.45594000000E+02  0.51100000000E-03 0. -1.
    9900012    2    1    2    0    0 -0.26088271235E+01 -0.14359855769E+02  0.11733228469E+02  0.72461545799E+02  0.69999968090E+02 0.  0.
         12    1    1    2    0    0  0.26088271235E+01  0.14359855769E+02 -0.11733228469E+02  0.18726454201E+02  0.00000000000E+00 0. -1.
         11    1    3    3    0    0 -0.26494975893E+01 -0.36376927416E+02 -0.38530449159E+00  0.36475322419E+02  0.51100000000E-03 0. -1.
        -11    1    3    3    0    0  0.81985461110E+01  0.64433158446E+01  0.14900200381E+02  0.18186490840E+02  0.51100000000E-03 0.  1.
        -12    1    3    3    0    0 -0.81578756451E+01  0.15573755803E+02 -0.27816674208E+01  0.17799732540E+02  0.00000000000E+00 0.  1.
</event>
<event>
 7    1  0.1465498E-013  0.7246167E+02  0.7816164E-02  0.1226708E+00
        -11   -1    0    0    0    0  0.00000000000E+00  0.00000000000E+00  0.45593999997E+02  0.45594000000E+02  0.51100000000E-03 0.  1.
         11   -1    0    0    0    0 -0.00000000000E+00 -0.00000000000E+00 -0.45593999997E+02  0.45594000000E+02  0.51100000000E-03 0. -1.
    9900012    2    1    2    0    0 -0.11321395461E+02  0.49950057094E+01  0.14055292897E+02  0.72461672660E+02  0.70000133351E+02 0.  0.
         12    1    1    2    0    0  0.11321395461E+02 -0.49950057094E+01 -0.14055292897E+02  0.18726327340E+02  0.00000000000E+00 0. -1.
         11    1    3    3    0    0  0.25059190092E+02  0.24664360774E+01 -0.65794708707E+01  0.26025674865E+02  0.51100000000E-03 0. -1.
        -11    1    3    3    0    0 -0.52685322188E+00 -0.73322714076E-01 -0.32391314032E+01  0.32825177907E+01  0.51100000000E-03 0.  1.
        -12    1    3    3    0    0 -0.35853732331E+02  0.26018923461E+01  0.23873895171E+02  0.43153480004E+02  0.00000000000E+00 0.  1.
</event>
<event>
 7    1  0.1465498E-013  0.7246155E+02  0.7816164E-02  0.1226708E+00
        -11   -1    0    0    0    0  0.00000000000E+00  0.00000000000E+00  0.45593999997E+02  0.45594000000E+02  0.51100000000E-03 0. -1.
         11   -1    0    0    0    0 -0.00000000000E+00 -0.00000000000E+00 -0.45593999997E+02  0.45594000000E+02  0.51100000000E-03 0.  1.
    9900012    2    1    2    0    0  0.13564424971E+02 -0.52549036429E+01 -0.11792897451E+02  0.72461546321E+02  0.69999968771E+02 0.  0.
         12    1    1    2    0    0 -0.13564424971E+02  0.52549036429E+01  0.11792897451E+02  0.18726453679E+02  0.00000000000E+00 0. -1.
         11    1    3    3    0    0  0.17740831199E+02  0.29981300803E+01 -0.80452560584E+01  0.19709186207E+02  0.51100000000E-03 0.  1.
        -11    1    3    3    0    0 -0.15276488502E+02  0.16990210879E+02  0.57956415716E+01  0.23571759123E+02  0.51100000000E-03 0. -1.
         12    1    3    3    0    0  0.11100082274E+02 -0.25243244602E+02 -0.95432829640E+01  0.29180600992E+02  0.00000000000E+00 0. -1.
</event>
<event>
 7    1  0.1465498E-013  0.7246108E+02  0.7816164E-02  0.1226709E+00
        -11   -1    0    0    0    0  0.00000000000E+00  0.00000000000E+00  0.45593999997E+02  0.45594000000E+02  0.51100000000E-03 0.  1.
         11   -1    0    0    0    0 -0.00000000000E+00 -0.00000000000E+00 -0.45593999997E+02  0.45594000000E+02  0.51100000000E-03 0. -1.
    9900012    2    1    2    0    0 -0.27044868476E+01  0.15734598540E+02  0.97880322701E+01  0.72461083114E+02  0.69999365354E+02 0.  0.
         12    1    1    2    0    0  0.27044868476E+01 -0.15734598540E+02 -0.97880322701E+01  0.18726916886E+02  0.00000000000E+00 0. -1.
         11    1    3    3    0    0  0.10086701144E+02 -0.49532543839E+01 -0.65318388117E+01  0.12997737783E+02  0.51100000000E-03 0. -1.
        -11    1    3    3    0    0  0.31602687780E+01  0.16097417755E+02  0.32423053946E+02  0.36336876373E+02  0.51100000000E-03 0.  1.
        -12    1    3    3    0    0 -0.15951456769E+02  0.45904351688E+01 -0.16103182864E+02  0.23126468958E+02  0.00000000000E+00 0.  1.
</event>
<event>
 7    1  0.1465498E-013  0.7246158E+02  0.7816164E-02  0.1226708E+00
        -11   -1    0    0    0    0  0.00000000000E+00  0.00000000000E+00  0.45593999997E+02  0.45594000000E+02  0.51100000000E-03 0. -1.
         11   -1    0    0    0    0 -0.00000000000E+00 -0.00000000000E+00 -0.45593999997E+02  0.45594000000E+02  0.51100000000E-03 0.  1.
    9900012    2    1    2    0    0  0.46151326081E+01 -0.16168510854E+02 -0.82437053993E+01  0.72461578267E+02  0.70000010386E+02 0.  0.
         12    1    1    2    0    0 -0.46151326081E+01  0.16168510854E+02  0.82437053993E+01  0.18726421733E+02  0.00000000000E+00 0. -1.
         11    1    3    3    0    0  0.69396922955E+01 -0.12062653397E+02  0.15064770552E+02  0.20508882178E+02  0.51100000000E-03 0. -1.
        -11    1    3    3    0    0  0.47749234151E+01 -0.18502938748E+02  0.46924630156E+01  0.19676835248E+02  0.51100000000E-03 0.  1.
        -12    1    3    3    0    0 -0.70994831025E+01  0.14397081292E+02 -0.28000938967E+02  0.32275860842E+02  0.00000000000E+00 0.  1.
</event>
<event>
 7    1  0.1465498E-013  0.7246153E+02  0.7816164E-02  0.1226708E+00
        -11   -1    0    0    0    0  0.00000000000E+00  0.00000000000E+00  0.45593999997E+02  0.45594000000E+02  0.51100000000E-03 0. -1.
         11   -1    0    0    0    0 -0.00000000000E+00 -0.00000000000E+00 -0.45593999997E+02  0.45594000000E+02  0.51100000000E-03 0.  1.
    9900012    2    1    2    0    0 -0.16751123001E+02 -0.59355403781E+01  0.59033707193E+01  0.72461533510E+02  0.69999952081E+02 0.  0.
         12    1    1    2    0    0  0.16751123001E+02  0.59355403781E+01 -0.59033707193E+01  0.18726466490E+02  0.00000000000E+00 0. -1.
         11    1    3    3    0    0  0.79339508770E+01  0.68496700858E+01 -0.47954425887E+01  0.11526570465E+02  0.51100000000E-03 0. -1.
        -11    1    3    3    0    0 -0.70781803333E+01 -0.13424193713E+02 -0.20260201580E+02  0.25313738997E+02  0.51100000000E-03 0.  1.
         12    1    3    3    0    0 -0.17606893544E+02  0.63898324879E+00  0.30959014888E+02  0.35621224048E+02  0.00000000000E+00 0. -1.
</event>
<event>
 7    1  0.1465498E-013  0.7246155E+02  0.7816164E-02  0.1226708E+00
        -11   -1    0    0    0    0  0.00000000000E+00  0.00000000000E+00  0.45593999997E+02  0.45594000000E+02  0.51100000000E-03 0. -1.
         11   -1    0    0    0    0 -0.00000000000E+00 -0.00000000000E+00 -0.45593999997E+02  0.45594000000E+02  0.51100000000E-03 0.  1.
    9900012    2    1    2    0    0  0.88172492234E+01 -0.45191511693E+01 -0.15890671650E+02  0.72461546608E+02  0.69999969144E+02 0.  0.
         12    1    1    2    0    0 -0.88172492234E+01  0.45191511693E+01  0.15890671650E+02  0.18726453392E+02  0.00000000000E+00 0. -1.
         11    1    3    3    0    0  0.23130072326E+02 -0.24115371148E+02  0.50446125797E+01  0.33793482918E+02  0.51100000000E-03 0. -1.
        -11    1    3    3    0    0  0.26933230062E+01  0.20698849259E+01  0.29568818673E+01  0.45035056412E+01  0.51100000000E-03 0.  1.
         12    1    3    3    0    0 -0.17006146108E+02  0.17526335053E+02 -0.23892166097E+02  0.34164558049E+02  0.00000000000E+00 0. -1.
</event>
<event>
 7    1  0.1465498E-013  0.7246194E+02  0.7816164E-02  0.1226707E+00
        -11   -1    0    0    0    0  0.00000000000E+00  0.00000000000E+00  0.45593999997E+02  0.45594000000E+02  0.51100000000E-03 0.  1.
         11   -1    0    0    0    0 -0.00000000000E+00 -0.00000000000E+00 -0.45593999997E+02  0.45594000000E+02  0.51100000000E-03 0. -1.
    9900012    2    1    2    0    0  0.54987537492E+01 -0.15139736306E+02  0.95507780544E+01  0.72461941428E+02  0.70000483468E+02 0.  0.
         12    1    1    2    0    0 -0.54987537492E+01  0.15139736306E+02 -0.95507780544E+01  0.18726058572E+02  0.00000000000E+00 0. -1.
         11    1    3    3    0    0  0.39375247253E+01 -0.26221591123E+02  0.20179065324E+02  0.33320723575E+02  0.51100000000E-03 0. -1.
        -11    1    3    3    0    0 -0.14644326070E+02 -0.11651660373E+01 -0.11729193935E+02  0.18798614007E+02  0.51100000000E-03 0.  1.
        -12    1    3    3    0    0  0.16205555094E+02  0.12247020855E+02  0.11009066658E+01  0.20342603845E+02  0.00000000000E+00 0.  1.
</event>
<event>
 7    1  0.1465498E-013  0.7246157E+02  0.7816164E-02  0.1226708E+00
        -11   -1    0    0    0    0  0.00000000000E+00  0.00000000000E+00  0.45593999997E+02  0.45594000000E+02  0.51100000000E-03 0.  1.
         11   -1    0    0    0    0 -0.00000000000E+00 -0.00000000000E+00 -0.45593999997E+02  0.45594000000E+02  0.51100000000E-03 0. -1.
    9900012    2    1    2    0    0 -0.10895339542E+02 -0.13560968997E+02  0.69333138185E+01  0.72461570965E+02  0.70000000874E+02 0.  0.
         12    1    1    2    0    0  0.10895339542E+02  0.13560968997E+02 -0.69333138185E+01  0.18726429035E+02  0.00000000000E+00 0. -1.
         11    1    3    3    0    0 -0.23767486312E+00  0.13918047336E+02 -0.19172833416E+00  0.13921396877E+02  0.51100000000E-03 0. -1.
        -11    1    3    3    0    0 -0.17406900128E+02  0.42896110623E+01  0.16885424619E+02  0.24627596309E+02  0.51100000000E-03 0.  1.
         12    1    3    3    0    0  0.67492354488E+01 -0.31768627396E+02 -0.97603824664E+01  0.33912577779E+02  0.00000000000E+00 0. -1.
</event>
<event>
 7    1  0.1465498E-013  0.7246158E+02  0.7816164E-02  0.1226708E+00
        -11   -1    0    0    0    0  0.00000000000E+00  0.00000000000E+00  0.45593999997E+02  0.45594000000E+02  0.51100000000E-03 0. -1.
         11   -1    0    0    0    0 -0.00000000000E+00 -0.00000000000E+00 -0.45593999997E+02  0.45594000000E+02  0.51100000000E-03 0.  1.
    9900012    2    1    2    0    0  0.17766526185E+02  0.55450104864E+01  0.20693953386E+01  0.72461575059E+02  0.70000006207E+02 0.  0.
         12    1    1    2    0    0 -0.17766526185E+02 -0.55450104864E+01 -0.20693953386E+01  0.18726424941E+02  0.00000000000E+00 0. -1.
         11    1    3    3    0    0 -0.71729007700E+00  0.25937693452E+00 -0.36865327402E+01  0.37646122449E+01  0.51100000000E-03 0. -1.
        -11    1    3    3    0    0 -0.78022057619E+01  0.30818875310E+02  0.18746850420E+01  0.31846380240E+02  0.51100000000E-03 0.  1.
         12    1    3    3    0    0  0.26286022024E+02 -0.25533241758E+02  0.38812430368E+01  0.36850582574E+02  0.00000000000E+00 0. -1.
</event>
<event>
 7    1  0.1465498E-013  0.7246154E+02  0.7816164E-02  0.1226708E+00
        -11   -1    0    0    0    0  0.00000000000E+00  0.00000000000E+00  0.45593999997E+02  0.45594000000E+02  0.51100000000E-03 0.  1.
         11   -1    0    0    0    0 -0.00000000000E+00 -0.00000000000E+00 -0.45593999997E+02  0.45594000000E+02  0.51100000000E-03 0. -1.
    9900012    2    1    2    0    0  0.91472973532E+01  0.37341967614E+01  0.15907959651E+02  0.72461535983E+02  0.69999955303E+02 0.  0.
         12    1    1    2    0    0 -0.91472973532E+01 -0.37341967614E+01 -0.15907959651E+02  0.18726464017E+02  0.00000000000E+00 0. -1.
         11    1    3    3    0    0 -0.52865590237E+01 -0.23169934640E+02  0.22168222718E+02  0.32499595018E+02  0.51100000000E-03 0. -1.
        -11    1    3    3    0    0 -0.61042735931E+01  0.36966562043E+01  0.28128871312E+01  0.76707077552E+01  0.51100000000E-03 0.  1.
         12    1    3    3    0    0  0.20538129970E+02  0.23207475198E+02 -0.90731501986E+01  0.32291233210E+02  0.00000000000E+00 0. -1.
</event>
<event>
 7    1  0.1465498E-013  0.7246153E+02  0.7816164E-02  0.1226708E+00
        -11   -1    0    0    0    0  0.00000000000E+00  0.00000000000E+00  0.45593999997E+02  0.45594000000E+02  0.51100000000E-03 0.  1.
         11   -1    0    0    0    0 -0.00000000000E+00 -0.00000000000E+00 -0.45593999997E+02  0.45594000000E+02  0.51100000000E-03 0. -1.
    9900012    2    1    2    0    0  0.34498663640E+01 -0.46301380942E+01  0.17814069444E+02  0.72461526043E+02  0.69999942354E+02 0.  0.
         12    1    1    2    0    0 -0.34498663640E+01  0.46301380942E+01 -0.17814069444E+02  0.18726473957E+02  0.00000000000E+00 0. -1.
         11    1    3    3    0    0  0.11300248051E+00  0.31679455346E+01 -0.34276068536E+01  0.46687404591E+01  0.51100000000E-03 0. -1.
        -11    1    3    3    0    0 -0.74185756286E+01  0.25139302065E+02 -0.16529008745E+01  0.26263127274E+02  0.51100000000E-03 0.  1.
        -12    1    3    3    0    0  0.10755439512E+02 -0.32937385693E+02  0.22894577173E+02  0.41529658310E+02  0.00000000000E+00 0.  1.
</event>
<event>
 7    1  0.1465498E-013  0.7246156E+02  0.7816164E-02  0.1226708E+00
        -11   -1    0    0    0    0  0.00000000000E+00  0.00000000000E+00  0.45593999997E+02  0.45594000000E+02  0.51100000000E-03 0.  1.
         11   -1    0    0    0    0 -0.00000000000E+00 -0.00000000000E+00 -0.45593999997E+02  0.45594000000E+02  0.51100000000E-03 0. -1.
    9900012    2    1    2    0    0  0.74346194452E+01  0.11558747574E+02  0.12720108842E+02  0.72461564655E+02  0.69999992654E+02 0.  0.
         12    1    1    2    0    0 -0.74346194452E+01 -0.11558747574E+02 -0.12720108842E+02  0.18726435345E+02  0.00000000000E+00 0. -1.
         11    1    3    3    0    0  0.40309192157E+01  0.27487323507E+02  0.38765559898E+01  0.28050471474E+02  0.51100000000E-03 0. -1.
        -11    1    3    3    0    0  0.89935176535E+01  0.11512275898E+02  0.73835796944E+01  0.16368662300E+02  0.51100000000E-03 0.  1.
         12    1    3    3    0    0 -0.55898174240E+01 -0.27440851832E+02  0.14599731579E+01  0.28042430881E+02  0.00000000000E+00 0. -1.
</event>
<event>
 7    1  0.1465498E-013  0.7246141E+02  0.7816164E-02  0.1226708E+00
        -11   -1    0    0    0    0  0.00000000000E+00  0.00000000000E+00  0.45593999997E+02  0.45594000000E+02  0.51100000000E-03 0. -1.
         11   -1    0    0    0    0 -0.00000000000E+00 -0.00000000000E+00 -0.45593999997E+02  0.45594000000E+02  0.51100000000E-03 0.  1.
    9900012    2    1    2    0    0  0.31749714062E+01 -0.48936222873E+01 -0.17794859492E+02  0.72461414437E+02  0.69999796966E+02 0.  0.
         12    1    1    2    0    0 -0.31749714062E+01  0.48936222873E+01  0.17794859492E+02  0.18726585563E+02  0.00000000000E+00 0. -1.
         11    1    3    3    0    0  0.10602520682E+02  0.11665812113E+02 -0.33237596035E+01  0.16110617469E+02  0.51100000000E-03 0. -1.
        -11    1    3    3    0    0  0.11171937841E+02 -0.11869263634E+01  0.14694514374E+02  0.18497290133E+02  0.51100000000E-03 0.  1.
        -12    1    3    3    0    0 -0.18599487117E+02 -0.15372508037E+02 -0.29165614263E+02  0.37853506835E+02  0.00000000000E+00 0.  1.
</event>
<event>
 7    1  0.1465498E-013  0.7246176E+02  0.7816164E-02  0.1226708E+00
        -11   -1    0    0    0    0  0.00000000000E+00  0.00000000000E+00  0.45593999997E+02  0.45594000000E+02  0.51100000000E-03 0.  1.
         11   -1    0    0    0    0 -0.00000000000E+00 -0.00000000000E+00 -0.45593999997E+02  0.45594000000E+02  0.51100000000E-03 0. -1.
    9900012    2    1    2    0    0  0.53408108528E+01  0.15536782996E+02 -0.89864539467E+01  0.72461755289E+02  0.70000240990E+02 0.  0.
         12    1    1    2    0    0 -0.53408108528E+01 -0.15536782996E+02  0.89864539467E+01  0.18726244711E+02  0.00000000000E+00 0. -1.
         11    1    3    3    0    0 -0.63913716909E+01  0.13370700574E+02 -0.17647558480E+02  0.23044773518E+02  0.51100000000E-03 0. -1.
        -11    1    3    3    0    0 -0.66164512777E+00  0.16651664698E+02 -0.12576602768E+02  0.20877898576E+02  0.51100000000E-03 0.  1.
        -12    1    3    3    0    0  0.12393827671E+02 -0.14485582277E+02  0.21237707301E+02  0.28539083196E+02  0.00000000000E+00 0.  1.
</event>
<event>
 7    1  0.1465498E-013  0.7246163E+02  0.7816164E-02  0.1226708E+00
        -11   -1    0    0    0    0  0.00000000000E+00  0.00000000000E+00  0.45593999997E+02  0.45594000000E+02  0.51100000000E-03 0. -1.
         11   -1    0    0    0    0 -0.00000000000E+00 -0.00000000000E+00 -0.45593999997E+02  0.45594000000E+02  0.51100000000E-03 0.  1.
    9900012    2    1    2    0    0 -0.17315334940E+02 -0.38011904518E+01 -0.60338204413E+01  0.72461631905E+02  0.70000080259E+02 0.  0.
         12    1    1    2    0    0  0.17315334940E+02  0.38011904518E+01  0.60338204413E+01  0.18726368095E+02  0.00000000000E+00 0. -1.
         11    1    3    3    0    0 -0.46882866133E-01 -0.18024004281E+02 -0.24307198285E+01  0.18187229791E+02  0.51100000000E-03 0. -1.
        -11    1    3    3    0    0 -0.43675341002E+01 -0.78310425374E+01 -0.21356090670E+02  0.23162106776E+02  0.51100000000E-03 0.  1.
         12    1    3    3    0    0 -0.12900917973E+02  0.22053856367E+02  0.17752990057E+02  0.31112295337E+02  0.00000000000E+00 0. -1.
</event>
<event>
 7    1  0.1465498E-013  0.7246161E+02  0.7816164E-02  0.1226708E+00
        -11   -1    0    0    0    0  0.00000000000E+00  0.00000000000E+00  0.45593999997E+02  0.45594000000E+02  0.51100000000E-03 0.  1.
         11   -1    0    0    0    0 -0.00000000000E+00 -0.00000000000E+00 -0.45593999997E+02  0.45594000000E+02  0.51100000000E-03 0. -1.
    9900012    2    1    2    0    0  0.16195049436E+02  0.92007516407E+01  0.19350376989E+01  0.72461606117E+02  0.70000046665E+02 0.  0.
         12    1    1    2    0    0 -0.16195049436E+02 -0.92007516407E+01 -0.19350376989E+01  0.18726393883E+02  0.00000000000E+00 0. -1.
         11    1    3    3    0    0 -0.94231747229E+01 -0.13661025761E+02 -0.55578925253E+01  0.17501714667E+02  0.51100000000E-03 0. -1.
        -11    1    3    3    0    0 -0.11080395552E+02  0.22633173745E+01 -0.27675283361E+01  0.11642894162E+02  0.51100000000E-03 0.  1.
        -12    1    3    3    0    0  0.36698619710E+02  0.20598460027E+02  0.10260458560E+02  0.43316997287E+02  0.00000000000E+00 0.  1.
</event>
<event>
 7    1  0.1465498E-013  0.7246158E+02  0.7816164E-02  0.1226708E+00
        -11   -1    0    0    0    0  0.00000000000E+00  0.00000000000E+00  0.45593999997E+02  0.45594000000E+02  0.51100000000E-03 0.  1.
         11   -1    0    0    0    0 -0.00000000000E+00 -0.00000000000E+00 -0.45593999997E+02  0.45594000000E+02  0.51100000000E-03 0. -1.
    9900012    2    1    2    0    0 -0.68355878024E+01 -0.79485328319E+01  0.15516901758E+02  0.72461583499E+02  0.70000017202E+02 0.  0.
         12    1    1    2    0    0  0.68355878024E+01  0.79485328319E+01 -0.15516901758E+02  0.18726416501E+02  0.00000000000E+00 0. -1.
         11    1    3    3    0    0  0.13754812768E+02  0.13359863917E+02 -0.10861021541E+01  0.19205740192E+02  0.51100000000E-03 0. -1.
        -11    1    3    3    0    0 -0.16496794906E+02  0.25192399694E+01  0.22840517716E+02  0.28287454145E+02  0.51100000000E-03 0.  1.
        -12    1    3    3    0    0 -0.40936056638E+01 -0.23827636718E+02 -0.62375138036E+01  0.24968389162E+02  0.00000000000E+00 0.  1.
</event>
<event>
 7    1  0.1465498E-013  0.7246148E+02  0.7816164E-02  0.1226708E+00
        -11   -1    0    0    0    0  0.00000000000E+00  0.00000000000E+00  0.45593999997E+02  0.45594000000E+02  0.51100000000E-03 0. -1.
         11   -1    0    0    0    0 -0.00000000000E+00 -0.00000000000E+00 -0.45593999997E+02  0.45594000000E+02  0.51100000000E-03 0.  1.
    9900012    2    1    2    0    0  0.17793295688E+02 -0.52806260558E+01 -0.24892030991E+01  0.72461480969E+02  0.69999883637E+02 0.  0.
         12    1    1    2    0    0 -0.17793295688E+02  0.52806260558E+01  0.24892030991E+01  0.18726519031E+02  0.00000000000E+00 0. -1.
         11    1    3    3    0    0  0.30874409104E+00  0.19843855232E+02  0.54892844328E+01  0.20591409792E+02  0.51100000000E-03 0. -1.
        -11    1    3    3    0    0 -0.12220995896E+02 -0.81114444291E+01  0.46425286038E+01  0.15385101349E+02  0.51100000000E-03 0.  1.
         12    1    3    3    0    0  0.29705547493E+02 -0.17013036859E+02 -0.12621016136E+02  0.36484969827E+02  0.00000000000E+00 0. -1.
</event>
<event>
 7    1  0.1465498E-013  0.7246164E+02  0.7816164E-02  0.1226708E+00
        -11   -1    0    0    0    0  0.00000000000E+00  0.00000000000E+00  0.45593999997E+02  0.45594000000E+02  0.51100000000E-03 0. -1.
         11   -1    0    0    0    0 -0.00000000000E+00 -0.00000000000E+00 -0.45593999997E+02  0.45594000000E+02  0.51100000000E-03 0.  1.
    9900012    2    1    2    0    0 -0.30069551549E+01  0.13776446352E+02 -0.12322510649E+02  0.72461640982E+02  0.70000092083E+02 0.  0.
         12    1    1    2    0    0  0.30069551549E+01 -0.13776446352E+02  0.12322510649E+02  0.18726359018E+02  0.00000000000E+00 0. -1.
         11    1    3    3    0    0  0.86565911796E+01  0.88602228610E+01 -0.26639917120E+02  0.29378994272E+02  0.51100000000E-03 0. -1.
        -11    1    3    3    0    0 -0.41905247754E+01  0.23481775717E+01 -0.13413601624E+02  0.14247776830E+02  0.51100000000E-03 0.  1.
         12    1    3    3    0    0 -0.74730215591E+01  0.25680459190E+01  0.27731008095E+02  0.28834869880E+02  0.00000000000E+00 0. -1.
</event>
<event>
 7    1  0.1465498E-013  0.7246154E+02  0.7816164E-02  0.1226708E+00
        -11   -1    0    0    0    0  0.00000000000E+00  0.00000000000E+00  0.45593999997E+02  0.45594000000E+02  0.51100000000E-03 0.  1.
         11   -1    0    0    0    0 -0.00000000000E+00 -0.00000000000E+00 -0.45593999997E+02  0.45594000000E+02  0.51100000000E-03 0. -1.
    9900012    2    1    2    0    0  0.12465635608E+02  0.98812285372E+01  0.98817805178E+01  0.72461539183E+02  0.69999959472E+02 0.  0.
         12    1    1    2    0    0 -0.12465635608E+02 -0.98812285372E+01 -0.98817805178E+01  0.18726460817E+02  0.00000000000E+00 0. -1.
         11    1    3    3    0    0 -0.53781453193E+01  0.73936888898E+01 -0.24462288309E+02  0.26115026940E+02  0.51100000000E-03 0. -1.
        -11    1    3    3    0    0  0.77887153181E+01  0.86598113000E+01  0.18709463037E+01  0.11796476524E+02  0.51100000000E-03 0.  1.
         12    1    3    3    0    0  0.10055065609E+02 -0.61722716526E+01  0.32473122524E+02  0.34550035719E+02  0.00000000000E+00 0. -1.
</event>
<event>
 7    1  0.1465498E-013  0.7246156E+02  0.7816164E-02  0.1226708E+00
        -11   -1    0    0    0    0  0.00000000000E+00  0.00000000000E+00  0.45593999997E+02  0.45594000000E+02  0.51100000000E-03 0.  1.
         11   -1    0    0    0    0 -0.00000000000E+00 -0.00000000000E+00 -0.45593999997E+02  0.45594000000E+02  0.51100000000E-03 0. -1.
    9900012    2    1    2    0    0  0.15629635163E+02 -0.88777633942E+01 -0.52515976703E+01  0.72461562637E+02  0.69999990025E+02 0.  0.
         12    1    1    2    0    0 -0.15629635163E+02  0.88777633942E+01  0.52515976703E+01  0.18726437363E+02  0.00000000000E+00 0. -1.
         11    1    3    3    0    0 -0.22056701535E+01 -0.73570767160E+01 -0.30551521722E+02  0.31502175138E+02  0.51100000000E-03 0. -1.
        -11    1    3    3    0    0  0.12227654266E+02  0.13688998422E+01 -0.24122428501E+01  0.12538274661E+02  0.51100000000E-03 0.  1.
        -12    1    3    3    0    0  0.56076510502E+01 -0.28895865204E+01  0.27712166902E+02  0.28421112838E+02  0.00000000000E+00 0.  1.
</event>
<event>
 7    1  0.1465498E-013  0.7246155E+02  0.7816164E-02  0.1226708E+00
        -11   -1    0    0    0    0  0.00000000000E+00  0.00000000000E+00  0.45593999997E+02  0.45594000000E+02  0.51100000000E-03 0. -1.
         11   -1    0    0    0    0 -0.00000000000E+00 -0.00000000000E+00 -0.45593999997E+02  0.45594000000E+02  0.51100000000E-03 0.  1.
    9900012    2    1    2    0    0  0.18181318844E+02 -0.31988089420E+01 -0.31443671891E+01  0.72461554032E+02  0.69999978816E+02 0.  0.
         12    1    1    2    0    0 -0.18181318844E+02  0.31988089420E+01  0.31443671891E+01  0.18726445968E+02  0.00000000000E+00 0. -1.
         11    1    3    3    0    0 -0.11523802858E+01  0.34283840276E+01 -0.19534266436E+02  0.19866287091E+02  0.51100000000E-03 0.  1.
        -11    1    3    3    0    0 -0.20171800147E+01 -0.17608211765E+02  0.21687720745E+02  0.28008487431E+02  0.51100000000E-03 0. -1.
         12    1    3    3    0    0  0.21350879145E+02  0.10981018795E+02 -0.52978214988E+01  0.24586779510E+02  0.00000000000E+00 0. -1.
</event>
<event>
 7    1  0.1465498E-013  0.7246154E+02  0.7816164E-02  0.1226708E+00
        -11   -1    0    0    0    0  0.00000000000E+00  0.00000000000E+00  0.45593999997E+02  0.45594000000E+02  0.51100000000E-03 0. -1.
         11   -1    0    0    0    0 -0.00000000000E+00 -0.00000000000E+00 -0.45593999997E+02  0.45594000000E+02  0.51100000000E-03 0.  1.
    9900012    2    1    2    0    0  0.67564515431E+01 -0.13886709370E+02 -0.10591981764E+02  0.72461537113E+02  0.69999956775E+02 0.  0.
         12    1    1    2    0    0 -0.67564515431E+01  0.13886709370E+02  0.10591981764E+02  0.18726462887E+02  0.00000000000E+00 0. -1.
         11    1    3    3    0    0 -0.15330424371E+01  0.65251526465E+01 -0.11296681462E+01  0.67973514368E+01  0.51100000000E-03 0. -1.
        -11    1    3    3    0    0 -0.86184381911E+00  0.69958327722E+01 -0.29610615792E+02  0.30438019298E+02  0.51100000000E-03 0.  1.
         12    1    3    3    0    0  0.91513377993E+01 -0.27407694789E+02  0.20148302174E+02  0.35226166378E+02  0.00000000000E+00 0. -1.
</event>
<event>
 7    1  0.1532827E-013  0.7246152E+02  0.7816164E-02  0.1226708E+00
        -11   -1    0    0    0    0  0.00000000000E+00  0.00000000000E+00  0.45593999997E+02  0.45594000000E+02  0.51100000000E-03 0. -1.
         11   -1    0    0    0    0 -0.00000000000E+00 -0.00000000000E+00 -0.45593999997E+02  0.45594000000E+02  0.51100000000E-03 0.  1.
    9900012    2    1    2    0    0 -0.92916324635E+01 -0.13585559937E+02 -0.89319197001E+01  0.72461519760E+02  0.69999934170E+02 0.  0.
         12    1    1    2    0    0  0.92916324635E+01  0.13585559937E+02  0.89319197001E+01  0.18726480240E+02  0.00000000000E+00 0. -1.
         11    1    3    3    0    0 -0.33831759923E+02 -0.95545898153E+01  0.65520079817E+01  0.35760410720E+02  0.51100000000E-03 0. -1.
        -11    1    3    3    0    0 -0.26785418168E+01  0.38311978192E+01 -0.39192803394E+01  0.61002804553E+01  0.51100000000E-03 0.  1.
        -12    1    3    3    0    0  0.27218669276E+02 -0.78621679411E+01 -0.11564647342E+02  0.30600828585E+02  0.00000000000E+00 0.  1.
</event>
<event>
 7    1  0.1465498E-013  0.7246155E+02  0.7816164E-02  0.1226708E+00
        -11   -1    0    0    0    0  0.00000000000E+00  0.00000000000E+00  0.45593999997E+02  0.45594000000E+02  0.51100000000E-03 0.  1.
         11   -1    0    0    0    0 -0.00000000000E+00 -0.00000000000E+00 -0.45593999997E+02  0.45594000000E+02  0.51100000000E-03 0. -1.
    9900012    2    1    2    0    0 -0.33174457851E+00 -0.10821813231E+02  0.15279340561E+02  0.72461549614E+02  0.69999973060E+02 0.  0.
         12    1    1    2    0    0  0.33174457851E+00  0.10821813231E+02 -0.15279340561E+02  0.18726450386E+02  0.00000000000E+00 0. -1.
         11    1    3    3    0    0  0.11675371119E+02  0.43055660760E+00 -0.13788495062E+02  0.18072693936E+02  0.51100000000E-03 0. -1.
        -11    1    3    3    0    0 -0.56098102262E+01 -0.14136265518E+02 -0.76375578812E+01  0.17018703365E+02  0.51100000000E-03 0.  1.
        -12    1    3    3    0    0 -0.63973054714E+01  0.28838956792E+01  0.36705393504E+02  0.37370152313E+02  0.00000000000E+00 0.  1.
</event>
<event>
 7    1  0.1465498E-013  0.7246149E+02  0.7816164E-02  0.1226708E+00
        -11   -1    0    0    0    0  0.00000000000E+00  0.00000000000E+00  0.45593999997E+02  0.45594000000E+02  0.51100000000E-03 0.  1.
         11   -1    0    0    0    0 -0.00000000000E+00 -0.00000000000E+00 -0.45593999997E+02  0.45594000000E+02  0.51100000000E-03 0. -1.
    9900012    2    1    2    0    0 -0.80301074750E-01  0.48939190793E+01  0.18075543369E+02  0.72461490440E+02  0.69999895975E+02 0.  0.
         12    1    1    2    0    0  0.80301074750E-01 -0.48939190793E+01 -0.18075543369E+02  0.18726509560E+02  0.00000000000E+00 0. -1.
         11    1    3    3    0    0 -0.12532718786E+02  0.91411338404E+01 -0.15352909677E+02  0.21825242355E+02  0.51100000000E-03 0. -1.
        -11    1    3    3    0    0 -0.93120821783E+00  0.14028706331E+02  0.19514882035E+02  0.24052076234E+02  0.51100000000E-03 0.  1.
        -12    1    3    3    0    0  0.13383625929E+02 -0.18275921092E+02  0.13913571011E+02  0.26584171852E+02  0.00000000000E+00 0.  1.
</event>
<event>
 7    1  0.1465498E-013  0.7246161E+02  0.7816164E-02  0.1226708E+00
        -11   -1    0    0    0    0  0.00000000000E+00  0.00000000000E+00  0.45593999997E+02  0.45594000000E+02  0.51100000000E-03 0.  1.
         11   -1    0    0    0    0 -0.00000000000E+00 -0.00000000000E+00 -0.45593999997E+02  0.45594000000E+02  0.51100000000E-03 0. -1.
    9900012    2    1    2    0    0 -0.99926472358E+01 -0.67509550901E+01 -0.14326520930E+02  0.72461612325E+02  0.70000054753E+02 0.  0.
         12    1    1    2    0    0  0.99926472358E+01  0.67509550901E+01  0.14326520930E+02  0.18726387675E+02  0.00000000000E+00 0. -1.
         11    1    3    3    0    0 -0.34584772856E+01 -0.46743985659E+01  0.58753383173E+01  0.82662366100E+01  0.51100000000E-03 0. -1.
        -11    1    3    3    0    0  0.14886775650E+02  0.42942525903E+01  0.15602674937E+02  0.21988637066E+02  0.51100000000E-03 0.  1.
         12    1    3    3    0    0 -0.21420945601E+02 -0.63708091144E+01 -0.35804534184E+02  0.42206738649E+02  0.00000000000E+00 0. -1.
</event>
<event>
 7    1  0.1465498E-013  0.7246158E+02  0.7816164E-02  0.1226708E+00
        -11   -1    0    0    0    0  0.00000000000E+00  0.00000000000E+00  0.45593999997E+02  0.45594000000E+02  0.51100000000E-03 0. -1.
         11   -1    0    0    0    0 -0.00000000000E+00 -0.00000000000E+00 -0.45593999997E+02  0.45594000000E+02  0.51100000000E-03 0.  1.
    9900012    2    1    2    0    0 -0.11582783029E+02  0.14146587843E+02 -0.40487231513E+01  0.72461575636E+02  0.70000006959E+02 0.  0.
         12    1    1    2    0    0  0.11582783029E+02 -0.14146587843E+02  0.40487231513E+01  0.18726424364E+02  0.00000000000E+00 0. -1.
         11    1    3    3    0    0  0.97937780433E+01 -0.66063366460E+01 -0.89909285297E+01  0.14845826630E+02  0.51100000000E-03 0. -1.
        -11    1    3    3    0    0 -0.42273970679E+01 -0.42781120995E+01  0.22000126860E+02  0.22807426668E+02  0.51100000000E-03 0.  1.
        -12    1    3    3    0    0 -0.17149164004E+02  0.25031036589E+02 -0.17057921481E+02  0.34808322338E+02  0.00000000000E+00 0.  1.
</event>
<event>
 7    1  0.1465498E-013  0.7246153E+02  0.7816164E-02  0.1226708E+00
        -11   -1    0    0    0    0  0.00000000000E+00  0.00000000000E+00  0.45593999997E+02  0.45594000000E+02  0.51100000000E-03 0.  1.
         11   -1    0    0    0    0 -0.00000000000E+00 -0.00000000000E+00 -0.45593999997E+02  0.45594000000E+02  0.51100000000E-03 0. -1.
    9900012    2    1    2    0    0  0.13491726090E+02  0.12409396349E+02  0.38289561535E+01  0.72461529541E+02  0.69999946911E+02 0.  0.
         12    1    1    2    0    0 -0.13491726090E+02 -0.12409396349E+02 -0.38289561535E+01  0.18726470459E+02  0.00000000000E+00 0. -1.
         11    1    3    3    0    0  0.10575014830E+02  0.13619131907E+02 -0.16295764391E+02  0.23724747203E+02  0.51100000000E-03 0. -1.
        -11    1    3    3    0    0 -0.86176336346E+01  0.58840267096E+01 -0.10775423091E+02  0.14999837427E+02  0.51100000000E-03 0.  1.
        -12    1    3    3    0    0  0.11534344895E+02 -0.70937622673E+01  0.30900143635E+02  0.33736944911E+02  0.00000000000E+00 0.  1.
</event>
<event>
 7    1  0.1465498E-013  0.7246165E+02  0.7816164E-02  0.1226708E+00
        -11   -1    0    0    0    0  0.00000000000E+00  0.00000000000E+00  0.45593999997E+02  0.45594000000E+02  0.51100000000E-03 0.  1.
         11   -1    0    0    0    0 -0.00000000000E+00 -0.00000000000E+00 -0.45593999997E+02  0.45594000000E+02  0.51100000000E-03 0. -1.
    9900012    2    1    2    0    0 -0.19249054249E+01  0.45601817086E+01  0.18060333590E+02  0.72461650449E+02  0.70000104416E+02 0.  0.
         12    1    1    2    0    0  0.19249054249E+01 -0.45601817086E+01 -0.18060333590E+02  0.18726349551E+02  0.00000000000E+00 0. -1.
         11    1    3    3    0    0 -0.16447900110E+01 -0.22513852400E+02  0.12309718812E+02  0.25712021732E+02  0.51100000000E-03 0. -1.
        -11    1    3    3    0    0 -0.13724605352E+02  0.14202380540E+02 -0.10207773815E+02  0.22232207528E+02  0.51100000000E-03 0.  1.
        -12    1    3    3    0    0  0.13444489938E+02  0.12871653568E+02  0.15958388593E+02  0.24517421189E+02  0.00000000000E+00 0.  1.
</event>
<event>
 7    1  0.1465498E-013  0.7246155E+02  0.7816164E-02  0.1226708E+00
        -11   -1    0    0    0    0  0.00000000000E+00  0.00000000000E+00  0.45593999997E+02  0.45594000000E+02  0.51100000000E-03 0.  1.
         11   -1    0    0    0    0 -0.00000000000E+00 -0.00000000000E+00 -0.45593999997E+02  0.45594000000E+02  0.51100000000E-03 0. -1.
    9900012    2    1    2    0    0 -0.22241830677E+01 -0.42404089138E+01  0.18103916524E+02  0.72461552083E+02  0.69999976277E+02 0.  0.
         12    1    1    2    0    0  0.22241830677E+01  0.42404089138E+01 -0.18103916524E+02  0.18726447917E+02  0.00000000000E+00 0. -1.
         11    1    3    3    0    0 -0.31060235952E+01 -0.28238014662E+01  0.21237764977E+01  0.47044302703E+01  0.51100000000E-03 0. -1.
        -11    1    3    3    0    0  0.87204860442E+00  0.86965277250E+01  0.40395461414E+02  0.41330175010E+02  0.51100000000E-03 0.  1.
         12    1    3    3    0    0  0.97919230814E-02 -0.10113135172E+02 -0.24415321387E+02  0.26426946803E+02  0.00000000000E+00 0. -1.
</event>
<event>
 7    1  0.1465498E-013  0.7246156E+02  0.7816164E-02  0.1226708E+00
        -11   -1    0    0    0    0  0.00000000000E+00  0.00000000000E+00  0.45593999997E+02  0.45594000000E+02  0.51100000000E-03 0.  1.
         11   -1    0    0    0    0 -0.00000000000E+00 -0.00000000000E+00 -0.45593999997E+02  0.45594000000E+02  0.51100000000E-03 0. -1.
    9900012    2    1    2    0    0 -0.39155732764E+01 -0.14856841113E+02  0.10706171702E+02  0.72461560016E+02  0.69999986611E+02 0.  0.
         12    1    1    2    0    0  0.39155732764E+01  0.14856841113E+02 -0.10706171702E+02  0.18726439984E+02  0.00000000000E+00 0. -1.
         11    1    3    3    0    0 -0.10809383055E+02 -0.82483745036E+01  0.18086190829E+02  0.22627168249E+02  0.51100000000E-03 0. -1.
        -11    1    3    3    0    0 -0.18197116821E+02  0.82458021050E+01 -0.49034652517E+01  0.20571151759E+02  0.51100000000E-03 0.  1.
         12    1    3    3    0    0  0.25090926600E+02 -0.14854268715E+02 -0.24765538757E+01  0.29263240008E+02  0.00000000000E+00 0. -1.
</event>
<event>
 7    1  0.1465498E-013  0.7246159E+02  0.7816164E-02  0.1226708E+00
        -11   -1    0    0    0    0  0.00000000000E+00  0.00000000000E+00  0.45593999997E+02  0.45594000000E+02  0.51100000000E-03 0.  1.
         11   -1    0    0    0    0 -0.00000000000E+00 -0.00000000000E+00 -0.45593999997E+02  0.45594000000E+02  0.51100000000E-03 0. -1.
    9900012    2    1    2    0    0 -0.15777700039E+01 -0.12935122103E+02  0.13448859250E+02  0.72461586645E+02  0.70000021300E+02 0.  0.
         12    1    1    2    0    0  0.15777700039E+01  0.12935122103E+02 -0.13448859250E+02  0.18726413355E+02  0.00000000000E+00 0. -1.
         11    1    3    3    0    0 -0.50436907506E+01  0.88299655574E+01  0.80969405258E+01  0.12998752027E+02  0.51100000000E-03 0. -1.
        -11    1    3    3    0    0  0.58923661557E+01 -0.20487745447E+02  0.28812966784E+02  0.35842080682E+02  0.51100000000E-03 0.  1.
         12    1    3    3    0    0 -0.24264454090E+01 -0.12773422131E+01 -0.23461048060E+02  0.23620753936E+02  0.00000000000E+00 0. -1.
</event>
<event>
 7    1  0.1465498E-013  0.7246151E+02  0.7816164E-02  0.1226708E+00
        -11   -1    0    0    0    0  0.00000000000E+00  0.00000000000E+00  0.45593999997E+02  0.45594000000E+02  0.51100000000E-03 0. -1.
         11   -1    0    0    0    0 -0.00000000000E+00 -0.00000000000E+00 -0.45593999997E+02  0.45594000000E+02  0.51100000000E-03 0.  1.
    9900012    2    1    2    0    0 -0.15972702379E+02  0.70621908600E+01 -0.67586628773E+01  0.72461513813E+02  0.69999926422E+02 0.  0.
         12    1    1    2    0    0  0.15972702379E+02 -0.70621908600E+01  0.67586628773E+01  0.18726486187E+02  0.00000000000E+00 0. -1.
         11    1    3    3    0    0 -0.47407873234E+01 -0.73187385242E+01  0.67363245684E+01  0.11018941282E+02  0.51100000000E-03 0. -1.
        -11    1    3    3    0    0 -0.11208271864E+02  0.24615766171E+02  0.15165852051E+02  0.31009101422E+02  0.51100000000E-03 0.  1.
         12    1    3    3    0    0 -0.23643191237E-01 -0.10234836786E+02 -0.28660839496E+02  0.30433471108E+02  0.00000000000E+00 0. -1.
</event>
<event>
 7    1  0.1465498E-013  0.7246157E+02  0.7816164E-02  0.1226708E+00
        -11   -1    0    0    0    0  0.00000000000E+00  0.00000000000E+00  0.45593999997E+02  0.45594000000E+02  0.51100000000E-03 0.  1.
         11   -1    0    0    0    0 -0.00000000000E+00 -0.00000000000E+00 -0.45593999997E+02  0.45594000000E+02  0.51100000000E-03 0. -1.
    9900012    2    1    2    0    0  0.71593690453E+01 -0.15993978716E+02  0.66041866258E+01  0.72461569446E+02  0.69999998896E+02 0.  0.
         12    1    1    2    0    0 -0.71593690453E+01  0.15993978716E+02 -0.66041866258E+01  0.18726430554E+02  0.00000000000E+00 0. -1.
         11    1    3    3    0    0 -0.94288549946E+01  0.41962230317E+00 -0.66893097292E+01  0.11568329797E+02  0.51100000000E-03 0. -1.
        -11    1    3    3    0    0 -0.18549752495E+02 -0.11323595885E+02  0.13123983836E+02  0.25388109291E+02  0.51100000000E-03 0.  1.
         12    1    3    3    0    0  0.35137976535E+02 -0.50900051344E+01  0.16951251863E+00  0.35505130358E+02  0.00000000000E+00 0. -1.
</event>
<event>
 7    1  0.1465498E-013  0.7246157E+02  0.7816164E-02  0.1226708E+00
        -11   -1    0    0    0    0  0.00000000000E+00  0.00000000000E+00  0.45593999997E+02  0.45594000000E+02  0.51100000000E-03 0. -1.
         11   -1    0    0    0    0 -0.00000000000E+00 -0.00000000000E+00 -0.45593999997E+02  0.45594000000E+02  0.51100000000E-03 0.  1.
    9900012    2    1    2    0    0  0.14726751756E+02 -0.11238361815E+02 -0.27388612609E+01  0.72461565353E+02  0.69999993563E+02 0.  0.
         12    1    1    2    0    0 -0.14726751756E+02  0.11238361815E+02  0.27388612609E+01  0.18726434647E+02  0.00000000000E+00 0. -1.
         11    1    3    3    0    0  0.17433804758E+02 -0.22463074095E+02  0.13954768324E+02  0.31674324071E+02  0.51100000000E-03 0. -1.
        -11    1    3    3    0    0  0.65203728427E+01  0.52920901954E+01  0.93259409729E+01  0.12549687484E+02  0.51100000000E-03 0.  1.
        -12    1    3    3    0    0 -0.92274258442E+01  0.59326220839E+01 -0.26019570558E+02  0.28237553799E+02  0.00000000000E+00 0.  1.
</event>
<event>
 7    1  0.1465498E-013  0.7246157E+02  0.7816164E-02  0.1226708E+00
        -11   -1    0    0    0    0  0.00000000000E+00  0.00000000000E+00  0.45593999997E+02  0.45594000000E+02  0.51100000000E-03 0.  1.
         11   -1    0    0    0    0 -0.00000000000E+00 -0.00000000000E+00 -0.45593999997E+02  0.45594000000E+02  0.51100000000E-03 0. -1.
    9900012    2    1    2    0    0 -0.64093207820E+01 -0.13031033818E+02 -0.11823358167E+02  0.72461573924E+02  0.70000004728E+02 0.  0.
         12    1    1    2    0    0  0.64093207820E+01  0.13031033818E+02  0.11823358167E+02  0.18726426076E+02  0.00000000000E+00 0. -1.
         11    1    3    3    0    0 -0.62777472277E+00 -0.22100030795E+02 -0.25936489298E+02  0.34080888187E+02  0.51100000000E-03 0. -1.
        -11    1    3    3    0    0 -0.19486396944E+02  0.16016438629E+01  0.45429022147E+01  0.20072939239E+02  0.51100000000E-03 0.  1.
        -12    1    3    3    0    0  0.13704850885E+02  0.74673531143E+01  0.95702289161E+01  0.18307746497E+02  0.00000000000E+00 0.  1.
</event>
<event>
 7    1  0.1465498E-013  0.7246156E+02  0.7816164E-02  0.1226708E+00
        -11   -1    0    0    0    0  0.00000000000E+00  0.00000000000E+00  0.45593999997E+02  0.45594000000E+02  0.51100000000E-03 0.  1.
         11   -1    0    0    0    0 -0.00000000000E+00 -0.00000000000E+00 -0.45593999997E+02  0.45594000000E+02  0.51100000000E-03 0. -1.
    9900012    2    1    2    0    0 -0.11931681223E+02  0.13038072201E+02 -0.61905687967E+01  0.72461561856E+02  0.69999989008E+02 0.  0.
         12    1    1    2    0    0  0.11931681223E+02 -0.13038072201E+02  0.61905687967E+01  0.18726438144E+02  0.00000000000E+00 0. -1.
         11    1    3    3    0    0  0.22732072235E+01  0.24240621272E+02 -0.18720644918E+02  0.30712175715E+02  0.51100000000E-03 0. -1.
        -11    1    3    3    0    0 -0.47039220499E+01  0.12847591400E+02  0.19925888699E+01  0.13825986334E+02  0.51100000000E-03 0.  1.
        -12    1    3    3    0    0 -0.95009663967E+01 -0.24050140472E+02  0.10537487252E+02  0.27923399807E+02  0.00000000000E+00 0.  1.
</event>
<event>
 7    1  0.1465498E-013  0.7246161E+02  0.7816164E-02  0.1226708E+00
        -11   -1    0    0    0    0  0.00000000000E+00  0.00000000000E+00  0.45593999997E+02  0.45594000000E+02  0.51100000000E-03 0. -1.
         11   -1    0    0    0    0 -0.00000000000E+00 -0.00000000000E+00 -0.45593999997E+02  0.45594000000E+02  0.51100000000E-03 0.  1.
    9900012    2    1    2    0    0  0.22695101784E+01 -0.13772248256E+02  0.12484077651E+02  0.72461609710E+02  0.70000051347E+02 0.  0.
         12    1    1    2    0    0 -0.22695101784E+01  0.13772248256E+02 -0.12484077651E+02  0.18726390290E+02  0.00000000000E+00 0. -1.
         11    1    3    3    0    0 -0.19684830076E+02  0.11183781760E+02  0.33098942012E+01  0.22880666718E+02  0.51100000000E-03 0. -1.
        -11    1    3    3    0    0 -0.67253053766E+01  0.70817619122E+00 -0.51661808708E+01  0.85100335474E+01  0.51100000000E-03 0.  1.
         12    1    3    3    0    0  0.28679645631E+02 -0.25664206208E+02  0.14340364321E+02  0.41070909445E+02  0.00000000000E+00 0. -1.
</event>
<event>
 7    1  0.1465498E-013  0.7246158E+02  0.7816164E-02  0.1226708E+00
        -11   -1    0    0    0    0  0.00000000000E+00  0.00000000000E+00  0.45593999997E+02  0.45594000000E+02  0.51100000000E-03 0.  1.
         11   -1    0    0    0    0 -0.00000000000E+00 -0.00000000000E+00 -0.45593999997E+02  0.45594000000E+02  0.51100000000E-03 0. -1.
    9900012    2    1    2    0    0 -0.17551288319E+02  0.39088875922E+01  0.52298987980E+01  0.72461575747E+02  0.70000007103E+02 0.  0.
         12    1    1    2    0    0  0.17551288319E+02 -0.39088875922E+01 -0.52298987980E+01  0.18726424253E+02  0.00000000000E+00 0. -1.
         11    1    3    3    0    0  0.27154329238E+00  0.62767493149E+01 -0.23494050549E+01  0.67075347256E+01  0.51100000000E-03 0. -1.
        -11    1    3    3    0    0  0.14539870573E+02  0.10670568356E+02  0.21610863784E+02  0.28147793858E+02  0.51100000000E-03 0.  1.
         12    1    3    3    0    0 -0.32362702184E+02 -0.13038430079E+02 -0.14031559931E+02  0.37606247163E+02  0.00000000000E+00 0. -1.
</event>
<event>
 7    1  0.1465498E-013  0.7246166E+02  0.7816164E-02  0.1226708E+00
        -11   -1    0    0    0    0  0.00000000000E+00  0.00000000000E+00  0.45593999997E+02  0.45594000000E+02  0.51100000000E-03 0.  1.
         11   -1    0    0    0    0 -0.00000000000E+00 -0.00000000000E+00 -0.45593999997E+02  0.45594000000E+02  0.51100000000E-03 0. -1.
    9900012    2    1    2    0    0 -0.14671763689E+02  0.77491756877E+01  0.86813266709E+01  0.72461660092E+02  0.70000116978E+02 0.  0.
         12    1    1    2    0    0  0.14671763689E+02 -0.77491756877E+01 -0.86813266709E+01  0.18726339908E+02  0.00000000000E+00 0. -1.
         11    1    3    3    0    0  0.14035031039E+02 -0.10285787155E+01 -0.18996166508E+02  0.23640947796E+02  0.51100000000E-03 0. -1.
        -11    1    3    3    0    0  0.43269999684E+01  0.55333685507E+01  0.48719068551E+01  0.85484836614E+01  0.51100000000E-03 0.  1.
        -12    1    3    3    0    0 -0.33033794697E+02  0.32443858525E+01  0.22805586324E+02  0.40272228634E+02  0.00000000000E+00 0.  1.
</event>
<event>
 7    1  0.1465498E-013  0.7246155E+02  0.7816164E-02  0.1226708E+00
        -11   -1    0    0    0    0  0.00000000000E+00  0.00000000000E+00  0.45593999997E+02  0.45594000000E+02  0.51100000000E-03 0.  1.
         11   -1    0    0    0    0 -0.00000000000E+00 -0.00000000000E+00 -0.45593999997E+02  0.45594000000E+02  0.51100000000E-03 0. -1.
    9900012    2    1    2    0    0  0.39534858146E+01 -0.94700039451E+01  0.15664253423E+02  0.72461551855E+02  0.69999975980E+02 0.  0.
         12    1    1    2    0    0 -0.39534858146E+01  0.94700039451E+01 -0.15664253423E+02  0.18726448145E+02  0.00000000000E+00 0. -1.
         11    1    3    3    0    0 -0.15236968285E+02 -0.21208137187E+02  0.16295064886E+02  0.30781153737E+02  0.51100000000E-03 0. -1.
        -11    1    3    3    0    0 -0.67133863285E+01 -0.48722790181E+01  0.59553281542E+01  0.10211493158E+02  0.51100000000E-03 0.  1.
        -12    1    3    3    0    0  0.25903840428E+02  0.16610412260E+02 -0.65861396168E+01  0.31468904961E+02  0.00000000000E+00 0.  1.
</event>
<event>
 7    1  0.1465498E-013  0.7246156E+02  0.7816164E-02  0.1226708E+00
        -11   -1    0    0    0    0  0.00000000000E+00  0.00000000000E+00  0.45593999997E+02  0.45594000000E+02  0.51100000000E-03 0.  1.
         11   -1    0    0    0    0 -0.00000000000E+00 -0.00000000000E+00 -0.45593999997E+02  0.45594000000E+02  0.51100000000E-03 0. -1.
    9900012    2    1    2    0    0 -0.23293550658E+01 -0.40159070268E+01  0.18141834961E+02  0.72461559334E+02  0.69999985722E+02 0.  0.
         12    1    1    2    0    0  0.23293550658E+01  0.40159070268E+01 -0.18141834961E+02  0.18726440666E+02  0.00000000000E+00 0. -1.
         11    1    3    3    0    0  0.57230203003E+01 -0.10927324526E+02 -0.90103790689E+01  0.15275677199E+02  0.51100000000E-03 0. -1.
        -11    1    3    3    0    0 -0.26905249950E+02  0.40268898616E+01  0.45012875386E+01  0.27574805649E+02  0.51100000000E-03 0.  1.
        -12    1    3    3    0    0  0.18852874584E+02  0.28845276379E+01  0.22650926491E+02  0.29611076486E+02  0.00000000000E+00 0.  1.
</event>
<event>
 7    1  0.1465498E-013  0.7246154E+02  0.7816164E-02  0.1226708E+00
        -11   -1    0    0    0    0  0.00000000000E+00  0.00000000000E+00  0.45593999997E+02  0.45594000000E+02  0.51100000000E-03 0.  1.
         11   -1    0    0    0    0 -0.00000000000E+00 -0.00000000000E+00 -0.45593999997E+02  0.45594000000E+02  0.51100000000E-03 0. -1.
    9900012    2    1    2    0    0  0.16475301054E+02 -0.75091200399E+00  0.88702219969E+01  0.72461541393E+02  0.69999962351E+02 0.  0.
         12    1    1    2    0    0 -0.16475301054E+02  0.75091200399E+00 -0.88702219969E+01  0.18726458607E+02  0.00000000000E+00 0. -1.
         11    1    3    3    0    0 -0.11498809232E+02  0.18767034358E+02 -0.70024407155E+01  0.23096717702E+02  0.51100000000E-03 0. -1.
        -11    1    3    3    0    0 -0.34390083278E+01  0.41016326164E+01  0.74445198192E+01  0.91690263386E+01  0.51100000000E-03 0.  1.
        -12    1    3    3    0    0  0.31413118614E+02 -0.23619578979E+02  0.84281428931E+01  0.40195797353E+02  0.00000000000E+00 0.  1.
</event>
<event>
 7    1  0.1465498E-013  0.7246157E+02  0.7816164E-02  0.1226708E+00
        -11   -1    0    0    0    0  0.00000000000E+00  0.00000000000E+00  0.45593999997E+02  0.45594000000E+02  0.51100000000E-03 0. -1.
         11   -1    0    0    0    0 -0.00000000000E+00 -0.00000000000E+00 -0.45593999997E+02  0.45594000000E+02  0.51100000000E-03 0.  1.
    9900012    2    1    2    0    0  0.10835573823E+02 -0.64660386991E+01 -0.13836907586E+02  0.72461566061E+02  0.69999994485E+02 0.  0.
         12    1    1    2    0    0 -0.10835573823E+02  0.64660386991E+01  0.13836907586E+02  0.18726433939E+02  0.00000000000E+00 0. -1.
         11    1    3    3    0    0 -0.18260726595E+01  0.61550619120E+01  0.53636510185E+01  0.83658879390E+01  0.51100000000E-03 0. -1.
        -11    1    3    3    0    0 -0.23577115090E+02 -0.54194164263E+01 -0.82407489745E+01  0.25557002451E+02  0.51100000000E-03 0.  1.
         12    1    3    3    0    0  0.36238761572E+02 -0.72016841848E+01 -0.10959809630E+02  0.38538675671E+02  0.00000000000E+00 0. -1.
</event>
<event>
 7    1  0.1465498E-013  0.7246159E+02  0.7816164E-02  0.1226708E+00
        -11   -1    0    0    0    0  0.00000000000E+00  0.00000000000E+00  0.45593999997E+02  0.45594000000E+02  0.51100000000E-03 0. -1.
         11   -1    0    0    0    0 -0.00000000000E+00 -0.00000000000E+00 -0.45593999997E+02  0.45594000000E+02  0.51100000000E-03 0.  1.
    9900012    2    1    2    0    0  0.10239011595E+02  0.15449915996E+02 -0.26723048974E+01  0.72461588806E+02  0.70000024115E+02 0.  0.
         12    1    1    2    0    0 -0.10239011595E+02 -0.15449915996E+02  0.26723048974E+01  0.18726411194E+02  0.00000000000E+00 0. -1.
         11    1    3    3    0    0 -0.18715573472E+01 -0.77641488000E+01 -0.48798555542E+01  0.93593655759E+01  0.51100000000E-03 0. -1.
        -11    1    3    3    0    0 -0.19385782950E+01 -0.16521729352E+02 -0.97636803119E+01  0.19288729354E+02  0.51100000000E-03 0.  1.
         12    1    3    3    0    0  0.14049147237E+02  0.39735794149E+02  0.11971230969E+02  0.43813493876E+02  0.00000000000E+00 0. -1.
</event>
<event>
 7    1  0.1465498E-013  0.7246156E+02  0.7816164E-02  0.1226708E+00
        -11   -1    0    0    0    0  0.00000000000E+00  0.00000000000E+00  0.45593999997E+02  0.45594000000E+02  0.51100000000E-03 0. -1.
         11   -1    0    0    0    0 -0.00000000000E+00 -0.00000000000E+00 -0.45593999997E+02  0.45594000000E+02  0.51100000000E-03 0.  1.
    9900012    2    1    2    0    0 -0.12517539511E+02  0.11861159605E+02 -0.73009231366E+01  0.72461564642E+02  0.69999992636E+02 0.  0.
         12    1    1    2    0    0  0.12517539511E+02 -0.11861159605E+02  0.73009231366E+01  0.18726435358E+02  0.00000000000E+00 0. -1.
         11    1    3    3    0    0  0.10569884919E+02  0.29437601111E+02  0.43323112820E+01  0.31576316246E+02  0.51100000000E-03 0. -1.
        -11    1    3    3    0    0 -0.12286952510E+02 -0.77731773656E-01  0.61122926605E+01  0.13723533293E+02  0.51100000000E-03 0.  1.
        -12    1    3    3    0    0 -0.10800471920E+02 -0.17498709733E+02 -0.17745527079E+02  0.27161715103E+02  0.00000000000E+00 0.  1.
</event>
<event>
 7    1  0.1465498E-013  0.7246149E+02  0.7816164E-02  0.1226708E+00
        -11   -1    0    0    0    0  0.00000000000E+00  0.00000000000E+00  0.45593999997E+02  0.45594000000E+02  0.51100000000E-03 0. -1.
         11   -1    0    0    0    0 -0.00000000000E+00 -0.00000000000E+00 -0.45593999997E+02  0.45594000000E+02  0.51100000000E-03 0.  1.
    9900012    2    1    2    0    0  0.12194189608E+02 -0.14037067617E+02 -0.22236714288E+01  0.72461488256E+02  0.69999893129E+02 0.  0.
         12    1    1    2    0    0 -0.12194189608E+02  0.14037067617E+02  0.22236714288E+01  0.18726511744E+02  0.00000000000E+00 0. -1.
         11    1    3    3    0    0 -0.99474224280E+01 -0.52138156414E+01 -0.15472025071E+02  0.19118541957E+02  0.51100000000E-03 0. -1.
        -11    1    3    3    0    0 -0.10399145621E+02 -0.11731884593E+02 -0.43019895722E+01  0.16256889625E+02  0.51100000000E-03 0.  1.
         12    1    3    3    0    0  0.32540757657E+02  0.29086326179E+01  0.17550343214E+02  0.37086056673E+02  0.00000000000E+00 0. -1.
</event>
<event>
 7    1  0.1465498E-013  0.7246162E+02  0.7816164E-02  0.1226708E+00
        -11   -1    0    0    0    0  0.00000000000E+00  0.00000000000E+00  0.45593999997E+02  0.45594000000E+02  0.51100000000E-03 0.  1.
         11   -1    0    0    0    0 -0.00000000000E+00 -0.00000000000E+00 -0.45593999997E+02  0.45594000000E+02  0.51100000000E-03 0. -1.
    9900012    2    1    2    0    0 -0.40662542950E+01  0.92209048192E+01  0.15783460102E+02  0.72461624951E+02  0.70000071201E+02 0.  0.
         12    1    1    2    0    0  0.40662542950E+01 -0.92209048192E+01 -0.15783460102E+02  0.18726375049E+02  0.00000000000E+00 0. -1.
         11    1    3    3    0    0  0.11103218815E+02 -0.24388105672E+02 -0.42581746774E+01  0.27132880757E+02  0.51100000000E-03 0. -1.
        -11    1    3    3    0    0  0.16090104319E+01  0.13829844284E+02  0.11384572307E+02  0.17985049190E+02  0.51100000000E-03 0.  1.
        -12    1    3    3    0    0 -0.16778483542E+02  0.19779166208E+02  0.86570624721E+01  0.27343695004E+02  0.00000000000E+00 0.  1.
</event>
<event>
 7    1  0.1465498E-013  0.7246155E+02  0.7816164E-02  0.1226708E+00
        -11   -1    0    0    0    0  0.00000000000E+00  0.00000000000E+00  0.45593999997E+02  0.45594000000E+02  0.51100000000E-03 0. -1.
         11   -1    0    0    0    0 -0.00000000000E+00 -0.00000000000E+00 -0.45593999997E+02  0.45594000000E+02  0.51100000000E-03 0.  1.
    9900012    2    1    2    0    0  0.14241309891E+02 -0.11970624164E+02  0.21375417734E+01  0.72461552523E+02  0.69999976849E+02 0.  0.
         12    1    1    2    0    0 -0.14241309891E+02  0.11970624164E+02 -0.21375417734E+01  0.18726447477E+02  0.00000000000E+00 0. -1.
         11    1    3    3    0    0  0.54863274151E+01  0.23320091666E+02 -0.13122163554E+02  0.27315154044E+02  0.51100000000E-03 0. -1.
        -11    1    3    3    0    0 -0.15210107297E+01 -0.40823354912E+01 -0.49326224238E+01  0.65810106321E+01  0.51100000000E-03 0.  1.
         12    1    3    3    0    0  0.10275993206E+02 -0.31208380339E+02  0.20192327752E+02  0.38565387847E+02  0.00000000000E+00 0. -1.
</event>
<event>
 7    1  0.1465498E-013  0.7246190E+02  0.7816164E-02  0.1226707E+00
        -11   -1    0    0    0    0  0.00000000000E+00  0.00000000000E+00  0.45593999997E+02  0.45594000000E+02  0.51100000000E-03 0.  1.
         11   -1    0    0    0    0 -0.00000000000E+00 -0.00000000000E+00 -0.45593999997E+02  0.45594000000E+02  0.51100000000E-03 0. -1.
    9900012    2    1    2    0    0 -0.18270566318E+02  0.40868447083E+01 -0.38853149408E+00  0.72461899232E+02  0.70000428501E+02 0.  0.
         12    1    1    2    0    0  0.18270566318E+02 -0.40868447083E+01  0.38853149408E+00  0.18726100768E+02  0.00000000000E+00 0. -1.
         11    1    3    3    0    0 -0.27917795809E+02 -0.10475509692E+02  0.90146019731E+01  0.31151286894E+02  0.51100000000E-03 0. -1.
        -11    1    3    3    0    0 -0.25083480133E+01 -0.10729466421E+02 -0.72009171115E+01  0.13163072094E+02  0.51100000000E-03 0.  1.
        -12    1    3    3    0    0  0.12155577504E+02  0.25291820822E+02 -0.22022163557E+01  0.28147540244E+02  0.00000000000E+00 0.  1.
</event>
<event>
 7    1  0.1465498E-013  0.7246136E+02  0.7816164E-02  0.1226709E+00
        -11   -1    0    0    0    0  0.00000000000E+00  0.00000000000E+00  0.45593999997E+02  0.45594000000E+02  0.51100000000E-03 0.  1.
         11   -1    0    0    0    0 -0.00000000000E+00 -0.00000000000E+00 -0.45593999997E+02  0.45594000000E+02  0.51100000000E-03 0. -1.
    9900012    2    1    2    0    0 -0.55810505244E+01  0.14842467931E+02  0.99619345344E+01  0.72461358045E+02  0.69999723505E+02 0.  0.
         12    1    1    2    0    0  0.55810505244E+01 -0.14842467931E+02 -0.99619345344E+01  0.18726641955E+02  0.00000000000E+00 0. -1.
         11    1    3    3    0    0  0.20131932280E+02 -0.13334633570E+02 -0.22070231977E+01  0.24248259761E+02  0.51100000000E-03 0. -1.
        -11    1    3    3    0    0 -0.23044249517E+02  0.64886743718E+01  0.10953932934E+02  0.26327342780E+02  0.51100000000E-03 0.  1.
        -12    1    3    3    0    0 -0.26687332875E+01  0.21688427129E+02  0.12150247980E+01  0.21885755504E+02  0.00000000000E+00 0.  1.
</event>
<event>
 7    1  0.1465498E-013  0.7246157E+02  0.7816164E-02  0.1226708E+00
        -11   -1    0    0    0    0  0.00000000000E+00  0.00000000000E+00  0.45593999997E+02  0.45594000000E+02  0.51100000000E-03 0.  1.
         11   -1    0    0    0    0 -0.00000000000E+00 -0.00000000000E+00 -0.45593999997E+02  0.45594000000E+02  0.51100000000E-03 0. -1.
    9900012    2    1    2    0    0 -0.17624817559E+02 -0.14665221584E+01 -0.61558475178E+01  0.72461565745E+02  0.69999994074E+02 0.  0.
         12    1    1    2    0    0  0.17624817559E+02  0.14665221584E+01  0.61558475178E+01  0.18726434255E+02  0.00000000000E+00 0. -1.
         11    1    3    3    0    0 -0.44534278375E+00  0.28058458675E+02  0.15057714248E+01  0.28102362556E+02  0.51100000000E-03 0. -1.
        -11    1    3    3    0    0  0.34403341401E+01  0.33529469699E+01 -0.16952066809E+01  0.50942986103E+01  0.51100000000E-03 0.  1.
        -12    1    3    3    0    0 -0.20619808915E+02 -0.32877927803E+02 -0.59664122617E+01  0.39264904579E+02  0.00000000000E+00 0.  1.
</event>
<event>
 7    1  0.1465498E-013  0.7246152E+02  0.7816164E-02  0.1226708E+00
        -11   -1    0    0    0    0  0.00000000000E+00  0.00000000000E+00  0.45593999997E+02  0.45594000000E+02  0.51100000000E-03 0.  1.
         11   -1    0    0    0    0 -0.00000000000E+00 -0.00000000000E+00 -0.45593999997E+02  0.45594000000E+02  0.51100000000E-03 0. -1.
    9900012    2    1    2    0    0 -0.10449123859E+02  0.15494576160E+02  0.11894806342E+01  0.72461522916E+02  0.69999938280E+02 0.  0.
         12    1    1    2    0    0  0.10449123859E+02 -0.15494576160E+02 -0.11894806342E+01  0.18726477084E+02  0.00000000000E+00 0. -1.
         11    1    3    3    0    0 -0.26502202972E+01 -0.62916671892E-01 -0.11896911821E+02  0.12188688907E+02  0.51100000000E-03 0. -1.
        -11    1    3    3    0    0 -0.12337027005E+02  0.35121748758E+02  0.18772086469E+01  0.37272823661E+02  0.51100000000E-03 0.  1.
         12    1    3    3    0    0  0.45381234432E+01 -0.19564255926E+02  0.11209183809E+02  0.23000010347E+02  0.00000000000E+00 0. -1.
</event>
<event>
 7    1  0.1465498E-013  0.7246163E+02  0.7816164E-02  0.1226708E+00
        -11   -1    0    0    0    0  0.00000000000E+00  0.00000000000E+00  0.45593999997E+02  0.45594000000E+02  0.51100000000E-03 0.  1.
         11   -1    0    0    0    0 -0.00000000000E+00 -0.00000000000E+00 -0.45593999997E+02  0.45594000000E+02  0.51100000000E-03 0. -1.
    9900012    2    1    2    0    0 -0.11038793509E+02 -0.14672940838E+02 -0.36778990656E+01  0.72461625645E+02  0.70000072104E+02 0.  0.
         12    1    1    2    0    0  0.11038793509E+02  0.14672940838E+02  0.36778990656E+01  0.18726374355E+02  0.00000000000E+00 0. -1.
         11    1    3    3    0    0 -0.21797157036E+02 -0.18786544886E+02 -0.23237638048E+02  0.36986999689E+02  0.51100000000E-03 0. -1.
        -11    1    3    3    0    0  0.66495726549E+01 -0.19920331911E+01 -0.58142933485E+01  0.90548892943E+01  0.51100000000E-03 0.  1.
        -12    1    3    3    0    0  0.41087908730E+01  0.61056372397E+01  0.25374032331E+02  0.26419736662E+02  0.00000000000E+00 0.  1.
</event>
<event>
 7    1  0.1465498E-013  0.7246200E+02  0.7816164E-02  0.1226707E+00
        -11   -1    0    0    0    0  0.00000000000E+00  0.00000000000E+00  0.45593999997E+02  0.45594000000E+02  0.51100000000E-03 0.  1.
         11   -1    0    0    0    0 -0.00000000000E+00 -0.00000000000E+00 -0.45593999997E+02  0.45594000000E+02  0.51100000000E-03 0. -1.
    9900012    2    1    2    0    0  0.32789545794E+01 -0.14788508504E+02  0.11009614269E+02  0.72461998471E+02  0.70000557777E+02 0.  0.
         12    1    1    2    0    0 -0.32789545794E+01  0.14788508504E+02 -0.11009614269E+02  0.18726001529E+02  0.00000000000E+00 0. -1.
         11    1    3    3    0    0 -0.11664253116E+02 -0.16715822152E+02 -0.16635339776E+02  0.26309846839E+02  0.51100000000E-03 0. -1.
        -11    1    3    3    0    0  0.23603815097E+02  0.51454074710E+01  0.98252917296E+01  0.26079717464E+02  0.51100000000E-03 0.  1.
        -12    1    3    3    0    0 -0.86606074011E+01 -0.32180938236E+01  0.17819662315E+02  0.20072434168E+02  0.00000000000E+00 0.  1.
</event>
<event>
 7    1  0.1465498E-013  0.7246160E+02  0.7816164E-02  0.1226708E+00
        -11   -1    0    0    0    0  0.00000000000E+00  0.00000000000E+00  0.45593999997E+02  0.45594000000E+02  0.51100000000E-03 0. -1.
         11   -1    0    0    0    0 -0.00000000000E+00 -0.00000000000E+00 -0.45593999997E+02  0.45594000000E+02  0.51100000000E-03 0.  1.
    9900012    2    1    2    0    0 -0.15239851115E+02  0.10869916830E+02 -0.51961256612E+00  0.72461597486E+02  0.70000035422E+02 0.  0.
         12    1    1    2    0    0  0.15239851115E+02 -0.10869916830E+02  0.51961256612E+00  0.18726402514E+02  0.00000000000E+00 0. -1.
         11    1    3    3    0    0 -0.28457828917E+02 -0.23599015311E+01 -0.75768592206E+01  0.29543628040E+02  0.51100000000E-03 0. -1.
        -11    1    3    3    0    0 -0.10508395624E+02 -0.57174127912E+01  0.23527656632E+01  0.12192239094E+02  0.51100000000E-03 0.  1.
         12    1    3    3    0    0  0.23726373425E+02  0.18947231152E+02  0.47044809913E+01  0.30725730351E+02  0.00000000000E+00 0. -1.
</event>
<event>
 7    1  0.1465498E-013  0.7246169E+02  0.7816164E-02  0.1226708E+00
        -11   -1    0    0    0    0  0.00000000000E+00  0.00000000000E+00  0.45593999997E+02  0.45594000000E+02  0.51100000000E-03 0. -1.
         11   -1    0    0    0    0 -0.00000000000E+00 -0.00000000000E+00 -0.45593999997E+02  0.45594000000E+02  0.51100000000E-03 0.  1.
    9900012    2    1    2    0    0 -0.27806796275E+01 -0.18316705011E+02 -0.27277956744E+01  0.72461688808E+02  0.70000154385E+02 0.  0.
         12    1    1    2    0    0  0.27806796275E+01  0.18316705011E+02  0.27277956744E+01  0.18726311192E+02  0.00000000000E+00 0. -1.
         11    1    3    3    0    0  0.12669060690E+02 -0.35941432427E+01  0.72493306815E+01  0.15032490147E+02  0.51100000000E-03 0. -1.
        -11    1    3    3    0    0 -0.62777267622E+01 -0.33850495966E+02 -0.11336180964E+01  0.34446349889E+02  0.51100000000E-03 0.  1.
        -12    1    3    3    0    0 -0.91720135552E+01  0.19127934198E+02 -0.88435082596E+01  0.22982848772E+02  0.00000000000E+00 0.  1.
</event>
<event>
 7    1  0.1465498E-013  0.7246155E+02  0.7816164E-02  0.1226708E+00
        -11   -1    0    0    0    0  0.00000000000E+00  0.00000000000E+00  0.45593999997E+02  0.45594000000E+02  0.51100000000E-03 0. -1.
         11   -1    0    0    0    0 -0.00000000000E+00 -0.00000000000E+00 -0.45593999997E+02  0.45594000000E+02  0.51100000000E-03 0.  1.
    9900012    2    1    2    0    0 -0.11944506169E+02 -0.13957660286E+02  0.36321271286E+01  0.72461551971E+02  0.69999976131E+02 0.  0.
         12    1    1    2    0    0  0.11944506169E+02  0.13957660286E+02 -0.36321271286E+01  0.18726448029E+02  0.00000000000E+00 0. -1.
         11    1    3    3    0    0  0.88350045506E+01 -0.21420795193E+02 -0.20140190094E+01  0.23258633772E+02  0.51100000000E-03 0. -1.
        -11    1    3    3    0    0 -0.55666071794E+01 -0.18113588509E+02  0.20637813725E+00  0.18950772975E+02  0.51100000000E-03 0.  1.
        -12    1    3    3    0    0 -0.15212903540E+02  0.25576723415E+02  0.54397680007E+01  0.30252145225E+02  0.00000000000E+00 0.  1.
</event>
<event>
 7    1  0.1465498E-013  0.7246158E+02  0.7816164E-02  0.1226708E+00
        -11   -1    0    0    0    0  0.00000000000E+00  0.00000000000E+00  0.45593999997E+02  0.45594000000E+02  0.51100000000E-03 0. -1.
         11   -1    0    0    0    0 -0.00000000000E+00 -0.00000000000E+00 -0.45593999997E+02  0.45594000000E+02  0.51100000000E-03 0.  1.
    9900012    2    1    2    0    0 -0.44999279343E+01 -0.95288514123E+01 -0.15480005490E+02  0.72461576673E+02  0.70000008309E+02 0.  0.
         12    1    1    2    0    0  0.44999279343E+01  0.95288514123E+01  0.15480005490E+02  0.18726423327E+02  0.00000000000E+00 0. -1.
         11    1    3    3    0    0  0.40470108799E+01  0.71611263219E+01  0.10033164626E+02  0.12973990132E+02  0.51100000000E-03 0. -1.
        -11    1    3    3    0    0  0.14104673335E+02  0.49725346793E+01 -0.23786513065E+02  0.28097439654E+02  0.51100000000E-03 0.  1.
         12    1    3    3    0    0 -0.22651612149E+02 -0.21662512413E+02 -0.17266570517E+01  0.31390146887E+02  0.00000000000E+00 0. -1.
</event>
<event>
 7    1  0.1465498E-013  0.7246173E+02  0.7816164E-02  0.1226708E+00
        -11   -1    0    0    0    0  0.00000000000E+00  0.00000000000E+00  0.45593999997E+02  0.45594000000E+02  0.51100000000E-03 0. -1.
         11   -1    0    0    0    0 -0.00000000000E+00 -0.00000000000E+00 -0.45593999997E+02  0.45594000000E+02  0.51100000000E-03 0.  1.
    9900012    2    1    2    0    0  0.16916485682E+02  0.50410812110E+01 -0.62524441793E+01  0.72461733799E+02  0.70000212995E+02 0.  0.
         12    1    1    2    0    0 -0.16916485682E+02 -0.50410812110E+01  0.62524441793E+01  0.18726266201E+02  0.00000000000E+00 0. -1.
         11    1    3    3    0    0  0.76641153050E+00  0.16399746668E+02  0.91809222977E+01  0.18810327268E+02  0.51100000000E-03 0. -1.
        -11    1    3    3    0    0  0.16808674145E+02  0.16426818790E+02 -0.55112064280E+01  0.24140118033E+02  0.51100000000E-03 0.  1.
        -12    1    3    3    0    0 -0.65859999365E+00 -0.27785484247E+02 -0.99221600490E+01  0.29511288499E+02  0.00000000000E+00 0.  1.
</event>
<event>
 7    1  0.1465498E-013  0.7246160E+02  0.7816164E-02  0.1226708E+00
        -11   -1    0    0    0    0  0.00000000000E+00  0.00000000000E+00  0.45593999997E+02  0.45594000000E+02  0.51100000000E-03 0. -1.
         11   -1    0    0    0    0 -0.00000000000E+00 -0.00000000000E+00 -0.45593999997E+02  0.45594000000E+02  0.51100000000E-03 0.  1.
    9900012    2    1    2    0    0 -0.57394138992E+01 -0.11198659808E+02 -0.13868201722E+02  0.72461604927E+02  0.70000045116E+02 0.  0.
         12    1    1    2    0    0  0.57394138992E+01  0.11198659808E+02  0.13868201722E+02  0.18726395073E+02  0.00000000000E+00 0. -1.
         11    1    3    3    0    0 -0.12608502751E+02 -0.21374643977E+02 -0.47935525266E+00  0.24820949387E+02  0.51100000000E-03 0. -1.
        -11    1    3    3    0    0 -0.12928358805E+02  0.58854760439E+01  0.94894848810E+01  0.17083079735E+02  0.51100000000E-03 0.  1.
        -12    1    3    3    0    0  0.19797447657E+02  0.42905081247E+01 -0.22878331351E+02  0.30557575805E+02  0.00000000000E+00 0.  1.
</event>
<event>
 7    1  0.1465498E-013  0.7246159E+02  0.7816164E-02  0.1226708E+00
        -11   -1    0    0    0    0  0.00000000000E+00  0.00000000000E+00  0.45593999997E+02  0.45594000000E+02  0.51100000000E-03 0.  1.
         11   -1    0    0    0    0 -0.00000000000E+00 -0.00000000000E+00 -0.45593999997E+02  0.45594000000E+02  0.51100000000E-03 0. -1.
    9900012    2    1    2    0    0  0.46658283753E+01 -0.15139494836E+02  0.99851991830E+01  0.72461589211E+02  0.70000024643E+02 0.  0.
         12    1    1    2    0    0 -0.46658283753E+01  0.15139494836E+02 -0.99851991830E+01  0.18726410789E+02  0.00000000000E+00 0. -1.
         11    1    3    3    0    0 -0.36091113036E+00  0.70303164564E+01 -0.83596627114E+01  0.10928841074E+02  0.51100000000E-03 0. -1.
        -11    1    3    3    0    0  0.42931888978E+01 -0.11149612879E+02  0.37535362629E+02  0.39390973411E+02  0.51100000000E-03 0.  1.
         12    1    3    3    0    0  0.73355060787E+00 -0.11020198413E+02 -0.19190500735E+02  0.22141774726E+02  0.00000000000E+00 0. -1.
</event>
<event>
 7    1  0.1465498E-013  0.7246154E+02  0.7816164E-02  0.1226708E+00
        -11   -1    0    0    0    0  0.00000000000E+00  0.00000000000E+00  0.45593999997E+02  0.45594000000E+02  0.51100000000E-03 0.  1.
         11   -1    0    0    0    0 -0.00000000000E+00 -0.00000000000E+00 -0.45593999997E+02  0.45594000000E+02  0.51100000000E-03 0. -1.
    9900012    2    1    2    0    0  0.44228670813E+01  0.75033807190E+00  0.18181185742E+02  0.72461540767E+02  0.69999961535E+02 0.  0.
         12    1    1    2    0    0 -0.44228670813E+01 -0.75033807190E+00 -0.18181185742E+02  0.18726459233E+02  0.00000000000E+00 0. -1.
         11    1    3    3    0    0 -0.17170477146E+00  0.73131862296E+01 -0.74673656604E+01  0.10453407364E+02  0.51100000000E-03 0. -1.
        -11    1    3    3    0    0 -0.11657535621E+02 -0.26994052422E+02  0.79229114894E+01  0.30452414184E+02  0.51100000000E-03 0.  1.
         12    1    3    3    0    0  0.16252107473E+02  0.20431204265E+02  0.17725639913E+02  0.31555719218E+02  0.00000000000E+00 0. -1.
</event>
<event>
 7    1  0.1465498E-013  0.7246144E+02  0.7816164E-02  0.1226708E+00
        -11   -1    0    0    0    0  0.00000000000E+00  0.00000000000E+00  0.45593999997E+02  0.45594000000E+02  0.51100000000E-03 0.  1.
         11   -1    0    0    0    0 -0.00000000000E+00 -0.00000000000E+00 -0.45593999997E+02  0.45594000000E+02  0.51100000000E-03 0. -1.
    9900012    2    1    2    0    0  0.25494011405E+01 -0.74194413273E+01  0.17004011388E+02  0.72461442413E+02  0.69999833411E+02 0.  0.
         12    1    1    2    0    0 -0.25494011405E+01  0.74194413273E+01 -0.17004011388E+02  0.18726557587E+02  0.00000000000E+00 0. -1.
         11    1    3    3    0    0  0.26335623570E+02  0.73699554643E+01  0.17817507528E+02  0.32639621431E+02  0.51100000000E-03 0. -1.
        -11    1    3    3    0    0  0.50815092228E+01  0.26419521988E+01  0.17863382577E+01  0.59993876383E+01  0.51100000000E-03 0.  1.
        -12    1    3    3    0    0 -0.28867731653E+02 -0.17431348990E+02 -0.25998343978E+01  0.33822433344E+02  0.00000000000E+00 0.  1.
</event>
<event>
 7    1  0.1465498E-013  0.7246156E+02  0.7816164E-02  0.1226708E+00
        -11   -1    0    0    0    0  0.00000000000E+00  0.00000000000E+00  0.45593999997E+02  0.45594000000E+02  0.51100000000E-03 0.  1.
         11   -1    0    0    0    0 -0.00000000000E+00 -0.00000000000E+00 -0.45593999997E+02  0.45594000000E+02  0.51100000000E-03 0. -1.
    9900012    2    1    2    0    0 -0.17604276876E+02  0.62773730466E+01 -0.11676857980E+01  0.72461562357E+02  0.69999989660E+02 0.  0.
         12    1    1    2    0    0  0.17604276876E+02 -0.62773730466E+01  0.11676857980E+01  0.18726437643E+02  0.00000000000E+00 0. -1.
         11    1    3    3    0    0  0.12809010320E+02  0.40655636368E+01 -0.10870609126E+02  0.17284955774E+02  0.51100000000E-03 0. -1.
        -11    1    3    3    0    0 -0.56969645503E+01 -0.20129968761E+02  0.51915709142E+01  0.21555125985E+02  0.51100000000E-03 0.  1.
        -12    1    3    3    0    0 -0.24716322646E+02  0.22341778171E+02  0.45113524141E+01  0.33621480598E+02  0.00000000000E+00 0.  1.
</event>
<event>
 7    1  0.1465498E-013  0.7246156E+02  0.7816164E-02  0.1226708E+00
        -11   -1    0    0    0    0  0.00000000000E+00  0.00000000000E+00  0.45593999997E+02  0.45594000000E+02  0.51100000000E-03 0.  1.
         11   -1    0    0    0    0 -0.00000000000E+00 -0.00000000000E+00 -0.45593999997E+02  0.45594000000E+02  0.51100000000E-03 0. -1.
    9900012    2    1    2    0    0 -0.11540060375E+02  0.14740795900E+02 -0.46419465107E+00  0.72461560565E+02  0.69999987326E+02 0.  0.
         12    1    1    2    0    0  0.11540060375E+02 -0.14740795900E+02  0.46419465107E+00  0.18726439435E+02  0.00000000000E+00 0. -1.
         11    1    3    3    0    0  0.42314546483E+01  0.34694359423E+02  0.38117616587E+01  0.35158687567E+02  0.51100000000E-03 0. -1.
        -11    1    3    3    0    0 -0.19383841560E+02 -0.58555771515E+01 -0.87769185470E+01  0.22069331590E+02  0.51100000000E-03 0.  1.
        -12    1    3    3    0    0  0.36123265365E+01 -0.14097986372E+02  0.45009622373E+01  0.15233541407E+02  0.00000000000E+00 0.  1.
</event>
<event>
 7    1  0.1465498E-013  0.7246161E+02  0.7816164E-02  0.1226708E+00
        -11   -1    0    0    0    0  0.00000000000E+00  0.00000000000E+00  0.45593999997E+02  0.45594000000E+02  0.51100000000E-03 0.  1.
         11   -1    0    0    0    0 -0.00000000000E+00 -0.00000000000E+00 -0.45593999997E+02  0.45594000000E+02  0.51100000000E-03 0. -1.
    9900012    2    1    2    0    0 -0.14152930911E+02  0.11350724590E+02  0.46404074733E+01  0.72461607299E+02  0.70000048205E+02 0.  0.
         12    1    1    2    0    0  0.14152930911E+02 -0.11350724590E+02 -0.46404074733E+01  0.18726392701E+02  0.00000000000E+00 0. -1.
         11    1    3    3    0    0 -0.33991461113E+01  0.14383147060E+02 -0.22784021031E+02  0.27157701085E+02  0.51100000000E-03 0. -1.
        -11    1    3    3    0    0 -0.21205388611E+02  0.47027356104E+01  0.10974577735E+02  0.24335685425E+02  0.51100000000E-03 0.  1.
         12    1    3    3    0    0  0.10451603811E+02 -0.77351580801E+01  0.16449850769E+02  0.20968220789E+02  0.00000000000E+00 0. -1.
</event>
<event>
 7    1  0.1465498E-013  0.7246154E+02  0.7816164E-02  0.1226708E+00
        -11   -1    0    0    0    0  0.00000000000E+00  0.00000000000E+00  0.45593999997E+02  0.45594000000E+02  0.51100000000E-03 0.  1.
         11   -1    0    0    0    0 -0.00000000000E+00 -0.00000000000E+00 -0.45593999997E+02  0.45594000000E+02  0.51100000000E-03 0. -1.
    9900012    2    1    2    0    0  0.91106931990E+01  0.15926018078E+02 -0.37466436173E+01  0.72461544896E+02  0.69999966914E+02 0.  0.
         12    1    1    2    0    0 -0.91106931990E+01 -0.15926018078E+02  0.37466436173E+01  0.18726455104E+02  0.00000000000E+00 0. -1.
         11    1    3    3    0    0  0.95153505648E+01 -0.25734394140E+01  0.29385481152E+01  0.10285890923E+02  0.51100000000E-03 0. -1.
        -11    1    3    3    0    0  0.23931083036E+02  0.25131220438E+02  0.36975796424E+01  0.34899098433E+02  0.51100000000E-03 0.  1.
         12    1    3    3    0    0 -0.24335740402E+02 -0.66317629467E+01 -0.10382771375E+02  0.27276555540E+02  0.00000000000E+00 0. -1.
</event>
<event>
 7    1  0.1465498E-013  0.7246166E+02  0.7816164E-02  0.1226708E+00
        -11   -1    0    0    0    0  0.00000000000E+00  0.00000000000E+00  0.45593999997E+02  0.45594000000E+02  0.51100000000E-03 0.  1.
         11   -1    0    0    0    0 -0.00000000000E+00 -0.00000000000E+00 -0.45593999997E+02  0.45594000000E+02  0.51100000000E-03 0. -1.
    9900012    2    1    2    0    0  0.12539139057E+02 -0.24098139808E+01  0.13698121713E+02  0.72461661592E+02  0.70000118932E+02 0.  0.
         12    1    1    2    0    0 -0.12539139057E+02  0.24098139808E+01 -0.13698121713E+02  0.18726338408E+02  0.00000000000E+00 0. -1.
         11    1    3    3    0    0 -0.32640095833E+01  0.15848755187E+02 -0.18201711893E+02  0.24354447553E+02  0.51100000000E-03 0. -1.
        -11    1    3    3    0    0  0.88875353151E+01  0.90159550042E+00 -0.14286605066E+01  0.90466695268E+01  0.51100000000E-03 0.  1.
        -12    1    3    3    0    0  0.69156133252E+01 -0.19160164668E+02  0.33328494112E+02  0.39060544512E+02  0.00000000000E+00 0.  1.
</event>
<event>
 7    1  0.1465498E-013  0.7246155E+02  0.7816164E-02  0.1226708E+00
        -11   -1    0    0    0    0  0.00000000000E+00  0.00000000000E+00  0.45593999997E+02  0.45594000000E+02  0.51100000000E-03 0. -1.
         11   -1    0    0    0    0 -0.00000000000E+00 -0.00000000000E+00 -0.45593999997E+02  0.45594000000E+02  0.51100000000E-03 0.  1.
    9900012    2    1    2    0    0 -0.72487058821E+00  0.44684078606E+01 -0.18171074245E+02  0.72461546909E+02  0.69999969536E+02 0.  0.
         12    1    1    2    0    0  0.72487058821E+00 -0.44684078606E+01  0.18171074245E+02  0.18726453091E+02  0.00000000000E+00 0. -1.
         11    1    3    3    0    0  0.41967371651E+01 -0.67743138507E+01 -0.14574604471E+02  0.16610930941E+02  0.51100000000E-03 0. -1.
        -11    1    3    3    0    0 -0.18492059145E+02 -0.60405775415E+01 -0.20399340062E+02  0.28188258259E+02  0.51100000000E-03 0.  1.
         12    1    3    3    0    0  0.13570451392E+02  0.17283299253E+02  0.16802870288E+02  0.27662357708E+02  0.00000000000E+00 0. -1.
</event>
<event>
 7    1  0.1465498E-013  0.7246158E+02  0.7816164E-02  0.1226708E+00
        -11   -1    0    0    0    0  0.00000000000E+00  0.00000000000E+00  0.45593999997E+02  0.45594000000E+02  0.51100000000E-03 0.  1.
         11   -1    0    0    0    0 -0.00000000000E+00 -0.00000000000E+00 -0.45593999997E+02  0.45594000000E+02  0.51100000000E-03 0. -1.
    9900012    2    1    2    0    0 -0.80642570579E+01  0.34826572052E+01  0.16538370891E+02  0.72461578697E+02  0.70000010946E+02 0.  0.
         12    1    1    2    0    0  0.80642570579E+01 -0.34826572052E+01 -0.16538370891E+02  0.18726421303E+02  0.00000000000E+00 0. -1.
         11    1    3    3    0    0 -0.43914918667E+01 -0.23394787063E+01 -0.38462788077E+01  0.62890557607E+01  0.51100000000E-03 0. -1.
        -11    1    3    3    0    0 -0.23476568957E+02  0.37379149800E+00  0.34152866439E+02  0.41445232493E+02  0.51100000000E-03 0.  1.
         12    1    3    3    0    0  0.19803803766E+02  0.54483444135E+01 -0.13768216741E+02  0.24727290443E+02  0.00000000000E+00 0. -1.
</event>
<event>
 7    1  0.1465498E-013  0.7246156E+02  0.7816164E-02  0.1226708E+00
        -11   -1    0    0    0    0  0.00000000000E+00  0.00000000000E+00  0.45593999997E+02  0.45594000000E+02  0.51100000000E-03 0.  1.
         11   -1    0    0    0    0 -0.00000000000E+00 -0.00000000000E+00 -0.45593999997E+02  0.45594000000E+02  0.51100000000E-03 0. -1.
    9900012    2    1    2    0    0  0.64574687727E+01  0.53436487485E+01  0.16745924758E+02  0.72461561980E+02  0.69999989169E+02 0.  0.
         12    1    1    2    0    0 -0.64574687727E+01 -0.53436487485E+01 -0.16745924758E+02  0.18726438020E+02  0.00000000000E+00 0. -1.
         11    1    3    3    0    0  0.23329427644E+02 -0.56412545417E+01  0.28171584012E+02  0.37009783747E+02  0.51100000000E-03 0. -1.
        -11    1    3    3    0    0 -0.40725521450E+01  0.63610898373E+01  0.84689826666E+01  0.11347810915E+02  0.51100000000E-03 0.  1.
         12    1    3    3    0    0 -0.12799406726E+02  0.46238134529E+01 -0.19894641920E+02  0.24103967319E+02  0.00000000000E+00 0. -1.
</event>
<event>
 7    1  0.1465498E-013  0.7246157E+02  0.7816164E-02  0.1226708E+00
        -11   -1    0    0    0    0  0.00000000000E+00  0.00000000000E+00  0.45593999997E+02  0.45594000000E+02  0.51100000000E-03 0.  1.
         11   -1    0    0    0    0 -0.00000000000E+00 -0.00000000000E+00 -0.45593999997E+02  0.45594000000E+02  0.51100000000E-03 0. -1.
    9900012    2    1    2    0    0  0.53277024840E+01 -0.10918476580E+02  0.14250672534E+02  0.72461569153E+02  0.69999998514E+02 0.  0.
         12    1    1    2    0    0 -0.53277024840E+01  0.10918476580E+02 -0.14250672534E+02  0.18726430847E+02  0.00000000000E+00 0. -1.
         11    1    3    3    0    0 -0.41529801212E+00 -0.22937479579E+01  0.24674205417E+01  0.33943948686E+01  0.51100000000E-03 0. -1.
        -11    1    3    3    0    0  0.27976751647E+02 -0.16945621282E+02  0.25656851170E+02  0.41570743625E+02  0.51100000000E-03 0.  1.
         12    1    3    3    0    0 -0.22233751151E+02  0.83208926595E+01 -0.13873599177E+02  0.27496430660E+02  0.00000000000E+00 0. -1.
</event>
<event>
 7    1  0.1465498E-013  0.7246153E+02  0.7816164E-02  0.1226708E+00
        -11   -1    0    0    0    0  0.00000000000E+00  0.00000000000E+00  0.45593999997E+02  0.45594000000E+02  0.51100000000E-03 0. -1.
         11   -1    0    0    0    0 -0.00000000000E+00 -0.00000000000E+00 -0.45593999997E+02  0.45594000000E+02  0.51100000000E-03 0.  1.
    9900012    2    1    2    0    0 -0.10241427422E+02 -0.15230185152E+02  0.37195715313E+01  0.72461532426E+02  0.69999950670E+02 0.  0.
         12    1    1    2    0    0  0.10241427422E+02  0.15230185152E+02 -0.37195715313E+01  0.18726467574E+02  0.00000000000E+00 0. -1.
         11    1    3    3    0    0  0.85821699335E+01  0.77562285393E+01 -0.18146450501E+02  0.21519906783E+02  0.51100000000E-03 0. -1.
        -11    1    3    3    0    0 -0.92992445955E+01  0.10785809943E+01 -0.73562386092E+01  0.11906029302E+02  0.51100000000E-03 0.  1.
        -12    1    3    3    0    0 -0.95243527604E+01 -0.24064994685E+02  0.29222260641E+02  0.39035596341E+02  0.00000000000E+00 0.  1.
</event>
<event>
 7    1  0.1465498E-013  0.7246155E+02  0.7816164E-02  0.1226708E+00
        -11   -1    0    0    0    0  0.00000000000E+00  0.00000000000E+00  0.45593999997E+02  0.45594000000E+02  0.51100000000E-03 0. -1.
         11   -1    0    0    0    0 -0.00000000000E+00 -0.00000000000E+00 -0.45593999997E+02  0.45594000000E+02  0.51100000000E-03 0.  1.
    9900012    2    1    2    0    0  0.18223158183E+02  0.43094969301E+01 -0.15741380318E+00  0.72461547131E+02  0.69999969825E+02 0.  0.
         12    1    1    2    0    0 -0.18223158183E+02 -0.43094969301E+01  0.15741380318E+00  0.18726452869E+02  0.00000000000E+00 0. -1.
         11    1    3    3    0    0  0.14892218646E+02 -0.56024402077E+01 -0.16976512314E+02  0.23267305024E+02  0.51100000000E-03 0. -1.
        -11    1    3    3    0    0 -0.45950196831E+01 -0.15410001200E+02  0.15946190153E+02  0.22646485898E+02  0.51100000000E-03 0.  1.
         12    1    3    3    0    0  0.79259592205E+01  0.25321938338E+02  0.87290835737E+00  0.26547756209E+02  0.00000000000E+00 0. -1.
</event>
<event>
 7    1  0.1465498E-013  0.7246141E+02  0.7816164E-02  0.1226708E+00
        -11   -1    0    0    0    0  0.00000000000E+00  0.00000000000E+00  0.45593999997E+02  0.45594000000E+02  0.51100000000E-03 0. -1.
         11   -1    0    0    0    0 -0.00000000000E+00 -0.00000000000E+00 -0.45593999997E+02  0.45594000000E+02  0.51100000000E-03 0.  1.
    9900012    2    1    2    0    0  0.15104306559E+02 -0.10814986629E+02  0.23624819457E+01  0.72461405720E+02  0.69999785611E+02 0.  0.
         12    1    1    2    0    0 -0.15104306559E+02  0.10814986629E+02 -0.23624819457E+01  0.18726594280E+02  0.00000000000E+00 0. -1.
         11    1    3    3    0    0  0.18359877373E+01 -0.49461006052E+01 -0.34764006686E+01  0.63182374154E+01  0.51100000000E-03 0. -1.
        -11    1    3    3    0    0  0.18058838574E+02  0.93724942488E+01 -0.24504829916E+02  0.31850462925E+02  0.51100000000E-03 0.  1.
        -12    1    3    3    0    0 -0.47905197523E+01 -0.15241380272E+02  0.30343712530E+02  0.34292705379E+02  0.00000000000E+00 0.  1.
</event>
<event>
 7    1  0.1465498E-013  0.7246161E+02  0.7816164E-02  0.1226708E+00
        -11   -1    0    0    0    0  0.00000000000E+00  0.00000000000E+00  0.45593999997E+02  0.45594000000E+02  0.51100000000E-03 0.  1.
         11   -1    0    0    0    0 -0.00000000000E+00 -0.00000000000E+00 -0.45593999997E+02  0.45594000000E+02  0.51100000000E-03 0. -1.
    9900012    2    1    2    0    0  0.13302642043E+02  0.44372382683E+01 -0.12410812409E+02  0.72461611308E+02  0.70000053428E+02 0.  0.
         12    1    1    2    0    0 -0.13302642043E+02 -0.44372382683E+01  0.12410812409E+02  0.18726388692E+02  0.00000000000E+00 0. -1.
         11    1    3    3    0    0  0.17099375055E+01 -0.31456659368E+01  0.44470288367E+01  0.57092176516E+01  0.51100000000E-03 0. -1.
        -11    1    3    3    0    0  0.14394785436E+01 -0.26909386763E+02  0.21628009808E+00  0.26948728575E+02  0.51100000000E-03 0.  1.
         12    1    3    3    0    0  0.10153225994E+02  0.34492290968E+02 -0.17074121344E+02  0.39803665082E+02  0.00000000000E+00 0. -1.
</event>
<event>
 7    1  0.1465498E-013  0.7246160E+02  0.7816164E-02  0.1226708E+00
        -11   -1    0    0    0    0  0.00000000000E+00  0.00000000000E+00  0.45593999997E+02  0.45594000000E+02  0.51100000000E-03 0. -1.
         11   -1    0    0    0    0 -0.00000000000E+00 -0.00000000000E+00 -0.45593999997E+02  0.45594000000E+02  0.51100000000E-03 0.  1.
    9900012    2    1    2    0    0  0.11674730226E+02 -0.62103606636E+00 -0.14628502840E+02  0.72461598664E+02  0.70000036957E+02 0.  0.
         12    1    1    2    0    0 -0.11674730226E+02  0.62103606636E+00  0.14628502840E+02  0.18726401336E+02  0.00000000000E+00 0. -1.
         11    1    3    3    0    0 -0.30183228708E+01 -0.11160369043E+02 -0.54708393622E+01  0.12790394588E+02  0.51100000000E-03 0. -1.
        -11    1    3    3    0    0  0.75102663959E+01 -0.17468503922E+02 -0.21085983279E+02  0.28393158009E+02  0.51100000000E-03 0.  1.
         12    1    3    3    0    0  0.71827867012E+01  0.28007836898E+02  0.11928319801E+02  0.31278046068E+02  0.00000000000E+00 0. -1.
</event>
<event>
 7    1  0.1465498E-013  0.7246155E+02  0.7816164E-02  0.1226708E+00
        -11   -1    0    0    0    0  0.00000000000E+00  0.00000000000E+00  0.45593999997E+02  0.45594000000E+02  0.51100000000E-03 0. -1.
         11   -1    0    0    0    0 -0.00000000000E+00 -0.00000000000E+00 -0.45593999997E+02  0.45594000000E+02  0.51100000000E-03 0.  1.
    9900012    2    1    2    0    0  0.25464763404E+01  0.14949847879E+02 -0.10986237327E+02  0.72461550685E+02  0.69999974455E+02 0.  0.
         12    1    1    2    0    0 -0.25464763404E+01 -0.14949847879E+02  0.10986237327E+02  0.18726449315E+02  0.00000000000E+00 0. -1.
         11    1    3    3    0    0  0.24947085160E+01  0.61162486209E+01  0.17687107862E+02  0.18880303296E+02  0.51100000000E-03 0. -1.
        -11    1    3    3    0    0  0.35068773176E+01 -0.16847482929E+02 -0.19703151770E+02  0.26160085235E+02  0.51100000000E-03 0.  1.
         12    1    3    3    0    0 -0.34551094932E+01  0.25681082187E+02 -0.89701934187E+01  0.27421162154E+02  0.00000000000E+00 0. -1.
</event>
<event>
 7    1  0.1465498E-013  0.7246155E+02  0.7816164E-02  0.1226708E+00
        -11   -1    0    0    0    0  0.00000000000E+00  0.00000000000E+00  0.45593999997E+02  0.45594000000E+02  0.51100000000E-03 0. -1.
         11   -1    0    0    0    0 -0.00000000000E+00 -0.00000000000E+00 -0.45593999997E+02  0.45594000000E+02  0.51100000000E-03 0.  1.
    9900012    2    1    2    0    0  0.14043644112E+02  0.11263033018E+02 -0.51575434717E+01  0.72461545254E+02  0.69999967380E+02 0.  0.
         12    1    1    2    0    0 -0.14043644112E+02 -0.11263033018E+02  0.51575434717E+01  0.18726454746E+02  0.00000000000E+00 0. -1.
         11    1    3    3    0    0 -0.18628114337E+02  0.15914108126E+02  0.66673242340E+01  0.25391311386E+02  0.51100000000E-03 0. -1.
        -11    1    3    3    0    0 -0.53301370847E+01 -0.28805385583E+01  0.23127679237E+01  0.64851183072E+01  0.51100000000E-03 0.  1.
        -12    1    3    3    0    0  0.38001895534E+02 -0.17705365501E+01 -0.14137635629E+02  0.40585115560E+02  0.00000000000E+00 0.  1.
</event>
<event>
 7    1  0.1465498E-013  0.7246148E+02  0.7816164E-02  0.1226708E+00
        -11   -1    0    0    0    0  0.00000000000E+00  0.00000000000E+00  0.45593999997E+02  0.45594000000E+02  0.51100000000E-03 0.  1.
         11   -1    0    0    0    0 -0.00000000000E+00 -0.00000000000E+00 -0.45593999997E+02  0.45594000000E+02  0.51100000000E-03 0. -1.
    9900012    2    1    2    0    0 -0.25251700407E+01  0.97702115394E+01  0.15774947159E+02  0.72461482034E+02  0.69999885024E+02 0.  0.
         12    1    1    2    0    0  0.25251700407E+01 -0.97702115394E+01 -0.15774947159E+02  0.18726517966E+02  0.00000000000E+00 0. -1.
         11    1    3    3    0    0 -0.41809589484E+01 -0.75376835922E+01  0.27245717331E+02  0.28576672388E+02  0.51100000000E-03 0. -1.
        -11    1    3    3    0    0  0.69283863881E+01  0.11682226216E+02  0.12650612937E+02  0.18561114062E+02  0.51100000000E-03 0.  1.
         12    1    3    3    0    0 -0.52725974804E+01  0.56256689157E+01 -0.24121383108E+02  0.25323695583E+02  0.00000000000E+00 0. -1.
</event>
<event>
 7    1  0.1465498E-013  0.7246158E+02  0.7816164E-02  0.1226708E+00
        -11   -1    0    0    0    0  0.00000000000E+00  0.00000000000E+00  0.45593999997E+02  0.45594000000E+02  0.51100000000E-03 0. -1.
         11   -1    0    0    0    0 -0.00000000000E+00 -0.00000000000E+00 -0.45593999997E+02  0.45594000000E+02  0.51100000000E-03 0.  1.
    9900012    2    1    2    0    0 -0.97049831124E+00  0.16722820014E+02 -0.83716345855E+01  0.72461579044E+02  0.70000011398E+02 0.  0.
         12    1    1    2    0    0  0.97049831124E+00 -0.16722820014E+02  0.83716345855E+01  0.18726420956E+02  0.00000000000E+00 0. -1.
         11    1    3    3    0    0  0.13236940247E+02 -0.15903526401E+01  0.12778832459E+02  0.18467386602E+02  0.51100000000E-03 0. -1.
        -11    1    3    3    0    0 -0.16381938302E+02  0.29008318481E+02 -0.38462888475E+01  0.33535718000E+02  0.51100000000E-03 0.  1.
         12    1    3    3    0    0  0.21744997435E+01 -0.10695145827E+02 -0.17304178197E+02  0.20458474442E+02  0.00000000000E+00 0. -1.
</event>
<event>
 7    1  0.1465498E-013  0.7246138E+02  0.7816164E-02  0.1226709E+00
        -11   -1    0    0    0    0  0.00000000000E+00  0.00000000000E+00  0.45593999997E+02  0.45594000000E+02  0.51100000000E-03 0.  1.
         11   -1    0    0    0    0 -0.00000000000E+00 -0.00000000000E+00 -0.45593999997E+02  0.45594000000E+02  0.51100000000E-03 0. -1.
    9900012    2    1    2    0    0  0.19209274886E+01 -0.98424211807E+01  0.15815274595E+02  0.72461384512E+02  0.69999757984E+02 0.  0.
         12    1    1    2    0    0 -0.19209274886E+01  0.98424211807E+01 -0.15815274595E+02  0.18726615488E+02  0.00000000000E+00 0. -1.
         11    1    3    3    0    0  0.19747478497E+02 -0.61651459390E+01 -0.44977467169E+01  0.21170773657E+02  0.51100000000E-03 0. -1.
        -11    1    3    3    0    0  0.10256510550E+02 -0.13760761207E+02  0.58545896234E+01  0.18133691780E+02  0.51100000000E-03 0.  1.
         12    1    3    3    0    0 -0.28083061558E+02  0.10083485966E+02  0.14458431688E+02  0.33156919075E+02  0.00000000000E+00 0. -1.
</event>
<event>
 7    1  0.1465498E-013  0.7246158E+02  0.7816164E-02  0.1226708E+00
        -11   -1    0    0    0    0  0.00000000000E+00  0.00000000000E+00  0.45593999997E+02  0.45594000000E+02  0.51100000000E-03 0.  1.
         11   -1    0    0    0    0 -0.00000000000E+00 -0.00000000000E+00 -0.45593999997E+02  0.45594000000E+02  0.51100000000E-03 0. -1.
    9900012    2    1    2    0    0  0.15168721109E+02  0.43277231545E+01  0.10092546338E+02  0.72461580711E+02  0.70000013570E+02 0.  0.
         12    1    1    2    0    0 -0.15168721109E+02 -0.43277231545E+01 -0.10092546338E+02  0.18726419289E+02  0.00000000000E+00 0. -1.
         11    1    3    3    0    0  0.24565745010E+02 -0.14025904987E+02 -0.47851155407E+01  0.28689704941E+02  0.51100000000E-03 0. -1.
        -11    1    3    3    0    0  0.12635640612E+02  0.13697671590E+02  0.62319877224E+01  0.19650020150E+02  0.51100000000E-03 0.  1.
        -12    1    3    3    0    0 -0.22032664513E+02  0.46559565513E+01  0.86456741567E+01  0.24121855620E+02  0.00000000000E+00 0.  1.
</event>
<event>
 7    1  0.1465498E-013  0.7246152E+02  0.7816164E-02  0.1226708E+00
        -11   -1    0    0    0    0  0.00000000000E+00  0.00000000000E+00  0.45593999997E+02  0.45594000000E+02  0.51100000000E-03 0.  1.
         11   -1    0    0    0    0 -0.00000000000E+00 -0.00000000000E+00 -0.45593999997E+02  0.45594000000E+02  0.51100000000E-03 0. -1.
    9900012    2    1    2    0    0 -0.22946528258E+01 -0.16018003612E+02  0.94254536495E+01  0.72461520144E+02  0.69999934670E+02 0.  0.
         12    1    1    2    0    0  0.22946528258E+01  0.16018003612E+02 -0.94254536495E+01  0.18726479856E+02  0.00000000000E+00 0. -1.
         11    1    3    3    0    0  0.86435561002E+00 -0.19264258405E+02 -0.22311151738E+01  0.19412280590E+02  0.51100000000E-03 0. -1.
        -11    1    3    3    0    0  0.22372337555E+02  0.48825766232E+01  0.14811634130E+02  0.27271698664E+02  0.51100000000E-03 0.  1.
        -12    1    3    3    0    0 -0.25531345991E+02 -0.16363218302E+01 -0.31550653064E+01  0.25777540890E+02  0.00000000000E+00 0.  1.
</event>
<event>
 7    1  0.1465498E-013  0.7246235E+02  0.7816164E-02  0.1226706E+00
        -11   -1    0    0    0    0  0.00000000000E+00  0.00000000000E+00  0.45593999997E+02  0.45594000000E+02  0.51100000000E-03 0. -1.
         11   -1    0    0    0    0 -0.00000000000E+00 -0.00000000000E+00 -0.45593999997E+02  0.45594000000E+02  0.51100000000E-03 0.  1.
    9900012    2    1    2    0    0  0.20161437797E+00  0.18711592292E+02  0.69676347977E+00  0.72462354115E+02  0.70001021065E+02 0.  0.
         12    1    1    2    0    0 -0.20161437797E+00 -0.18711592292E+02 -0.69676347977E+00  0.18725645885E+02  0.00000000000E+00 0. -1.
         11    1    3    3    0    0  0.17088049922E+01  0.27452835905E+01  0.49347275580E+00  0.32711025840E+01  0.51100000000E-03 0. -1.
        -11    1    3    3    0    0 -0.11145521517E+02  0.36037228991E+02 -0.16683970793E+02  0.41246325956E+02  0.51100000000E-03 0.  1.
         12    1    3    3    0    0  0.96383309031E+01 -0.20070920289E+02  0.16887261517E+02  0.27944925575E+02  0.00000000000E+00 0. -1.
</event>
<event>
 7    1  0.1465498E-013  0.7246164E+02  0.7816164E-02  0.1226708E+00
        -11   -1    0    0    0    0  0.00000000000E+00  0.00000000000E+00  0.45593999997E+02  0.45594000000E+02  0.51100000000E-03 0.  1.
         11   -1    0    0    0    0 -0.00000000000E+00 -0.00000000000E+00 -0.45593999997E+02  0.45594000000E+02  0.51100000000E-03 0. -1.
    9900012    2    1    2    0    0 -0.81301871525E+01  0.75898737591E+00  0.16852321409E+02  0.72461635114E+02  0.70000084440E+02 0.  0.
         12    1    1    2    0    0  0.81301871525E+01 -0.75898737591E+00 -0.16852321409E+02  0.18726364886E+02  0.00000000000E+00 0. -1.
         11    1    3    3    0    0 -0.21638563311E+02 -0.27281818357E+01 -0.48833235955E+01  0.22349882503E+02  0.51100000000E-03 0. -1.
        -11    1    3    3    0    0 -0.26489513429E+01  0.10743516008E+02 -0.92491964771E+01  0.14421779196E+02  0.51100000000E-03 0.  1.
        -12    1    3    3    0    0  0.16157327501E+02 -0.72563467965E+01  0.30984841481E+02  0.35689973416E+02  0.00000000000E+00 0.  1.
</event>
<event>
 7    1  0.1465498E-013  0.7246155E+02  0.7816164E-02  0.1226708E+00
        -11   -1    0    0    0    0  0.00000000000E+00  0.00000000000E+00  0.45593999997E+02  0.45594000000E+02  0.51100000000E-03 0. -1.
         11   -1    0    0    0    0 -0.00000000000E+00 -0.00000000000E+00 -0.45593999997E+02  0.45594000000E+02  0.51100000000E-03 0.  1.
    9900012    2    1    2    0    0  0.12295707219E+02  0.12722208525E+02 -0.61352298583E+01  0.72461546754E+02  0.69999969334E+02 0.  0.
         12    1    1    2    0    0 -0.12295707219E+02 -0.12722208525E+02  0.61352298583E+01  0.18726453246E+02  0.00000000000E+00 0. -1.
         11    1    3    3    0    0  0.22753853095E+02  0.21118964511E+02 -0.14638132351E+01  0.31078790873E+02  0.51100000000E-03 0. -1.
        -11    1    3    3    0    0 -0.52174722617E+01  0.15092406845E+02  0.27368842035E+01  0.16201644873E+02  0.51100000000E-03 0.  1.
        -12    1    3    3    0    0 -0.52406736138E+01 -0.23489162831E+02 -0.74083008267E+01  0.25181111008E+02  0.00000000000E+00 0.  1.
</event>
<event>
 7    1  0.1465498E-013  0.7246167E+02  0.7816164E-02  0.1226708E+00
        -11   -1    0    0    0    0  0.00000000000E+00  0.00000000000E+00  0.45593999997E+02  0.45594000000E+02  0.51100000000E-03 0.  1.
         11   -1    0    0    0    0 -0.00000000000E+00 -0.00000000000E+00 -0.45593999997E+02  0.45594000000E+02  0.51100000000E-03 0. -1.
    9900012    2    1    2    0    0 -0.13895512322E+02 -0.96799365876E+01  0.79930676363E+01  0.72461666529E+02  0.70000125363E+02 0.  0.
         12    1    1    2    0    0  0.13895512322E+02  0.96799365876E+01 -0.79930676363E+01  0.18726333471E+02  0.00000000000E+00 0. -1.
         11    1    3    3    0    0 -0.12332555231E+02  0.80936870732E+01 -0.13087405396E+02  0.19720037252E+02  0.51100000000E-03 0. -1.
        -11    1    3    3    0    0 -0.21575159075E+02 -0.29174097680E+01  0.16693116955E+02  0.27434629992E+02  0.51100000000E-03 0.  1.
         12    1    3    3    0    0  0.20012201984E+02 -0.14856213893E+02  0.43873560773E+01  0.25306999285E+02  0.00000000000E+00 0. -1.
</event>
<event>
 7    1  0.1465498E-013  0.7246158E+02  0.7816164E-02  0.1226708E+00
        -11   -1    0    0    0    0  0.00000000000E+00  0.00000000000E+00  0.45593999997E+02  0.45594000000E+02  0.51100000000E-03 0. -1.
         11   -1    0    0    0    0 -0.00000000000E+00 -0.00000000000E+00 -0.45593999997E+02  0.45594000000E+02  0.51100000000E-03 0.  1.
    9900012    2    1    2    0    0  0.13827196854E+02  0.93391843902E+01  0.85010009518E+01  0.72461581359E+02  0.70000014414E+02 0.  0.
         12    1    1    2    0    0 -0.13827196854E+02 -0.93391843902E+01 -0.85010009518E+01  0.18726418641E+02  0.00000000000E+00 0. -1.
         11    1    3    3    0    0  0.17147079905E+01 -0.11136666568E+02 -0.12992010706E+01  0.11342552157E+02  0.51100000000E-03 0. -1.
        -11    1    3    3    0    0  0.32885965839E+02  0.73191668657E+01 -0.21908098094E+01  0.33761762404E+02  0.51100000000E-03 0.  1.
         12    1    3    3    0    0 -0.20773476975E+02  0.13156684093E+02  0.11991011832E+02  0.27357266799E+02  0.00000000000E+00 0. -1.
</event>
<event>
 7    1  0.1465498E-013  0.7246156E+02  0.7816164E-02  0.1226708E+00
        -11   -1    0    0    0    0  0.00000000000E+00  0.00000000000E+00  0.45593999997E+02  0.45594000000E+02  0.51100000000E-03 0.  1.
         11   -1    0    0    0    0 -0.00000000000E+00 -0.00000000000E+00 -0.45593999997E+02  0.45594000000E+02  0.51100000000E-03 0. -1.
    9900012    2    1    2    0    0 -0.80362359600E+01 -0.16550528861E+02  0.34897783225E+01  0.72461557553E+02  0.69999983402E+02 0.  0.
         12    1    1    2    0    0  0.80362359600E+01  0.16550528861E+02 -0.34897783225E+01  0.18726442447E+02  0.00000000000E+00 0. -1.
         11    1    3    3    0    0  0.19894804255E+01  0.28559956247E+01  0.20461343087E+01  0.40375003706E+01  0.51100000000E-03 0. -1.
        -11    1    3    3    0    0  0.13234391560E+02 -0.19644381996E+02 -0.24158200730E+02  0.33832965090E+02  0.51100000000E-03 0.  1.
         12    1    3    3    0    0 -0.23260107946E+02  0.23785751051E+00  0.25601844744E+02  0.34591092092E+02  0.00000000000E+00 0. -1.
</event>
<event>
 7    1  0.1465498E-013  0.7246141E+02  0.7816164E-02  0.1226708E+00
        -11   -1    0    0    0    0  0.00000000000E+00  0.00000000000E+00  0.45593999997E+02  0.45594000000E+02  0.51100000000E-03 0. -1.
         11   -1    0    0    0    0 -0.00000000000E+00 -0.00000000000E+00 -0.45593999997E+02  0.45594000000E+02  0.51100000000E-03 0.  1.
    9900012    2    1    2    0    0 -0.16488183922E+02  0.80362783194E+01 -0.37739996066E+01  0.72461413250E+02  0.69999795420E+02 0.  0.
         12    1    1    2    0    0  0.16488183922E+02 -0.80362783194E+01  0.37739996066E+01  0.18726586750E+02  0.00000000000E+00 0. -1.
         11    1    3    3    0    0  0.69286723586E+01 -0.52882926007E+01  0.23441422054E+02  0.25009454362E+02  0.51100000000E-03 0. -1.
        -11    1    3    3    0    0  0.48573561314E+00 -0.63248972994E+01 -0.15411667916E+00  0.63453933799E+01  0.51100000000E-03 0.  1.
        -12    1    3    3    0    0 -0.23902591894E+02  0.19649468220E+02 -0.27061304982E+02  0.41106565508E+02  0.00000000000E+00 0.  1.
</event>
<event>
 7    1  0.1465498E-013  0.7246159E+02  0.7816164E-02  0.1226708E+00
        -11   -1    0    0    0    0  0.00000000000E+00  0.00000000000E+00  0.45593999997E+02  0.45594000000E+02  0.51100000000E-03 0.  1.
         11   -1    0    0    0    0 -0.00000000000E+00 -0.00000000000E+00 -0.45593999997E+02  0.45594000000E+02  0.51100000000E-03 0. -1.
    9900012    2    1    2    0    0 -0.13246349955E+02  0.69953031697E+01  0.11237370953E+02  0.72461586582E+02  0.70000021218E+02 0.  0.
         12    1    1    2    0    0  0.13246349955E+02 -0.69953031697E+01 -0.11237370953E+02  0.18726413418E+02  0.00000000000E+00 0. -1.
         11    1    3    3    0    0 -0.27495548392E+01 -0.11234930535E+02 -0.13742801389E+02  0.17962413708E+02  0.51100000000E-03 0. -1.
        -11    1    3    3    0    0 -0.22160459391E+02  0.21700996209E+02  0.54553745336E+01  0.31492543696E+02  0.51100000000E-03 0.  1.
         12    1    3    3    0    0  0.11663664275E+02 -0.34707625045E+01  0.19524797809E+02  0.23006629178E+02  0.00000000000E+00 0. -1.
</event>
<event>
 7    1  0.1465498E-013  0.7246156E+02  0.7816164E-02  0.1226708E+00
        -11   -1    0    0    0    0  0.00000000000E+00  0.00000000000E+00  0.45593999997E+02  0.45594000000E+02  0.51100000000E-03 0.  1.
         11   -1    0    0    0    0 -0.00000000000E+00 -0.00000000000E+00 -0.45593999997E+02  0.45594000000E+02  0.51100000000E-03 0. -1.
    9900012    2    1    2    0    0 -0.75597948951E+01 -0.22830622060E+01  0.16979892710E+02  0.72461558044E+02  0.69999984042E+02 0.  0.
         12    1    1    2    0    0  0.75597948951E+01  0.22830622060E+01 -0.16979892710E+02  0.18726441956E+02  0.00000000000E+00 0. -1.
         11    1    3    3    0    0  0.20303863870E+01 -0.34142809047E+01 -0.17427704388E+02  0.17874693382E+02  0.51100000000E-03 0. -1.
        -11    1    3    3    0    0  0.24265141563E+00  0.20908686630E+01 -0.94237109727E+01  0.96559277252E+01  0.51100000000E-03 0.  1.
        -12    1    3    3    0    0 -0.98328326977E+01 -0.95964996430E+00  0.43831308071E+02  0.44930936938E+02  0.00000000000E+00 0.  1.
</event>
<event>
 7    1  0.1465498E-013  0.7246158E+02  0.7816164E-02  0.1226708E+00
        -11   -1    0    0    0    0  0.00000000000E+00  0.00000000000E+00  0.45593999997E+02  0.45594000000E+02  0.51100000000E-03 0. -1.
         11   -1    0    0    0    0 -0.00000000000E+00 -0.00000000000E+00 -0.45593999997E+02  0.45594000000E+02  0.51100000000E-03 0.  1.
    9900012    2    1    2    0    0  0.11881137516E+02 -0.13959904483E+02 -0.38260168340E+01  0.72461581051E+02  0.70000014013E+02 0.  0.
         12    1    1    2    0    0 -0.11881137516E+02  0.13959904483E+02  0.38260168340E+01  0.18726418949E+02  0.00000000000E+00 0. -1.
         11    1    3    3    0    0 -0.10620082023E+02 -0.10852157411E+02 -0.80853553182E+00  0.15205564528E+02  0.51100000000E-03 0. -1.
        -11    1    3    3    0    0  0.15269611916E+02  0.24149061585E+02  0.18828068739E+01  0.28633602384E+02  0.51100000000E-03 0.  1.
         12    1    3    3    0    0  0.72316076235E+01 -0.27256808656E+02 -0.49002881760E+01  0.28622414139E+02  0.00000000000E+00 0. -1.
</event>
<event>
 7    1  0.1465498E-013  0.7246158E+02  0.7816164E-02  0.1226708E+00
        -11   -1    0    0    0    0  0.00000000000E+00  0.00000000000E+00  0.45593999997E+02  0.45594000000E+02  0.51100000000E-03 0.  1.
         11   -1    0    0    0    0 -0.00000000000E+00 -0.00000000000E+00 -0.45593999997E+02  0.45594000000E+02  0.51100000000E-03 0. -1.
    9900012    2    1    2    0    0 -0.13229454527E+02  0.11273752373E+02  0.69687161618E+01  0.72461575765E+02  0.70000007127E+02 0.  0.
         12    1    1    2    0    0  0.13229454527E+02 -0.11273752373E+02 -0.69687161618E+01  0.18726424235E+02  0.00000000000E+00 0. -1.
         11    1    3    3    0    0  0.22969123762E+02  0.13516202415E+01 -0.61068954392E+01  0.23805497177E+02  0.51100000000E-03 0. -1.
        -11    1    3    3    0    0 -0.12214172291E+02  0.10835404314E-01 -0.85217843789E+01  0.14893184059E+02  0.51100000000E-03 0.  1.
        -12    1    3    3    0    0 -0.23984405998E+02  0.99112967276E+01  0.21597395980E+02  0.33762894530E+02  0.00000000000E+00 0.  1.
</event>
<event>
 7    1  0.1465498E-013  0.7246156E+02  0.7816164E-02  0.1226708E+00
        -11   -1    0    0    0    0  0.00000000000E+00  0.00000000000E+00  0.45593999997E+02  0.45594000000E+02  0.51100000000E-03 0.  1.
         11   -1    0    0    0    0 -0.00000000000E+00 -0.00000000000E+00 -0.45593999997E+02  0.45594000000E+02  0.51100000000E-03 0. -1.
    9900012    2    1    2    0    0  0.23908367717E+01  0.16977389130E+02  0.75320549489E+01  0.72461556294E+02  0.69999981761E+02 0.  0.
         12    1    1    2    0    0 -0.23908367717E+01 -0.16977389130E+02 -0.75320549489E+01  0.18726443706E+02  0.00000000000E+00 0. -1.
         11    1    3    3    0    0  0.20105792582E+02  0.66259599837E+00 -0.29874545038E+01  0.20337325622E+02  0.51100000000E-03 0. -1.
        -11    1    3    3    0    0 -0.10154311852E+01  0.28762139807E+02 -0.22756731769E-01  0.28780067840E+02  0.51100000000E-03 0.  1.
         12    1    3    3    0    0 -0.16699524625E+02 -0.12447346676E+02  0.10542266184E+02  0.23344162831E+02  0.00000000000E+00 0. -1.
</event>
<event>
 7    1  0.1465498E-013  0.7246157E+02  0.7816164E-02  0.1226708E+00
        -11   -1    0    0    0    0  0.00000000000E+00  0.00000000000E+00  0.45593999997E+02  0.45594000000E+02  0.51100000000E-03 0.  1.
         11   -1    0    0    0    0 -0.00000000000E+00 -0.00000000000E+00 -0.45593999997E+02  0.45594000000E+02  0.51100000000E-03 0. -1.
    9900012    2    1    2    0    0  0.15438015926E+02  0.10539859050E+02 -0.11217481667E+01  0.72461567252E+02  0.69999996036E+02 0.  0.
         12    1    1    2    0    0 -0.15438015926E+02 -0.10539859050E+02  0.11217481667E+01  0.18726432748E+02  0.00000000000E+00 0. -1.
         11    1    3    3    0    0  0.23652234823E+02  0.44840421544E+00  0.19631264408E+02  0.30741109625E+02  0.51100000000E-03 0.  1.
        -11    1    3    3    0    0 -0.14656332221E+02  0.77194784637E-01  0.31722031732E+01  0.14995896320E+02  0.51100000000E-03 0. -1.
        -12    1    3    3    0    0  0.64421133237E+01  0.10014260050E+02 -0.23925215748E+02  0.26724561307E+02  0.00000000000E+00 0.  1.
</event>
<event>
 7    1  0.1465498E-013  0.7246154E+02  0.7816164E-02  0.1226708E+00
        -11   -1    0    0    0    0  0.00000000000E+00  0.00000000000E+00  0.45593999997E+02  0.45594000000E+02  0.51100000000E-03 0. -1.
         11   -1    0    0    0    0 -0.00000000000E+00 -0.00000000000E+00 -0.45593999997E+02  0.45594000000E+02  0.51100000000E-03 0.  1.
    9900012    2    1    2    0    0  0.14468196790E+02  0.76093853849E+01 -0.91350388604E+01  0.72461537460E+02  0.69999957227E+02 0.  0.
         12    1    1    2    0    0 -0.14468196790E+02 -0.76093853849E+01  0.91350388604E+01  0.18726462540E+02  0.00000000000E+00 0. -1.
         11    1    3    3    0    0  0.19143852242E+02 -0.88163857686E+01 -0.61378725903E+01  0.21951975239E+02  0.51100000000E-03 0. -1.
        -11    1    3    3    0    0  0.15126226541E+02 -0.24915637045E+01  0.11833383303E+02  0.19365938648E+02  0.51100000000E-03 0.  1.
        -12    1    3    3    0    0 -0.19801881993E+02  0.18917334858E+02 -0.14830549573E+02  0.31143623573E+02  0.00000000000E+00 0.  1.
</event>
<event>
 7    1  0.1465498E-013  0.7246160E+02  0.7816164E-02  0.1226708E+00
        -11   -1    0    0    0    0  0.00000000000E+00  0.00000000000E+00  0.45593999997E+02  0.45594000000E+02  0.51100000000E-03 0. -1.
         11   -1    0    0    0    0 -0.00000000000E+00 -0.00000000000E+00 -0.45593999997E+02  0.45594000000E+02  0.51100000000E-03 0.  1.
    9900012    2    1    2    0    0  0.18332410593E+02  0.19324063246E+01 -0.32964763629E+01  0.72461595412E+02  0.70000032721E+02 0.  0.
         12    1    1    2    0    0 -0.18332410593E+02 -0.19324063246E+01  0.32964763629E+01  0.18726404588E+02  0.00000000000E+00 0. -1.
         11    1    3    3    0    0 -0.24018990720E+02  0.40673273362E+01 -0.73342493087E+01  0.25441035358E+02  0.51100000000E-03 0. -1.
        -11    1    3    3    0    0 -0.92826025421E+00 -0.32806989588E+01  0.12665245879E+01  0.36371331500E+01  0.51100000000E-03 0.  1.
        -12    1    3    3    0    0  0.43279661568E+02  0.11457779473E+01  0.27712483579E+01  0.43383426905E+02  0.00000000000E+00 0.  1.
</event>
<event>
 7    1  0.1465498E-013  0.7246167E+02  0.7816164E-02  0.1226708E+00
        -11   -1    0    0    0    0  0.00000000000E+00  0.00000000000E+00  0.45593999997E+02  0.45594000000E+02  0.51100000000E-03 0.  1.
         11   -1    0    0    0    0 -0.00000000000E+00 -0.00000000000E+00 -0.45593999997E+02  0.45594000000E+02  0.51100000000E-03 0. -1.
    9900012    2    1    2    0    0 -0.17374985760E+02 -0.24159360811E+01  0.65535016229E+01  0.72461674658E+02  0.70000135953E+02 0.  0.
         12    1    1    2    0    0  0.17374985760E+02  0.24159360811E+01 -0.65535016229E+01  0.18726325342E+02  0.00000000000E+00 0. -1.
         11    1    3    3    0    0 -0.68661510093E+01  0.16992896707E+01  0.22265515052E+02  0.23362037066E+02  0.51100000000E-03 0. -1.
        -11    1    3    3    0    0 -0.79247142983E+01 -0.15290696900E+02  0.10720013470E+02  0.20286083838E+02  0.51100000000E-03 0.  1.
         12    1    3    3    0    0 -0.25841204522E+01  0.11175471148E+02 -0.26432026900E+02  0.28813553754E+02  0.00000000000E+00 0. -1.
</event>
<event>
 7    1  0.1465498E-013  0.7246157E+02  0.7816164E-02  0.1226708E+00
        -11   -1    0    0    0    0  0.00000000000E+00  0.00000000000E+00  0.45593999997E+02  0.45594000000E+02  0.51100000000E-03 0. -1.
         11   -1    0    0    0    0 -0.00000000000E+00 -0.00000000000E+00 -0.45593999997E+02  0.45594000000E+02  0.51100000000E-03 0.  1.
    9900012    2    1    2    0    0  0.16346257117E+02 -0.91313360190E+01 -0.31279926409E+00  0.72461567809E+02  0.69999996762E+02 0.  0.
         12    1    1    2    0    0 -0.16346257117E+02  0.91313360190E+01  0.31279926409E+00  0.18726432191E+02  0.00000000000E+00 0. -1.
         11    1    3    3    0    0 -0.36517427670E+01 -0.11173753824E+01 -0.10440722230E+02  0.11117213407E+02  0.51100000000E-03 0. -1.
        -11    1    3    3    0    0  0.30388789208E+02 -0.16879896798E+02 -0.10757736809E+02  0.36388711532E+02  0.51100000000E-03 0.  1.
         12    1    3    3    0    0 -0.10390789324E+02  0.88659361613E+01  0.20885659776E+02  0.24955642870E+02  0.00000000000E+00 0. -1.
</event>
<event>
 7    1  0.1465498E-013  0.7246151E+02  0.7816164E-02  0.1226708E+00
        -11   -1    0    0    0    0  0.00000000000E+00  0.00000000000E+00  0.45593999997E+02  0.45594000000E+02  0.51100000000E-03 0. -1.
         11   -1    0    0    0    0 -0.00000000000E+00 -0.00000000000E+00 -0.45593999997E+02  0.45594000000E+02  0.51100000000E-03 0.  1.
    9900012    2    1    2    0    0  0.96545693013E+01 -0.15784669178E+02  0.28835919320E+01  0.72461505616E+02  0.69999915745E+02 0.  0.
         12    1    1    2    0    0 -0.96545693013E+01  0.15784669178E+02 -0.28835919320E+01  0.18726494384E+02  0.00000000000E+00 0. -1.
         11    1    3    3    0    0 -0.26080444802E+02  0.13732643512E+00  0.34209264182E+01  0.26304204938E+02  0.51100000000E-03 0. -1.
        -11    1    3    3    0    0  0.11585124840E+01  0.52614151990E+01  0.13833556479E+01  0.55622220543E+01  0.51100000000E-03 0.  1.
        -12    1    3    3    0    0  0.34576501619E+02 -0.21183410813E+02 -0.19206901340E+01  0.40595078624E+02  0.00000000000E+00 0.  1.
</event>
<event>
 7    1  0.1465498E-013  0.7246166E+02  0.7816164E-02  0.1226708E+00
        -11   -1    0    0    0    0  0.00000000000E+00  0.00000000000E+00  0.45593999997E+02  0.45594000000E+02  0.51100000000E-03 0.  1.
         11   -1    0    0    0    0 -0.00000000000E+00 -0.00000000000E+00 -0.45593999997E+02  0.45594000000E+02  0.51100000000E-03 0. -1.
    9900012    2    1    2    0    0 -0.84093109770E+01 -0.74662767906E+01  0.14973780705E+02  0.72461657356E+02  0.70000113414E+02 0.  0.
         12    1    1    2    0    0  0.84093109770E+01  0.74662767906E+01 -0.14973780705E+02  0.18726342644E+02  0.00000000000E+00 0. -1.
         11    1    3    3    0    0 -0.31925682960E+01  0.75296797662E+01  0.51299400382E+01  0.96542661432E+01  0.51100000000E-03 0. -1.
        -11    1    3    3    0    0 -0.28885537924E+02  0.62340561447E+01  0.92976406212E-01  0.29550742834E+02  0.51100000000E-03 0.  1.
        -12    1    3    3    0    0  0.23668795243E+02 -0.21230012702E+02  0.97508642604E+01  0.33256648379E+02  0.00000000000E+00 0.  1.
</event>
<event>
 7    1  0.1465498E-013  0.7246156E+02  0.7816164E-02  0.1226708E+00
        -11   -1    0    0    0    0  0.00000000000E+00  0.00000000000E+00  0.45593999997E+02  0.45594000000E+02  0.51100000000E-03 0.  1.
         11   -1    0    0    0    0 -0.00000000000E+00 -0.00000000000E+00 -0.45593999997E+02  0.45594000000E+02  0.51100000000E-03 0. -1.
    9900012    2    1    2    0    0  0.47668415782E+01 -0.17808409502E+02  0.32889738025E+01  0.72461559433E+02  0.69999985851E+02 0.  0.
         12    1    1    2    0    0 -0.47668415782E+01  0.17808409502E+02 -0.32889738025E+01  0.18726440567E+02  0.00000000000E+00 0. -1.
         11    1    3    3    0    0 -0.23599050337E+01  0.56969716237E+01  0.54914465961E+01  0.82571558922E+01  0.51100000000E-03 0. -1.
        -11    1    3    3    0    0  0.17434934768E+02 -0.83458858991E+01  0.24876582844E+02  0.31503573386E+02  0.51100000000E-03 0.  1.
         12    1    3    3    0    0 -0.10308188156E+02 -0.15159495227E+02 -0.27079055638E+02  0.32700830155E+02  0.00000000000E+00 0. -1.
</event>
<event>
 7    1  0.1465498E-013  0.7246157E+02  0.7816164E-02  0.1226708E+00
        -11   -1    0    0    0    0  0.00000000000E+00  0.00000000000E+00  0.45593999997E+02  0.45594000000E+02  0.51100000000E-03 0. -1.
         11   -1    0    0    0    0 -0.00000000000E+00 -0.00000000000E+00 -0.45593999997E+02  0.45594000000E+02  0.51100000000E-03 0.  1.
    9900012    2    1    2    0    0  0.14396292632E+02  0.78858175886E+01 -0.90133079063E+01  0.72461572684E+02  0.70000003114E+02 0.  0.
         12    1    1    2    0    0 -0.14396292632E+02 -0.78858175886E+01  0.90133079063E+01  0.18726427316E+02  0.00000000000E+00 0. -1.
         11    1    3    3    0    0  0.95871908737E+01  0.24591115076E+01  0.12272630906E+01  0.99733461391E+01  0.51100000000E-03 0. -1.
        -11    1    3    3    0    0 -0.18886092069E+01  0.38887868859E+01 -0.35780094195E+02  0.36040319769E+02  0.51100000000E-03 0.  1.
         12    1    3    3    0    0  0.66977109653E+01  0.15379191952E+01  0.25539523199E+02  0.26447906776E+02  0.00000000000E+00 0. -1.
</event>
<event>
 7    1  0.1465498E-013  0.7246162E+02  0.7816164E-02  0.1226708E+00
        -11   -1    0    0    0    0  0.00000000000E+00  0.00000000000E+00  0.45593999997E+02  0.45594000000E+02  0.51100000000E-03 0.  1.
         11   -1    0    0    0    0 -0.00000000000E+00 -0.00000000000E+00 -0.45593999997E+02  0.45594000000E+02  0.51100000000E-03 0. -1.
    9900012    2    1    2    0    0  0.19907043935E+01  0.74502241371E+01  0.17064829791E+02  0.72461623963E+02  0.70000069913E+02 0.  0.
         12    1    1    2    0    0 -0.19907043935E+01 -0.74502241371E+01 -0.17064829791E+02  0.18726376037E+02  0.00000000000E+00 0. -1.
         11    1    3    3    0    0 -0.55920300467E+01  0.52109148256E+01 -0.71443944013E+01  0.10462638529E+02  0.51100000000E-03 0. -1.
        -11    1    3    3    0    0  0.11314827117E+02  0.23045230048E+02  0.30574139594E+02  0.39923501260E+02  0.51100000000E-03 0.  1.
         12    1    3    3    0    0 -0.37320926771E+01 -0.20805920737E+02 -0.63649154020E+01  0.22075484174E+02  0.00000000000E+00 0. -1.
</event>
<event>
 7    1  0.1465498E-013  0.7246154E+02  0.7816164E-02  0.1226708E+00
        -11   -1    0    0    0    0  0.00000000000E+00  0.00000000000E+00  0.45593999997E+02  0.45594000000E+02  0.51100000000E-03 0. -1.
         11   -1    0    0    0    0 -0.00000000000E+00 -0.00000000000E+00 -0.45593999997E+02  0.45594000000E+02  0.51100000000E-03 0.  1.
    9900012    2    1    2    0    0 -0.25450004548E+00  0.18706652836E+02 -0.82251385342E+00  0.72461543858E+02  0.69999965562E+02 0.  0.
         12    1    1    2    0    0  0.25450004548E+00 -0.18706652836E+02  0.82251385342E+00  0.18726456142E+02  0.00000000000E+00 0. -1.
         11    1    3    3    0    0  0.12927460655E+02 -0.58965597356E+01 -0.16074709653E+02  0.21454252408E+02  0.51100000000E-03 0. -1.
        -11    1    3    3    0    0 -0.16289951664E+01  0.25397354158E+02 -0.65866950447E+01  0.26288091893E+02  0.51100000000E-03 0.  1.
         12    1    3    3    0    0 -0.11552965534E+02 -0.79414158671E+00  0.21838890844E+02  0.24719199558E+02  0.00000000000E+00 0. -1.
</event>
<event>
 7    1  0.1594946E-013  0.7246158E+02  0.7816164E-02  0.1226708E+00
        -11   -1    0    0    0    0  0.00000000000E+00  0.00000000000E+00  0.45593999997E+02  0.45594000000E+02  0.51100000000E-03 0. -1.
         11   -1    0    0    0    0 -0.00000000000E+00 -0.00000000000E+00 -0.45593999997E+02  0.45594000000E+02  0.51100000000E-03 0.  1.
    9900012    2    1    2    0    0 -0.10056011144E+02 -0.10910397317E+02 -0.11424479447E+02  0.72461578549E+02  0.70000010753E+02 0.  0.
         12    1    1    2    0    0  0.10056011144E+02  0.10910397317E+02  0.11424479447E+02  0.18726421451E+02  0.00000000000E+00 0. -1.
         11    1    3    3    0    0  0.53067053587E+01  0.26230081759E+01  0.15266671988E+02  0.16374143260E+02  0.51100000000E-03 0. -1.
        -11    1    3    3    0    0  0.15482218832E+02 -0.95842958440E+01 -0.90181985369E+01  0.20319589856E+02  0.51100000000E-03 0.  1.
        -12    1    3    3    0    0 -0.30844935335E+02 -0.39491096488E+01 -0.17672952898E+02  0.35767845433E+02  0.00000000000E+00 0.  1.
</event>
<event>
 7    1  0.1465498E-013  0.7246149E+02  0.7816164E-02  0.1226708E+00
        -11   -1    0    0    0    0  0.00000000000E+00  0.00000000000E+00  0.45593999997E+02  0.45594000000E+02  0.51100000000E-03 0.  1.
         11   -1    0    0    0    0 -0.00000000000E+00 -0.00000000000E+00 -0.45593999997E+02  0.45594000000E+02  0.51100000000E-03 0. -1.
    9900012    2    1    2    0    0 -0.28278596861E+01 -0.57312010131E+01  0.17602232774E+02  0.72461493276E+02  0.69999899670E+02 0.  0.
         12    1    1    2    0    0  0.28278596861E+01  0.57312010131E+01 -0.17602232774E+02  0.18726506724E+02  0.00000000000E+00 0. -1.
         11    1    3    3    0    0  0.54798317670E+01 -0.13857593305E+02  0.51706035106E+01  0.15773287207E+02  0.51100000000E-03 0. -1.
        -11    1    3    3    0    0  0.19141295650E+02  0.14727995040E+02 -0.32890909408E+01  0.24374600644E+02  0.51100000000E-03 0.  1.
        -12    1    3    3    0    0 -0.27448987103E+02 -0.66016027482E+01  0.15720720204E+02  0.32313605425E+02  0.00000000000E+00 0.  1.
</event>
<event>
 7    1  0.1465498E-013  0.7246152E+02  0.7816164E-02  0.1226708E+00
        -11   -1    0    0    0    0  0.00000000000E+00  0.00000000000E+00  0.45593999997E+02  0.45594000000E+02  0.51100000000E-03 0.  1.
         11   -1    0    0    0    0 -0.00000000000E+00 -0.00000000000E+00 -0.45593999997E+02  0.45594000000E+02  0.51100000000E-03 0. -1.
    9900012    2    1    2    0    0  0.30921562089E+01  0.17923614737E+02  0.44568486627E+01  0.72461524217E+02  0.69999939976E+02 0.  0.
         12    1    1    2    0    0 -0.30921562089E+01 -0.17923614737E+02 -0.44568486627E+01  0.18726475783E+02  0.00000000000E+00 0. -1.
         11    1    3    3    0    0 -0.15882838110E+02  0.19303461531E+02 -0.13905351916E+02  0.28605016792E+02  0.51100000000E-03 0. -1.
        -11    1    3    3    0    0  0.61835901101E+01  0.11124354043E+02  0.22173979279E+02  0.25567037311E+02  0.51100000000E-03 0.  1.
        -12    1    3    3    0    0  0.12791404209E+02 -0.12504200837E+02 -0.38117787007E+01  0.18289470114E+02  0.00000000000E+00 0.  1.
</event>
<event>
 7    1  0.1465498E-013  0.7246158E+02  0.7816164E-02  0.1226708E+00
        -11   -1    0    0    0    0  0.00000000000E+00  0.00000000000E+00  0.45593999997E+02  0.45594000000E+02  0.51100000000E-03 0. -1.
         11   -1    0    0    0    0 -0.00000000000E+00 -0.00000000000E+00 -0.45593999997E+02  0.45594000000E+02  0.51100000000E-03 0.  1.
    9900012    2    1    2    0    0  0.40695688842E+01  0.16255982671E+02 -0.83582539818E+01  0.72461580878E+02  0.70000013787E+02 0.  0.
         12    1    1    2    0    0 -0.40695688842E+01 -0.16255982671E+02  0.83582539818E+01  0.18726419122E+02  0.00000000000E+00 0. -1.
         11    1    3    3    0    0 -0.36727618625E+01  0.22280194872E+02  0.97431779025E+01  0.24593205954E+02  0.51100000000E-03 0. -1.
        -11    1    3    3    0    0  0.17725953628E+02  0.16769700620E+01  0.75079278606E+01  0.19323318598E+02  0.51100000000E-03 0.  1.
         12    1    3    3    0    0 -0.99836228817E+01 -0.77011822626E+01 -0.25609359745E+02  0.28545056326E+02  0.00000000000E+00 0. -1.
</event>
<event>
 7    1  0.1465498E-013  0.7246158E+02  0.7816164E-02  0.1226708E+00
        -11   -1    0    0    0    0  0.00000000000E+00  0.00000000000E+00  0.45593999997E+02  0.45594000000E+02  0.51100000000E-03 0. -1.
         11   -1    0    0    0    0 -0.00000000000E+00 -0.00000000000E+00 -0.45593999997E+02  0.45594000000E+02  0.51100000000E-03 0.  1.
    9900012    2    1    2    0    0 -0.11111291801E+02 -0.11688060412E+02 -0.95187846920E+01  0.72461579528E+02  0.70000012029E+02 0.  0.
         12    1    1    2    0    0  0.11111291801E+02  0.11688060412E+02  0.95187846920E+01  0.18726420472E+02  0.00000000000E+00 0. -1.
         11    1    3    3    0    0 -0.15657393747E+02  0.19323512119E+02 -0.14875386496E+02  0.28979807164E+02  0.51100000000E-03 0. -1.
        -11    1    3    3    0    0  0.10696888353E+02 -0.80693550564E+01 -0.86103606180E+01  0.15927216382E+02  0.51100000000E-03 0.  1.
        -12    1    3    3    0    0 -0.61507864058E+01 -0.22942217475E+02  0.13966962422E+02  0.27554555982E+02  0.00000000000E+00 0.  1.
</event>
<event>
 7    1  0.1465498E-013  0.7246158E+02  0.7816164E-02  0.1226708E+00
        -11   -1    0    0    0    0  0.00000000000E+00  0.00000000000E+00  0.45593999997E+02  0.45594000000E+02  0.51100000000E-03 0.  1.
         11   -1    0    0    0    0 -0.00000000000E+00 -0.00000000000E+00 -0.45593999997E+02  0.45594000000E+02  0.51100000000E-03 0. -1.
    9900012    2    1    2    0    0 -0.23156004649E+01 -0.15006004891E+02  0.10960690255E+02  0.72461576979E+02  0.70000008708E+02 0.  0.
         12    1    1    2    0    0  0.23156004649E+01  0.15006004891E+02 -0.10960690255E+02  0.18726423021E+02  0.00000000000E+00 0. -1.
         11    1    3    3    0    0 -0.28365747957E+01 -0.42328028689E+01  0.68461845991E+01  0.85342264163E+01  0.51100000000E-03 0. -1.
        -11    1    3    3    0    0 -0.31086816435E+02 -0.75709411991E+01  0.10884039754E+01  0.32013964612E+02  0.51100000000E-03 0.  1.
         12    1    3    3    0    0  0.31607790766E+02 -0.32022608226E+01  0.30261016802E+01  0.31913385951E+02  0.00000000000E+00 0. -1.
</event>
<event>
 7    1  0.1465498E-013  0.7246158E+02  0.7816164E-02  0.1226708E+00
        -11   -1    0    0    0    0  0.00000000000E+00  0.00000000000E+00  0.45593999997E+02  0.45594000000E+02  0.51100000000E-03 0.  1.
         11   -1    0    0    0    0 -0.00000000000E+00 -0.00000000000E+00 -0.45593999997E+02  0.45594000000E+02  0.51100000000E-03 0. -1.
    9900012    2    1    2    0    0 -0.83995869587E+01 -0.78050144881E+01  0.14805655505E+02  0.72461581571E+02  0.70000014690E+02 0.  0.
         12    1    1    2    0    0  0.83995869587E+01  0.78050144881E+01 -0.14805655505E+02  0.18726418429E+02  0.00000000000E+00 0. -1.
         11    1    3    3    0    0  0.33423973462E+01 -0.22203005470E+01 -0.67613477388E+01  0.78623900975E+01  0.51100000000E-03 0. -1.
        -11    1    3    3    0    0 -0.15644953699E+02 -0.30707986387E+01 -0.18409667421E+02  0.24353854630E+02  0.51100000000E-03 0.  1.
         12    1    3    3    0    0  0.39029693940E+01 -0.25139153023E+01  0.39976670665E+02  0.40245336844E+02  0.00000000000E+00 0. -1.
</event>
<event>
 7    1  0.1465498E-013  0.7246158E+02  0.7816164E-02  0.1226708E+00
        -11   -1    0    0    0    0  0.00000000000E+00  0.00000000000E+00  0.45593999997E+02  0.45594000000E+02  0.51100000000E-03 0.  1.
         11   -1    0    0    0    0 -0.00000000000E+00 -0.00000000000E+00 -0.45593999997E+02  0.45594000000E+02  0.51100000000E-03 0. -1.
    9900012    2    1    2    0    0  0.11936907047E+02 -0.11113489719E+02  0.92021462923E+01  0.72461577492E+02  0.70000009376E+02 0.  0.
         12    1    1    2    0    0 -0.11936907047E+02  0.11113489719E+02 -0.92021462923E+01  0.18726422508E+02  0.00000000000E+00 0. -1.
         11    1    3    3    0    0  0.19090325502E+02 -0.81866557011E+01 -0.38733646272E+01  0.21129713986E+02  0.51100000000E-03 0. -1.
        -11    1    3    3    0    0  0.15672921603E+02  0.14135605933E+02  0.46226736434E+01  0.21606131966E+02  0.51100000000E-03 0.  1.
        -12    1    3    3    0    0 -0.22826340058E+02 -0.17062439951E+02  0.84528372761E+01  0.29725731539E+02  0.00000000000E+00 0.  1.
</event>
<event>
 7    1  0.1465498E-013  0.7246152E+02  0.7816164E-02  0.1226708E+00
        -11   -1    0    0    0    0  0.00000000000E+00  0.00000000000E+00  0.45593999997E+02  0.45594000000E+02  0.51100000000E-03 0.  1.
         11   -1    0    0    0    0 -0.00000000000E+00 -0.00000000000E+00 -0.45593999997E+02  0.45594000000E+02  0.51100000000E-03 0. -1.
    9900012    2    1    2    0    0 -0.12629901283E+02  0.74997512936E+01  0.11615516599E+02  0.72461524044E+02  0.69999939750E+02 0.  0.
         12    1    1    2    0    0  0.12629901283E+02 -0.74997512936E+01 -0.11615516599E+02  0.18726475956E+02  0.00000000000E+00 0. -1.
         11    1    3    3    0    0  0.19741070198E+02  0.22426950254E+02  0.14587371478E+02  0.33248599326E+02  0.51100000000E-03 0. -1.
        -11    1    3    3    0    0  0.10455188419E+01  0.74903216955E+00 -0.18902348359E+01  0.22862954393E+01  0.51100000000E-03 0.  1.
        -12    1    3    3    0    0 -0.33416490323E+02 -0.15676231130E+02 -0.10816200429E+01  0.36926629278E+02  0.00000000000E+00 0.  1.
</event>
<event>
 7    1  0.1465498E-013  0.7246157E+02  0.7816164E-02  0.1226708E+00
        -11   -1    0    0    0    0  0.00000000000E+00  0.00000000000E+00  0.45593999997E+02  0.45594000000E+02  0.51100000000E-03 0.  1.
         11   -1    0    0    0    0 -0.00000000000E+00 -0.00000000000E+00 -0.45593999997E+02  0.45594000000E+02  0.51100000000E-03 0. -1.
    9900012    2    1    2    0    0  0.60240526623E+00 -0.18368444726E+02  0.35939473162E+01  0.72461571855E+02  0.70000002033E+02 0.  0.
         12    1    1    2    0    0 -0.60240526623E+00  0.18368444726E+02 -0.35939473162E+01  0.18726428145E+02  0.00000000000E+00 0. -1.
         11    1    3    3    0    0 -0.80749538501E+01 -0.87714109596E+01 -0.28869179121E+02  0.31234148512E+02  0.51100000000E-03 0. -1.
        -11    1    3    3    0    0 -0.34764800741E+01  0.35905763236E+01  0.11285930630E+01  0.51236583223E+01  0.51100000000E-03 0.  1.
        -12    1    3    3    0    0  0.12153839190E+02 -0.13187610090E+02  0.31334533374E+02  0.36103765021E+02  0.00000000000E+00 0.  1.
</event>
<event>
 7    1  0.1465498E-013  0.7246157E+02  0.7816164E-02  0.1226708E+00
        -11   -1    0    0    0    0  0.00000000000E+00  0.00000000000E+00  0.45593999997E+02  0.45594000000E+02  0.51100000000E-03 0. -1.
         11   -1    0    0    0    0 -0.00000000000E+00 -0.00000000000E+00 -0.45593999997E+02  0.45594000000E+02  0.51100000000E-03 0.  1.
    9900012    2    1    2    0    0 -0.15689085754E+02  0.27761381849E+01 -0.98399589282E+01  0.72461570903E+02  0.70000000793E+02 0.  0.
         12    1    1    2    0    0  0.15689085754E+02 -0.27761381849E+01  0.98399589282E+01  0.18726429097E+02  0.00000000000E+00 0. -1.
         11    1    3    3    0    0 -0.68036143360E+01  0.65984902771E+01 -0.30220715133E+01  0.99479725805E+01  0.51100000000E-03 0. -1.
        -11    1    3    3    0    0 -0.47437993933E+01  0.26263685177E+02  0.91351033978E+01  0.28208773566E+02  0.51100000000E-03 0.  1.
         12    1    3    3    0    0 -0.41416720250E+01 -0.30086037269E+02 -0.15952990813E+02  0.34304824756E+02  0.00000000000E+00 0. -1.
</event>
<event>
 7    1  0.1465498E-013  0.7246146E+02  0.7816164E-02  0.1226708E+00
        -11   -1    0    0    0    0  0.00000000000E+00  0.00000000000E+00  0.45593999997E+02  0.45594000000E+02  0.51100000000E-03 0.  1.
         11   -1    0    0    0    0 -0.00000000000E+00 -0.00000000000E+00 -0.45593999997E+02  0.45594000000E+02  0.51100000000E-03 0. -1.
    9900012    2    1    2    0    0  0.15082883839E+02 -0.97686000136E+00 -0.11056028957E+02  0.72461456895E+02  0.69999852276E+02 0.  0.
         12    1    1    2    0    0 -0.15082883839E+02  0.97686000136E+00  0.11056028957E+02  0.18726543105E+02  0.00000000000E+00 0. -1.
         11    1    3    3    0    0  0.10068800366E+02  0.65625835503E+01 -0.13723940799E+01  0.12096764420E+02  0.51100000000E-03 0. -1.
        -11    1    3    3    0    0 -0.75592133695E+01 -0.81516644319E+01  0.22888043920E+02  0.25445115337E+02  0.51100000000E-03 0.  1.
         12    1    3    3    0    0  0.12573296842E+02  0.61222088023E+00 -0.32571678796E+02  0.34919577138E+02  0.00000000000E+00 0. -1.
</event>
<event>
 7    1  0.1465498E-013  0.7246156E+02  0.7816164E-02  0.1226708E+00
        -11   -1    0    0    0    0  0.00000000000E+00  0.00000000000E+00  0.45593999997E+02  0.45594000000E+02  0.51100000000E-03 0.  1.
         11   -1    0    0    0    0 -0.00000000000E+00 -0.00000000000E+00 -0.45593999997E+02  0.45594000000E+02  0.51100000000E-03 0. -1.
    9900012    2    1    2    0    0 -0.92825667381E+01 -0.14913544119E+02  0.64884366389E+01  0.72461557373E+02  0.69999983168E+02 0.  0.
         12    1    1    2    0    0  0.92825667381E+01  0.14913544119E+02 -0.64884366389E+01  0.18726442627E+02  0.00000000000E+00 0. -1.
         11    1    3    3    0    0  0.27284461015E+01 -0.18667750644E+01  0.85792465127E+01  0.91941687094E+01  0.51100000000E-03 0. -1.
        -11    1    3    3    0    0 -0.92371034932E+01  0.51457873735E+01  0.26914309514E+02  0.28916833601E+02  0.51100000000E-03 0.  1.
         12    1    3    3    0    0 -0.27739093465E+01 -0.18192556428E+02 -0.29005119387E+02  0.34350555063E+02  0.00000000000E+00 0. -1.
</event>
<event>
 7    1  0.1465498E-013  0.7246141E+02  0.7816164E-02  0.1226708E+00
        -11   -1    0    0    0    0  0.00000000000E+00  0.00000000000E+00  0.45593999997E+02  0.45594000000E+02  0.51100000000E-03 0. -1.
         11   -1    0    0    0    0 -0.00000000000E+00 -0.00000000000E+00 -0.45593999997E+02  0.45594000000E+02  0.51100000000E-03 0.  1.
    9900012    2    1    2    0    0  0.10222918272E+02 -0.49774401317E+01 -0.14879588291E+02  0.72461411523E+02  0.69999793171E+02 0.  0.
         12    1    1    2    0    0 -0.10222918272E+02  0.49774401317E+01  0.14879588291E+02  0.18726588477E+02  0.00000000000E+00 0. -1.
         11    1    3    3    0    0 -0.15188681588E+01 -0.15763763541E+02  0.90028121775E+01  0.18216855624E+02  0.51100000000E-03 0. -1.
        -11    1    3    3    0    0  0.16532326598E+02 -0.14027047452E+02 -0.18280955664E+02  0.28359640746E+02  0.51100000000E-03 0.  1.
         12    1    3    3    0    0 -0.47905401672E+01  0.24813370862E+02 -0.56014448039E+01  0.25884915153E+02  0.00000000000E+00 0. -1.
</event>
<event>
 7    1  0.1465498E-013  0.7246161E+02  0.7816164E-02  0.1226708E+00
        -11   -1    0    0    0    0  0.00000000000E+00  0.00000000000E+00  0.45593999997E+02  0.45594000000E+02  0.51100000000E-03 0. -1.
         11   -1    0    0    0    0 -0.00000000000E+00 -0.00000000000E+00 -0.45593999997E+02  0.45594000000E+02  0.51100000000E-03 0.  1.
    9900012    2    1    2    0    0 -0.71032945975E+01  0.14165125805E+02 -0.99784776274E+01  0.72461612228E+02  0.70000054627E+02 0.  0.
         12    1    1    2    0    0  0.71032945975E+01 -0.14165125805E+02  0.99784776274E+01  0.18726387772E+02  0.00000000000E+00 0. -1.
         11    1    3    3    0    0  0.23198394490E+01  0.68234244704E+01  0.10993831786E+02  0.13145535903E+02  0.51100000000E-03 0. -1.
        -11    1    3    3    0    0 -0.22127005655E+02  0.24708153668E+02 -0.77499030399E+01  0.34061095613E+02  0.51100000000E-03 0.  1.
         12    1    3    3    0    0  0.12703871608E+02 -0.17366452334E+02 -0.13222406374E+02  0.25254980713E+02  0.00000000000E+00 0. -1.
</event>
<event>
 7    1  0.1465498E-013  0.7246157E+02  0.7816164E-02  0.1226708E+00
        -11   -1    0    0    0    0  0.00000000000E+00  0.00000000000E+00  0.45593999997E+02  0.45594000000E+02  0.51100000000E-03 0. -1.
         11   -1    0    0    0    0 -0.00000000000E+00 -0.00000000000E+00 -0.45593999997E+02  0.45594000000E+02  0.51100000000E-03 0.  1.
    9900012    2    1    2    0    0 -0.13807616350E+02  0.81395475908E+01  0.96838291168E+01  0.72461573469E+02  0.70000004136E+02 0.  0.
         12    1    1    2    0    0  0.13807616350E+02 -0.81395475908E+01 -0.96838291168E+01  0.18726426531E+02  0.00000000000E+00 0. -1.
         11    1    3    3    0    0  0.14676839642E+02 -0.10730472850E+02 -0.13603082711E+02  0.22706750736E+02  0.51100000000E-03 0. -1.
        -11    1    3    3    0    0 -0.96662423489E+01 -0.57556414197E+01  0.45348073540E+00  0.11259187108E+02  0.51100000000E-03 0.  1.
        -12    1    3    3    0    0 -0.18818213643E+02  0.24625661860E+02  0.22833431092E+02  0.38495635626E+02  0.00000000000E+00 0.  1.
</event>
<event>
 7    1  0.1465498E-013  0.7246156E+02  0.7816164E-02  0.1226708E+00
        -11   -1    0    0    0    0  0.00000000000E+00  0.00000000000E+00  0.45593999997E+02  0.45594000000E+02  0.51100000000E-03 0.  1.
         11   -1    0    0    0    0 -0.00000000000E+00 -0.00000000000E+00 -0.45593999997E+02  0.45594000000E+02  0.51100000000E-03 0. -1.
    9900012    2    1    2    0    0  0.12776743649E+02  0.12345439947E+02  0.59181519027E+01  0.72461559128E+02  0.69999985454E+02 0.  0.
         12    1    1    2    0    0 -0.12776743649E+02 -0.12345439947E+02 -0.59181519027E+01  0.18726440872E+02  0.00000000000E+00 0. -1.
         11    1    3    3    0    0  0.16342150477E+02 -0.14738530572E+02  0.10756490958E+02  0.24494739509E+02  0.51100000000E-03 0. -1.
        -11    1    3    3    0    0  0.79361265887E+01 -0.47782457526E+01  0.74960166121E+01  0.11916543249E+02  0.51100000000E-03 0.  1.
         12    1    3    3    0    0 -0.11501533416E+02  0.31862216271E+02 -0.12334355668E+02  0.36050276370E+02  0.00000000000E+00 0. -1.
</event>
<event>
 7    1  0.1465498E-013  0.7246159E+02  0.7816164E-02  0.1226708E+00
        -11   -1    0    0    0    0  0.00000000000E+00  0.00000000000E+00  0.45593999997E+02  0.45594000000E+02  0.51100000000E-03 0. -1.
         11   -1    0    0    0    0 -0.00000000000E+00 -0.00000000000E+00 -0.45593999997E+02  0.45594000000E+02  0.51100000000E-03 0.  1.
    9900012    2    1    2    0    0  0.17096313562E+02  0.30772067293E+01 -0.69946742008E+01  0.72461585345E+02  0.70000019606E+02 0.  0.
         12    1    1    2    0    0 -0.17096313562E+02 -0.30772067293E+01  0.69946742008E+01  0.18726414655E+02  0.00000000000E+00 0. -1.
         11    1    3    3    0    0  0.22172140238E+02  0.35322119715E+01  0.45259704489E+00  0.22456294630E+02  0.51100000000E-03 0. -1.
        -11    1    3    3    0    0  0.19495400813E+02 -0.56339580645E+01  0.64646835738E+01  0.21297987470E+02  0.51100000000E-03 0.  1.
        -12    1    3    3    0    0 -0.24571227489E+02  0.51789528223E+01 -0.13911954819E+02  0.28707303244E+02  0.00000000000E+00 0.  1.
</event>
<event>
 7    1  0.1465498E-013  0.7246156E+02  0.7816164E-02  0.1226708E+00
        -11   -1    0    0    0    0  0.00000000000E+00  0.00000000000E+00  0.45593999997E+02  0.45594000000E+02  0.51100000000E-03 0.  1.
         11   -1    0    0    0    0 -0.00000000000E+00 -0.00000000000E+00 -0.45593999997E+02  0.45594000000E+02  0.51100000000E-03 0. -1.
    9900012    2    1    2    0    0  0.38110604127E+01  0.17870555244E+02  0.40986082921E+01  0.72461561040E+02  0.69999987945E+02 0.  0.
         12    1    1    2    0    0 -0.38110604127E+01 -0.17870555244E+02 -0.40986082921E+01  0.18726438960E+02  0.00000000000E+00 0. -1.
         11    1    3    3    0    0 -0.16805993883E+01  0.33506273431E+01  0.27426247098E+02  0.27681223746E+02  0.51100000000E-03 0. -1.
        -11    1    3    3    0    0  0.36032523558E+01 -0.11410487141E+02 -0.98327681997E+01  0.15487607145E+02  0.51100000000E-03 0.  1.
        -12    1    3    3    0    0  0.18884074451E+01  0.25930415042E+02 -0.13494870606E+02  0.29292730150E+02  0.00000000000E+00 0.  1.
</event>
<event>
 7    1  0.1465498E-013  0.7246193E+02  0.7816164E-02  0.1226707E+00
        -11   -1    0    0    0    0  0.00000000000E+00  0.00000000000E+00  0.45593999997E+02  0.45594000000E+02  0.51100000000E-03 0.  1.
         11   -1    0    0    0    0 -0.00000000000E+00 -0.00000000000E+00 -0.45593999997E+02  0.45594000000E+02  0.51100000000E-03 0. -1.
    9900012    2    1    2    0    0 -0.10630051215E+02  0.11324102023E+02  0.10460998856E+02  0.72461928001E+02  0.70000465977E+02 0.  0.
         12    1    1    2    0    0  0.10630051215E+02 -0.11324102023E+02 -0.10460998856E+02  0.18726071999E+02  0.00000000000E+00 0. -1.
         11    1    3    3    0    0 -0.10844968580E+02 -0.46471396327E+00  0.36929664193E+01  0.11465919230E+02  0.51100000000E-03 0. -1.
        -11    1    3    3    0    0 -0.27841767341E+02  0.53188997432E+01 -0.68254435325E+01  0.29155469175E+02  0.51100000000E-03 0.  1.
         12    1    3    3    0    0  0.28056684705E+02  0.64699162428E+01  0.13593475969E+02  0.31840539595E+02  0.00000000000E+00 0. -1.
</event>
<event>
 7    1  0.1465498E-013  0.7246152E+02  0.7816164E-02  0.1226708E+00
        -11   -1    0    0    0    0  0.00000000000E+00  0.00000000000E+00  0.45593999997E+02  0.45594000000E+02  0.51100000000E-03 0.  1.
         11   -1    0    0    0    0 -0.00000000000E+00 -0.00000000000E+00 -0.45593999997E+02  0.45594000000E+02  0.51100000000E-03 0. -1.
    9900012    2    1    2    0    0 -0.21132400305E+00 -0.49543891780E+01  0.18057970894E+02  0.72461522949E+02  0.69999938324E+02 0.  0.
         12    1    1    2    0    0  0.21132400305E+00  0.49543891780E+01 -0.18057970894E+02  0.18726477051E+02  0.00000000000E+00 0. -1.
         11    1    3    3    0    0  0.55744056171E+01  0.26309441792E+01 -0.10781711963E+01  0.62576607968E+01  0.51100000000E-03 0. -1.
        -11    1    3    3    0    0  0.17208207837E+02 -0.63067263956E+01  0.34118717129E+02  0.38729627852E+02  0.51100000000E-03 0.  1.
         12    1    3    3    0    0 -0.22993937458E+02 -0.12786069617E+01 -0.14982575039E+02  0.27474234300E+02  0.00000000000E+00 0. -1.
</event>
<event>
 7    1  0.1675309E-013  0.7246147E+02  0.7816164E-02  0.1226708E+00
        -11   -1    0    0    0    0  0.00000000000E+00  0.00000000000E+00  0.45593999997E+02  0.45594000000E+02  0.51100000000E-03 0.  1.
         11   -1    0    0    0    0 -0.00000000000E+00 -0.00000000000E+00 -0.45593999997E+02  0.45594000000E+02  0.51100000000E-03 0. -1.
    9900012    2    1    2    0    0 -0.17960674033E+02 -0.16633840655E+01 -0.50329092151E+01  0.72461472467E+02  0.69999872562E+02 0.  0.
         12    1    1    2    0    0  0.17960674033E+02  0.16633840655E+01  0.50329092151E+01  0.18726527533E+02  0.00000000000E+00 0. -1.
         11    1    3    3    0    0  0.13907906187E+02 -0.22423628947E+02 -0.90894306480E+01  0.27908184094E+02  0.51100000000E-03 0. -1.
        -11    1    3    3    0    0  0.27048328172E+00  0.11998720539E+01 -0.55810918548E+01  0.57150188718E+01  0.51100000000E-03 0.  1.
        -12    1    3    3    0    0 -0.32139063502E+02  0.19560372828E+02  0.96376132877E+01  0.38838269501E+02  0.00000000000E+00 0.  1.
</event>
<event>
 7    1  0.1465498E-013  0.7246156E+02  0.7816164E-02  0.1226708E+00
        -11   -1    0    0    0    0  0.00000000000E+00  0.00000000000E+00  0.45593999997E+02  0.45594000000E+02  0.51100000000E-03 0.  1.
         11   -1    0    0    0    0 -0.00000000000E+00 -0.00000000000E+00 -0.45593999997E+02  0.45594000000E+02  0.51100000000E-03 0. -1.
    9900012    2    1    2    0    0 -0.16468688990E+02  0.28186531606E+01  0.84567823793E+01  0.72461556374E+02  0.69999981866E+02 0.  0.
         12    1    1    2    0    0  0.16468688990E+02 -0.28186531606E+01 -0.84567823793E+01  0.18726443626E+02  0.00000000000E+00 0. -1.
         11    1    3    3    0    0  0.44289747049E+01  0.16254482762E+01 -0.19716956344E+02  0.20273536119E+02  0.51100000000E-03 0. -1.
        -11    1    3    3    0    0 -0.17027610032E+01 -0.64137430162E+01 -0.80868756403E+01  0.10461025399E+02  0.51100000000E-03 0.  1.
        -12    1    3    3    0    0 -0.19194902691E+02  0.76069479006E+01  0.36260614364E+02  0.41726994856E+02  0.00000000000E+00 0.  1.
</event>
<event>
 7    1  0.1465498E-013  0.7246156E+02  0.7816164E-02  0.1226708E+00
        -11   -1    0    0    0    0  0.00000000000E+00  0.00000000000E+00  0.45593999997E+02  0.45594000000E+02  0.51100000000E-03 0.  1.
         11   -1    0    0    0    0 -0.00000000000E+00 -0.00000000000E+00 -0.45593999997E+02  0.45594000000E+02  0.51100000000E-03 0. -1.
    9900012    2    1    2    0    0 -0.90121065200E+01  0.14377413407E+02  0.79215759435E+01  0.72461562922E+02  0.69999990397E+02 0.  0.
         12    1    1    2    0    0  0.90121065200E+01 -0.14377413407E+02 -0.79215759435E+01  0.18726437078E+02  0.00000000000E+00 0. -1.
         11    1    3    3    0    0 -0.10523972081E+01  0.14561850573E+01  0.15377548938E+02  0.15482151867E+02  0.51100000000E-03 0. -1.
        -11    1    3    3    0    0  0.11009594944E+02 -0.17082850864E+02  0.14713566394E+01  0.20376453692E+02  0.51100000000E-03 0.  1.
         12    1    3    3    0    0 -0.18969304255E+02  0.30004079213E+02 -0.89273296344E+01  0.36602957364E+02  0.00000000000E+00 0. -1.
</event>
<event>
 7    1  0.1465498E-013  0.7246157E+02  0.7816164E-02  0.1226708E+00
        -11   -1    0    0    0    0  0.00000000000E+00  0.00000000000E+00  0.45593999997E+02  0.45594000000E+02  0.51100000000E-03 0.  1.
         11   -1    0    0    0    0 -0.00000000000E+00 -0.00000000000E+00 -0.45593999997E+02  0.45594000000E+02  0.51100000000E-03 0. -1.
    9900012    2    1    2    0    0 -0.12451138063E+02 -0.12501581567E+02  0.62736689357E+01  0.72461566740E+02  0.69999995369E+02 0.  0.
         12    1    1    2    0    0  0.12451138063E+02  0.12501581567E+02 -0.62736689357E+01  0.18726433260E+02  0.00000000000E+00 0. -1.
         11    1    3    3    0    0  0.96321374328E+00  0.15376432675E+01  0.32892957823E+01  0.37565402351E+01  0.51100000000E-03 0. -1.
        -11    1    3    3    0    0  0.26017887288E+02 -0.16200947525E+01  0.74784456450E+01  0.27119777202E+02  0.51100000000E-03 0.  1.
         12    1    3    3    0    0 -0.39432239095E+02 -0.12419130082E+02 -0.44940724916E+01  0.41585249303E+02  0.00000000000E+00 0. -1.
</event>
<event>
 7    1  0.1465498E-013  0.7246153E+02  0.7816164E-02  0.1226708E+00
        -11   -1    0    0    0    0  0.00000000000E+00  0.00000000000E+00  0.45593999997E+02  0.45594000000E+02  0.51100000000E-03 0.  1.
         11   -1    0    0    0    0 -0.00000000000E+00 -0.00000000000E+00 -0.45593999997E+02  0.45594000000E+02  0.51100000000E-03 0. -1.
    9900012    2    1    2    0    0 -0.62646406268E+01 -0.89863312420E+01  0.15188180685E+02  0.72461529326E+02  0.69999946632E+02 0.  0.
         12    1    1    2    0    0  0.62646406268E+01  0.89863312420E+01 -0.15188180685E+02  0.18726470674E+02  0.00000000000E+00 0. -1.
         11    1    3    3    0    0 -0.78573057263E+01  0.57908434703E+01  0.17891800368E+02  0.20381060867E+02  0.51100000000E-03 0.  1.
        -11    1    3    3    0    0  0.64070490239E+01  0.14899887900E+02  0.10418050838E+02  0.19276740392E+02  0.51100000000E-03 0. -1.
         12    1    3    3    0    0 -0.48143839244E+01 -0.29677062612E+02 -0.13121670521E+02  0.32803728068E+02  0.00000000000E+00 0. -1.
</event>
<event>
 7    1  0.1465498E-013  0.7246156E+02  0.7816164E-02  0.1226708E+00
        -11   -1    0    0    0    0  0.00000000000E+00  0.00000000000E+00  0.45593999997E+02  0.45594000000E+02  0.51100000000E-03 0.  1.
         11   -1    0    0    0    0 -0.00000000000E+00 -0.00000000000E+00 -0.45593999997E+02  0.45594000000E+02  0.51100000000E-03 0. -1.
    9900012    2    1    2    0    0  0.16256070950E+02 -0.27421192732E+01 -0.88825958656E+01  0.72461559598E+02  0.69999986066E+02 0.  0.
         12    1    1    2    0    0 -0.16256070950E+02  0.27421192732E+01  0.88825958656E+01  0.18726440402E+02  0.00000000000E+00 0. -1.
         11    1    3    3    0    0 -0.12725313153E+00  0.52155559452E+01 -0.90964513838E+00  0.52958164352E+01  0.51100000000E-03 0. -1.
        -11    1    3    3    0    0 -0.25664693640E+01 -0.83104851323E+01  0.26464559230E+02  0.27857204160E+02  0.51100000000E-03 0.  1.
         12    1    3    3    0    0  0.18949793445E+02  0.35280991386E+00 -0.34437509957E+02  0.39308539002E+02  0.00000000000E+00 0. -1.
</event>
<event>
 7    1  0.1465498E-013  0.7246156E+02  0.7816164E-02  0.1226708E+00
        -11   -1    0    0    0    0  0.00000000000E+00  0.00000000000E+00  0.45593999997E+02  0.45594000000E+02  0.51100000000E-03 0. -1.
         11   -1    0    0    0    0 -0.00000000000E+00 -0.00000000000E+00 -0.45593999997E+02  0.45594000000E+02  0.51100000000E-03 0.  1.
    9900012    2    1    2    0    0  0.85443343275E+01 -0.16480986924E+02 -0.24598554478E+01  0.72461562327E+02  0.69999989621E+02 0.  0.
         12    1    1    2    0    0 -0.85443343275E+01  0.16480986924E+02  0.24598554478E+01  0.18726437673E+02  0.00000000000E+00 0. -1.
         11    1    3    3    0    0  0.36700134831E+00  0.33832056394E+01 -0.16927769401E+02  0.17266445712E+02  0.51100000000E-03 0. -1.
        -11    1    3    3    0    0 -0.48499362559E+01 -0.19037563579E+02 -0.13834179456E+02  0.24027801194E+02  0.51100000000E-03 0.  1.
         12    1    3    3    0    0  0.13027269235E+02 -0.82662898490E+00  0.28302093409E+02  0.31167315421E+02  0.00000000000E+00 0. -1.
</event>
<event>
 7    1  0.1465498E-013  0.7246149E+02  0.7816164E-02  0.1226708E+00
        -11   -1    0    0    0    0  0.00000000000E+00  0.00000000000E+00  0.45593999997E+02  0.45594000000E+02  0.51100000000E-03 0.  1.
         11   -1    0    0    0    0 -0.00000000000E+00 -0.00000000000E+00 -0.45593999997E+02  0.45594000000E+02  0.51100000000E-03 0. -1.
    9900012    2    1    2    0    0 -0.57305844629E+01 -0.43050150567E+01  0.17300561793E+02  0.72461489613E+02  0.69999894897E+02 0.  0.
         12    1    1    2    0    0  0.57305844629E+01  0.43050150567E+01 -0.17300561793E+02  0.18726510387E+02  0.00000000000E+00 0. -1.
         11    1    3    3    0    0  0.31869930788E+01  0.67441504093E+01  0.38988339051E+01  0.84167330781E+01  0.51100000000E-03 0. -1.
        -11    1    3    3    0    0  0.14077106292E+02  0.19683722515E+02  0.63567738396E+01  0.25020440194E+02  0.51100000000E-03 0.  1.
         12    1    3    3    0    0 -0.22994683834E+02 -0.30732887981E+02  0.70449540482E+01  0.39024316340E+02  0.00000000000E+00 0. -1.
</event>
<event>
 7    1  0.1465498E-013  0.7246151E+02  0.7816164E-02  0.1226708E+00
        -11   -1    0    0    0    0  0.00000000000E+00  0.00000000000E+00  0.45593999997E+02  0.45594000000E+02  0.51100000000E-03 0. -1.
         11   -1    0    0    0    0 -0.00000000000E+00 -0.00000000000E+00 -0.45593999997E+02  0.45594000000E+02  0.51100000000E-03 0.  1.
    9900012    2    1    2    0    0 -0.11849805310E+01 -0.84555517972E+01 -0.16666762250E+02  0.72461508098E+02  0.69999918977E+02 0.  0.
         12    1    1    2    0    0  0.11849805310E+01  0.84555517972E+01  0.16666762250E+02  0.18726491902E+02  0.00000000000E+00 0. -1.
         11    1    3    3    0    0 -0.28411475133E+02 -0.10816850653E+02 -0.40223949912E+01  0.30665874177E+02  0.51100000000E-03 0. -1.
        -11    1    3    3    0    0 -0.51335121143E+01  0.32179881394E+01  0.18393902225E+01  0.63318047147E+01  0.51100000000E-03 0.  1.
        -12    1    3    3    0    0  0.32360006716E+02 -0.85668928331E+00 -0.14483757482E+02  0.35463829207E+02  0.00000000000E+00 0.  1.
</event>
<event>
 7    1  0.1465498E-013  0.7246157E+02  0.7816164E-02  0.1226708E+00
        -11   -1    0    0    0    0  0.00000000000E+00  0.00000000000E+00  0.45593999997E+02  0.45594000000E+02  0.51100000000E-03 0. -1.
         11   -1    0    0    0    0 -0.00000000000E+00 -0.00000000000E+00 -0.45593999997E+02  0.45594000000E+02  0.51100000000E-03 0.  1.
    9900012    2    1    2    0    0 -0.12014235708E+02 -0.90541864462E+01 -0.11151645787E+02  0.72461565326E+02  0.69999993528E+02 0.  0.
         12    1    1    2    0    0  0.12014235708E+02  0.90541864462E+01  0.11151645787E+02  0.18726434674E+02  0.00000000000E+00 0. -1.
         11    1    3    3    0    0  0.12950349669E+02  0.27399764696E+01 -0.36813162289E+00  0.13242150458E+02  0.51100000000E-03 0. -1.
        -11    1    3    3    0    0  0.62158215841E+01  0.71721891797E+01 -0.19508988579E+02  0.21695100167E+02  0.51100000000E-03 0.  1.
         12    1    3    3    0    0 -0.31180406961E+02 -0.18966352095E+02  0.87254744152E+01  0.37524314701E+02  0.00000000000E+00 0. -1.
</event>
<event>
 7    1  0.1465498E-013  0.7246162E+02  0.7816164E-02  0.1226708E+00
        -11   -1    0    0    0    0  0.00000000000E+00  0.00000000000E+00  0.45593999997E+02  0.45594000000E+02  0.51100000000E-03 0.  1.
         11   -1    0    0    0    0 -0.00000000000E+00 -0.00000000000E+00 -0.45593999997E+02  0.45594000000E+02  0.51100000000E-03 0. -1.
    9900012    2    1    2    0    0  0.11165999127E+02  0.96859289676E+01  0.11496981099E+02  0.72461619387E+02  0.70000063952E+02 0.  0.
         12    1    1    2    0    0 -0.11165999127E+02 -0.96859289676E+01 -0.11496981099E+02  0.18726380613E+02  0.00000000000E+00 0. -1.
         11    1    3    3    0    0 -0.38953274678E+01 -0.54016090908E+01  0.22127570651E+02  0.23108014628E+02  0.51100000000E-03 0. -1.
        -11    1    3    3    0    0  0.71343918222E+01 -0.12566597649E+02  0.65286544392E+01  0.15856930730E+02  0.51100000000E-03 0.  1.
         12    1    3    3    0    0  0.79269347730E+01  0.27654135707E+02 -0.17159243992E+02  0.33496674029E+02  0.00000000000E+00 0. -1.
</event>
<event>
 7    1  0.1465498E-013  0.7246154E+02  0.7816164E-02  0.1226708E+00
        -11   -1    0    0    0    0  0.00000000000E+00  0.00000000000E+00  0.45593999997E+02  0.45594000000E+02  0.51100000000E-03 0.  1.
         11   -1    0    0    0    0 -0.00000000000E+00 -0.00000000000E+00 -0.45593999997E+02  0.45594000000E+02  0.51100000000E-03 0. -1.
    9900012    2    1    2    0    0  0.17917442331E+02  0.54431167829E+01  0.13444198826E+00  0.72461539185E+02  0.69999959474E+02 0.  0.
         12    1    1    2    0    0 -0.17917442331E+02 -0.54431167829E+01 -0.13444198826E+00  0.18726460815E+02  0.00000000000E+00 0. -1.
         11    1    3    3    0    0 -0.55112419956E+01  0.11296156595E+02  0.13189407400E+02  0.18219149541E+02  0.51100000000E-03 0.  1.
        -11    1    3    3    0    0  0.35666129590E+02 -0.13176324528E+02 -0.12295595556E+02  0.39960855826E+02  0.51100000000E-03 0. -1.
         12    1    3    3    0    0 -0.12237445263E+02  0.73232847158E+01 -0.75936985589E+00  0.14281533817E+02  0.00000000000E+00 0. -1.
</event>
<event>
 7    1  0.1465498E-013  0.7246153E+02  0.7816164E-02  0.1226708E+00
        -11   -1    0    0    0    0  0.00000000000E+00  0.00000000000E+00  0.45593999997E+02  0.45594000000E+02  0.51100000000E-03 0.  1.
         11   -1    0    0    0    0 -0.00000000000E+00 -0.00000000000E+00 -0.45593999997E+02  0.45594000000E+02  0.51100000000E-03 0. -1.
    9900012    2    1    2    0    0 -0.17025927662E+02 -0.30379386539E+01  0.71811785421E+01  0.72461531853E+02  0.69999949923E+02 0.  0.
         12    1    1    2    0    0  0.17025927662E+02  0.30379386539E+01 -0.71811785421E+01  0.18726468147E+02  0.00000000000E+00 0. -1.
         11    1    3    3    0    0 -0.75312877640E+01  0.16740076089E+01 -0.10782486020E+01  0.77900717049E+01  0.51100000000E-03 0. -1.
        -11    1    3    3    0    0  0.68955871267E+01  0.72663598224E+01  0.31943637828E+02  0.33477531343E+02  0.51100000000E-03 0.  1.
         12    1    3    3    0    0 -0.16390227025E+02 -0.11978306085E+02 -0.23684210684E+02  0.31193928805E+02  0.00000000000E+00 0. -1.
</event>
<event>
 7    1  0.1465498E-013  0.7246157E+02  0.7816164E-02  0.1226708E+00
        -11   -1    0    0    0    0  0.00000000000E+00  0.00000000000E+00  0.45593999997E+02  0.45594000000E+02  0.51100000000E-03 0.  1.
         11   -1    0    0    0    0 -0.00000000000E+00 -0.00000000000E+00 -0.45593999997E+02  0.45594000000E+02  0.51100000000E-03 0. -1.
    9900012    2    1    2    0    0 -0.72102937956E+01  0.12766261307E+02  0.11649607035E+02  0.72461571925E+02  0.70000002124E+02 0.  0.
         12    1    1    2    0    0  0.72102937956E+01 -0.12766261307E+02 -0.11649607035E+02  0.18726428075E+02  0.00000000000E+00 0. -1.
         11    1    3    3    0    0 -0.15726740626E+02 -0.13864681542E+02  0.37039075685E+01  0.21290342800E+02  0.51100000000E-03 0. -1.
        -11    1    3    3    0    0  0.51344579355E+01 -0.11283352186E+02  0.32672116802E+01  0.12819959722E+02  0.51100000000E-03 0.  1.
        -12    1    3    3    0    0  0.33819888954E+01  0.37914295035E+02  0.46784877861E+01  0.38351269404E+02  0.00000000000E+00 0.  1.
</event>
<event>
 7    1  0.1465498E-013  0.7246154E+02  0.7816164E-02  0.1226708E+00
        -11   -1    0    0    0    0  0.00000000000E+00  0.00000000000E+00  0.45593999997E+02  0.45594000000E+02  0.51100000000E-03 0.  1.
         11   -1    0    0    0    0 -0.00000000000E+00 -0.00000000000E+00 -0.45593999997E+02  0.45594000000E+02  0.51100000000E-03 0. -1.
    9900012    2    1    2    0    0  0.37023667050E+01 -0.85544196597E+01  0.16241754395E+02  0.72461542760E+02  0.69999964132E+02 0.  0.
         12    1    1    2    0    0 -0.37023667050E+01  0.85544196597E+01 -0.16241754395E+02  0.18726457240E+02  0.00000000000E+00 0. -1.
         11    1    3    3    0    0  0.19817559448E+02  0.61207029642E+01  0.73226655534E+01  0.21995910946E+02  0.51100000000E-03 0. -1.
        -11    1    3    3    0    0  0.11850112280E+02 -0.17311535235E+02 -0.50558161152E-01  0.20978964932E+02  0.51100000000E-03 0.  1.
        -12    1    3    3    0    0 -0.27965305023E+02  0.26364126109E+01  0.89696470025E+01  0.29486666883E+02  0.00000000000E+00 0.  1.
</event>
<event>
 7    1  0.1465498E-013  0.7246155E+02  0.7816164E-02  0.1226708E+00
        -11   -1    0    0    0    0  0.00000000000E+00  0.00000000000E+00  0.45593999997E+02  0.45594000000E+02  0.51100000000E-03 0. -1.
         11   -1    0    0    0    0 -0.00000000000E+00 -0.00000000000E+00 -0.45593999997E+02  0.45594000000E+02  0.51100000000E-03 0.  1.
    9900012    2    1    2    0    0  0.17319079127E+01 -0.17936088623E+02 -0.50967764477E+01  0.72461550516E+02  0.69999974236E+02 0.  0.
         12    1    1    2    0    0 -0.17319079127E+01  0.17936088623E+02  0.50967764477E+01  0.18726449484E+02  0.00000000000E+00 0. -1.
         11    1    3    3    0    0  0.17536166654E+02 -0.28319034417E+01  0.76835783663E+01  0.19353919365E+02  0.51100000000E-03 0. -1.
        -11    1    3    3    0    0 -0.71085100703E+01 -0.28457532223E+02 -0.20114033779E+02  0.35565944536E+02  0.51100000000E-03 0.  1.
         12    1    3    3    0    0 -0.86957486710E+01  0.13353347041E+02  0.73336789646E+01  0.17541686615E+02  0.00000000000E+00 0. -1.
</event>
<event>
 7    1  0.1465498E-013  0.7246155E+02  0.7816164E-02  0.1226708E+00
        -11   -1    0    0    0    0  0.00000000000E+00  0.00000000000E+00  0.45593999997E+02  0.45594000000E+02  0.51100000000E-03 0. -1.
         11   -1    0    0    0    0 -0.00000000000E+00 -0.00000000000E+00 -0.45593999997E+02  0.45594000000E+02  0.51100000000E-03 0.  1.
    9900012    2    1    2    0    0  0.20680606180E+01 -0.66662807038E+01 -0.17377105011E+02  0.72461549410E+02  0.69999972794E+02 0.  0.
         12    1    1    2    0    0 -0.20680606180E+01  0.66662807038E+01  0.17377105011E+02  0.18726450590E+02  0.00000000000E+00 0. -1.
         11    1    3    3    0    0 -0.25467769646E+01 -0.27595730528E+02 -0.69719698218E+01  0.28576542473E+02  0.51100000000E-03 0. -1.
        -11    1    3    3    0    0 -0.48661747494E+01 -0.82411687451E+01 -0.90662895436E+01  0.13183099989E+02  0.51100000000E-03 0.  1.
        -12    1    3    3    0    0  0.94810123320E+01  0.29170618569E+02 -0.13388456455E+01  0.30701906947E+02  0.00000000000E+00 0.  1.
</event>
<event>
 7    1  0.1465498E-013  0.7246155E+02  0.7816164E-02  0.1226708E+00
        -11   -1    0    0    0    0  0.00000000000E+00  0.00000000000E+00  0.45593999997E+02  0.45594000000E+02  0.51100000000E-03 0. -1.
         11   -1    0    0    0    0 -0.00000000000E+00 -0.00000000000E+00 -0.45593999997E+02  0.45594000000E+02  0.51100000000E-03 0.  1.
    9900012    2    1    2    0    0  0.17774787836E+02  0.35990442159E+01 -0.46673232258E+01  0.72461545237E+02  0.69999967359E+02 0.  0.
         12    1    1    2    0    0 -0.17774787836E+02 -0.35990442159E+01  0.46673232258E+01  0.18726454763E+02  0.00000000000E+00 0. -1.
         11    1    3    3    0    0  0.21109088840E+02 -0.48345277462E-01 -0.56837916815E+01  0.21860957368E+02  0.51100000000E-03 0. -1.
        -11    1    3    3    0    0  0.83347493959E+00 -0.19021153720E+02 -0.13519577419E+02  0.23351187190E+02  0.51100000000E-03 0.  1.
         12    1    3    3    0    0 -0.41677759436E+01  0.22668543213E+02  0.14536045875E+02  0.27249400680E+02  0.00000000000E+00 0. -1.
</event>
<event>
 7    1  0.1465498E-013  0.7246159E+02  0.7816164E-02  0.1226708E+00
        -11   -1    0    0    0    0  0.00000000000E+00  0.00000000000E+00  0.45593999997E+02  0.45594000000E+02  0.51100000000E-03 0. -1.
         11   -1    0    0    0    0 -0.00000000000E+00 -0.00000000000E+00 -0.45593999997E+02  0.45594000000E+02  0.51100000000E-03 0.  1.
    9900012    2    1    2    0    0 -0.12635070192E+02  0.13606637600E+02 -0.24275327261E+01  0.72461588153E+02  0.70000023264E+02 0.  0.
         12    1    1    2    0    0  0.12635070192E+02 -0.13606637600E+02  0.24275327261E+01  0.18726411847E+02  0.00000000000E+00 0. -1.
         11    1    3    3    0    0 -0.18438972775E+02 -0.13873893703E+02  0.20608320494E+02  0.30938382591E+02  0.51100000000E-03 0. -1.
        -11    1    3    3    0    0 -0.20929786508E+01  0.58615695894E+01  0.28837148936E+01  0.68596187600E+01  0.51100000000E-03 0.  1.
        -12    1    3    3    0    0  0.78968812339E+01  0.21618961713E+02 -0.25919568114E+02  0.34663586802E+02  0.00000000000E+00 0.  1.
</event>
<event>
 7    1  0.1465498E-013  0.7246155E+02  0.7816164E-02  0.1226708E+00
        -11   -1    0    0    0    0  0.00000000000E+00  0.00000000000E+00  0.45593999997E+02  0.45594000000E+02  0.51100000000E-03 0.  1.
         11   -1    0    0    0    0 -0.00000000000E+00 -0.00000000000E+00 -0.45593999997E+02  0.45594000000E+02  0.51100000000E-03 0. -1.
    9900012    2    1    2    0    0 -0.12066893354E+01  0.16042489541E+02  0.95844772330E+01  0.72461554164E+02  0.69999978987E+02 0.  0.
         12    1    1    2    0    0  0.12066893354E+01 -0.16042489541E+02 -0.95844772330E+01  0.18726445836E+02  0.00000000000E+00 0. -1.
         11    1    3    3    0    0  0.14878379983E+02  0.14410997145E+02  0.28037678855E+02  0.34859065757E+02  0.51100000000E-03 0. -1.
        -11    1    3    3    0    0 -0.91102587582E+01 -0.11343843711E+02 -0.74538526498E+00  0.14568294486E+02  0.51100000000E-03 0.  1.
        -12    1    3    3    0    0 -0.69748105606E+01  0.12975336107E+02 -0.17707816357E+02  0.23034193921E+02  0.00000000000E+00 0.  1.
</event>
<event>
 7    1  0.1465498E-013  0.7246163E+02  0.7816164E-02  0.1226708E+00
        -11   -1    0    0    0    0  0.00000000000E+00  0.00000000000E+00  0.45593999997E+02  0.45594000000E+02  0.51100000000E-03 0.  1.
         11   -1    0    0    0    0 -0.00000000000E+00 -0.00000000000E+00 -0.45593999997E+02  0.45594000000E+02  0.51100000000E-03 0. -1.
    9900012    2    1    2    0    0  0.67468120125E+01  0.12436214292E+02 -0.12267766757E+02  0.72461628236E+02  0.70000075479E+02 0.  0.
         12    1    1    2    0    0 -0.67468120125E+01 -0.12436214292E+02  0.12267766757E+02  0.18726371764E+02  0.00000000000E+00 0. -1.
         11    1    3    3    0    0  0.93040435767E+01 -0.14005724304E+02 -0.23231375656E+02  0.28677907094E+02  0.51100000000E-03 0. -1.
        -11    1    3    3    0    0 -0.10432758509E+02  0.62524748489E+01 -0.83515999371E+01  0.14754155808E+02  0.51100000000E-03 0.  1.
        -12    1    3    3    0    0  0.78755269453E+01  0.20189463747E+02  0.19315208836E+02  0.29029565333E+02  0.00000000000E+00 0.  1.
</event>
<event>
 7    1  0.1465498E-013  0.7246159E+02  0.7816164E-02  0.1226708E+00
        -11   -1    0    0    0    0  0.00000000000E+00  0.00000000000E+00  0.45593999997E+02  0.45594000000E+02  0.51100000000E-03 0.  1.
         11   -1    0    0    0    0 -0.00000000000E+00 -0.00000000000E+00 -0.45593999997E+02  0.45594000000E+02  0.51100000000E-03 0. -1.
    9900012    2    1    2    0    0 -0.14997828221E+02 -0.69363379424E+01  0.88108285532E+01  0.72461592572E+02  0.70000029020E+02 0.  0.
         12    1    1    2    0    0  0.14997828221E+02  0.69363379424E+01 -0.88108285532E+01  0.18726407428E+02  0.00000000000E+00 0. -1.
         11    1    3    3    0    0  0.56923517147E+01 -0.88593527916E+01 -0.60321683414E+01  0.12135817034E+02  0.51100000000E-03 0. -1.
        -11    1    3    3    0    0 -0.23419717313E+02 -0.17562203480E+02 -0.78337205222E+01  0.30303157056E+02  0.51100000000E-03 0.  1.
         12    1    3    3    0    0  0.27295373775E+01  0.19485218330E+02  0.22676717417E+02  0.30022618481E+02  0.00000000000E+00 0. -1.
</event>
<event>
 7    1  0.1465498E-013  0.7246158E+02  0.7816164E-02  0.1226708E+00
        -11   -1    0    0    0    0  0.00000000000E+00  0.00000000000E+00  0.45593999997E+02  0.45594000000E+02  0.51100000000E-03 0.  1.
         11   -1    0    0    0    0 -0.00000000000E+00 -0.00000000000E+00 -0.45593999997E+02  0.45594000000E+02  0.51100000000E-03 0. -1.
    9900012    2    1    2    0    0  0.99081551043E+01  0.54910708492E+01  0.14911587315E+02  0.72461579282E+02  0.70000011709E+02 0.  0.
         12    1    1    2    0    0 -0.99081551043E+01 -0.54910708492E+01 -0.14911587315E+02  0.18726420718E+02  0.00000000000E+00 0. -1.
         11    1    3    3    0    0  0.10032262931E+02  0.22661217877E+02 -0.10798118466E+02  0.27032877351E+02  0.51100000000E-03 0. -1.
        -11    1    3    3    0    0  0.44792410536E+01  0.72496747927E+00  0.26547029864E+02  0.26932025047E+02  0.51100000000E-03 0.  1.
        -12    1    3    3    0    0 -0.46033488800E+01 -0.17895114507E+02 -0.83732408287E+00  0.18496676884E+02  0.00000000000E+00 0.  1.
</event>
<event>
 7    1  0.1465498E-013  0.7246151E+02  0.7816164E-02  0.1226708E+00
        -11   -1    0    0    0    0  0.00000000000E+00  0.00000000000E+00  0.45593999997E+02  0.45594000000E+02  0.51100000000E-03 0. -1.
         11   -1    0    0    0    0 -0.00000000000E+00 -0.00000000000E+00 -0.45593999997E+02  0.45594000000E+02  0.51100000000E-03 0.  1.
    9900012    2    1    2    0    0 -0.12675750919E+02 -0.10762286981E+02  0.86127677824E+01  0.72461514711E+02  0.69999927592E+02 0.  0.
         12    1    1    2    0    0  0.12675750919E+02  0.10762286981E+02 -0.86127677824E+01  0.18726485289E+02  0.00000000000E+00 0. -1.
         11    1    3    3    0    0 -0.19142012759E+02 -0.76759366522E+01  0.26392988117E+02  0.33495170965E+02  0.51100000000E-03 0. -1.
        -11    1    3    3    0    0  0.17493757986E+01  0.10874152114E+02  0.47908878325E+01  0.12010832876E+02  0.51100000000E-03 0.  1.
        -12    1    3    3    0    0  0.47168860413E+01 -0.13960502443E+02 -0.22571108167E+02  0.26955510870E+02  0.00000000000E+00 0.  1.
</event>
<event>
 7    1  0.1465498E-013  0.7246154E+02  0.7816164E-02  0.1226708E+00
        -11   -1    0    0    0    0  0.00000000000E+00  0.00000000000E+00  0.45593999997E+02  0.45594000000E+02  0.51100000000E-03 0.  1.
         11   -1    0    0    0    0 -0.00000000000E+00 -0.00000000000E+00 -0.45593999997E+02  0.45594000000E+02  0.51100000000E-03 0. -1.
    9900012    2    1    2    0    0 -0.12182869404E+01  0.18232836354E+02  0.40938569781E+01  0.72461542526E+02  0.69999963827E+02 0.  0.
         12    1    1    2    0    0  0.12182869404E+01 -0.18232836354E+02 -0.40938569781E+01  0.18726457474E+02  0.00000000000E+00 0. -1.
         11    1    3    3    0    0 -0.69835942262E+01 -0.97547521948E+01 -0.77831501337E+01  0.14300461704E+02  0.51100000000E-03 0. -1.
        -11    1    3    3    0    0 -0.20991464187E+01 -0.13953229377E+02  0.11218526229E+01  0.14154772315E+02  0.51100000000E-03 0.  1.
        -12    1    3    3    0    0  0.78644537045E+01  0.41940817925E+02  0.10755154489E+02  0.44006308506E+02  0.00000000000E+00 0.  1.
</event>
<event>
 7    1  0.1465498E-013  0.7246165E+02  0.7816164E-02  0.1226708E+00
        -11   -1    0    0    0    0  0.00000000000E+00  0.00000000000E+00  0.45593999997E+02  0.45594000000E+02  0.51100000000E-03 0. -1.
         11   -1    0    0    0    0 -0.00000000000E+00 -0.00000000000E+00 -0.45593999997E+02  0.45594000000E+02  0.51100000000E-03 0.  1.
    9900012    2    1    2    0    0  0.12949103173E+02  0.13491154540E+02  0.99278436873E+00  0.72461651060E+02  0.70000105213E+02 0.  0.
         12    1    1    2    0    0 -0.12949103173E+02 -0.13491154540E+02 -0.99278436873E+00  0.18726348940E+02  0.00000000000E+00 0. -1.
         11    1    3    3    0    0 -0.17166915665E+02 -0.90662805084E+01  0.10888381875E+02  0.22258870048E+02  0.51100000000E-03 0. -1.
        -11    1    3    3    0    0  0.21162617640E+01  0.74347435868E+00  0.94957090988E+01  0.97570389732E+01  0.51100000000E-03 0.  1.
        -12    1    3    3    0    0  0.27999757074E+02  0.21813960690E+02 -0.19391306605E+02  0.40445742039E+02  0.00000000000E+00 0.  1.
</event>
<event>
 7    1  0.1465498E-013  0.7246154E+02  0.7816164E-02  0.1226708E+00
        -11   -1    0    0    0    0  0.00000000000E+00  0.00000000000E+00  0.45593999997E+02  0.45594000000E+02  0.51100000000E-03 0. -1.
         11   -1    0    0    0    0 -0.00000000000E+00 -0.00000000000E+00 -0.45593999997E+02  0.45594000000E+02  0.51100000000E-03 0.  1.
    9900012    2    1    2    0    0 -0.38639952919E+01  0.13573876379E+02 -0.12308517386E+02  0.72461543320E+02  0.69999964861E+02 0.  0.
         12    1    1    2    0    0  0.38639952919E+01 -0.13573876379E+02  0.12308517386E+02  0.18726456680E+02  0.00000000000E+00 0. -1.
         11    1    3    3    0    0  0.81751605488E+01  0.15009598007E+02  0.45734479654E+01  0.17692871697E+02  0.51100000000E-03 0. -1.
        -11    1    3    3    0    0 -0.56400751274E+01  0.21330297571E+02 -0.21350002893E+02  0.30702030319E+02  0.51100000000E-03 0.  1.
         12    1    3    3    0    0 -0.63990807133E+01 -0.22766019199E+02  0.44680375421E+01  0.24066641304E+02  0.00000000000E+00 0. -1.
</event>
<event>
 7    1  0.1465498E-013  0.7246169E+02  0.7816164E-02  0.1226708E+00
        -11   -1    0    0    0    0  0.00000000000E+00  0.00000000000E+00  0.45593999997E+02  0.45594000000E+02  0.51100000000E-03 0.  1.
         11   -1    0    0    0    0 -0.00000000000E+00 -0.00000000000E+00 -0.45593999997E+02  0.45594000000E+02  0.51100000000E-03 0. -1.
    9900012    2    1    2    0    0  0.11811042167E+02  0.14486727117E+02  0.11440191584E+01  0.72461688044E+02  0.70000153391E+02 0.  0.
         12    1    1    2    0    0 -0.11811042167E+02 -0.14486727117E+02 -0.11440191584E+01  0.18726311956E+02  0.00000000000E+00 0. -1.
         11    1    3    3    0    0  0.17190967354E+02 -0.83100337444E+01 -0.51205237965E+01  0.19768808350E+02  0.51100000000E-03 0. -1.
        -11    1    3    3    0    0  0.11462524105E+02  0.23310970971E+02 -0.11321925673E+02  0.28336845761E+02  0.51100000000E-03 0.  1.
        -12    1    3    3    0    0 -0.16842449291E+02 -0.51421010995E+00  0.17586468628E+02  0.24356033933E+02  0.00000000000E+00 0.  1.
</event>
<event>
 7    1  0.1465498E-013  0.7246163E+02  0.7816164E-02  0.1226708E+00
        -11   -1    0    0    0    0  0.00000000000E+00  0.00000000000E+00  0.45593999997E+02  0.45594000000E+02  0.51100000000E-03 0.  1.
         11   -1    0    0    0    0 -0.00000000000E+00 -0.00000000000E+00 -0.45593999997E+02  0.45594000000E+02  0.51100000000E-03 0. -1.
    9900012    2    1    2    0    0 -0.19340258130E+01 -0.16582770877E+02  0.84822265079E+01  0.72461630561E+02  0.70000078509E+02 0.  0.
         12    1    1    2    0    0  0.19340258130E+01  0.16582770877E+02 -0.84822265079E+01  0.18726369439E+02  0.00000000000E+00 0. -1.
         11    1    3    3    0    0 -0.18341302368E+02 -0.10577645855E+02 -0.97778416696E+01  0.23321581258E+02  0.51100000000E-03 0. -1.
        -11    1    3    3    0    0 -0.63516989750E+01  0.13436049647E+02  0.17716085482E+01  0.14966967197E+02  0.51100000000E-03 0.  1.
        -12    1    3    3    0    0  0.22758975530E+02 -0.19441174669E+02  0.16488459629E+02  0.34173082106E+02  0.00000000000E+00 0.  1.
</event>
<event>
 7    1  0.1465498E-013  0.7246154E+02  0.7816164E-02  0.1226708E+00
        -11   -1    0    0    0    0  0.00000000000E+00  0.00000000000E+00  0.45593999997E+02  0.45594000000E+02  0.51100000000E-03 0. -1.
         11   -1    0    0    0    0 -0.00000000000E+00 -0.00000000000E+00 -0.45593999997E+02  0.45594000000E+02  0.51100000000E-03 0.  1.
    9900012    2    1    2    0    0 -0.32832839049E+01 -0.18255889300E+02  0.25734663618E+01  0.72461543409E+02  0.69999964977E+02 0.  0.
         12    1    1    2    0    0  0.32832839049E+01  0.18255889300E+02 -0.25734663618E+01  0.18726456591E+02  0.00000000000E+00 0. -1.
         11    1    3    3    0    0  0.33205122952E+01  0.87189866782E+01 -0.17397922239E+02  0.19741687595E+02  0.51100000000E-03 0. -1.
        -11    1    3    3    0    0 -0.96894797174E+01 -0.20884481656E+02 -0.76552124139E+01  0.24262107670E+02  0.51100000000E-03 0.  1.
         12    1    3    3    0    0  0.30856835173E+01 -0.60903943215E+01  0.27626601015E+02  0.28457748144E+02  0.00000000000E+00 0. -1.
</event>
<event>
 7    1  0.1465498E-013  0.7246156E+02  0.7816164E-02  0.1226708E+00
        -11   -1    0    0    0    0  0.00000000000E+00  0.00000000000E+00  0.45593999997E+02  0.45594000000E+02  0.51100000000E-03 0.  1.
         11   -1    0    0    0    0 -0.00000000000E+00 -0.00000000000E+00 -0.45593999997E+02  0.45594000000E+02  0.51100000000E-03 0. -1.
    9900012    2    1    2    0    0  0.30178327127E+01 -0.17061600030E+02 -0.71045020457E+01  0.72461562560E+02  0.69999989924E+02 0.  0.
         12    1    1    2    0    0 -0.30178327127E+01  0.17061600030E+02  0.71045020457E+01  0.18726437440E+02  0.00000000000E+00 0. -1.
         11    1    3    3    0    0 -0.12146575022E+02 -0.14481638018E+02  0.49849464958E+00  0.18907819061E+02  0.51100000000E-03 0. -1.
        -11    1    3    3    0    0  0.71186939441E+01 -0.90550556428E+01  0.20554620790E+02  0.23561881763E+02  0.51100000000E-03 0.  1.
         12    1    3    3    0    0  0.80457137908E+01  0.64750936308E+01 -0.28157617485E+02  0.29991861736E+02  0.00000000000E+00 0. -1.
</event>
<event>
 7    1  0.1465498E-013  0.7246151E+02  0.7816164E-02  0.1226708E+00
        -11   -1    0    0    0    0  0.00000000000E+00  0.00000000000E+00  0.45593999997E+02  0.45594000000E+02  0.51100000000E-03 0. -1.
         11   -1    0    0    0    0 -0.00000000000E+00 -0.00000000000E+00 -0.45593999997E+02  0.45594000000E+02  0.51100000000E-03 0.  1.
    9900012    2    1    2    0    0  0.12944836750E+02 -0.92399563512E+01 -0.98861376212E+01  0.72461513172E+02  0.69999925587E+02 0.  0.
         12    1    1    2    0    0 -0.12944836750E+02  0.92399563512E+01  0.98861376212E+01  0.18726486828E+02  0.00000000000E+00 0. -1.
         11    1    3    3    0    0  0.24746649020E+01 -0.17114159204E+02 -0.12308979492E+02  0.21225677564E+02  0.51100000000E-03 0.  1.
        -11    1    3    3    0    0  0.26282580779E+02 -0.17627906642E+01  0.13560107372E+02  0.29626980871E+02  0.51100000000E-03 0. -1.
        -12    1    3    3    0    0 -0.15812408931E+02  0.96369935168E+01 -0.11137265500E+02  0.21608854737E+02  0.00000000000E+00 0.  1.
</event>
<event>
 7    1  0.1465498E-013  0.7246194E+02  0.7816164E-02  0.1226707E+00
        -11   -1    0    0    0    0  0.00000000000E+00  0.00000000000E+00  0.45593999997E+02  0.45594000000E+02  0.51100000000E-03 0.  1.
         11   -1    0    0    0    0 -0.00000000000E+00 -0.00000000000E+00 -0.45593999997E+02  0.45594000000E+02  0.51100000000E-03 0. -1.
    9900012    2    1    2    0    0 -0.58676272151E+01  0.53499566578E+01  0.16959192675E+02  0.72461940576E+02  0.70000482359E+02 0.  0.
         12    1    1    2    0    0  0.58676272151E+01 -0.53499566578E+01 -0.16959192675E+02  0.18726059424E+02  0.00000000000E+00 0. -1.
         11    1    3    3    0    0 -0.98318630864E+01  0.35971668500E+02  0.14959975617E+02  0.40179936997E+02  0.51100000000E-03 0. -1.
        -11    1    3    3    0    0  0.29122093614E+01 -0.61519682387E+01  0.36698333302E+01  0.77327455348E+01  0.51100000000E-03 0.  1.
        -12    1    3    3    0    0  0.10520265099E+01 -0.24469743603E+02 -0.16706162719E+01  0.24549258044E+02  0.00000000000E+00 0.  1.
</event>
<event>
 7    1  0.1465498E-013  0.7246153E+02  0.7816164E-02  0.1226708E+00
        -11   -1    0    0    0    0  0.00000000000E+00  0.00000000000E+00  0.45593999997E+02  0.45594000000E+02  0.51100000000E-03 0.  1.
         11   -1    0    0    0    0 -0.00000000000E+00 -0.00000000000E+00 -0.45593999997E+02  0.45594000000E+02  0.51100000000E-03 0. -1.
    9900012    2    1    2    0    0 -0.14939820262E+02  0.10934343249E+02  0.28146920961E+01  0.72461532545E+02  0.69999950825E+02 0.  0.
         12    1    1    2    0    0  0.14939820262E+02 -0.10934343249E+02 -0.28146920961E+01  0.18726467455E+02  0.00000000000E+00 0. -1.
         11    1    3    3    0    0 -0.12002632293E+02  0.17236377503E+02  0.77870328854E+01  0.22400753845E+02  0.51100000000E-03 0. -1.
        -11    1    3    3    0    0 -0.93965054541E+01  0.64287351028E+01  0.19005662118E+02  0.22154867244E+02  0.51100000000E-03 0.  1.
         12    1    3    3    0    0  0.64593174849E+01 -0.12730769357E+02 -0.23978002908E+02  0.27905911457E+02  0.00000000000E+00 0. -1.
</event>
<event>
 7    1  0.1465498E-013  0.7246154E+02  0.7816164E-02  0.1226708E+00
        -11   -1    0    0    0    0  0.00000000000E+00  0.00000000000E+00  0.45593999997E+02  0.45594000000E+02  0.51100000000E-03 0.  1.
         11   -1    0    0    0    0 -0.00000000000E+00 -0.00000000000E+00 -0.45593999997E+02  0.45594000000E+02  0.51100000000E-03 0. -1.
    9900012    2    1    2    0    0 -0.15482297448E+02 -0.10493726223E+02  0.92758672695E+00  0.72461541674E+02  0.69999962716E+02 0.  0.
         12    1    1    2    0    0  0.15482297448E+02  0.10493726223E+02 -0.92758672695E+00  0.18726458326E+02  0.00000000000E+00 0. -1.
         11    1    3    3    0    0 -0.41762791725E+01 -0.77377397077E+01 -0.11030209367E+02  0.14106007318E+02  0.51100000000E-03 0. -1.
        -11    1    3    3    0    0  0.18725169700E+02 -0.35462387490E+01 -0.96387255013E+01  0.21356797960E+02  0.51100000000E-03 0.  1.
        -12    1    3    3    0    0 -0.30031187976E+02  0.79025223406E+00  0.21596521596E+02  0.36998736395E+02  0.00000000000E+00 0.  1.
</event>
<event>
 7    1  0.1465498E-013  0.7246154E+02  0.7816164E-02  0.1226708E+00
        -11   -1    0    0    0    0  0.00000000000E+00  0.00000000000E+00  0.45593999997E+02  0.45594000000E+02  0.51100000000E-03 0. -1.
         11   -1    0    0    0    0 -0.00000000000E+00 -0.00000000000E+00 -0.45593999997E+02  0.45594000000E+02  0.51100000000E-03 0.  1.
    9900012    2    1    2    0    0 -0.14167190586E+02 -0.12245899566E+02  0.93771804442E-01  0.72461544424E+02  0.69999966299E+02 0.  0.
         12    1    1    2    0    0  0.14167190586E+02  0.12245899566E+02 -0.93771804442E-01  0.18726455576E+02  0.00000000000E+00 0. -1.
         11    1    3    3    0    0  0.38630057251E+01 -0.19607387892E+02 -0.14460564987E+02  0.24667395752E+02  0.51100000000E-03 0. -1.
        -11    1    3    3    0    0 -0.44140239863E+01 -0.95412358456E+01  0.22376318931E+02  0.24722832329E+02  0.51100000000E-03 0.  1.
         12    1    3    3    0    0 -0.13616172324E+02  0.16902724172E+02 -0.78219821392E+01  0.23071316343E+02  0.00000000000E+00 0. -1.
</event>
<event>
 7    1  0.1558691E-013  0.7246157E+02  0.7816164E-02  0.1226708E+00
        -11   -1    0    0    0    0  0.00000000000E+00  0.00000000000E+00  0.45593999997E+02  0.45594000000E+02  0.51100000000E-03 0. -1.
         11   -1    0    0    0    0 -0.00000000000E+00 -0.00000000000E+00 -0.45593999997E+02  0.45594000000E+02  0.51100000000E-03 0.  1.
    9900012    2    1    2    0    0  0.12283668460E+02 -0.12422723909E+02 -0.67429031671E+01  0.72461566189E+02  0.69999994652E+02 0.  0.
         12    1    1    2    0    0 -0.12283668460E+02  0.12422723909E+02  0.67429031671E+01  0.18726433811E+02  0.00000000000E+00 0. -1.
         11    1    3    3    0    0 -0.54673499752E+00 -0.16958485706E+02  0.13903426191E+02  0.21936144071E+02  0.51100000000E-03 0. -1.
        -11    1    3    3    0    0  0.55805866930E+01 -0.19141108507E+02 -0.15451400385E+02  0.25224407958E+02  0.51100000000E-03 0.  1.
        -12    1    3    3    0    0  0.72498167648E+01  0.23676870303E+02 -0.51949289731E+01  0.25301014160E+02  0.00000000000E+00 0.  1.
</event>
<event>
 7    1  0.1465498E-013  0.7246151E+02  0.7816164E-02  0.1226708E+00
        -11   -1    0    0    0    0  0.00000000000E+00  0.00000000000E+00  0.45593999997E+02  0.45594000000E+02  0.51100000000E-03 0. -1.
         11   -1    0    0    0    0 -0.00000000000E+00 -0.00000000000E+00 -0.45593999997E+02  0.45594000000E+02  0.51100000000E-03 0.  1.
    9900012    2    1    2    0    0  0.43565017171E+01  0.25649537815E+01 -0.18031181856E+02  0.72461505020E+02  0.69999914968E+02 0.  0.
         12    1    1    2    0    0 -0.43565017171E+01 -0.25649537815E+01  0.18031181856E+02  0.18726494980E+02  0.00000000000E+00 0. -1.
         11    1    3    3    0    0  0.58863733142E+01  0.90666939185E+01 -0.23201559492E+01  0.11056104798E+02  0.51100000000E-03 0. -1.
        -11    1    3    3    0    0  0.18996348754E+01  0.89474436167E+01  0.20193219726E+02  0.22168253948E+02  0.51100000000E-03 0.  1.
        -12    1    3    3    0    0 -0.34295064725E+01 -0.15449183754E+02 -0.35904245633E+02  0.39237146274E+02  0.00000000000E+00 0.  1.
</event>
<event>
 7    1  0.1465498E-013  0.7246162E+02  0.7816164E-02  0.1226708E+00
        -11   -1    0    0    0    0  0.00000000000E+00  0.00000000000E+00  0.45593999997E+02  0.45594000000E+02  0.51100000000E-03 0.  1.
         11   -1    0    0    0    0 -0.00000000000E+00 -0.00000000000E+00 -0.45593999997E+02  0.45594000000E+02  0.51100000000E-03 0. -1.
    9900012    2    1    2    0    0  0.42882779490E+01 -0.34781029246E+01  0.17893878916E+02  0.72461616730E+02  0.70000060491E+02 0.  0.
         12    1    1    2    0    0 -0.42882779490E+01  0.34781029246E+01 -0.17893878916E+02  0.18726383270E+02  0.00000000000E+00 0. -1.
         11    1    3    3    0    0  0.63216456475E+01  0.11158957931E+02  0.48635390216E+01  0.13716397409E+02  0.51100000000E-03 0. -1.
        -11    1    3    3    0    0 -0.14721842803E+02 -0.59528912692E+00  0.29938069397E+02  0.33367274749E+02  0.51100000000E-03 0.  1.
         12    1    3    3    0    0  0.12688475105E+02 -0.14041771729E+02 -0.16907729503E+02  0.25377944572E+02  0.00000000000E+00 0. -1.
</event>
<event>
 7    1  0.1465498E-013  0.7246164E+02  0.7816164E-02  0.1226708E+00
        -11   -1    0    0    0    0  0.00000000000E+00  0.00000000000E+00  0.45593999997E+02  0.45594000000E+02  0.51100000000E-03 0.  1.
         11   -1    0    0    0    0 -0.00000000000E+00 -0.00000000000E+00 -0.45593999997E+02  0.45594000000E+02  0.51100000000E-03 0. -1.
    9900012    2    1    2    0    0  0.54542178112E+01  0.13886909138E+02  0.11317326477E+02  0.72461638476E+02  0.70000088819E+02 0.  0.
         12    1    1    2    0    0 -0.54542178112E+01 -0.13886909138E+02 -0.11317326477E+02  0.18726361524E+02  0.00000000000E+00 0. -1.
         11    1    3    3    0    0  0.13615545605E+02 -0.63546253231E+01  0.17410773538E+00  0.15026465282E+02  0.51100000000E-03 0. -1.
        -11    1    3    3    0    0 -0.13533753543E+02 -0.14426107805E+02 -0.21983189048E+01  0.19902454061E+02  0.51100000000E-03 0.  1.
        -12    1    3    3    0    0  0.53724257494E+01  0.34667642266E+02  0.13341537646E+02  0.37532719133E+02  0.00000000000E+00 0.  1.
</event>
<event>
 7    1  0.1465498E-013  0.7246157E+02  0.7816164E-02  0.1226708E+00
        -11   -1    0    0    0    0  0.00000000000E+00  0.00000000000E+00  0.45593999997E+02  0.45594000000E+02  0.51100000000E-03 0.  1.
         11   -1    0    0    0    0 -0.00000000000E+00 -0.00000000000E+00 -0.45593999997E+02  0.45594000000E+02  0.51100000000E-03 0. -1.
    9900012    2    1    2    0    0 -0.11275698533E+02 -0.13845780043E+01  0.14886933696E+02  0.72461568719E+02  0.69999997948E+02 0.  0.
         12    1    1    2    0    0  0.11275698533E+02  0.13845780043E+01 -0.14886933696E+02  0.18726431281E+02  0.00000000000E+00 0. -1.
         11    1    3    3    0    0  0.79620224222E+01 -0.12433399506E+02  0.13673559705E+02  0.20123356071E+02  0.51100000000E-03 0. -1.
        -11    1    3    3    0    0  0.12590253515E+02 -0.79159618276E+01  0.32853803333E+01  0.15230583030E+02  0.51100000000E-03 0.  1.
        -12    1    3    3    0    0 -0.31827974470E+02  0.18964783329E+02 -0.20720063421E+01  0.37107629618E+02  0.00000000000E+00 0.  1.
</event>
<event>
 7    1  0.1465498E-013  0.7246162E+02  0.7816164E-02  0.1226708E+00
        -11   -1    0    0    0    0  0.00000000000E+00  0.00000000000E+00  0.45593999997E+02  0.45594000000E+02  0.51100000000E-03 0.  1.
         11   -1    0    0    0    0 -0.00000000000E+00 -0.00000000000E+00 -0.45593999997E+02  0.45594000000E+02  0.51100000000E-03 0. -1.
    9900012    2    1    2    0    0 -0.76740679476E+01 -0.59454413535E+01  0.16013678329E+02  0.72461615261E+02  0.70000058578E+02 0.  0.
         12    1    1    2    0    0  0.76740679476E+01  0.59454413535E+01 -0.16013678329E+02  0.18726384739E+02  0.00000000000E+00 0. -1.
         11    1    3    3    0    0 -0.38451876240E+01 -0.18494692700E+02  0.12450788929E+02  0.22624351287E+02  0.51100000000E-03 0. -1.
        -11    1    3    3    0    0 -0.17177360272E+02 -0.97785688821E+01  0.11209472740E+02  0.22722992643E+02  0.51100000000E-03 0.  1.
        -12    1    3    3    0    0  0.13348479948E+02  0.22327820229E+02 -0.76465833395E+01  0.27114271332E+02  0.00000000000E+00 0.  1.
</event>
<event>
 7    1  0.1465498E-013  0.7246158E+02  0.7816164E-02  0.1226708E+00
        -11   -1    0    0    0    0  0.00000000000E+00  0.00000000000E+00  0.45593999997E+02  0.45594000000E+02  0.51100000000E-03 0. -1.
         11   -1    0    0    0    0 -0.00000000000E+00 -0.00000000000E+00 -0.45593999997E+02  0.45594000000E+02  0.51100000000E-03 0.  1.
    9900012    2    1    2    0    0  0.62689823904E+01  0.12676860274E+02 -0.12275013314E+02  0.72461578065E+02  0.70000010123E+02 0.  0.
         12    1    1    2    0    0 -0.62689823904E+01 -0.12676860274E+02  0.12275013314E+02  0.18726421935E+02  0.00000000000E+00 0. -1.
         11    1    3    3    0    0 -0.21449360678E+01 -0.61683936977E+01 -0.71145998761E+01  0.96575029486E+01  0.51100000000E-03 0. -1.
        -11    1    3    3    0    0  0.32590276671E+01 -0.10666261414E+01 -0.30203251433E+02  0.30397291821E+02  0.51100000000E-03 0.  1.
         12    1    3    3    0    0  0.51548907911E+01  0.19911880113E+02  0.25042837995E+02  0.32406783296E+02  0.00000000000E+00 0. -1.
</event>
<event>
 7    1  0.1465498E-013  0.7246156E+02  0.7816164E-02  0.1226708E+00
        -11   -1    0    0    0    0  0.00000000000E+00  0.00000000000E+00  0.45593999997E+02  0.45594000000E+02  0.51100000000E-03 0. -1.
         11   -1    0    0    0    0 -0.00000000000E+00 -0.00000000000E+00 -0.45593999997E+02  0.45594000000E+02  0.51100000000E-03 0.  1.
    9900012    2    1    2    0    0 -0.40379254785E+01  0.50661793813E+01 -0.17570106967E+02  0.72461556811E+02  0.69999982435E+02 0.  0.
         12    1    1    2    0    0  0.40379254785E+01 -0.50661793813E+01  0.17570106967E+02  0.18726443189E+02  0.00000000000E+00 0. -1.
         11    1    3    3    0    0  0.11549953746E+02  0.18963962621E+01  0.70541785005E+01  0.13665986423E+02  0.51100000000E-03 0. -1.
        -11    1    3    3    0    0 -0.13765888645E+02  0.24688080086E+02 -0.33210611683E+01  0.28461033643E+02  0.51100000000E-03 0.  1.
        -12    1    3    3    0    0 -0.18219905805E+01 -0.21518296966E+02 -0.21303224299E+02  0.30334536745E+02  0.00000000000E+00 0.  1.
</event>
<event>
 7    1  0.1465498E-013  0.7246157E+02  0.7816164E-02  0.1226708E+00
        -11   -1    0    0    0    0  0.00000000000E+00  0.00000000000E+00  0.45593999997E+02  0.45594000000E+02  0.51100000000E-03 0.  1.
         11   -1    0    0    0    0 -0.00000000000E+00 -0.00000000000E+00 -0.45593999997E+02  0.45594000000E+02  0.51100000000E-03 0. -1.
    9900012    2    1    2    0    0  0.13966309174E+02 -0.10747040793E+02  0.63342224395E+01  0.72461573441E+02  0.70000004099E+02 0.  0.
         12    1    1    2    0    0 -0.13966309174E+02  0.10747040793E+02 -0.63342224395E+01  0.18726426559E+02  0.00000000000E+00 0. -1.
         11    1    3    3    0    0  0.30326166574E+02  0.16299441942E+02  0.10619510401E+02  0.36029462778E+02  0.51100000000E-03 0. -1.
        -11    1    3    3    0    0 -0.51632588048E+01 -0.25864489531E+01 -0.73610595271E+01  0.93559690730E+01  0.51100000000E-03 0.  1.
        -12    1    3    3    0    0 -0.11196598595E+02 -0.24460033781E+02  0.30757715655E+01  0.27076141590E+02  0.00000000000E+00 0.  1.
</event>
<event>
 7    1  0.1465498E-013  0.7246161E+02  0.7816164E-02  0.1226708E+00
        -11   -1    0    0    0    0  0.00000000000E+00  0.00000000000E+00  0.45593999997E+02  0.45594000000E+02  0.51100000000E-03 0. -1.
         11   -1    0    0    0    0 -0.00000000000E+00 -0.00000000000E+00 -0.45593999997E+02  0.45594000000E+02  0.51100000000E-03 0.  1.
    9900012    2    1    2    0    0 -0.55504201722E+01  0.75308790629E+01 -0.16222099306E+02  0.72461606608E+02  0.70000047306E+02 0.  0.
         12    1    1    2    0    0  0.55504201722E+01 -0.75308790629E+01  0.16222099306E+02  0.18726393392E+02  0.00000000000E+00 0. -1.
         11    1    3    3    0    0 -0.20591804568E+02  0.10969424923E+02  0.17888484296E+01  0.23399800800E+02  0.51100000000E-03 0. -1.
        -11    1    3    3    0    0 -0.10455415047E+02  0.11889855985E+02 -0.73933096744E+01  0.17474135382E+02  0.51100000000E-03 0.  1.
        -12    1    3    3    0    0  0.25496799443E+02 -0.15328401845E+02 -0.10617638062E+02  0.31587670426E+02  0.00000000000E+00 0.  1.
</event>
<event>
 7    1  0.1465498E-013  0.7246158E+02  0.7816164E-02  0.1226708E+00
        -11   -1    0    0    0    0  0.00000000000E+00  0.00000000000E+00  0.45593999997E+02  0.45594000000E+02  0.51100000000E-03 0.  1.
         11   -1    0    0    0    0 -0.00000000000E+00 -0.00000000000E+00 -0.45593999997E+02  0.45594000000E+02  0.51100000000E-03 0. -1.
    9900012    2    1    2    0    0  0.19770270465E+01 -0.74447022347E+01  0.17068872267E+02  0.72461584759E+02  0.70000018843E+02 0.  0.
         12    1    1    2    0    0 -0.19770270465E+01  0.74447022347E+01 -0.17068872267E+02  0.18726415241E+02  0.00000000000E+00 0. -1.
         11    1    3    3    0    0  0.50683887467E+01 -0.49759680695E+01 -0.16627509438E+02  0.18081009183E+02  0.51100000000E-03 0. -1.
        -11    1    3    3    0    0 -0.22683586839E+02 -0.81308984589E+00  0.14710658573E+02  0.27048284658E+02  0.51100000000E-03 0.  1.
        -12    1    3    3    0    0  0.19592225139E+02 -0.16556443193E+01  0.18985723131E+02  0.27332290918E+02  0.00000000000E+00 0.  1.
</event>
<event>
 7    1  0.1465498E-013  0.7246157E+02  0.7816164E-02  0.1226708E+00
        -11   -1    0    0    0    0  0.00000000000E+00  0.00000000000E+00  0.45593999997E+02  0.45594000000E+02  0.51100000000E-03 0. -1.
         11   -1    0    0    0    0 -0.00000000000E+00 -0.00000000000E+00 -0.45593999997E+02  0.45594000000E+02  0.51100000000E-03 0.  1.
    9900012    2    1    2    0    0 -0.13081934955E+02 -0.13250583711E+02  0.19909812944E+01  0.72461574891E+02  0.70000005988E+02 0.  0.
         12    1    1    2    0    0  0.13081934955E+02  0.13250583711E+02 -0.19909812944E+01  0.18726425109E+02  0.00000000000E+00 0. -1.
         11    1    3    3    0    0  0.77017254916E+01  0.15244288377E+02  0.91731350743E+01  0.19386885027E+02  0.51100000000E-03 0. -1.
        -11    1    3    3    0    0  0.94271222954E+01 -0.11230933683E+02 -0.10626877972E+02  0.18108976831E+02  0.51100000000E-03 0.  1.
         12    1    3    3    0    0 -0.30210782742E+02 -0.17263938406E+02  0.34447241926E+01  0.34965713033E+02  0.00000000000E+00 0. -1.
</event>
<event>
 7    1  0.1465498E-013  0.7246159E+02  0.7816164E-02  0.1226708E+00
        -11   -1    0    0    0    0  0.00000000000E+00  0.00000000000E+00  0.45593999997E+02  0.45594000000E+02  0.51100000000E-03 0. -1.
         11   -1    0    0    0    0 -0.00000000000E+00 -0.00000000000E+00 -0.45593999997E+02  0.45594000000E+02  0.51100000000E-03 0.  1.
    9900012    2    1    2    0    0 -0.10482641496E+02 -0.47250137211E+00 -0.15510301242E+02  0.72461588841E+02  0.70000024161E+02 0.  0.
         12    1    1    2    0    0  0.10482641496E+02  0.47250137211E+00  0.15510301242E+02  0.18726411159E+02  0.00000000000E+00 0. -1.
         11    1    3    3    0    0  0.13684469698E+02 -0.94809474282E+01 -0.12934787461E+02  0.21082262734E+02  0.51100000000E-03 0. -1.
        -11    1    3    3    0    0 -0.85843180915E+01  0.26332844485E+02  0.14411443267E+01  0.27734204748E+02  0.51100000000E-03 0.  1.
         12    1    3    3    0    0 -0.15582793102E+02 -0.17324398429E+02 -0.40166581072E+01  0.23645121360E+02  0.00000000000E+00 0. -1.
</event>
<event>
 7    1  0.1465498E-013  0.7246164E+02  0.7816164E-02  0.1226708E+00
        -11   -1    0    0    0    0  0.00000000000E+00  0.00000000000E+00  0.45593999997E+02  0.45594000000E+02  0.51100000000E-03 0.  1.
         11   -1    0    0    0    0 -0.00000000000E+00 -0.00000000000E+00 -0.45593999997E+02  0.45594000000E+02  0.51100000000E-03 0. -1.
    9900012    2    1    2    0    0 -0.66827461578E+01 -0.15973401863E+02  0.71321722272E+01  0.72461640397E+02  0.70000091322E+02 0.  0.
         12    1    1    2    0    0  0.66827461578E+01  0.15973401863E+02 -0.71321722272E+01  0.18726359603E+02  0.00000000000E+00 0. -1.
         11    1    3    3    0    0  0.72715528765E+01 -0.83555651995E+01  0.23192668771E+02  0.25701961716E+02  0.51100000000E-03 0. -1.
        -11    1    3    3    0    0 -0.60589813344E+01 -0.12871209169E+02  0.11066051263E+02  0.18023228654E+02  0.51100000000E-03 0.  1.
        -12    1    3    3    0    0 -0.78953177000E+01  0.52533725049E+01 -0.27126547807E+02  0.28736450028E+02  0.00000000000E+00 0.  1.
</event>
<event>
 7    1  0.1465498E-013  0.7246156E+02  0.7816164E-02  0.1226708E+00
        -11   -1    0    0    0    0  0.00000000000E+00  0.00000000000E+00  0.45593999997E+02  0.45594000000E+02  0.51100000000E-03 0.  1.
         11   -1    0    0    0    0 -0.00000000000E+00 -0.00000000000E+00 -0.45593999997E+02  0.45594000000E+02  0.51100000000E-03 0. -1.
    9900012    2    1    2    0    0  0.12961418694E+02  0.75143204731E+01  0.11234594354E+02  0.72461561550E+02  0.69999988608E+02 0.  0.
         12    1    1    2    0    0 -0.12961418694E+02 -0.75143204731E+01 -0.11234594354E+02  0.18726438450E+02  0.00000000000E+00 0. -1.
         11    1    3    3    0    0  0.76289401992E+01 -0.66544918103E+01  0.16588979200E+02  0.19433919342E+02  0.51100000000E-03 0. -1.
        -11    1    3    3    0    0  0.19967831030E+02 -0.11557726879E+02 -0.38567582989E+01  0.23391663290E+02  0.51100000000E-03 0.  1.
         12    1    3    3    0    0 -0.14635352535E+02  0.25726539163E+02 -0.14976265467E+01  0.29635978918E+02  0.00000000000E+00 0. -1.
</event>
<event>
 7    1  0.1658736E-013  0.7246158E+02  0.7816164E-02  0.1226708E+00
        -11   -1    0    0    0    0  0.00000000000E+00  0.00000000000E+00  0.45593999997E+02  0.45594000000E+02  0.51100000000E-03 0.  1.
         11   -1    0    0    0    0 -0.00000000000E+00 -0.00000000000E+00 -0.45593999997E+02  0.45594000000E+02  0.51100000000E-03 0. -1.
    9900012    2    1    2    0    0  0.14171566624E+02 -0.11195319401E+02  0.49507788524E+01  0.72461583143E+02  0.70000016737E+02 0.  0.
         12    1    1    2    0    0 -0.14171566624E+02  0.11195319401E+02 -0.49507788524E+01  0.18726416857E+02  0.00000000000E+00 0. -1.
         11    1    3    3    0    0  0.11478886144E+02  0.13565053120E+02 -0.19533708065E+02  0.26407219549E+02  0.51100000000E-03 0. -1.
        -11    1    3    3    0    0  0.99361021678E+01  0.18133911210E+01  0.12356313225E+02  0.15959103685E+02  0.51100000000E-03 0.  1.
        -12    1    3    3    0    0 -0.72434216877E+01 -0.26573763643E+02  0.12128173693E+02  0.30095259909E+02  0.00000000000E+00 0.  1.
</event>
<event>
 7    1  0.1465498E-013  0.7246158E+02  0.7816164E-02  0.1226708E+00
        -11   -1    0    0    0    0  0.00000000000E+00  0.00000000000E+00  0.45593999997E+02  0.45594000000E+02  0.51100000000E-03 0.  1.
         11   -1    0    0    0    0 -0.00000000000E+00 -0.00000000000E+00 -0.45593999997E+02  0.45594000000E+02  0.51100000000E-03 0. -1.
    9900012    2    1    2    0    0 -0.27800429382E+01 -0.17190740236E+02  0.68868548831E+01  0.72461575921E+02  0.70000007330E+02 0.  0.
         12    1    1    2    0    0  0.27800429382E+01  0.17190740236E+02 -0.68868548831E+01  0.18726424079E+02  0.00000000000E+00 0. -1.
         11    1    3    3    0    0  0.31422032314E+01  0.23646239751E+01 -0.70878048774E+00  0.39959051205E+01  0.51100000000E-03 0. -1.
        -11    1    3    3    0    0  0.26774984848E+02 -0.22717293052E+02  0.22703381704E+01  0.35187066557E+02  0.51100000000E-03 0.  1.
         12    1    3    3    0    0 -0.32697231017E+02  0.31619288409E+01  0.53252972004E+01  0.33278604244E+02  0.00000000000E+00 0. -1.
</event>
<event>
 7    1  0.1465498E-013  0.7246154E+02  0.7816164E-02  0.1226708E+00
        -11   -1    0    0    0    0  0.00000000000E+00  0.00000000000E+00  0.45593999997E+02  0.45594000000E+02  0.51100000000E-03 0.  1.
         11   -1    0    0    0    0 -0.00000000000E+00 -0.00000000000E+00 -0.45593999997E+02  0.45594000000E+02  0.51100000000E-03 0. -1.
    9900012    2    1    2    0    0 -0.61002360962E+01  0.13375322287E+02  0.11600346464E+02  0.72461543720E+02  0.69999965382E+02 0.  0.
         12    1    1    2    0    0  0.61002360962E+01 -0.13375322287E+02 -0.11600346464E+02  0.18726456280E+02  0.00000000000E+00 0. -1.
         11    1    3    3    0    0  0.11005753319E+02  0.22282837472E+02 -0.13906417324E+02  0.28478762174E+02  0.51100000000E-03 0. -1.
        -11    1    3    3    0    0  0.41911050920E+01  0.39556415533E+01 -0.27058002384E+01  0.63666174050E+01  0.51100000000E-03 0.  1.
        -12    1    3    3    0    0 -0.21297094507E+02 -0.12863156738E+02  0.28212564026E+02  0.37616164141E+02  0.00000000000E+00 0.  1.
</event>
<event>
 7    1  0.1465498E-013  0.7246153E+02  0.7816164E-02  0.1226708E+00
        -11   -1    0    0    0    0  0.00000000000E+00  0.00000000000E+00  0.45593999997E+02  0.45594000000E+02  0.51100000000E-03 0. -1.
         11   -1    0    0    0    0 -0.00000000000E+00 -0.00000000000E+00 -0.45593999997E+02  0.45594000000E+02  0.51100000000E-03 0.  1.
    9900012    2    1    2    0    0 -0.62116393924E+01  0.23636776743E+01 -0.17507409327E+02  0.72461526294E+02  0.69999942682E+02 0.  0.
         12    1    1    2    0    0  0.62116393924E+01 -0.23636776743E+01  0.17507409327E+02  0.18726473706E+02  0.00000000000E+00 0. -1.
         11    1    3    3    0    0  0.14860438906E+01  0.16593521026E+02 -0.21633907734E+00  0.16661334560E+02  0.51100000000E-03 0. -1.
        -11    1    3    3    0    0  0.18137750145E+01 -0.19008899012E+02 -0.32226918446E+02  0.37459341882E+02  0.51100000000E-03 0.  1.
         12    1    3    3    0    0 -0.95114582975E+01  0.47790556608E+01  0.14935848196E+02  0.18340849852E+02  0.00000000000E+00 0. -1.
</event>
<event>
 7    1  0.1465498E-013  0.7246158E+02  0.7816164E-02  0.1226708E+00
        -11   -1    0    0    0    0  0.00000000000E+00  0.00000000000E+00  0.45593999997E+02  0.45594000000E+02  0.51100000000E-03 0.  1.
         11   -1    0    0    0    0 -0.00000000000E+00 -0.00000000000E+00 -0.45593999997E+02  0.45594000000E+02  0.51100000000E-03 0. -1.
    9900012    2    1    2    0    0  0.14041731873E+02  0.32958086880E+01  0.11943454016E+02  0.72461583292E+02  0.70000016931E+02 0.  0.
         12    1    1    2    0    0 -0.14041731873E+02 -0.32958086880E+01 -0.11943454016E+02  0.18726416708E+02  0.00000000000E+00 0. -1.
         11    1    3    3    0    0  0.79404793866E+01  0.70672844171E+01 -0.35278435368E+00  0.10635891076E+02  0.51100000000E-03 0. -1.
        -11    1    3    3    0    0  0.10751494929E+02  0.25746812474E+02  0.15251083686E+02  0.31797618616E+02  0.51100000000E-03 0.  1.
         12    1    3    3    0    0 -0.46502424428E+01 -0.29518288204E+02 -0.29548453162E+01  0.30028073599E+02  0.00000000000E+00 0. -1.
</event>
<event>
 7    1  0.1465498E-013  0.7246166E+02  0.7816164E-02  0.1226708E+00
        -11   -1    0    0    0    0  0.00000000000E+00  0.00000000000E+00  0.45593999997E+02  0.45594000000E+02  0.51100000000E-03 0. -1.
         11   -1    0    0    0    0 -0.00000000000E+00 -0.00000000000E+00 -0.45593999997E+02  0.45594000000E+02  0.51100000000E-03 0.  1.
    9900012    2    1    2    0    0 -0.13615889750E+02 -0.12834557519E+02 -0.74670932437E+00  0.72461657720E+02  0.70000113887E+02 0.  0.
         12    1    1    2    0    0  0.13615889750E+02  0.12834557519E+02  0.74670932437E+00  0.18726342280E+02  0.00000000000E+00 0. -1.
         11    1    3    3    0    0 -0.96305316978E+01 -0.11202782887E+02  0.28172371175E+01  0.15039491695E+02  0.51100000000E-03 0. -1.
        -11    1    3    3    0    0  0.17819058003E+02  0.25415035128E+01 -0.22098992830E+02  0.28501641226E+02  0.51100000000E-03 0.  1.
         12    1    3    3    0    0 -0.21804416056E+02 -0.41732781442E+01  0.18535046388E+02  0.28920524798E+02  0.00000000000E+00 0. -1.
</event>
<event>
 7    1  0.1465498E-013  0.7246158E+02  0.7816164E-02  0.1226708E+00
        -11   -1    0    0    0    0  0.00000000000E+00  0.00000000000E+00  0.45593999997E+02  0.45594000000E+02  0.51100000000E-03 0.  1.
         11   -1    0    0    0    0 -0.00000000000E+00 -0.00000000000E+00 -0.45593999997E+02  0.45594000000E+02  0.51100000000E-03 0. -1.
    9900012    2    1    2    0    0 -0.11543589105E+02  0.29959055345E+01 -0.14437765593E+02  0.72461575496E+02  0.70000006776E+02 0.  0.
         12    1    1    2    0    0  0.11543589105E+02 -0.29959055345E+01  0.14437765593E+02  0.18726424504E+02  0.00000000000E+00 0. -1.
         11    1    3    3    0    0 -0.32957084502E+02  0.11923930291E+02 -0.21547235123E+02  0.41141619732E+02  0.51100000000E-03 0. -1.
        -11    1    3    3    0    0 -0.70516069298E+00 -0.78300753134E+01  0.43990275161E+01  0.90088164796E+01  0.51100000000E-03 0.  1.
        -12    1    3    3    0    0  0.22118656091E+02 -0.10979494428E+01  0.27104420138E+01  0.22311139284E+02  0.00000000000E+00 0.  1.
</event>
<event>
 7    1  0.1465498E-013  0.7246160E+02  0.7816164E-02  0.1226708E+00
        -11   -1    0    0    0    0  0.00000000000E+00  0.00000000000E+00  0.45593999997E+02  0.45594000000E+02  0.51100000000E-03 0. -1.
         11   -1    0    0    0    0 -0.00000000000E+00 -0.00000000000E+00 -0.45593999997E+02  0.45594000000E+02  0.51100000000E-03 0.  1.
    9900012    2    1    2    0    0 -0.12165646230E+02 -0.10454150615E+02 -0.96636353901E+01  0.72461599860E+02  0.70000038514E+02 0.  0.
         12    1    1    2    0    0  0.12165646230E+02  0.10454150615E+02  0.96636353901E+01  0.18726400140E+02  0.00000000000E+00 0. -1.
         11    1    3    3    0    0  0.12614143733E+02 -0.59125418025E+00  0.16583119916E+01  0.12736412468E+02  0.51100000000E-03 0. -1.
        -11    1    3    3    0    0  0.11832205130E+02 -0.15147098733E+02 -0.12124177015E+02  0.22725125892E+02  0.51100000000E-03 0.  1.
         12    1    3    3    0    0 -0.36611995093E+02  0.52842022985E+01  0.80222963311E+00  0.37000061500E+02  0.00000000000E+00 0. -1.
</event>
<event>
 7    1  0.1465498E-013  0.7246154E+02  0.7816164E-02  0.1226708E+00
        -11   -1    0    0    0    0  0.00000000000E+00  0.00000000000E+00  0.45593999997E+02  0.45594000000E+02  0.51100000000E-03 0. -1.
         11   -1    0    0    0    0 -0.00000000000E+00 -0.00000000000E+00 -0.45593999997E+02  0.45594000000E+02  0.51100000000E-03 0.  1.
    9900012    2    1    2    0    0 -0.40478096470E+01  0.17740221062E+02 -0.44249438632E+01  0.72461539190E+02  0.69999959481E+02 0.  0.
         12    1    1    2    0    0  0.40478096470E+01 -0.17740221062E+02  0.44249438632E+01  0.18726460810E+02  0.00000000000E+00 0. -1.
         11    1    3    3    0    0 -0.99735087951E+01  0.83410435391E+01 -0.20675757140E+02  0.24423980400E+02  0.51100000000E-03 0. -1.
        -11    1    3    3    0    0 -0.18196552203E+02  0.10567100399E+02  0.81300398827E+01  0.22558272799E+02  0.51100000000E-03 0.  1.
         12    1    3    3    0    0  0.24122251351E+02 -0.11679228765E+01  0.81207733944E+01  0.25479285991E+02  0.00000000000E+00 0. -1.
</event>
<event>
 7    1  0.1465498E-013  0.7246156E+02  0.7816164E-02  0.1226708E+00
        -11   -1    0    0    0    0  0.00000000000E+00  0.00000000000E+00  0.45593999997E+02  0.45594000000E+02  0.51100000000E-03 0. -1.
         11   -1    0    0    0    0 -0.00000000000E+00 -0.00000000000E+00 -0.45593999997E+02  0.45594000000E+02  0.51100000000E-03 0.  1.
    9900012    2    1    2    0    0 -0.13249327920E+02  0.11401741683E+02 -0.67182618481E+01  0.72461562912E+02  0.69999990383E+02 0.  0.
         12    1    1    2    0    0  0.13249327920E+02 -0.11401741683E+02  0.67182618481E+01  0.18726437088E+02  0.00000000000E+00 0. -1.
         11    1    3    3    0    0  0.12934989234E+01 -0.12791980033E+01  0.87536204269E+01  0.89406575729E+01  0.51100000000E-03 0. -1.
        -11    1    3    3    0    0  0.22174885319E+02  0.57724200773E+01 -0.12346328004E+02  0.26028411168E+02  0.51100000000E-03 0.  1.
         12    1    3    3    0    0 -0.36717712163E+02  0.69085196090E+01 -0.31255542709E+01  0.37492494171E+02  0.00000000000E+00 0. -1.
</event>
<event>
 7    1  0.1465498E-013  0.7246160E+02  0.7816164E-02  0.1226708E+00
        -11   -1    0    0    0    0  0.00000000000E+00  0.00000000000E+00  0.45593999997E+02  0.45594000000E+02  0.51100000000E-03 0.  1.
         11   -1    0    0    0    0 -0.00000000000E+00 -0.00000000000E+00 -0.45593999997E+02  0.45594000000E+02  0.51100000000E-03 0. -1.
    9900012    2    1    2    0    0 -0.28308199236E+01  0.83961527453E+01  0.16497547702E+02  0.72461601453E+02  0.70000040590E+02 0.  0.
         12    1    1    2    0    0  0.28308199236E+01 -0.83961527453E+01 -0.16497547702E+02  0.18726398547E+02  0.00000000000E+00 0. -1.
         11    1    3    3    0    0 -0.31920423294E+00  0.14639125687E+00  0.30290276910E+02  0.30292312512E+02  0.51100000000E-03 0. -1.
        -11    1    3    3    0    0 -0.18886328621E+02  0.62398847511E+01  0.11318665046E+01  0.19922617612E+02  0.51100000000E-03 0.  1.
         12    1    3    3    0    0  0.16374712930E+02  0.20098767374E+01 -0.14924595713E+02  0.22246671329E+02  0.00000000000E+00 0. -1.
</event>
<event>
 7    1  0.1465498E-013  0.7246155E+02  0.7816164E-02  0.1226708E+00
        -11   -1    0    0    0    0  0.00000000000E+00  0.00000000000E+00  0.45593999997E+02  0.45594000000E+02  0.51100000000E-03 0.  1.
         11   -1    0    0    0    0 -0.00000000000E+00 -0.00000000000E+00 -0.45593999997E+02  0.45594000000E+02  0.51100000000E-03 0. -1.
    9900012    2    1    2    0    0  0.82370738915E+01  0.14833156472E+02  0.79251441837E+01  0.72461552725E+02  0.69999977112E+02 0.  0.
         12    1    1    2    0    0 -0.82370738915E+01 -0.14833156472E+02 -0.79251441837E+01  0.18726447275E+02  0.00000000000E+00 0. -1.
         11    1    3    3    0    0  0.10518056019E+02 -0.82443254512E+01  0.58316815297E+01  0.14581046406E+02  0.51100000000E-03 0. -1.
        -11    1    3    3    0    0  0.60025257194E+01  0.16728370706E+02  0.26172716666E+02  0.31636684393E+02  0.51100000000E-03 0.  1.
         12    1    3    3    0    0 -0.82835078464E+01  0.63491112179E+01 -0.24079254012E+02  0.26243821926E+02  0.00000000000E+00 0. -1.
</event>
<event>
 7    1  0.1465498E-013  0.7246166E+02  0.7816164E-02  0.1226708E+00
        -11   -1    0    0    0    0  0.00000000000E+00  0.00000000000E+00  0.45593999997E+02  0.45594000000E+02  0.51100000000E-03 0.  1.
         11   -1    0    0    0    0 -0.00000000000E+00 -0.00000000000E+00 -0.45593999997E+02  0.45594000000E+02  0.51100000000E-03 0. -1.
    9900012    2    1    2    0    0 -0.10401429184E+02 -0.13077997606E+02  0.84529369086E+01  0.72461657783E+02  0.70000113971E+02 0.  0.
         12    1    1    2    0    0  0.10401429184E+02  0.13077997606E+02 -0.84529369086E+01  0.18726342217E+02  0.00000000000E+00 0. -1.
         11    1    3    3    0    0 -0.55118759277E+01 -0.24261519707E+02  0.61967080175E+01  0.25639838245E+02  0.51100000000E-03 0. -1.
        -11    1    3    3    0    0 -0.24145019958E+02  0.66460105403E+01  0.78828511314E+01  0.26254347965E+02  0.51100000000E-03 0.  1.
         12    1    3    3    0    0  0.19255466702E+02  0.45375115605E+01 -0.56266222403E+01  0.20567471573E+02  0.00000000000E+00 0. -1.
</event>
<event>
 7    1  0.1465498E-013  0.7246158E+02  0.7816164E-02  0.1226708E+00
        -11   -1    0    0    0    0  0.00000000000E+00  0.00000000000E+00  0.45593999997E+02  0.45594000000E+02  0.51100000000E-03 0.  1.
         11   -1    0    0    0    0 -0.00000000000E+00 -0.00000000000E+00 -0.45593999997E+02  0.45594000000E+02  0.51100000000E-03 0. -1.
    9900012    2    1    2    0    0  0.18291934972E+02 -0.39441890220E+01 -0.72614851211E+00  0.72461580061E+02  0.70000012723E+02 0.  0.
         12    1    1    2    0    0 -0.18291934972E+02  0.39441890220E+01  0.72614851211E+00  0.18726419939E+02  0.00000000000E+00 0. -1.
         11    1    3    3    0    0  0.11185591704E+02 -0.68980187571E+01 -0.10611362612E+02  0.16890859696E+02  0.51100000000E-03 0. -1.
        -11    1    3    3    0    0  0.24921213697E+02 -0.61268945926E+01  0.20578765373E+02  0.32895156391E+02  0.51100000000E-03 0.  1.
         12    1    3    3    0    0 -0.17814870428E+02  0.90807243278E+01 -0.10693551273E+02  0.22675563974E+02  0.00000000000E+00 0. -1.
</event>
<event>
 7    1  0.1465498E-013  0.7246142E+02  0.7816164E-02  0.1226708E+00
        -11   -1    0    0    0    0  0.00000000000E+00  0.00000000000E+00  0.45593999997E+02  0.45594000000E+02  0.51100000000E-03 0.  1.
         11   -1    0    0    0    0 -0.00000000000E+00 -0.00000000000E+00 -0.45593999997E+02  0.45594000000E+02  0.51100000000E-03 0. -1.
    9900012    2    1    2    0    0  0.47597387889E+01 -0.17851199753E+02  0.30601375526E+01  0.72461417616E+02  0.69999801108E+02 0.  0.
         12    1    1    2    0    0 -0.47597387889E+01  0.17851199753E+02 -0.30601375526E+01  0.18726582384E+02  0.00000000000E+00 0. -1.
         11    1    3    3    0    0 -0.89165045422E+00  0.98708145069E+01  0.96696284215E+00  0.99580639163E+01  0.51100000000E-03 0. -1.
        -11    1    3    3    0    0 -0.11636261721E+02  0.11785011422E+02 -0.77269144261E+01  0.18275510605E+02  0.51100000000E-03 0.  1.
        -12    1    3    3    0    0  0.17287650964E+02 -0.39507025682E+02  0.98200891365E+01  0.44227843094E+02  0.00000000000E+00 0.  1.
</event>
<event>
 7    1  0.1465498E-013  0.7246163E+02  0.7816164E-02  0.1226708E+00
        -11   -1    0    0    0    0  0.00000000000E+00  0.00000000000E+00  0.45593999997E+02  0.45594000000E+02  0.51100000000E-03 0. -1.
         11   -1    0    0    0    0 -0.00000000000E+00 -0.00000000000E+00 -0.45593999997E+02  0.45594000000E+02  0.51100000000E-03 0.  1.
    9900012    2    1    2    0    0 -0.89384448704E+01 -0.10366133912E+02 -0.12779839131E+02  0.72461633102E+02  0.70000081819E+02 0.  0.
         12    1    1    2    0    0  0.89384448704E+01  0.10366133912E+02  0.12779839131E+02  0.18726366898E+02  0.00000000000E+00 0. -1.
         11    1    3    3    0    0  0.21546565410E+02  0.12967839452E+02 -0.94554683655E+01  0.26866805231E+02  0.51100000000E-03 0. -1.
        -11    1    3    3    0    0  0.37598845299E+01 -0.27689975930E+01 -0.31795511764E+01  0.56492145731E+01  0.51100000000E-03 0.  1.
        -12    1    3    3    0    0 -0.34244894811E+02 -0.20564975771E+02 -0.14481958878E+00  0.39945613298E+02  0.00000000000E+00 0.  1.
</event>
<event>
 7    1  0.1465498E-013  0.7246158E+02  0.7816164E-02  0.1226708E+00
        -11   -1    0    0    0    0  0.00000000000E+00  0.00000000000E+00  0.45593999997E+02  0.45594000000E+02  0.51100000000E-03 0.  1.
         11   -1    0    0    0    0 -0.00000000000E+00 -0.00000000000E+00 -0.45593999997E+02  0.45594000000E+02  0.51100000000E-03 0. -1.
    9900012    2    1    2    0    0  0.17747238031E+02  0.58464207003E+01 -0.12384647658E+01  0.72461577819E+02  0.70000009802E+02 0.  0.
         12    1    1    2    0    0 -0.17747238031E+02 -0.58464207003E+01  0.12384647658E+01  0.18726422181E+02  0.00000000000E+00 0. -1.
         11    1    3    3    0    0 -0.16460231262E+02  0.98389209446E+01 -0.73573819487E+01  0.20539587337E+02  0.51100000000E-03 0. -1.
        -11    1    3    3    0    0  0.12560585485E+02  0.50926663215E+01  0.20363911633E+02  0.24462061549E+02  0.51100000000E-03 0.  1.
        -12    1    3    3    0    0  0.21646883808E+02 -0.90851665658E+01 -0.14244994450E+02  0.27459928933E+02  0.00000000000E+00 0.  1.
</event>
<event>
 7    1  0.1465498E-013  0.7246161E+02  0.7816164E-02  0.1226708E+00
        -11   -1    0    0    0    0  0.00000000000E+00  0.00000000000E+00  0.45593999997E+02  0.45594000000E+02  0.51100000000E-03 0.  1.
         11   -1    0    0    0    0 -0.00000000000E+00 -0.00000000000E+00 -0.45593999997E+02  0.45594000000E+02  0.51100000000E-03 0. -1.
    9900012    2    1    2    0    0 -0.17798976291E+02  0.57182615931E+01  0.10842546381E+01  0.72461610044E+02  0.70000051782E+02 0.  0.
         12    1    1    2    0    0  0.17798976291E+02 -0.57182615931E+01 -0.10842546381E+01  0.18726389956E+02  0.00000000000E+00 0. -1.
         11    1    3    3    0    0 -0.60516980688E+00  0.89348399930E+01  0.80482795530E+01  0.12040448506E+02  0.51100000000E-03 0. -1.
        -11    1    3    3    0    0 -0.17078007523E+02 -0.26307957858E+02  0.86621710496E+01  0.32539210118E+02  0.51100000000E-03 0.  1.
         12    1    3    3    0    0 -0.11579896165E+00  0.23091379458E+02 -0.15626195965E+02  0.27881951420E+02  0.00000000000E+00 0. -1.
</event>
<event>
 7    1  0.1465498E-013  0.7246158E+02  0.7816164E-02  0.1226708E+00
        -11   -1    0    0    0    0  0.00000000000E+00  0.00000000000E+00  0.45593999997E+02  0.45594000000E+02  0.51100000000E-03 0.  1.
         11   -1    0    0    0    0 -0.00000000000E+00 -0.00000000000E+00 -0.45593999997E+02  0.45594000000E+02  0.51100000000E-03 0. -1.
    9900012    2    1    2    0    0  0.81927136606E+01 -0.12967635208E+02  0.10742374365E+02  0.72461582109E+02  0.70000015391E+02 0.  0.
         12    1    1    2    0    0 -0.81927136606E+01  0.12967635208E+02 -0.10742374365E+02  0.18726417891E+02  0.00000000000E+00 0. -1.
         11    1    3    3    0    0  0.21830870179E+02 -0.79954598018E+01 -0.14289670355E+02  0.27289355971E+02  0.51100000000E-03 0. -1.
        -11    1    3    3    0    0  0.50958598014E+01 -0.14305612630E+02  0.16892194545E+02  0.22714853657E+02  0.51100000000E-03 0.  1.
        -12    1    3    3    0    0 -0.18734016320E+02  0.93334372239E+01  0.81398501754E+01  0.22457372481E+02  0.00000000000E+00 0.  1.
</event>
<event>
 7    1  0.1465498E-013  0.7246154E+02  0.7816164E-02  0.1226708E+00
        -11   -1    0    0    0    0  0.00000000000E+00  0.00000000000E+00  0.45593999997E+02  0.45594000000E+02  0.51100000000E-03 0.  1.
         11   -1    0    0    0    0 -0.00000000000E+00 -0.00000000000E+00 -0.45593999997E+02  0.45594000000E+02  0.51100000000E-03 0. -1.
    9900012    2    1    2    0    0 -0.63783972996E+01 -0.64582105249E+01  0.16379495114E+02  0.72461540231E+02  0.69999960837E+02 0.  0.
         12    1    1    2    0    0  0.63783972996E+01  0.64582105249E+01 -0.16379495114E+02  0.18726459769E+02  0.00000000000E+00 0. -1.
         11    1    3    3    0    0 -0.23793878076E+02  0.67474448388E+01  0.15256001630E+02  0.29058944092E+02  0.51100000000E-03 0. -1.
        -11    1    3    3    0    0 -0.24307611014E+01 -0.15203501635E+02 -0.12004628890E+02  0.19523477573E+02  0.51100000000E-03 0.  1.
        -12    1    3    3    0    0  0.19846241878E+02  0.19978462712E+01  0.13128122374E+02  0.23879118566E+02  0.00000000000E+00 0.  1.
</event>
<event>
 7    1  0.1465498E-013  0.7246158E+02  0.7816164E-02  0.1226708E+00
        -11   -1    0    0    0    0  0.00000000000E+00  0.00000000000E+00  0.45593999997E+02  0.45594000000E+02  0.51100000000E-03 0.  1.
         11   -1    0    0    0    0 -0.00000000000E+00 -0.00000000000E+00 -0.45593999997E+02  0.45594000000E+02  0.51100000000E-03 0. -1.
    9900012    2    1    2    0    0  0.11683025262E+02 -0.84587409759E+01  0.11943008764E+02  0.72461579186E+02  0.70000011583E+02 0.  0.
         12    1    1    2    0    0 -0.11683025262E+02  0.84587409759E+01 -0.11943008764E+02  0.18726420814E+02  0.00000000000E+00 0. -1.
         11    1    3    3    0    0  0.14631272706E+02  0.86983343024E+01 -0.11677872953E+02  0.20642380619E+02  0.51100000000E-03 0. -1.
        -11    1    3    3    0    0  0.14089757276E+02 -0.20280632806E+02  0.29811915986E+01  0.24873938786E+02  0.51100000000E-03 0.  1.
        -12    1    3    3    0    0 -0.17038004720E+02  0.31235575281E+01  0.20639690119E+02  0.26945259781E+02  0.00000000000E+00 0.  1.
</event>
<event>
 7    1  0.1465498E-013  0.7246156E+02  0.7816164E-02  0.1226708E+00
        -11   -1    0    0    0    0  0.00000000000E+00  0.00000000000E+00  0.45593999997E+02  0.45594000000E+02  0.51100000000E-03 0. -1.
         11   -1    0    0    0    0 -0.00000000000E+00 -0.00000000000E+00 -0.45593999997E+02  0.45594000000E+02  0.51100000000E-03 0.  1.
    9900012    2    1    2    0    0  0.47676327095E+01 -0.17684115967E+02  0.39014439029E+01  0.72461560303E+02  0.69999986985E+02 0.  0.
         12    1    1    2    0    0 -0.47676327095E+01  0.17684115967E+02 -0.39014439029E+01  0.18726439697E+02  0.00000000000E+00 0. -1.
         11    1    3    3    0    0  0.19641361182E+02 -0.20873302860E+01 -0.10899288135E+02  0.22559576656E+02  0.51100000000E-03 0. -1.
        -11    1    3    3    0    0  0.11462137051E+02 -0.41650455372E+01  0.17207948851E+02  0.21091270564E+02  0.51100000000E-03 0.  1.
         12    1    3    3    0    0 -0.26335865523E+02 -0.11431740144E+02 -0.24072168129E+01  0.28810713083E+02  0.00000000000E+00 0. -1.
</event>
<event>
 7    1  0.1465498E-013  0.7246158E+02  0.7816164E-02  0.1226708E+00
        -11   -1    0    0    0    0  0.00000000000E+00  0.00000000000E+00  0.45593999997E+02  0.45594000000E+02  0.51100000000E-03 0. -1.
         11   -1    0    0    0    0 -0.00000000000E+00 -0.00000000000E+00 -0.45593999997E+02  0.45594000000E+02  0.51100000000E-03 0.  1.
    9900012    2    1    2    0    0 -0.80894826837E+01  0.16835335407E+02  0.13455728442E+01  0.72461579770E+02  0.70000012343E+02 0.  0.
         12    1    1    2    0    0  0.80894826837E+01 -0.16835335407E+02 -0.13455728442E+01  0.18726420230E+02  0.00000000000E+00 0. -1.
         11    1    3    3    0    0 -0.14869544133E+01 -0.63308059769E+01  0.16109741974E+00  0.65050818892E+01  0.51100000000E-03 0. -1.
        -11    1    3    3    0    0  0.16788860083E+02 -0.12149575112E+02  0.94845996277E+01  0.22791130483E+02  0.51100000000E-03 0.  1.
        -12    1    3    3    0    0 -0.23391388354E+02  0.35315716497E+02 -0.83001242032E+01  0.43165367398E+02  0.00000000000E+00 0.  1.
</event>
<event>
 7    1  0.1465498E-013  0.7246159E+02  0.7816164E-02  0.1226708E+00
        -11   -1    0    0    0    0  0.00000000000E+00  0.00000000000E+00  0.45593999997E+02  0.45594000000E+02  0.51100000000E-03 0.  1.
         11   -1    0    0    0    0 -0.00000000000E+00 -0.00000000000E+00 -0.45593999997E+02  0.45594000000E+02  0.51100000000E-03 0. -1.
    9900012    2    1    2    0    0 -0.99711928530E+01 -0.10254076663E+01  0.15817788647E+02  0.72461585888E+02  0.70000020314E+02 0.  0.
         12    1    1    2    0    0  0.99711928530E+01  0.10254076663E+01 -0.15817788647E+02  0.18726414112E+02  0.00000000000E+00 0. -1.
         11    1    3    3    0    0 -0.91848992575E+00  0.68029069713E+01 -0.10926541302E+02  0.12903971175E+02  0.51100000000E-03 0. -1.
        -11    1    3    3    0    0  0.20344746675E+02  0.31360254993E+01  0.17018964978E+02  0.26709334369E+02  0.51100000000E-03 0.  1.
        -12    1    3    3    0    0 -0.29397449603E+02 -0.10964340137E+02  0.97253649710E+01  0.32848280345E+02  0.00000000000E+00 0.  1.
</event>
<event>
 7    1  0.1465498E-013  0.7246159E+02  0.7816164E-02  0.1226708E+00
        -11   -1    0    0    0    0  0.00000000000E+00  0.00000000000E+00  0.45593999997E+02  0.45594000000E+02  0.51100000000E-03 0. -1.
         11   -1    0    0    0    0 -0.00000000000E+00 -0.00000000000E+00 -0.45593999997E+02  0.45594000000E+02  0.51100000000E-03 0.  1.
    9900012    2    1    2    0    0  0.95082783318E+01  0.16958997945E+01 -0.16043533866E+02  0.72461590525E+02  0.70000026354E+02 0.  0.
         12    1    1    2    0    0 -0.95082783318E+01 -0.16958997945E+01  0.16043533866E+02  0.18726409475E+02  0.00000000000E+00 0. -1.
         11    1    3    3    0    0  0.58076276074E+01 -0.11885365519E+02  0.12020017919E+02  0.17873759620E+02  0.51100000000E-03 0. -1.
        -11    1    3    3    0    0  0.21366841376E+02  0.15840866147E+02 -0.80341905358E+01  0.27785304902E+02  0.51100000000E-03 0.  1.
         12    1    3    3    0    0 -0.17666190652E+02 -0.22596008333E+01 -0.20029361249E+02  0.26802526002E+02  0.00000000000E+00 0. -1.
</event>
<event>
 7    1  0.1465498E-013  0.7246167E+02  0.7816164E-02  0.1226708E+00
        -11   -1    0    0    0    0  0.00000000000E+00  0.00000000000E+00  0.45593999997E+02  0.45594000000E+02  0.51100000000E-03 0. -1.
         11   -1    0    0    0    0 -0.00000000000E+00 -0.00000000000E+00 -0.45593999997E+02  0.45594000000E+02  0.51100000000E-03 0.  1.
    9900012    2    1    2    0    0  0.66994307299E+01  0.13213148730E+02  0.11454508388E+02  0.72461670037E+02  0.70000129933E+02 0.  0.
         12    1    1    2    0    0 -0.66994307299E+01 -0.13213148730E+02 -0.11454508388E+02  0.18726329963E+02  0.00000000000E+00 0. -1.
         11    1    3    3    0    0 -0.13382061082E+02 -0.55552710579E+00 -0.19316146256E+00  0.13394979686E+02  0.51100000000E-03 0. -1.
        -11    1    3    3    0    0 -0.16053913240E+01 -0.18748656772E+02  0.34672497225E+01  0.19134033369E+02  0.51100000000E-03 0.  1.
        -12    1    3    3    0    0  0.21686883136E+02  0.32517332608E+02  0.81804201285E+01  0.39932656982E+02  0.00000000000E+00 0.  1.
</event>
<event>
 7    1  0.1465498E-013  0.7246158E+02  0.7816164E-02  0.1226708E+00
        -11   -1    0    0    0    0  0.00000000000E+00  0.00000000000E+00  0.45593999997E+02  0.45594000000E+02  0.51100000000E-03 0.  1.
         11   -1    0    0    0    0 -0.00000000000E+00 -0.00000000000E+00 -0.45593999997E+02  0.45594000000E+02  0.51100000000E-03 0. -1.
    9900012    2    1    2    0    0 -0.19930340277E+01 -0.18276287450E+02  0.35614713613E+01  0.72461576266E+02  0.70000007779E+02 0.  0.
         12    1    1    2    0    0  0.19930340277E+01  0.18276287450E+02 -0.35614713613E+01  0.18726423734E+02  0.00000000000E+00 0. -1.
         11    1    3    3    0    0  0.14457570614E+02 -0.55677656645E-01 -0.11830240510E+01  0.14505998560E+02  0.51100000000E-03 0. -1.
        -11    1    3    3    0    0  0.12371450462E+02 -0.24901978910E+02 -0.96879764003E+00  0.27822651011E+02  0.51100000000E-03 0.  1.
        -12    1    3    3    0    0 -0.28822055104E+02  0.66813691165E+01  0.57132930524E+01  0.30132926694E+02  0.00000000000E+00 0.  1.
</event>
<event>
 7    1  0.1465498E-013  0.7246154E+02  0.7816164E-02  0.1226708E+00
        -11   -1    0    0    0    0  0.00000000000E+00  0.00000000000E+00  0.45593999997E+02  0.45594000000E+02  0.51100000000E-03 0.  1.
         11   -1    0    0    0    0 -0.00000000000E+00 -0.00000000000E+00 -0.45593999997E+02  0.45594000000E+02  0.51100000000E-03 0. -1.
    9900012    2    1    2    0    0 -0.10498013644E+01 -0.17366305541E+02  0.69274601894E+01  0.72461538622E+02  0.69999958741E+02 0.  0.
         12    1    1    2    0    0  0.10498013644E+01  0.17366305541E+02 -0.69274601894E+01  0.18726461378E+02  0.00000000000E+00 0. -1.
         11    1    3    3    0    0  0.16209955002E+02  0.16048494151E+02  0.18191807544E+01  0.22882880600E+02  0.51100000000E-03 0. -1.
        -11    1    3    3    0    0 -0.13608317392E+01 -0.26740219526E+01  0.13613367342E+02  0.13940087054E+02  0.51100000000E-03 0.  1.
        -12    1    3    3    0    0 -0.15898924627E+02 -0.30740777740E+02 -0.85050879073E+01  0.35638570968E+02  0.00000000000E+00 0.  1.
</event>
<event>
 7    1  0.1465498E-013  0.7246154E+02  0.7816164E-02  0.1226708E+00
        -11   -1    0    0    0    0  0.00000000000E+00  0.00000000000E+00  0.45593999997E+02  0.45594000000E+02  0.51100000000E-03 0.  1.
         11   -1    0    0    0    0 -0.00000000000E+00 -0.00000000000E+00 -0.45593999997E+02  0.45594000000E+02  0.51100000000E-03 0. -1.
    9900012    2    1    2    0    0 -0.13179817180E+02  0.12708247681E+02 -0.39335937505E+01  0.72461540115E+02  0.69999960686E+02 0.  0.
         12    1    1    2    0    0  0.13179817180E+02 -0.12708247681E+02  0.39335937505E+01  0.18726459885E+02  0.00000000000E+00 0. -1.
         11    1    3    3    0    0  0.76468625434E+01  0.76896382051E+00 -0.19603120935E+02  0.21055834412E+02  0.51100000000E-03 0. -1.
        -11    1    3    3    0    0 -0.11633637510E+02 -0.13850374193E+02 -0.29060201740E+01  0.18319916499E+02  0.51100000000E-03 0.  1.
         12    1    3    3    0    0 -0.91930422136E+01  0.25789658053E+02  0.18575547359E+02  0.33085789205E+02  0.00000000000E+00 0. -1.
</event>
<event>
 7    1  0.1465498E-013  0.7246161E+02  0.7816164E-02  0.1226708E+00
        -11   -1    0    0    0    0  0.00000000000E+00  0.00000000000E+00  0.45593999997E+02  0.45594000000E+02  0.51100000000E-03 0.  1.
         11   -1    0    0    0    0 -0.00000000000E+00 -0.00000000000E+00 -0.45593999997E+02  0.45594000000E+02  0.51100000000E-03 0. -1.
    9900012    2    1    2    0    0  0.10073609173E+02 -0.15090522491E+02  0.46342492933E+01  0.72461608534E+02  0.70000049815E+02 0.  0.
         12    1    1    2    0    0 -0.10073609173E+02  0.15090522491E+02 -0.46342492933E+01  0.18726391466E+02  0.00000000000E+00 0. -1.
         11    1    3    3    0    0  0.45737005137E+01 -0.14862451913E+02  0.44726520762E+01  0.16180724029E+02  0.51100000000E-03 0. -1.
        -11    1    3    3    0    0  0.22515146605E+02 -0.11443356359E+02  0.16493754803E+02  0.30164982665E+02  0.51100000000E-03 0.  1.
         12    1    3    3    0    0 -0.17015237946E+02  0.11215285781E+02 -0.16332157586E+02  0.26115901840E+02  0.00000000000E+00 0. -1.
</event>
<event>
 7    1  0.1465498E-013  0.7246154E+02  0.7816164E-02  0.1226708E+00
        -11   -1    0    0    0    0  0.00000000000E+00  0.00000000000E+00  0.45593999997E+02  0.45594000000E+02  0.51100000000E-03 0.  1.
         11   -1    0    0    0    0 -0.00000000000E+00 -0.00000000000E+00 -0.45593999997E+02  0.45594000000E+02  0.51100000000E-03 0. -1.
    9900012    2    1    2    0    0 -0.12244889851E+01 -0.12461439106E+02  0.13924560392E+02  0.72461542247E+02  0.69999963463E+02 0.  0.
         12    1    1    2    0    0  0.12244889851E+01  0.12461439106E+02 -0.13924560392E+02  0.18726457753E+02  0.00000000000E+00 0. -1.
         11    1    3    3    0    0  0.19260584390E+02  0.10762802779E+01  0.14922844670E+02  0.24388927479E+02  0.51100000000E-03 0. -1.
        -11    1    3    3    0    0 -0.26921662576E+02  0.48689775773E+01  0.46960829428E+01  0.27758531189E+02  0.51100000000E-03 0.  1.
         12    1    3    3    0    0  0.64365892016E+01 -0.18406696962E+02 -0.56943672211E+01  0.20314083578E+02  0.00000000000E+00 0. -1.
</event>
<event>
 7    1  0.1465498E-013  0.7246153E+02  0.7816164E-02  0.1226708E+00
        -11   -1    0    0    0    0  0.00000000000E+00  0.00000000000E+00  0.45593999997E+02  0.45594000000E+02  0.51100000000E-03 0.  1.
         11   -1    0    0    0    0 -0.00000000000E+00 -0.00000000000E+00 -0.45593999997E+02  0.45594000000E+02  0.51100000000E-03 0. -1.
    9900012    2    1    2    0    0  0.22700976179E+01  0.17291219907E+02  0.68221009921E+01  0.72461529670E+02  0.69999947080E+02 0.  0.
         12    1    1    2    0    0 -0.22700976179E+01 -0.17291219907E+02 -0.68221009921E+01  0.18726470330E+02  0.00000000000E+00 0. -1.
         11    1    3    3    0    0  0.68378059858E+01  0.24243961876E+02  0.11845963168E+02  0.27836165716E+02  0.51100000000E-03 0. -1.
        -11    1    3    3    0    0 -0.15444195211E+02  0.64705723206E+00  0.14384272739E+02  0.21115140332E+02  0.51100000000E-03 0.  1.
         12    1    3    3    0    0  0.10876486843E+02 -0.75997992008E+01 -0.19408134914E+02  0.23510223622E+02  0.00000000000E+00 0. -1.
</event>
<event>
 7    1  0.1465498E-013  0.7246157E+02  0.7816164E-02  0.1226708E+00
        -11   -1    0    0    0    0  0.00000000000E+00  0.00000000000E+00  0.45593999997E+02  0.45594000000E+02  0.51100000000E-03 0.  1.
         11   -1    0    0    0    0 -0.00000000000E+00 -0.00000000000E+00 -0.45593999997E+02  0.45594000000E+02  0.51100000000E-03 0. -1.
    9900012    2    1    2    0    0  0.10461383551E+02 -0.42839319776E+01  0.14929386156E+02  0.72461569748E+02  0.69999999289E+02 0.  0.
         12    1    1    2    0    0 -0.10461383551E+02  0.42839319776E+01 -0.14929386156E+02  0.18726430252E+02  0.00000000000E+00 0. -1.
         11    1    3    3    0    0 -0.34591236973E+01 -0.15998275938E+02  0.14574952013E+02  0.21916651117E+02  0.51100000000E-03 0. -1.
        -11    1    3    3    0    0  0.18424508509E+02 -0.89619661205E+01  0.14491875709E+02  0.25095693104E+02  0.51100000000E-03 0.  1.
         12    1    3    3    0    0 -0.45040012607E+01  0.20676310080E+02 -0.14137441567E+02  0.25449225528E+02  0.00000000000E+00 0. -1.
</event>
<event>
 7    1  0.1465498E-013  0.7246155E+02  0.7816164E-02  0.1226708E+00
        -11   -1    0    0    0    0  0.00000000000E+00  0.00000000000E+00  0.45593999997E+02  0.45594000000E+02  0.51100000000E-03 0.  1.
         11   -1    0    0    0    0 -0.00000000000E+00 -0.00000000000E+00 -0.45593999997E+02  0.45594000000E+02  0.51100000000E-03 0. -1.
    9900012    2    1    2    0    0 -0.15657850391E+02 -0.90403360583E+01  0.48768665375E+01  0.72461553938E+02  0.69999978692E+02 0.  0.
         12    1    1    2    0    0  0.15657850391E+02  0.90403360583E+01 -0.48768665375E+01  0.18726446062E+02  0.00000000000E+00 0. -1.
         11    1    3    3    0    0  0.13255968522E+02  0.20851620736E+02 -0.30954066378E+01  0.24901653184E+02  0.51100000000E-03 0. -1.
        -11    1    3    3    0    0 -0.33881725169E+01 -0.35057996984E+00  0.78071621625E+01  0.85178870979E+01  0.51100000000E-03 0.  1.
        -12    1    3    3    0    0 -0.25525646396E+02 -0.29541376825E+02  0.16511101279E+00  0.39042013656E+02  0.00000000000E+00 0.  1.
</event>
<event>
 7    1  0.1465498E-013  0.7246185E+02  0.7816164E-02  0.1226707E+00
        -11   -1    0    0    0    0  0.00000000000E+00  0.00000000000E+00  0.45593999997E+02  0.45594000000E+02  0.51100000000E-03 0. -1.
         11   -1    0    0    0    0 -0.00000000000E+00 -0.00000000000E+00 -0.45593999997E+02  0.45594000000E+02  0.51100000000E-03 0.  1.
    9900012    2    1    2    0    0 -0.11921869821E+02 -0.89328362038E+01 -0.11346452253E+02  0.72461854604E+02  0.70000370365E+02 0.  0.
         12    1    1    2    0    0  0.11921869821E+02  0.89328362038E+01  0.11346452253E+02  0.18726145396E+02  0.00000000000E+00 0. -1.
         11    1    3    3    0    0 -0.94681021423E+01 -0.11991299402E+01 -0.28936853482E+02  0.30470056785E+02  0.51100000000E-03 0. -1.
        -11    1    3    3    0    0 -0.60721278906E+01 -0.95768934566E+01 -0.93806274436E+01  0.14716786228E+02  0.51100000000E-03 0.  1.
         12    1    3    3    0    0  0.36183602122E+01  0.18431871930E+01  0.26971028672E+02  0.27275011590E+02  0.00000000000E+00 0. -1.
</event>
<event>
 7    1  0.1465498E-013  0.7246162E+02  0.7816164E-02  0.1226708E+00
        -11   -1    0    0    0    0  0.00000000000E+00  0.00000000000E+00  0.45593999997E+02  0.45594000000E+02  0.51100000000E-03 0.  1.
         11   -1    0    0    0    0 -0.00000000000E+00 -0.00000000000E+00 -0.45593999997E+02  0.45594000000E+02  0.51100000000E-03 0. -1.
    9900012    2    1    2    0    0 -0.14428388902E+01  0.69687558026E+01  0.17321433673E+02  0.72461617381E+02  0.70000061339E+02 0.  0.
         12    1    1    2    0    0  0.14428388902E+01 -0.69687558026E+01 -0.17321433673E+02  0.18726382619E+02  0.00000000000E+00 0. -1.
         11    1    3    3    0    0 -0.28388669108E+02  0.24792515778E+01 -0.43512442789E+00  0.28500044835E+02  0.51100000000E-03 0. -1.
        -11    1    3    3    0    0  0.11277426397E+01  0.81567442808E+01  0.15792698509E+02  0.17810491492E+02  0.51100000000E-03 0.  1.
        -12    1    3    3    0    0  0.25818087578E+02 -0.36672400560E+01  0.19638595918E+01  0.26151081054E+02  0.00000000000E+00 0.  1.
</event>
<event>
 7    1  0.1465498E-013  0.7246157E+02  0.7816164E-02  0.1226708E+00
        -11   -1    0    0    0    0  0.00000000000E+00  0.00000000000E+00  0.45593999997E+02  0.45594000000E+02  0.51100000000E-03 0. -1.
         11   -1    0    0    0    0 -0.00000000000E+00 -0.00000000000E+00 -0.45593999997E+02  0.45594000000E+02  0.51100000000E-03 0.  1.
    9900012    2    1    2    0    0  0.16160352331E+02  0.31467924472E+01  0.89229920316E+01  0.72461572766E+02  0.70000003219E+02 0.  0.
         12    1    1    2    0    0 -0.16160352331E+02 -0.31467924472E+01 -0.89229920316E+01  0.18726427234E+02  0.00000000000E+00 0. -1.
         11    1    3    3    0    0 -0.10465828078E+02  0.11276380937E+02  0.35363954404E+01  0.15785956334E+02  0.51100000000E-03 0. -1.
        -11    1    3    3    0    0  0.25421789100E+02  0.15345073839E+02 -0.64068649838E+01  0.30377402314E+02  0.51100000000E-03 0.  1.
        -12    1    3    3    0    0  0.12043913092E+01 -0.23474662329E+02  0.11793461575E+02  0.26298214118E+02  0.00000000000E+00 0.  1.
</event>
<event>
 7    1  0.1465498E-013  0.7246160E+02  0.7816164E-02  0.1226708E+00
        -11   -1    0    0    0    0  0.00000000000E+00  0.00000000000E+00  0.45593999997E+02  0.45594000000E+02  0.51100000000E-03 0.  1.
         11   -1    0    0    0    0 -0.00000000000E+00 -0.00000000000E+00 -0.45593999997E+02  0.45594000000E+02  0.51100000000E-03 0. -1.
    9900012    2    1    2    0    0 -0.77504764964E+01 -0.15555883481E+02 -0.69729834082E+01  0.72461604340E+02  0.70000044351E+02 0.  0.
         12    1    1    2    0    0  0.77504764964E+01  0.15555883481E+02  0.69729834082E+01  0.18726395660E+02  0.00000000000E+00 0. -1.
         11    1    3    3    0    0 -0.79399231304E+01  0.19761166036E+02 -0.11486636218E+02  0.24196877366E+02  0.51100000000E-03 0. -1.
        -11    1    3    3    0    0  0.11901894442E+02 -0.11792839076E+02 -0.86691516067E+01  0.18864790871E+02  0.51100000000E-03 0.  1.
        -12    1    3    3    0    0 -0.11712447808E+02 -0.23524210441E+02  0.13182804416E+02  0.29399936103E+02  0.00000000000E+00 0.  1.
</event>
<event>
 7    1  0.1465498E-013  0.7246155E+02  0.7816164E-02  0.1226708E+00
        -11   -1    0    0    0    0  0.00000000000E+00  0.00000000000E+00  0.45593999997E+02  0.45594000000E+02  0.51100000000E-03 0.  1.
         11   -1    0    0    0    0 -0.00000000000E+00 -0.00000000000E+00 -0.45593999997E+02  0.45594000000E+02  0.51100000000E-03 0. -1.
    9900012    2    1    2    0    0 -0.90115906858E+01 -0.14994429545E+02  0.66811859219E+01  0.72461550006E+02  0.69999973570E+02 0.  0.
         12    1    1    2    0    0  0.90115906858E+01  0.14994429545E+02 -0.66811859219E+01  0.18726449994E+02  0.00000000000E+00 0. -1.
         11    1    3    3    0    0  0.17682692859E+02 -0.65337328208E+00 -0.20788996492E+02  0.27299943202E+02  0.51100000000E-03 0. -1.
        -11    1    3    3    0    0  0.65361768354E+00 -0.37165566364E+01 -0.13762151188E+01  0.40167122902E+01  0.51100000000E-03 0.  1.
        -12    1    3    3    0    0 -0.27347901229E+02 -0.10624499627E+02  0.28846397533E+02  0.41144894514E+02  0.00000000000E+00 0.  1.
</event>
<event>
 7    1  0.1465498E-013  0.7246151E+02  0.7816164E-02  0.1226708E+00
        -11   -1    0    0    0    0  0.00000000000E+00  0.00000000000E+00  0.45593999997E+02  0.45594000000E+02  0.51100000000E-03 0. -1.
         11   -1    0    0    0    0 -0.00000000000E+00 -0.00000000000E+00 -0.45593999997E+02  0.45594000000E+02  0.51100000000E-03 0.  1.
    9900012    2    1    2    0    0 -0.15735197477E+02  0.97305574408E+01 -0.28985045498E+01  0.72461507633E+02  0.69999918371E+02 0.  0.
         12    1    1    2    0    0  0.15735197477E+02 -0.97305574408E+01  0.28985045498E+01  0.18726492367E+02  0.00000000000E+00 0. -1.
         11    1    3    3    0    0  0.14884451496E+02 -0.96228938107E+01  0.24267358313E+01  0.17889550824E+02  0.51100000000E-03 0. -1.
        -11    1    3    3    0    0 -0.25764577752E+02 -0.54610943583E+00  0.11350215894E+02  0.28159174408E+02  0.51100000000E-03 0.  1.
        -12    1    3    3    0    0 -0.48550712216E+01  0.19899560687E+02 -0.16675456275E+02  0.26412782400E+02  0.00000000000E+00 0.  1.
</event>
<event>
 7    1  0.1465498E-013  0.7246127E+02  0.7816164E-02  0.1226709E+00
        -11   -1    0    0    0    0  0.00000000000E+00  0.00000000000E+00  0.45593999997E+02  0.45594000000E+02  0.51100000000E-03 0.  1.
         11   -1    0    0    0    0 -0.00000000000E+00 -0.00000000000E+00 -0.45593999997E+02  0.45594000000E+02  0.51100000000E-03 0. -1.
    9900012    2    1    2    0    0 -0.18249625090E+02 -0.40638271830E+01 -0.10616008397E+01  0.72461267673E+02  0.69999605779E+02 0.  0.
         12    1    1    2    0    0  0.18249625090E+02  0.40638271830E+01  0.10616008397E+01  0.18726732327E+02  0.00000000000E+00 0. -1.
         11    1    3    3    0    0 -0.24167660163E+02 -0.33147482973E+01 -0.22034411959E+02  0.32872156374E+02  0.51100000000E-03 0. -1.
        -11    1    3    3    0    0  0.26077256793E+00 -0.28133534144E+01 -0.87849435457E+01  0.92281196962E+01  0.51100000000E-03 0.  1.
        -12    1    3    3    0    0  0.56572625054E+01  0.20642745288E+01  0.29757754665E+02  0.30360991603E+02  0.00000000000E+00 0.  1.
</event>
<event>
 7    1  0.1465498E-013  0.7246163E+02  0.7816164E-02  0.1226708E+00
        -11   -1    0    0    0    0  0.00000000000E+00  0.00000000000E+00  0.45593999997E+02  0.45594000000E+02  0.51100000000E-03 0. -1.
         11   -1    0    0    0    0 -0.00000000000E+00 -0.00000000000E+00 -0.45593999997E+02  0.45594000000E+02  0.51100000000E-03 0.  1.
    9900012    2    1    2    0    0  0.12314068990E+02 -0.14020690410E+02  0.15687636879E+01  0.72461626241E+02  0.70000072881E+02 0.  0.
         12    1    1    2    0    0 -0.12314068990E+02  0.14020690410E+02 -0.15687636879E+01  0.18726373759E+02  0.00000000000E+00 0. -1.
         11    1    3    3    0    0 -0.12022325662E+02 -0.13022954431E+02  0.32714117323E+01  0.18023201475E+02  0.51100000000E-03 0. -1.
        -11    1    3    3    0    0 -0.23495863144E+01  0.47027427291E+01  0.19300362439E+02  0.20003508081E+02  0.51100000000E-03 0.  1.
        -12    1    3    3    0    0  0.26685980967E+02 -0.57004787078E+01 -0.21003010483E+02  0.34434916684E+02  0.00000000000E+00 0.  1.
</event>
<event>
 7    1  0.1465498E-013  0.7246150E+02  0.7816164E-02  0.1226708E+00
        -11   -1    0    0    0    0  0.00000000000E+00  0.00000000000E+00  0.45593999997E+02  0.45594000000E+02  0.51100000000E-03 0.  1.
         11   -1    0    0    0    0 -0.00000000000E+00 -0.00000000000E+00 -0.45593999997E+02  0.45594000000E+02  0.51100000000E-03 0. -1.
    9900012    2    1    2    0    0 -0.34412975705E+00 -0.18847113336E+01  0.18628236464E+02  0.72461501238E+02  0.69999910042E+02 0.  0.
         12    1    1    2    0    0  0.34412975705E+00  0.18847113336E+01 -0.18628236464E+02  0.18726498762E+02  0.00000000000E+00 0. -1.
         11    1    3    3    0    0  0.67142190247E+01 -0.20988057187E+02 -0.13783981637E+02  0.25991872415E+02  0.51100000000E-03 0. -1.
        -11    1    3    3    0    0  0.39332289822E+01 -0.48664780913E+01  0.29121726179E+01  0.69017134726E+01  0.51100000000E-03 0.  1.
        -12    1    3    3    0    0 -0.10991577764E+02  0.23969823945E+02  0.29500045483E+02  0.39567915351E+02  0.00000000000E+00 0.  1.
</event>
<event>
 7    1  0.1465498E-013  0.7246141E+02  0.7816164E-02  0.1226708E+00
        -11   -1    0    0    0    0  0.00000000000E+00  0.00000000000E+00  0.45593999997E+02  0.45594000000E+02  0.51100000000E-03 0.  1.
         11   -1    0    0    0    0 -0.00000000000E+00 -0.00000000000E+00 -0.45593999997E+02  0.45594000000E+02  0.51100000000E-03 0. -1.
    9900012    2    1    2    0    0 -0.10042086108E+02 -0.68089601647E+01  0.14264636018E+02  0.72461407340E+02  0.69999787722E+02 0.  0.
         12    1    1    2    0    0  0.10042086108E+02  0.68089601647E+01 -0.14264636018E+02  0.18726592660E+02  0.00000000000E+00 0. -1.
         11    1    3    3    0    0 -0.45319852580E+01 -0.27580705147E+02  0.12502702453E+02  0.30619466940E+02  0.51100000000E-03 0. -1.
        -11    1    3    3    0    0  0.68734564321E+01 -0.66927839491E+01  0.61516852001E+01  0.11396534183E+02  0.51100000000E-03 0.  1.
        -12    1    3    3    0    0 -0.12383557282E+02  0.27464528931E+02 -0.43897516356E+01  0.30445406218E+02  0.00000000000E+00 0.  1.
</event>
<event>
 7    1  0.1465498E-013  0.7246162E+02  0.7816164E-02  0.1226708E+00
        -11   -1    0    0    0    0  0.00000000000E+00  0.00000000000E+00  0.45593999997E+02  0.45594000000E+02  0.51100000000E-03 0.  1.
         11   -1    0    0    0    0 -0.00000000000E+00 -0.00000000000E+00 -0.45593999997E+02  0.45594000000E+02  0.51100000000E-03 0. -1.
    9900012    2    1    2    0    0  0.12492734461E+02  0.54292388781E+01  0.12850382790E+02  0.72461617889E+02  0.70000062001E+02 0.  0.
         12    1    1    2    0    0 -0.12492734461E+02 -0.54292388781E+01 -0.12850382790E+02  0.18726382111E+02  0.00000000000E+00 0. -1.
         11    1    3    3    0    0  0.17441967714E+01  0.28658816128E+02 -0.10019311304E+02  0.30409810317E+02  0.51100000000E-03 0. -1.
        -11    1    3    3    0    0 -0.11218477504E-02  0.42814854187E+01  0.77884813600E+01  0.88877196629E+01  0.51100000000E-03 0.  1.
        -12    1    3    3    0    0  0.10749659537E+02 -0.27511062669E+02  0.15081212734E+02  0.33164087909E+02  0.00000000000E+00 0.  1.
</event>
<event>
 7    1  0.1465498E-013  0.7246152E+02  0.7816164E-02  0.1226708E+00
        -11   -1    0    0    0    0  0.00000000000E+00  0.00000000000E+00  0.45593999997E+02  0.45594000000E+02  0.51100000000E-03 0.  1.
         11   -1    0    0    0    0 -0.00000000000E+00 -0.00000000000E+00 -0.45593999997E+02  0.45594000000E+02  0.51100000000E-03 0. -1.
    9900012    2    1    2    0    0  0.50845524244E+01  0.13900896187E+02  0.11471412343E+02  0.72461524376E+02  0.69999940182E+02 0.  0.
         12    1    1    2    0    0 -0.50845524244E+01 -0.13900896187E+02 -0.11471412343E+02  0.18726475624E+02  0.00000000000E+00 0. -1.
         11    1    3    3    0    0  0.14101682620E+02  0.21480068623E+01  0.32142647449E+01  0.14622000011E+02  0.51100000000E-03 0. -1.
        -11    1    3    3    0    0 -0.32681618512E+00 -0.85866602311E+00  0.30675315132E+02  0.30689070935E+02  0.51100000000E-03 0.  1.
         12    1    3    3    0    0 -0.86903140106E+01  0.12611555348E+02 -0.22418167534E+02  0.27150453430E+02  0.00000000000E+00 0. -1.
</event>
<event>
 7    1  0.1465498E-013  0.7246162E+02  0.7816164E-02  0.1226708E+00
        -11   -1    0    0    0    0  0.00000000000E+00  0.00000000000E+00  0.45593999997E+02  0.45594000000E+02  0.51100000000E-03 0.  1.
         11   -1    0    0    0    0 -0.00000000000E+00 -0.00000000000E+00 -0.45593999997E+02  0.45594000000E+02  0.51100000000E-03 0. -1.
    9900012    2    1    2    0    0 -0.70689129310E+01 -0.14279491023E+02  0.98388923167E+01  0.72461622990E+02  0.70000068646E+02 0.  0.
         12    1    1    2    0    0  0.70689129310E+01  0.14279491023E+02 -0.98388923167E+01  0.18726377010E+02  0.00000000000E+00 0. -1.
         11    1    3    3    0    0 -0.81573078328E+01  0.10520955899E+02  0.12637583323E+02  0.18355944449E+02  0.51100000000E-03 0. -1.
        -11    1    3    3    0    0  0.56284180451E+01  0.10042395289E+02  0.11405969663E+02  0.16205706929E+02  0.51100000000E-03 0.  1.
        -12    1    3    3    0    0 -0.45400231432E+01 -0.34842842211E+02 -0.14204660669E+02  0.37899971613E+02  0.00000000000E+00 0.  1.
</event>
<event>
 7    1  0.1465498E-013  0.7246161E+02  0.7816164E-02  0.1226708E+00
        -11   -1    0    0    0    0  0.00000000000E+00  0.00000000000E+00  0.45593999997E+02  0.45594000000E+02  0.51100000000E-03 0.  1.
         11   -1    0    0    0    0 -0.00000000000E+00 -0.00000000000E+00 -0.45593999997E+02  0.45594000000E+02  0.51100000000E-03 0. -1.
    9900012    2    1    2    0    0  0.14573588694E+01  0.14498285342E+02  0.11762372168E+02  0.72461612955E+02  0.70000055573E+02 0.  0.
         12    1    1    2    0    0 -0.14573588694E+01 -0.14498285342E+02 -0.11762372168E+02  0.18726387045E+02  0.00000000000E+00 0. -1.
         11    1    3    3    0    0  0.92775928980E+01 -0.73835489765E+01 -0.59254506315E+01  0.13255243903E+02  0.51100000000E-03 0. -1.
        -11    1    3    3    0    0  0.76072490341E+01  0.20510767510E+02 -0.12558893997E+02  0.25224742623E+02  0.51100000000E-03 0.  1.
         12    1    3    3    0    0 -0.15427483063E+02  0.13710668091E+01  0.30246716796E+02  0.33981626430E+02  0.00000000000E+00 0. -1.
</event>
<event>
 7    1  0.1465498E-013  0.7246155E+02  0.7816164E-02  0.1226708E+00
        -11   -1    0    0    0    0  0.00000000000E+00  0.00000000000E+00  0.45593999997E+02  0.45594000000E+02  0.51100000000E-03 0. -1.
         11   -1    0    0    0    0 -0.00000000000E+00 -0.00000000000E+00 -0.45593999997E+02  0.45594000000E+02  0.51100000000E-03 0.  1.
    9900012    2    1    2    0    0  0.59771283610E-01 -0.13904166289E+02 -0.12543938807E+02  0.72461553097E+02  0.69999977598E+02 0.  0.
         12    1    1    2    0    0 -0.59771283610E-01  0.13904166289E+02  0.12543938807E+02  0.18726446903E+02  0.00000000000E+00 0. -1.
         11    1    3    3    0    0 -0.13840449289E+01 -0.41618912233E+01 -0.12919920751E+02  0.13644092912E+02  0.51100000000E-03 0. -1.
        -11    1    3    3    0    0 -0.53525981646E+01 -0.51597616050E+01 -0.28161362167E+02  0.29126204118E+02  0.51100000000E-03 0.  1.
         12    1    3    3    0    0  0.67964143771E+01 -0.45825134603E+01  0.28537344111E+02  0.29691256068E+02  0.00000000000E+00 0. -1.
</event>
<event>
 7    1  0.1465498E-013  0.7246155E+02  0.7816164E-02  0.1226708E+00
        -11   -1    0    0    0    0  0.00000000000E+00  0.00000000000E+00  0.45593999997E+02  0.45594000000E+02  0.51100000000E-03 0.  1.
         11   -1    0    0    0    0 -0.00000000000E+00 -0.00000000000E+00 -0.45593999997E+02  0.45594000000E+02  0.51100000000E-03 0. -1.
    9900012    2    1    2    0    0  0.11987688775E+02  0.79958440262E+01  0.11959997635E+02  0.72461554868E+02  0.69999979904E+02 0.  0.
         12    1    1    2    0    0 -0.11987688775E+02 -0.79958440262E+01 -0.11959997635E+02  0.18726445132E+02  0.00000000000E+00 0. -1.
         11    1    3    3    0    0  0.15338932166E+02 -0.35462877952E+01  0.12262775105E+02  0.19955817464E+02  0.51100000000E-03 0. -1.
        -11    1    3    3    0    0  0.10915398917E+02 -0.17220534614E+02  0.37702435716E+00  0.20392030147E+02  0.51100000000E-03 0.  1.
         12    1    3    3    0    0 -0.14266642308E+02  0.28762666435E+02 -0.67980182716E+00  0.32113707256E+02  0.00000000000E+00 0. -1.
</event>
<event>
 7    1  0.1465498E-013  0.7246159E+02  0.7816164E-02  0.1226708E+00
        -11   -1    0    0    0    0  0.00000000000E+00  0.00000000000E+00  0.45593999997E+02  0.45594000000E+02  0.51100000000E-03 0.  1.
         11   -1    0    0    0    0 -0.00000000000E+00 -0.00000000000E+00 -0.45593999997E+02  0.45594000000E+02  0.51100000000E-03 0. -1.
    9900012    2    1    2    0    0  0.12409920330E+02 -0.45700727464E+01  0.13258454165E+02  0.72461593662E+02  0.70000030440E+02 0.  0.
         12    1    1    2    0    0 -0.12409920330E+02  0.45700727464E+01 -0.13258454165E+02  0.18726406338E+02  0.00000000000E+00 0. -1.
         11    1    3    3    0    0  0.37976848054E+02  0.20616520189E+01  0.18819073172E+02  0.42434053689E+02  0.51100000000E-03 0. -1.
        -11    1    3    3    0    0  0.69104971839E-01 -0.30771183311E+00 -0.35310674089E+01  0.35451233232E+01  0.51100000000E-03 0.  1.
        -12    1    3    3    0    0 -0.25636032695E+02 -0.63240129322E+01 -0.20295515990E+01  0.26482416650E+02  0.00000000000E+00 0.  1.
</event>
<event>
 7    1  0.1465498E-013  0.7246158E+02  0.7816164E-02  0.1226708E+00
        -11   -1    0    0    0    0  0.00000000000E+00  0.00000000000E+00  0.45593999997E+02  0.45594000000E+02  0.51100000000E-03 0. -1.
         11   -1    0    0    0    0 -0.00000000000E+00 -0.00000000000E+00 -0.45593999997E+02  0.45594000000E+02  0.51100000000E-03 0.  1.
    9900012    2    1    2    0    0  0.12116281862E+02  0.53219891838E+00 -0.14268539839E+02  0.72461581470E+02  0.70000014558E+02 0.  0.
         12    1    1    2    0    0 -0.12116281862E+02 -0.53219891838E+00  0.14268539839E+02  0.18726418530E+02  0.00000000000E+00 0. -1.
         11    1    3    3    0    0  0.13535447870E+02 -0.37757884262E+01 -0.19266570082E+01  0.14183685515E+02  0.51100000000E-03 0. -1.
        -11    1    3    3    0    0  0.89918125783E+01  0.16234496591E+02 -0.29550565942E+02  0.34894806502E+02  0.51100000000E-03 0.  1.
         12    1    3    3    0    0 -0.10410978587E+02 -0.11926509247E+02  0.17208683112E+02  0.23383089454E+02  0.00000000000E+00 0. -1.
</event>
<event>
 7    1  0.1465498E-013  0.7246156E+02  0.7816164E-02  0.1226708E+00
        -11   -1    0    0    0    0  0.00000000000E+00  0.00000000000E+00  0.45593999997E+02  0.45594000000E+02  0.51100000000E-03 0.  1.
         11   -1    0    0    0    0 -0.00000000000E+00 -0.00000000000E+00 -0.45593999997E+02  0.45594000000E+02  0.51100000000E-03 0. -1.
    9900012    2    1    2    0    0 -0.13805180877E+02  0.83938025952E+01  0.94678805254E+01  0.72461556058E+02  0.69999981455E+02 0.  0.
         12    1    1    2    0    0  0.13805180877E+02 -0.83938025952E+01 -0.94678805254E+01  0.18726443942E+02  0.00000000000E+00 0. -1.
         11    1    3    3    0    0  0.34185696021E+01  0.31479968646E+02  0.25794014700E+01  0.31769928490E+02  0.51100000000E-03 0. -1.
        -11    1    3    3    0    0 -0.54278993617E+01  0.31876225386E+01 -0.63971058338E+01  0.89747419037E+01  0.51100000000E-03 0.  1.
        -12    1    3    3    0    0 -0.11795851118E+02 -0.26273788589E+02  0.13285584889E+02  0.31716885665E+02  0.00000000000E+00 0.  1.
</event>
<event>
 7    1  0.1465498E-013  0.7246166E+02  0.7816164E-02  0.1226708E+00
        -11   -1    0    0    0    0  0.00000000000E+00  0.00000000000E+00  0.45593999997E+02  0.45594000000E+02  0.51100000000E-03 0.  1.
         11   -1    0    0    0    0 -0.00000000000E+00 -0.00000000000E+00 -0.45593999997E+02  0.45594000000E+02  0.51100000000E-03 0. -1.
    9900012    2    1    2    0    0  0.36932053845E+00  0.18186384633E+02  0.44491556324E+01  0.72461655735E+02  0.70000111302E+02 0.  0.
         12    1    1    2    0    0 -0.36932053845E+00 -0.18186384633E+02 -0.44491556324E+01  0.18726344265E+02  0.00000000000E+00 0. -1.
         11    1    3    3    0    0 -0.39239041081E+01  0.21829743027E+02 -0.15903714688E+02  0.27292175531E+02  0.51100000000E-03 0. -1.
        -11    1    3    3    0    0 -0.14500719846E+02  0.28138698929E+01  0.20535730477E+02  0.25296342944E+02  0.51100000000E-03 0.  1.
         12    1    3    3    0    0  0.18793944493E+02 -0.64572282864E+01 -0.18286015652E+00  0.19873137261E+02  0.00000000000E+00 0. -1.
</event>
<event>
 7    1  0.1465498E-013  0.7246174E+02  0.7816164E-02  0.1226708E+00
        -11   -1    0    0    0    0  0.00000000000E+00  0.00000000000E+00  0.45593999997E+02  0.45594000000E+02  0.51100000000E-03 0.  1.
         11   -1    0    0    0    0 -0.00000000000E+00 -0.00000000000E+00 -0.45593999997E+02  0.45594000000E+02  0.51100000000E-03 0. -1.
    9900012    2    1    2    0    0 -0.16049051310E+02 -0.90384935495E+01  0.33773514632E+01  0.72461737252E+02  0.70000217493E+02 0.  0.
         12    1    1    2    0    0  0.16049051310E+02  0.90384935495E+01 -0.33773514632E+01  0.18726262748E+02  0.00000000000E+00 0. -1.
         11    1    3    3    0    0 -0.90687427130E+01 -0.12658635736E+02  0.12908114073E+02  0.20226283946E+02  0.51100000000E-03 0. -1.
        -11    1    3    3    0    0  0.62766858604E+01  0.76310264188E+01  0.18497872767E+02  0.20971424528E+02  0.51100000000E-03 0.  1.
         12    1    3    3    0    0 -0.13256994457E+02 -0.40108842322E+01 -0.28028635376E+02  0.31264028778E+02  0.00000000000E+00 0. -1.
</event>
<event>
 7    1  0.1465498E-013  0.7246144E+02  0.7816164E-02  0.1226708E+00
        -11   -1    0    0    0    0  0.00000000000E+00  0.00000000000E+00  0.45593999997E+02  0.45594000000E+02  0.51100000000E-03 0.  1.
         11   -1    0    0    0    0 -0.00000000000E+00 -0.00000000000E+00 -0.45593999997E+02  0.45594000000E+02  0.51100000000E-03 0. -1.
    9900012    2    1    2    0    0 -0.87442004730E+01 -0.12356044789E+02  0.11025027640E+02  0.72461438137E+02  0.69999827840E+02 0.  0.
         12    1    1    2    0    0  0.87442004730E+01  0.12356044789E+02 -0.11025027640E+02  0.18726561863E+02  0.00000000000E+00 0. -1.
         11    1    3    3    0    0  0.50008537879E+01 -0.12273228452E+02 -0.96894682424E+01  0.16417261353E+02  0.51100000000E-03 0. -1.
        -11    1    3    3    0    0  0.10705549910E+01 -0.17419898086E+02  0.27215182945E+02  0.32330560160E+02  0.51100000000E-03 0.  1.
        -12    1    3    3    0    0 -0.14815609252E+02  0.17337081749E+02 -0.65006870621E+01  0.23713616624E+02  0.00000000000E+00 0.  1.
</event>
<event>
 7    1  0.1465498E-013  0.7246140E+02  0.7816164E-02  0.1226708E+00
        -11   -1    0    0    0    0  0.00000000000E+00  0.00000000000E+00  0.45593999997E+02  0.45594000000E+02  0.51100000000E-03 0.  1.
         11   -1    0    0    0    0 -0.00000000000E+00 -0.00000000000E+00 -0.45593999997E+02  0.45594000000E+02  0.51100000000E-03 0. -1.
    9900012    2    1    2    0    0  0.82645114559E+01  0.16803408783E+02 -0.17033668757E+00  0.72461395638E+02  0.69999772478E+02 0.  0.
         12    1    1    2    0    0 -0.82645114559E+01 -0.16803408783E+02  0.17033668757E+00  0.18726604362E+02  0.00000000000E+00 0. -1.
         11    1    3    3    0    0 -0.36482006582E+01 -0.16154999347E+02 -0.41083875302E+01  0.17063769229E+02  0.51100000000E-03 0. -1.
        -11    1    3    3    0    0 -0.15517256346E+02  0.12647450728E+02 -0.38590895440E+01  0.20387148570E+02  0.51100000000E-03 0.  1.
        -12    1    3    3    0    0  0.27429968460E+02  0.20310957402E+02  0.77971403866E+01  0.35010477839E+02  0.00000000000E+00 0.  1.
</event>
<event>
 7    1  0.1465498E-013  0.7246156E+02  0.7816164E-02  0.1226708E+00
        -11   -1    0    0    0    0  0.00000000000E+00  0.00000000000E+00  0.45593999997E+02  0.45594000000E+02  0.51100000000E-03 0. -1.
         11   -1    0    0    0    0 -0.00000000000E+00 -0.00000000000E+00 -0.45593999997E+02  0.45594000000E+02  0.51100000000E-03 0.  1.
    9900012    2    1    2    0    0  0.89058634290E+01  0.11086849243E+02 -0.12183875474E+02  0.72461562776E+02  0.69999990206E+02 0.  0.
         12    1    1    2    0    0 -0.89058634290E+01 -0.11086849243E+02  0.12183875474E+02  0.18726437224E+02  0.00000000000E+00 0. -1.
         11    1    3    3    0    0  0.24726721235E+02  0.17534055812E+02  0.36143657894E+01  0.30527323770E+02  0.51100000000E-03 0. -1.
        -11    1    3    3    0    0  0.29443387229E+01  0.74402921320E+01  0.59945127316E+01  0.99980628461E+01  0.51100000000E-03 0.  1.
        -12    1    3    3    0    0 -0.18765196529E+02 -0.13887498702E+02 -0.21792753995E+02  0.31936176159E+02  0.00000000000E+00 0.  1.
</event>
<event>
 7    1  0.1465498E-013  0.7246148E+02  0.7816164E-02  0.1226708E+00
        -11   -1    0    0    0    0  0.00000000000E+00  0.00000000000E+00  0.45593999997E+02  0.45594000000E+02  0.51100000000E-03 0.  1.
         11   -1    0    0    0    0 -0.00000000000E+00 -0.00000000000E+00 -0.45593999997E+02  0.45594000000E+02  0.51100000000E-03 0. -1.
    9900012    2    1    2    0    0 -0.55764186967E+01 -0.40993681856E+01  0.17400611058E+02  0.72461480564E+02  0.69999883109E+02 0.  0.
         12    1    1    2    0    0  0.55764186967E+01  0.40993681856E+01 -0.17400611058E+02  0.18726519436E+02  0.00000000000E+00 0. -1.
         11    1    3    3    0    0  0.58046302019E+01  0.68849965120E+01 -0.21371432138E+02  0.23191270355E+02  0.51100000000E-03 0. -1.
        -11    1    3    3    0    0 -0.99871583108E+01  0.49704144665E+01  0.57070817514E+01  0.12530727572E+02  0.51100000000E-03 0.  1.
        -12    1    3    3    0    0 -0.13938905877E+01 -0.15954779164E+02  0.33064961445E+02  0.36739482638E+02  0.00000000000E+00 0.  1.
</event>
<event>
 7    1  0.1465498E-013  0.7246156E+02  0.7816164E-02  0.1226708E+00
        -11   -1    0    0    0    0  0.00000000000E+00  0.00000000000E+00  0.45593999997E+02  0.45594000000E+02  0.51100000000E-03 0.  1.
         11   -1    0    0    0    0 -0.00000000000E+00 -0.00000000000E+00 -0.45593999997E+02  0.45594000000E+02  0.51100000000E-03 0. -1.
    9900012    2    1    2    0    0  0.51801462494E+01  0.81354501310E+01  0.16051796884E+02  0.72461557540E+02  0.69999983386E+02 0.  0.
         12    1    1    2    0    0 -0.51801462494E+01 -0.81354501310E+01 -0.16051796884E+02  0.18726442460E+02  0.00000000000E+00 0. -1.
         11    1    3    3    0    0  0.29519647307E+02 -0.77785773628E+00  0.88797537208E+01  0.30836093563E+02  0.51100000000E-03 0. -1.
        -11    1    3    3    0    0 -0.10877372031E+02 -0.11122111865E+02  0.79587595633E+01  0.17474565765E+02  0.51100000000E-03 0.  1.
        -12    1    3    3    0    0 -0.13462129027E+02  0.20035419732E+02 -0.78671640045E+00  0.24150898213E+02  0.00000000000E+00 0.  1.
</event>
<event>
 7    1  0.1465498E-013  0.7246156E+02  0.7816164E-02  0.1226708E+00
        -11   -1    0    0    0    0  0.00000000000E+00  0.00000000000E+00  0.45593999997E+02  0.45594000000E+02  0.51100000000E-03 0.  1.
         11   -1    0    0    0    0 -0.00000000000E+00 -0.00000000000E+00 -0.45593999997E+02  0.45594000000E+02  0.51100000000E-03 0. -1.
    9900012    2    1    2    0    0 -0.10350944697E+02  0.15450505887E+02 -0.21953244793E+01  0.72461557790E+02  0.69999983711E+02 0.  0.
         12    1    1    2    0    0  0.10350944697E+02 -0.15450505887E+02  0.21953244793E+01  0.18726442210E+02  0.00000000000E+00 0. -1.
         11    1    3    3    0    0 -0.46358763651E+01 -0.72465252762E+01  0.11121538012E+02  0.14060301784E+02  0.51100000000E-03 0. -1.
        -11    1    3    3    0    0 -0.67679328417E+01  0.37030065338E+02 -0.19915583725E+02  0.42587100503E+02  0.51100000000E-03 0.  1.
         12    1    3    3    0    0  0.10528645101E+01 -0.14333034175E+02  0.65987212332E+01  0.15814155503E+02  0.00000000000E+00 0. -1.
</event>
<event>
 7    1  0.1465498E-013  0.7246153E+02  0.7816164E-02  0.1226708E+00
        -11   -1    0    0    0    0  0.00000000000E+00  0.00000000000E+00  0.45593999997E+02  0.45594000000E+02  0.51100000000E-03 0. -1.
         11   -1    0    0    0    0 -0.00000000000E+00 -0.00000000000E+00 -0.45593999997E+02  0.45594000000E+02  0.51100000000E-03 0.  1.
    9900012    2    1    2    0    0 -0.46148215416E+01 -0.15408119402E+02 -0.95903031045E+01  0.72461531165E+02  0.69999949027E+02 0.  0.
         12    1    1    2    0    0  0.46148215416E+01  0.15408119402E+02  0.95903031045E+01  0.18726468835E+02  0.00000000000E+00 0. -1.
         11    1    3    3    0    0 -0.19737217835E+01 -0.96675828576E+00 -0.20659305936E+01  0.30163336587E+01  0.51100000000E-03 0. -1.
        -11    1    3    3    0    0 -0.29886504698E+02  0.81095277692E+01 -0.13130967884E+02  0.33636140111E+02  0.51100000000E-03 0.  1.
         12    1    3    3    0    0  0.27245404940E+02 -0.22550888886E+02  0.56065953736E+01  0.35809057396E+02  0.00000000000E+00 0. -1.
</event>
<event>
 7    1  0.1465498E-013  0.7246155E+02  0.7816164E-02  0.1226708E+00
        -11   -1    0    0    0    0  0.00000000000E+00  0.00000000000E+00  0.45593999997E+02  0.45594000000E+02  0.51100000000E-03 0. -1.
         11   -1    0    0    0    0 -0.00000000000E+00 -0.00000000000E+00 -0.45593999997E+02  0.45594000000E+02  0.51100000000E-03 0.  1.
    9900012    2    1    2    0    0  0.10800832690E+02 -0.13238471302E+02 -0.76658225166E+01  0.72461549614E+02  0.69999973060E+02 0.  0.
         12    1    1    2    0    0 -0.10800832690E+02  0.13238471302E+02  0.76658225166E+01  0.18726450386E+02  0.00000000000E+00 0. -1.
         11    1    3    3    0    0 -0.12478396527E+02  0.91068992012E+01  0.55430697361E+01  0.16412544450E+02  0.51100000000E-03 0. -1.
        -11    1    3    3    0    0  0.77730319836E+00  0.10354077920E+02 -0.12631194256E+02  0.16351091659E+02  0.51100000000E-03 0.  1.
        -12    1    3    3    0    0  0.22501926019E+02 -0.32699448423E+02 -0.57769799659E+00  0.39697913506E+02  0.00000000000E+00 0.  1.
</event>
<event>
 7    1  0.1465498E-013  0.7246158E+02  0.7816164E-02  0.1226708E+00
        -11   -1    0    0    0    0  0.00000000000E+00  0.00000000000E+00  0.45593999997E+02  0.45594000000E+02  0.51100000000E-03 0.  1.
         11   -1    0    0    0    0 -0.00000000000E+00 -0.00000000000E+00 -0.45593999997E+02  0.45594000000E+02  0.51100000000E-03 0. -1.
    9900012    2    1    2    0    0 -0.14740563888E+02 -0.25118707533E+01  0.11273208855E+02  0.72461575987E+02  0.70000007416E+02 0.  0.
         12    1    1    2    0    0  0.14740563888E+02  0.25118707533E+01 -0.11273208855E+02  0.18726424013E+02  0.00000000000E+00 0. -1.
         11    1    3    3    0    0 -0.43077105966E+01 -0.21401082860E+02 -0.90063127468E+01  0.23615172828E+02  0.51100000000E-03 0. -1.
        -11    1    3    3    0    0 -0.19830073920E+02 -0.21168319635E+01  0.32212385715E+01  0.20201217474E+02  0.51100000000E-03 0.  1.
        -12    1    3    3    0    0  0.93972206282E+01  0.21006044070E+02  0.17058283030E+02  0.28645185685E+02  0.00000000000E+00 0.  1.
</event>
<event>
 7    1  0.1465498E-013  0.7246159E+02  0.7816164E-02  0.1226708E+00
        -11   -1    0    0    0    0  0.00000000000E+00  0.00000000000E+00  0.45593999997E+02  0.45594000000E+02  0.51100000000E-03 0.  1.
         11   -1    0    0    0    0 -0.00000000000E+00 -0.00000000000E+00 -0.45593999997E+02  0.45594000000E+02  0.51100000000E-03 0. -1.
    9900012    2    1    2    0    0 -0.15427585841E+02  0.22062508015E+01  0.10382695230E+02  0.72461593304E+02  0.70000029975E+02 0.  0.
         12    1    1    2    0    0  0.15427585841E+02 -0.22062508015E+01 -0.10382695230E+02  0.18726406696E+02  0.00000000000E+00 0. -1.
         11    1    3    3    0    0 -0.11653894176E+02 -0.10244446223E+01 -0.48105952205E+01  0.12649291003E+02  0.51100000000E-03 0. -1.
        -11    1    3    3    0    0 -0.83402436277E+01 -0.15459203074E+02  0.30520121098E+02  0.35213980399E+02  0.51100000000E-03 0.  1.
         12    1    3    3    0    0  0.45665519622E+01  0.18689898498E+02 -0.15326830648E+02  0.24598321902E+02  0.00000000000E+00 0. -1.
</event>
<event>
 7    1  0.1465498E-013  0.7246195E+02  0.7816164E-02  0.1226707E+00
        -11   -1    0    0    0    0  0.00000000000E+00  0.00000000000E+00  0.45593999997E+02  0.45594000000E+02  0.51100000000E-03 0.  1.
         11   -1    0    0    0    0 -0.00000000000E+00 -0.00000000000E+00 -0.45593999997E+02  0.45594000000E+02  0.51100000000E-03 0. -1.
    9900012    2    1    2    0    0 -0.77661540172E+01 -0.12116642034E+02 -0.11980773262E+02  0.72461946215E+02  0.70000489705E+02 0.  0.
         12    1    1    2    0    0  0.77661540172E+01  0.12116642034E+02  0.11980773262E+02  0.18726053785E+02  0.00000000000E+00 0. -1.
         11    1    3    3    0    0 -0.98358705484E+01 -0.84772157174E+01 -0.99487289511E+01  0.16358017721E+02  0.51100000000E-03 0. -1.
        -11    1    3    3    0    0  0.20443334763E+02 -0.16006912699E+02 -0.15444931453E+02  0.30210877151E+02  0.51100000000E-03 0.  1.
         12    1    3    3    0    0 -0.18373618232E+02  0.12367486382E+02  0.13412887142E+02  0.25893051343E+02  0.00000000000E+00 0. -1.
</event>
<event>
 7    1  0.1465498E-013  0.7246153E+02  0.7816164E-02  0.1226708E+00
        -11   -1    0    0    0    0  0.00000000000E+00  0.00000000000E+00  0.45593999997E+02  0.45594000000E+02  0.51100000000E-03 0.  1.
         11   -1    0    0    0    0 -0.00000000000E+00 -0.00000000000E+00 -0.45593999997E+02  0.45594000000E+02  0.51100000000E-03 0. -1.
    9900012    2    1    2    0    0 -0.12679660099E+02 -0.34083767960E+01  0.13352517117E+02  0.72461534076E+02  0.69999952819E+02 0.  0.
         12    1    1    2    0    0  0.12679660099E+02  0.34083767960E+01 -0.13352517117E+02  0.18726465924E+02  0.00000000000E+00 0. -1.
         11    1    3    3    0    0  0.14946226642E+02  0.40474873181E+01  0.13889643446E+02  0.20801298992E+02  0.51100000000E-03 0. -1.
        -11    1    3    3    0    0  0.48124293745E+01  0.73677501367E+01 -0.11378029869E+02  0.14384115632E+02  0.51100000000E-03 0.  1.
        -12    1    3    3    0    0 -0.32438316116E+02 -0.14823614251E+02  0.10840903540E+02  0.37276119453E+02  0.00000000000E+00 0.  1.
</event>
