<event>
 7    1  0.5290964E-013  0.5052886E+02  0.7816164E-02  0.1300439E+00
        -11   -1    0    0    0    0  0.00000000000E+00  0.00000000000E+00  0.45593999997E+02  0.45594000000E+02  0.51100000000E-03 0.  1.
         11   -1    0    0    0    0 -0.00000000000E+00 -0.00000000000E+00 -0.45593999997E+02  0.45594000000E+02  0.51100000000E-03 0. -1.
    9900012    2    1    2    0    0  0.13447081994E+02  0.19178898583E+02  0.33234189047E+02  0.50528862200E+02  0.30000007142E+02 0.  0.
         12    1    1    2    0    0 -0.13447081994E+02 -0.19178898583E+02 -0.33234189047E+02  0.40659137800E+02  0.00000000000E+00 0. -1.
         11    1    3    3    0    0  0.65384632031E+01  0.13406571564E+02  0.21721049941E+02  0.26349415040E+02  0.51100000000E-03 0.  1.
        -11    1    3    3    0    0  0.25056659538E+00 -0.45538217440E+01  0.10970720592E+02  0.11880942163E+02  0.51100000000E-03 0. -1.
         12    1    3    3    0    0  0.66580521954E+01  0.10326148763E+02  0.54241851389E+00  0.12298504997E+02  0.00000000000E+00 0. -1.
</event>
<event>
 7    1  0.5290964E-013  0.5052886E+02  0.7816164E-02  0.1300439E+00
        -11   -1    0    0    0    0  0.00000000000E+00  0.00000000000E+00  0.45593999997E+02  0.45594000000E+02  0.51100000000E-03 0. -1.
         11   -1    0    0    0    0 -0.00000000000E+00 -0.00000000000E+00 -0.45593999997E+02  0.45594000000E+02  0.51100000000E-03 0.  1.
    9900012    2    1    2    0    0 -0.32040143204E+02 -0.22296912189E+02 -0.11377275151E+02  0.50528862533E+02  0.30000008156E+02 0.  0.
         12    1    1    2    0    0  0.32040143204E+02  0.22296912189E+02  0.11377275151E+02  0.40659137467E+02  0.00000000000E+00 0. -1.
         11    1    3    3    0    0 -0.38860854010E+01 -0.10634425309E+02 -0.22194117734E+01  0.11537696922E+02  0.51100000000E-03 0.  1.
        -11    1    3    3    0    0 -0.33392353284E+01  0.50759615362E+01  0.28861425960E+01  0.67264922093E+01  0.51100000000E-03 0. -1.
         12    1    3    3    0    0 -0.24814822474E+02 -0.16738448417E+02 -0.12044005973E+02  0.32264673402E+02  0.00000000000E+00 0. -1.
</event>
<event>
 7    1  0.5290964E-013  0.5052886E+02  0.7816164E-02  0.1300439E+00
        -11   -1    0    0    0    0  0.00000000000E+00  0.00000000000E+00  0.45593999997E+02  0.45594000000E+02  0.51100000000E-03 0.  1.
         11   -1    0    0    0    0 -0.00000000000E+00 -0.00000000000E+00 -0.45593999997E+02  0.45594000000E+02  0.51100000000E-03 0. -1.
    9900012    2    1    2    0    0  0.31182441753E+02 -0.11134194058E+02  0.23597685509E+02  0.50528859424E+02  0.29999998706E+02 0.  0.
         12    1    1    2    0    0 -0.31182441753E+02  0.11134194058E+02 -0.23597685509E+02  0.40659140576E+02  0.00000000000E+00 0. -1.
         11    1    3    3    0    0  0.49203937053E+01 -0.44664327345E+01 -0.23192401427E+01  0.70383357896E+01  0.51100000000E-03 0. -1.
        -11    1    3    3    0    0  0.45155518275E+01 -0.34380949587E+01 -0.35736969814E+01  0.67068633226E+01  0.51100000000E-03 0.  1.
        -12    1    3    3    0    0  0.21746496220E+02 -0.32296663644E+01  0.29490622633E+02  0.36783660312E+02  0.00000000000E+00 0.  1.
</event>
<event>
 7    1  0.5290964E-013  0.5052888E+02  0.7816164E-02  0.1300439E+00
        -11   -1    0    0    0    0  0.00000000000E+00  0.00000000000E+00  0.45593999997E+02  0.45594000000E+02  0.51100000000E-03 0.  1.
         11   -1    0    0    0    0 -0.00000000000E+00 -0.00000000000E+00 -0.45593999997E+02  0.45594000000E+02  0.51100000000E-03 0. -1.
    9900012    2    1    2    0    0 -0.98758370875E+01  0.35382346305E+02  0.17427614883E+02  0.50528876193E+02  0.30000049677E+02 0.  0.
         12    1    1    2    0    0  0.98758370875E+01 -0.35382346305E+02 -0.17427614883E+02  0.40659123807E+02  0.00000000000E+00 0. -1.
         11    1    3    3    0    0 -0.28002333527E+01  0.10165903185E+02  0.37783395948E+01  0.11201015345E+02  0.51100000000E-03 0. -1.
        -11    1    3    3    0    0 -0.82310421424E+01  0.23307442620E+02 -0.77667467316E+00  0.24730348967E+02  0.51100000000E-03 0.  1.
         12    1    3    3    0    0  0.11554384076E+01  0.19090004995E+01  0.14425949962E+02  0.14597511881E+02  0.00000000000E+00 0. -1.
</event>
<event>
 7    1  0.5290964E-013  0.5052885E+02  0.7816164E-02  0.1300439E+00
        -11   -1    0    0    0    0  0.00000000000E+00  0.00000000000E+00  0.45593999997E+02  0.45594000000E+02  0.51100000000E-03 0.  1.
         11   -1    0    0    0    0 -0.00000000000E+00 -0.00000000000E+00 -0.45593999997E+02  0.45594000000E+02  0.51100000000E-03 0. -1.
    9900012    2    1    2    0    0  0.13535129818E+02  0.30519597292E+02  0.23206047810E+02  0.50528853267E+02  0.29999979990E+02 0.  0.
         12    1    1    2    0    0 -0.13535129818E+02 -0.30519597292E+02 -0.23206047810E+02  0.40659146733E+02  0.00000000000E+00 0. -1.
         11    1    3    3    0    0  0.36714288932E+01  0.21598148362E+01  0.70077298251E+01  0.82007601969E+01  0.51100000000E-03 0. -1.
        -11    1    3    3    0    0  0.57935882612E+00 -0.43529047260E+01  0.46994424459E+01  0.64318112353E+01  0.51100000000E-03 0.  1.
         12    1    3    3    0    0  0.92843420990E+01  0.32712687182E+02  0.11498875539E+02  0.35896281835E+02  0.00000000000E+00 0. -1.
</event>
<event>
 7    1  0.5290964E-013  0.5052896E+02  0.7816164E-02  0.1300438E+00
        -11   -1    0    0    0    0  0.00000000000E+00  0.00000000000E+00  0.45593999997E+02  0.45594000000E+02  0.51100000000E-03 0.  1.
         11   -1    0    0    0    0 -0.00000000000E+00 -0.00000000000E+00 -0.45593999997E+02  0.45594000000E+02  0.51100000000E-03 0. -1.
    9900012    2    1    2    0    0 -0.23961502898E+02  0.33377580160E+01  0.32678173965E+02  0.50528962832E+02  0.30000313024E+02 0.  0.
         12    1    1    2    0    0  0.23961502898E+02 -0.33377580160E+01 -0.32678173965E+02  0.40659037168E+02  0.00000000000E+00 0. -1.
         11    1    3    3    0    0 -0.14261716055E+02  0.12905330167E+02  0.16060066251E+02  0.25057330660E+02  0.51100000000E-03 0.  1.
        -11    1    3    3    0    0  0.33626188444E+01 -0.59095660523E+00  0.35969134277E+01  0.49592561609E+01  0.51100000000E-03 0. -1.
        -12    1    3    3    0    0 -0.13062405687E+02 -0.89766155459E+01  0.13021194287E+02  0.20512376012E+02  0.00000000000E+00 0.  1.
</event>
<event>
 7    1  0.5290964E-013  0.5052886E+02  0.7816164E-02  0.1300439E+00
        -11   -1    0    0    0    0  0.00000000000E+00  0.00000000000E+00  0.45593999997E+02  0.45594000000E+02  0.51100000000E-03 0. -1.
         11   -1    0    0    0    0 -0.00000000000E+00 -0.00000000000E+00 -0.45593999997E+02  0.45594000000E+02  0.51100000000E-03 0.  1.
    9900012    2    1    2    0    0 -0.57265004300E+01 -0.13216016489E+02 -0.38022488509E+02  0.50528861649E+02  0.30000005470E+02 0.  0.
         12    1    1    2    0    0  0.57265004300E+01  0.13216016489E+02  0.38022488509E+02  0.40659138351E+02  0.00000000000E+00 0. -1.
         11    1    3    3    0    0 -0.94423671858E+01  0.15434170864E+01 -0.12915343000E+02  0.16073161464E+02  0.51100000000E-03 0. -1.
        -11    1    3    3    0    0 -0.48082134751E+01  0.20692893072E+00 -0.11471225627E+01  0.49474869216E+01  0.51100000000E-03 0.  1.
        -12    1    3    3    0    0  0.85240802309E+01 -0.14966362507E+02 -0.23960022946E+02  0.29508213264E+02  0.00000000000E+00 0.  1.
</event>
<event>
 7    1  0.5290964E-013  0.5052886E+02  0.7816164E-02  0.1300439E+00
        -11   -1    0    0    0    0  0.00000000000E+00  0.00000000000E+00  0.45593999997E+02  0.45594000000E+02  0.51100000000E-03 0.  1.
         11   -1    0    0    0    0 -0.00000000000E+00 -0.00000000000E+00 -0.45593999997E+02  0.45594000000E+02  0.51100000000E-03 0. -1.
    9900012    2    1    2    0    0 -0.25863150743E+02 -0.14959034274E+01  0.31337281167E+02  0.50528862228E+02  0.30000007228E+02 0.  0.
         12    1    1    2    0    0  0.25863150743E+02  0.14959034274E+01 -0.31337281167E+02  0.40659137772E+02  0.00000000000E+00 0. -1.
         11    1    3    3    0    0 -0.55549953960E+01  0.82824211625E+00  0.55819398050E+01  0.79184601470E+01  0.51100000000E-03 0. -1.
        -11    1    3    3    0    0 -0.20225146755E+02  0.23465474813E+01  0.45057684312E+01  0.20853412089E+02  0.51100000000E-03 0.  1.
         12    1    3    3    0    0 -0.83008591931E-01 -0.46706930249E+01  0.21249572931E+02  0.21756989992E+02  0.00000000000E+00 0. -1.
</event>
<event>
 7    1  0.5290964E-013  0.5052886E+02  0.7816164E-02  0.1300439E+00
        -11   -1    0    0    0    0  0.00000000000E+00  0.00000000000E+00  0.45593999997E+02  0.45594000000E+02  0.51100000000E-03 0.  1.
         11   -1    0    0    0    0 -0.00000000000E+00 -0.00000000000E+00 -0.45593999997E+02  0.45594000000E+02  0.51100000000E-03 0. -1.
    9900012    2    1    2    0    0  0.35146479651E+02  0.16917288522E+02  0.11475883925E+02  0.50528860871E+02  0.30000003104E+02 0.  0.
         12    1    1    2    0    0 -0.35146479651E+02 -0.16917288522E+02 -0.11475883925E+02  0.40659139129E+02  0.00000000000E+00 0. -1.
         11    1    3    3    0    0  0.61461773495E+01  0.10242442356E+02 -0.70423251477E+01  0.13866415008E+02  0.51100000000E-03 0. -1.
        -11    1    3    3    0    0  0.71701045900E+01 -0.13373058556E+01  0.62396108135E+00  0.73203903226E+01  0.51100000000E-03 0.  1.
         12    1    3    3    0    0  0.21830197712E+02  0.80121520222E+01  0.17894247991E+02  0.29342055541E+02  0.00000000000E+00 0. -1.
</event>
<event>
 7    1  0.5290964E-013  0.5052886E+02  0.7816164E-02  0.1300439E+00
        -11   -1    0    0    0    0  0.00000000000E+00  0.00000000000E+00  0.45593999997E+02  0.45594000000E+02  0.51100000000E-03 0. -1.
         11   -1    0    0    0    0 -0.00000000000E+00 -0.00000000000E+00 -0.45593999997E+02  0.45594000000E+02  0.51100000000E-03 0.  1.
    9900012    2    1    2    0    0 -0.97038799115E+01  0.39179498220E+02 -0.48956378652E+01  0.50528860361E+02  0.30000001553E+02 0.  0.
         12    1    1    2    0    0  0.97038799115E+01 -0.39179498220E+02  0.48956378652E+01  0.40659139639E+02  0.00000000000E+00 0. -1.
         11    1    3    3    0    0 -0.83750088926E+01  0.20358585095E+02 -0.54008078710E+01  0.22666748486E+02  0.51100000000E-03 0. -1.
        -11    1    3    3    0    0 -0.65217699033E+01  0.20024828567E+02  0.40694406198E+01  0.21449652422E+02  0.51100000000E-03 0.  1.
         12    1    3    3    0    0  0.51928988844E+01 -0.12039154425E+01 -0.35642706140E+01  0.64124594521E+01  0.00000000000E+00 0. -1.
</event>
<event>
 7    1  0.5290964E-013  0.5052886E+02  0.7816164E-02  0.1300439E+00
        -11   -1    0    0    0    0  0.00000000000E+00  0.00000000000E+00  0.45593999997E+02  0.45594000000E+02  0.51100000000E-03 0.  1.
         11   -1    0    0    0    0 -0.00000000000E+00 -0.00000000000E+00 -0.45593999997E+02  0.45594000000E+02  0.51100000000E-03 0. -1.
    9900012    2    1    2    0    0  0.32520770111E+01 -0.67700458488E+01  0.39959431165E+02  0.50528860010E+02  0.30000000486E+02 0.  0.
         12    1    1    2    0    0 -0.32520770111E+01  0.67700458488E+01 -0.39959431165E+02  0.40659139990E+02  0.00000000000E+00 0. -1.
         11    1    3    3    0    0  0.56090191883E+01  0.33194351995E+01 -0.99346221348E+00  0.65929290706E+01  0.51100000000E-03 0. -1.
        -11    1    3    3    0    0  0.42146809965E+01 -0.16791706039E+01  0.69714786550E+01  0.83177319455E+01  0.51100000000E-03 0.  1.
        -12    1    3    3    0    0 -0.65716231738E+01 -0.84103104444E+01  0.33981414724E+02  0.35618198994E+02  0.00000000000E+00 0.  1.
</event>
<event>
 7    1  0.5290964E-013  0.5052886E+02  0.7816164E-02  0.1300439E+00
        -11   -1    0    0    0    0  0.00000000000E+00  0.00000000000E+00  0.45593999997E+02  0.45594000000E+02  0.51100000000E-03 0.  1.
         11   -1    0    0    0    0 -0.00000000000E+00 -0.00000000000E+00 -0.45593999997E+02  0.45594000000E+02  0.51100000000E-03 0. -1.
    9900012    2    1    2    0    0  0.85907385634E+01 -0.34242375853E+02  0.20169898279E+02  0.50528857243E+02  0.29999992077E+02 0.  0.
         12    1    1    2    0    0 -0.85907385634E+01  0.34242375853E+02 -0.20169898279E+02  0.40659142757E+02  0.00000000000E+00 0. -1.
         11    1    3    3    0    0 -0.29691641380E+01  0.12849528329E+01 -0.92169847272E+00  0.33640106714E+01  0.51100000000E-03 0. -1.
        -11    1    3    3    0    0 -0.23680611106E+01  0.13140781019E+01  0.62941869696E+00  0.27804105522E+01  0.51100000000E-03 0.  1.
        -12    1    3    3    0    0  0.13927963812E+02 -0.36841406788E+02  0.20462178054E+02  0.44384436020E+02  0.00000000000E+00 0.  1.
</event>
<event>
 7    1  0.5290964E-013  0.5052879E+02  0.7816164E-02  0.1300439E+00
        -11   -1    0    0    0    0  0.00000000000E+00  0.00000000000E+00  0.45593999997E+02  0.45594000000E+02  0.51100000000E-03 0.  1.
         11   -1    0    0    0    0 -0.00000000000E+00 -0.00000000000E+00 -0.45593999997E+02  0.45594000000E+02  0.51100000000E-03 0. -1.
    9900012    2    1    2    0    0 -0.24153589685E+02  0.22131141332E+02  0.24082938664E+02  0.50528791375E+02  0.29999791862E+02 0.  0.
         12    1    1    2    0    0  0.24153589685E+02 -0.22131141332E+02 -0.24082938664E+02  0.40659208625E+02  0.00000000000E+00 0. -1.
         11    1    3    3    0    0 -0.71669951418E+01  0.13669733206E+02  0.98680169424E+01  0.18319530123E+02  0.51100000000E-03 0. -1.
        -11    1    3    3    0    0 -0.12420973424E+02  0.10112513559E+02  0.19365621580E+02  0.25131072614E+02  0.51100000000E-03 0.  1.
         12    1    3    3    0    0 -0.45656211198E+01 -0.16511054319E+01 -0.51506998593E+01  0.70781886381E+01  0.00000000000E+00 0. -1.
</event>
<event>
 7    1  0.5290964E-013  0.5052886E+02  0.7816164E-02  0.1300439E+00
        -11   -1    0    0    0    0  0.00000000000E+00  0.00000000000E+00  0.45593999997E+02  0.45594000000E+02  0.51100000000E-03 0.  1.
         11   -1    0    0    0    0 -0.00000000000E+00 -0.00000000000E+00 -0.45593999997E+02  0.45594000000E+02  0.51100000000E-03 0. -1.
    9900012    2    1    2    0    0 -0.36991685357E+02 -0.16693002473E+02 -0.24747181171E+01  0.50528863919E+02  0.30000012369E+02 0.  0.
         12    1    1    2    0    0  0.36991685357E+02  0.16693002473E+02  0.24747181171E+01  0.40659136081E+02  0.00000000000E+00 0. -1.
         11    1    3    3    0    0 -0.17314323982E+02  0.20648062188E+01 -0.66002199343E+01  0.18644359552E+02  0.51100000000E-03 0. -1.
        -11    1    3    3    0    0  0.28061535033E+01 -0.25259611623E+01  0.13740137529E+01  0.40178217148E+01  0.51100000000E-03 0.  1.
         12    1    3    3    0    0 -0.22483514878E+02 -0.16231847529E+02  0.27514880643E+01  0.27866682652E+02  0.00000000000E+00 0. -1.
</event>
<event>
 7    1  0.5290964E-013  0.5052887E+02  0.7816164E-02  0.1300439E+00
        -11   -1    0    0    0    0  0.00000000000E+00  0.00000000000E+00  0.45593999997E+02  0.45594000000E+02  0.51100000000E-03 0.  1.
         11   -1    0    0    0    0 -0.00000000000E+00 -0.00000000000E+00 -0.45593999997E+02  0.45594000000E+02  0.51100000000E-03 0. -1.
    9900012    2    1    2    0    0 -0.20114696032E+02 -0.24153634306E+02  0.25790814478E+02  0.50528866241E+02  0.30000019426E+02 0.  0.
         12    1    1    2    0    0  0.20114696032E+02  0.24153634306E+02 -0.25790814478E+02  0.40659133759E+02  0.00000000000E+00 0. -1.
         11    1    3    3    0    0 -0.10042426945E+02 -0.35492096726E+01 -0.17454138689E+01  0.10793224638E+02  0.51100000000E-03 0. -1.
        -11    1    3    3    0    0 -0.55879457980E+01 -0.71133218547E+01  0.34523714355E+00  0.90522745758E+01  0.51100000000E-03 0.  1.
         12    1    3    3    0    0 -0.44843232888E+01 -0.13491102778E+02  0.27190991203E+02  0.30683367027E+02  0.00000000000E+00 0. -1.
</event>
<event>
 7    1  0.5290964E-013  0.5052886E+02  0.7816164E-02  0.1300439E+00
        -11   -1    0    0    0    0  0.00000000000E+00  0.00000000000E+00  0.45593999997E+02  0.45594000000E+02  0.51100000000E-03 0.  1.
         11   -1    0    0    0    0 -0.00000000000E+00 -0.00000000000E+00 -0.45593999997E+02  0.45594000000E+02  0.51100000000E-03 0. -1.
    9900012    2    1    2    0    0 -0.30586349715E+02  0.62084843922E+01  0.26059459234E+02  0.50528862246E+02  0.30000007283E+02 0.  0.
         12    1    1    2    0    0  0.30586349715E+02 -0.62084843922E+01 -0.26059459234E+02  0.40659137754E+02  0.00000000000E+00 0. -1.
         11    1    3    3    0    0 -0.95969375518E+01  0.42398309005E+01  0.89221441158E+01  0.13772510023E+02  0.51100000000E-03 0. -1.
        -11    1    3    3    0    0 -0.16847677080E+02  0.76055526090E+01  0.21622637039E+02  0.28446916991E+02  0.51100000000E-03 0.  1.
         12    1    3    3    0    0 -0.41417350828E+01 -0.56368991173E+01 -0.44853219205E+01  0.83094352327E+01  0.00000000000E+00 0. -1.
</event>
<event>
 7    1  0.5290964E-013  0.5052885E+02  0.7816164E-02  0.1300439E+00
        -11   -1    0    0    0    0  0.00000000000E+00  0.00000000000E+00  0.45593999997E+02  0.45594000000E+02  0.51100000000E-03 0.  1.
         11   -1    0    0    0    0 -0.00000000000E+00 -0.00000000000E+00 -0.45593999997E+02  0.45594000000E+02  0.51100000000E-03 0. -1.
    9900012    2    1    2    0    0  0.50707049126E+01 -0.17742039304E+02  0.36230850575E+02  0.50528849242E+02  0.29999967755E+02 0.  0.
         12    1    1    2    0    0 -0.50707049126E+01  0.17742039304E+02 -0.36230850575E+02  0.40659150758E+02  0.00000000000E+00 0. -1.
         11    1    3    3    0    0  0.42746598431E+01 -0.80113041823E+01  0.31145255486E+02  0.32441958187E+02  0.51100000000E-03 0. -1.
        -11    1    3    3    0    0  0.55703983163E+01 -0.35199371856E+01  0.74095173729E+01  0.99156564661E+01  0.51100000000E-03 0.  1.
         12    1    3    3    0    0 -0.47743532468E+01 -0.62107979356E+01 -0.23239222833E+01  0.81712345886E+01  0.00000000000E+00 0. -1.
</event>
<event>
 7    1  0.5290964E-013  0.5052882E+02  0.7816164E-02  0.1300439E+00
        -11   -1    0    0    0    0  0.00000000000E+00  0.00000000000E+00  0.45593999997E+02  0.45594000000E+02  0.51100000000E-03 0.  1.
         11   -1    0    0    0    0 -0.00000000000E+00 -0.00000000000E+00 -0.45593999997E+02  0.45594000000E+02  0.51100000000E-03 0. -1.
    9900012    2    1    2    0    0  0.35145074520E+02 -0.16611450210E+02  0.11918585683E+02  0.50528816218E+02  0.29999867377E+02 0.  0.
         12    1    1    2    0    0 -0.35145074520E+02  0.16611450210E+02 -0.11918585683E+02  0.40659183782E+02  0.00000000000E+00 0. -1.
         11    1    3    3    0    0 -0.53794403206E+00 -0.60640886078E+01 -0.31479514024E+01  0.68536233276E+01  0.51100000000E-03 0. -1.
        -11    1    3    3    0    0  0.27161793455E+01 -0.34665382863E+01 -0.30890547440E+01  0.53792915333E+01  0.51100000000E-03 0.  1.
        -12    1    3    3    0    0  0.32966839206E+02 -0.70808233162E+01  0.18155591830E+02  0.38295901357E+02  0.00000000000E+00 0.  1.
</event>
<event>
 7    1  0.5290964E-013  0.5052882E+02  0.7816164E-02  0.1300439E+00
        -11   -1    0    0    0    0  0.00000000000E+00  0.00000000000E+00  0.45593999997E+02  0.45594000000E+02  0.51100000000E-03 0.  1.
         11   -1    0    0    0    0 -0.00000000000E+00 -0.00000000000E+00 -0.45593999997E+02  0.45594000000E+02  0.51100000000E-03 0. -1.
    9900012    2    1    2    0    0 -0.74729639238E+01 -0.37205484001E+02  0.14597119582E+02  0.50528817401E+02  0.29999870970E+02 0.  0.
         12    1    1    2    0    0  0.74729639238E+01  0.37205484001E+02 -0.14597119582E+02  0.40659182599E+02  0.00000000000E+00 0. -1.
         11    1    3    3    0    0 -0.22784421070E+00 -0.44642504795E+01 -0.47702145169E+01  0.65373077124E+01  0.51100000000E-03 0. -1.
        -11    1    3    3    0    0 -0.18648392699E+01 -0.16329901062E+02 -0.19552263632E+01  0.16551924498E+02  0.51100000000E-03 0.  1.
        -12    1    3    3    0    0 -0.53802804432E+01 -0.16411332460E+02  0.21322560462E+02  0.27439585190E+02  0.00000000000E+00 0.  1.
</event>
<event>
 7    1  0.5290964E-013  0.5052885E+02  0.7816164E-02  0.1300439E+00
        -11   -1    0    0    0    0  0.00000000000E+00  0.00000000000E+00  0.45593999997E+02  0.45594000000E+02  0.51100000000E-03 0.  1.
         11   -1    0    0    0    0 -0.00000000000E+00 -0.00000000000E+00 -0.45593999997E+02  0.45594000000E+02  0.51100000000E-03 0. -1.
    9900012    2    1    2    0    0  0.10321345267E+02  0.13718325231E+02  0.36857072358E+02  0.50528850992E+02  0.29999973075E+02 0.  0.
         12    1    1    2    0    0 -0.10321345267E+02 -0.13718325231E+02 -0.36857072358E+02  0.40659149008E+02  0.00000000000E+00 0. -1.
         11    1    3    3    0    0 -0.19816601659E+01  0.10887049215E+01 -0.34976182592E+01  0.41648036169E+01  0.51100000000E-03 0. -1.
        -11    1    3    3    0    0  0.16265652801E+01  0.10333041875E+02  0.11675160819E+02  0.15675677000E+02  0.51100000000E-03 0.  1.
         12    1    3    3    0    0  0.10676440153E+02  0.22965784349E+01  0.28679529798E+02  0.30688370375E+02  0.00000000000E+00 0. -1.
</event>
<event>
 7    1  0.5290964E-013  0.5052886E+02  0.7816164E-02  0.1300439E+00
        -11   -1    0    0    0    0  0.00000000000E+00  0.00000000000E+00  0.45593999997E+02  0.45594000000E+02  0.51100000000E-03 0. -1.
         11   -1    0    0    0    0 -0.00000000000E+00 -0.00000000000E+00 -0.45593999997E+02  0.45594000000E+02  0.51100000000E-03 0.  1.
    9900012    2    1    2    0    0 -0.56533516296E+01 -0.30888110984E+02 -0.25828859329E+02  0.50528858850E+02  0.29999996960E+02 0.  0.
         12    1    1    2    0    0  0.56533516296E+01  0.30888110984E+02  0.25828859329E+02  0.40659141150E+02  0.00000000000E+00 0. -1.
         11    1    3    3    0    0  0.75186431832E+01 -0.34290483736E+01 -0.29831920094E+01  0.87856589332E+01  0.51100000000E-03 0. -1.
        -11    1    3    3    0    0 -0.39460699150E+01 -0.25054014756E+02 -0.15707291211E+02  0.29832769241E+02  0.51100000000E-03 0.  1.
        -12    1    3    3    0    0 -0.92259248978E+01 -0.24050478552E+01 -0.71383761091E+01  0.11910430676E+02  0.00000000000E+00 0.  1.
</event>
<event>
 7    1  0.5290964E-013  0.5052886E+02  0.7816164E-02  0.1300439E+00
        -11   -1    0    0    0    0  0.00000000000E+00  0.00000000000E+00  0.45593999997E+02  0.45594000000E+02  0.51100000000E-03 0.  1.
         11   -1    0    0    0    0 -0.00000000000E+00 -0.00000000000E+00 -0.45593999997E+02  0.45594000000E+02  0.51100000000E-03 0. -1.
    9900012    2    1    2    0    0 -0.28674913352E+02 -0.62126091509E+01  0.28148153037E+02  0.50528859729E+02  0.29999999632E+02 0.  0.
         12    1    1    2    0    0  0.28674913352E+02  0.62126091509E+01 -0.28148153037E+02  0.40659140271E+02  0.00000000000E+00 0. -1.
         11    1    3    3    0    0 -0.75108738613E+01  0.43257869326E+01  0.33422257924E-01  0.86675703663E+01  0.51100000000E-03 0. -1.
        -11    1    3    3    0    0 -0.17483440377E+02 -0.48533425374E+01  0.66030413356E+01  0.19308696909E+02  0.51100000000E-03 0.  1.
        -12    1    3    3    0    0 -0.36805991136E+01 -0.56850535461E+01  0.21511689443E+02  0.22552592453E+02  0.00000000000E+00 0.  1.
</event>
<event>
 7    1  0.5290964E-013  0.5052885E+02  0.7816164E-02  0.1300439E+00
        -11   -1    0    0    0    0  0.00000000000E+00  0.00000000000E+00  0.45593999997E+02  0.45594000000E+02  0.51100000000E-03 0.  1.
         11   -1    0    0    0    0 -0.00000000000E+00 -0.00000000000E+00 -0.45593999997E+02  0.45594000000E+02  0.51100000000E-03 0. -1.
    9900012    2    1    2    0    0 -0.39061677732E+02  0.33744820031E+01 -0.10768687729E+02  0.50528850582E+02  0.29999971828E+02 0.  0.
         12    1    1    2    0    0  0.39061677732E+02 -0.33744820031E+01  0.10768687729E+02  0.40659149418E+02  0.00000000000E+00 0. -1.
         11    1    3    3    0    0 -0.21594915549E+02  0.73377302615E+01 -0.16542140256E+02  0.28174901374E+02  0.51100000000E-03 0. -1.
        -11    1    3    3    0    0 -0.18481289630E+02 -0.22241647494E+01  0.28907721429E+01  0.18837768952E+02  0.51100000000E-03 0.  1.
        -12    1    3    3    0    0  0.10145274471E+01 -0.17390835089E+01  0.28826803845E+01  0.35161802557E+01  0.00000000000E+00 0.  1.
</event>
<event>
 7    1  0.5290964E-013  0.5052886E+02  0.7816164E-02  0.1300439E+00
        -11   -1    0    0    0    0  0.00000000000E+00  0.00000000000E+00  0.45593999997E+02  0.45594000000E+02  0.51100000000E-03 0.  1.
         11   -1    0    0    0    0 -0.00000000000E+00 -0.00000000000E+00 -0.45593999997E+02  0.45594000000E+02  0.51100000000E-03 0. -1.
    9900012    2    1    2    0    0 -0.53153687304E+01 -0.12136706759E+02  0.38439732135E+02  0.50528858318E+02  0.29999995343E+02 0.  0.
         12    1    1    2    0    0  0.53153687304E+01  0.12136706759E+02 -0.38439732135E+02  0.40659141682E+02  0.00000000000E+00 0. -1.
         11    1    3    3    0    0 -0.71825092683E+01 -0.85806984596E+01  0.29548527096E+02  0.31596396618E+02  0.51100000000E-03 0. -1.
        -11    1    3    3    0    0 -0.40013158216E+01 -0.33764180448E+01  0.11402272621E+02  0.12546814269E+02  0.51100000000E-03 0.  1.
         12    1    3    3    0    0  0.58684563595E+01 -0.17959025489E+00 -0.25110675822E+01  0.63856474304E+01  0.00000000000E+00 0. -1.
</event>
<event>
 7    1  0.5290964E-013  0.5052885E+02  0.7816164E-02  0.1300439E+00
        -11   -1    0    0    0    0  0.00000000000E+00  0.00000000000E+00  0.45593999997E+02  0.45594000000E+02  0.51100000000E-03 0.  1.
         11   -1    0    0    0    0 -0.00000000000E+00 -0.00000000000E+00 -0.45593999997E+02  0.45594000000E+02  0.51100000000E-03 0. -1.
    9900012    2    1    2    0    0 -0.19963872942E+02 -0.30153364588E+02  0.18584524265E+02  0.50528853907E+02  0.29999981936E+02 0.  0.
         12    1    1    2    0    0  0.19963872942E+02  0.30153364588E+02 -0.18584524265E+02  0.40659146093E+02  0.00000000000E+00 0. -1.
         11    1    3    3    0    0 -0.14736670046E+01 -0.71998490326E+01 -0.22857965956E+01  0.76963879106E+01  0.51100000000E-03 0. -1.
        -11    1    3    3    0    0 -0.80358696730E+01 -0.97504925030E+01 -0.35900459008E+01  0.13135285885E+02  0.51100000000E-03 0.  1.
        -12    1    3    3    0    0 -0.10454336264E+02 -0.13203023053E+02  0.24460366762E+02  0.29697180111E+02  0.00000000000E+00 0.  1.
</event>
<event>
 7    1  0.5290964E-013  0.5052886E+02  0.7816164E-02  0.1300439E+00
        -11   -1    0    0    0    0  0.00000000000E+00  0.00000000000E+00  0.45593999997E+02  0.45594000000E+02  0.51100000000E-03 0. -1.
         11   -1    0    0    0    0 -0.00000000000E+00 -0.00000000000E+00 -0.45593999997E+02  0.45594000000E+02  0.51100000000E-03 0.  1.
    9900012    2    1    2    0    0 -0.35516082287E+02 -0.19356977185E+02 -0.41329033312E+01  0.50528861339E+02  0.30000004525E+02 0.  0.
         12    1    1    2    0    0  0.35516082287E+02  0.19356977185E+02  0.41329033312E+01  0.40659138661E+02  0.00000000000E+00 0. -1.
         11    1    3    3    0    0 -0.13965058497E+02 -0.20405944039E+02 -0.91962711461E+01  0.26381751538E+02  0.51100000000E-03 0.  1.
        -11    1    3    3    0    0 -0.76249443176E+01 -0.29012883255E+01 -0.14287716856E+01  0.82824295098E+01  0.51100000000E-03 0. -1.
         12    1    3    3    0    0 -0.13926079472E+02  0.39502551796E+01  0.64921395006E+01  0.15864680291E+02  0.00000000000E+00 0. -1.
</event>
<event>
 7    1  0.5290964E-013  0.5052886E+02  0.7816164E-02  0.1300439E+00
        -11   -1    0    0    0    0  0.00000000000E+00  0.00000000000E+00  0.45593999997E+02  0.45594000000E+02  0.51100000000E-03 0. -1.
         11   -1    0    0    0    0 -0.00000000000E+00 -0.00000000000E+00 -0.45593999997E+02  0.45594000000E+02  0.51100000000E-03 0.  1.
    9900012    2    1    2    0    0 -0.20176391974E+02 -0.32852308965E+02 -0.12915297892E+02  0.50528856907E+02  0.29999991054E+02 0.  0.
         12    1    1    2    0    0  0.20176391974E+02  0.32852308965E+02  0.12915297892E+02  0.40659143093E+02  0.00000000000E+00 0. -1.
         11    1    3    3    0    0 -0.89351692325E+00  0.10035777360E+01 -0.26844280546E+01  0.30019485348E+01  0.51100000000E-03 0. -1.
        -11    1    3    3    0    0  0.25930694447E+01  0.43963141649E+00 -0.60955654403E+01  0.66387651883E+01  0.51100000000E-03 0.  1.
        -12    1    3    3    0    0 -0.21875944496E+02 -0.34295518118E+02 -0.41353043970E+01  0.40888143184E+02  0.00000000000E+00 0.  1.
</event>
<event>
 7    1  0.5290964E-013  0.5052886E+02  0.7816164E-02  0.1300439E+00
        -11   -1    0    0    0    0  0.00000000000E+00  0.00000000000E+00  0.45593999997E+02  0.45594000000E+02  0.51100000000E-03 0. -1.
         11   -1    0    0    0    0 -0.00000000000E+00 -0.00000000000E+00 -0.45593999997E+02  0.45594000000E+02  0.51100000000E-03 0.  1.
    9900012    2    1    2    0    0 -0.18790165726E+02 -0.35384214161E+02 -0.69320169318E+01  0.50528858364E+02  0.29999995484E+02 0.  0.
         12    1    1    2    0    0  0.18790165726E+02  0.35384214161E+02  0.69320169318E+01  0.40659141636E+02  0.00000000000E+00 0. -1.
         11    1    3    3    0    0  0.28066925702E+01 -0.17845218348E+01 -0.12215086367E+00  0.33282070934E+01  0.51100000000E-03 0. -1.
        -11    1    3    3    0    0 -0.66900800356E+01 -0.14859323583E+02  0.88935684757E+01  0.18564811572E+02  0.51100000000E-03 0.  1.
         12    1    3    3    0    0 -0.14906778261E+02 -0.18740368743E+02 -0.15703434544E+02  0.28635839698E+02  0.00000000000E+00 0. -1.
</event>
<event>
 7    1  0.5290964E-013  0.5052887E+02  0.7816164E-02  0.1300439E+00
        -11   -1    0    0    0    0  0.00000000000E+00  0.00000000000E+00  0.45593999997E+02  0.45594000000E+02  0.51100000000E-03 0.  1.
         11   -1    0    0    0    0 -0.00000000000E+00 -0.00000000000E+00 -0.45593999997E+02  0.45594000000E+02  0.51100000000E-03 0. -1.
    9900012    2    1    2    0    0 -0.36977202189E+02  0.11256324897E+02  0.12615331686E+02  0.50528869101E+02  0.30000028120E+02 0.  0.
         12    1    1    2    0    0  0.36977202189E+02 -0.11256324897E+02 -0.12615331686E+02  0.40659130899E+02  0.00000000000E+00 0. -1.
         11    1    3    3    0    0 -0.43944437103E+01 -0.41125926859E+01  0.19347804142E+01  0.63220194270E+01  0.51100000000E-03 0. -1.
        -11    1    3    3    0    0 -0.17261812939E+01 -0.46726256117E+01 -0.18856644902E+01  0.53262428406E+01  0.51100000000E-03 0.  1.
        -12    1    3    3    0    0 -0.30856577184E+02  0.20041543195E+02  0.12566215762E+02  0.38880606834E+02  0.00000000000E+00 0.  1.
</event>
<event>
 7    1  0.5290964E-013  0.5052886E+02  0.7816164E-02  0.1300439E+00
        -11   -1    0    0    0    0  0.00000000000E+00  0.00000000000E+00  0.45593999997E+02  0.45594000000E+02  0.51100000000E-03 0. -1.
         11   -1    0    0    0    0 -0.00000000000E+00 -0.00000000000E+00 -0.45593999997E+02  0.45594000000E+02  0.51100000000E-03 0.  1.
    9900012    2    1    2    0    0 -0.19962772838E+02 -0.33777270981E+02 -0.10665345670E+02  0.50528856716E+02  0.29999990475E+02 0.  0.
         12    1    1    2    0    0  0.19962772838E+02  0.33777270981E+02  0.10665345670E+02  0.40659143284E+02  0.00000000000E+00 0. -1.
         11    1    3    3    0    0  0.10867668529E+01 -0.49122603054E+01 -0.35665313526E+01  0.61669692436E+01  0.51100000000E-03 0. -1.
        -11    1    3    3    0    0 -0.11349475273E+02 -0.54778814787E+01 -0.13271195507E+02  0.18301431772E+02  0.51100000000E-03 0.  1.
        -12    1    3    3    0    0 -0.97000644179E+01 -0.23387129197E+02  0.61723811897E+01  0.26060455701E+02  0.00000000000E+00 0.  1.
</event>
<event>
 7    1  0.5290964E-013  0.5052887E+02  0.7816164E-02  0.1300439E+00
        -11   -1    0    0    0    0  0.00000000000E+00  0.00000000000E+00  0.45593999997E+02  0.45594000000E+02  0.51100000000E-03 0. -1.
         11   -1    0    0    0    0 -0.00000000000E+00 -0.00000000000E+00 -0.45593999997E+02  0.45594000000E+02  0.51100000000E-03 0.  1.
    9900012    2    1    2    0    0 -0.18193512122E+02 -0.42890291624E+01 -0.36107686834E+02  0.50528871836E+02  0.30000036434E+02 0.  0.
         12    1    1    2    0    0  0.18193512122E+02  0.42890291624E+01  0.36107686834E+02  0.40659128164E+02  0.00000000000E+00 0. -1.
         11    1    3    3    0    0 -0.42741404439E+00  0.50744833713E+01 -0.16507572460E+02  0.17275213834E+02  0.51100000000E-03 0. -1.
        -11    1    3    3    0    0 -0.59207556684E+01 -0.25025342102E+01 -0.18425441600E+02  0.19514479843E+02  0.51100000000E-03 0.  1.
         12    1    3    3    0    0 -0.11845342409E+02 -0.68609783235E+01 -0.11746727752E+01  0.13739178159E+02  0.00000000000E+00 0. -1.
</event>
<event>
 7    1  0.5290964E-013  0.5052887E+02  0.7816164E-02  0.1300439E+00
        -11   -1    0    0    0    0  0.00000000000E+00  0.00000000000E+00  0.45593999997E+02  0.45594000000E+02  0.51100000000E-03 0.  1.
         11   -1    0    0    0    0 -0.00000000000E+00 -0.00000000000E+00 -0.45593999997E+02  0.45594000000E+02  0.51100000000E-03 0. -1.
    9900012    2    1    2    0    0 -0.15522878827E+02  0.14635145974E+01  0.37550803682E+02  0.50528874342E+02  0.30000044051E+02 0.  0.
         12    1    1    2    0    0  0.15522878827E+02 -0.14635145974E+01 -0.37550803682E+02  0.40659125658E+02  0.00000000000E+00 0. -1.
         11    1    3    3    0    0  0.49204046562E+00  0.13962307963E+01  0.18271948813E+00  0.14916269403E+01  0.51100000000E-03 0. -1.
        -11    1    3    3    0    0 -0.22891351757E+02 -0.72746811288E+00  0.20245432145E+02  0.30568295963E+02  0.51100000000E-03 0.  1.
        -12    1    3    3    0    0  0.68764324640E+01  0.79475191390E+00  0.17122652049E+02  0.18468951439E+02  0.00000000000E+00 0.  1.
</event>
<event>
 7    1  0.5290964E-013  0.5052887E+02  0.7816164E-02  0.1300439E+00
        -11   -1    0    0    0    0  0.00000000000E+00  0.00000000000E+00  0.45593999997E+02  0.45594000000E+02  0.51100000000E-03 0.  1.
         11   -1    0    0    0    0 -0.00000000000E+00 -0.00000000000E+00 -0.45593999997E+02  0.45594000000E+02  0.51100000000E-03 0. -1.
    9900012    2    1    2    0    0  0.20832189475E+02  0.25450463592E+00  0.34915902716E+02  0.50528866298E+02  0.30000019599E+02 0.  0.
         12    1    1    2    0    0 -0.20832189475E+02 -0.25450463592E+00 -0.34915902716E+02  0.40659133702E+02  0.00000000000E+00 0. -1.
         11    1    3    3    0    0 -0.42165748800E+01  0.46363331088E+01  0.40120456827E+01  0.74412095278E+01  0.51100000000E-03 0. -1.
        -11    1    3    3    0    0  0.42697477096E+01  0.30473913318E+01  0.16534883659E+00  0.52483025762E+01  0.51100000000E-03 0.  1.
         12    1    3    3    0    0  0.20779016645E+02 -0.74292198047E+01  0.30738508197E+02  0.37839354194E+02  0.00000000000E+00 0. -1.
</event>
<event>
 7    1  0.5290964E-013  0.5052887E+02  0.7816164E-02  0.1300439E+00
        -11   -1    0    0    0    0  0.00000000000E+00  0.00000000000E+00  0.45593999997E+02  0.45594000000E+02  0.51100000000E-03 0.  1.
         11   -1    0    0    0    0 -0.00000000000E+00 -0.00000000000E+00 -0.45593999997E+02  0.45594000000E+02  0.51100000000E-03 0. -1.
    9900012    2    1    2    0    0 -0.28445591830E+02  0.28033735588E+02  0.76238106104E+01  0.50528874164E+02  0.30000043508E+02 0.  0.
         12    1    1    2    0    0  0.28445591830E+02 -0.28033735588E+02 -0.76238106104E+01  0.40659125836E+02  0.00000000000E+00 0. -1.
         11    1    3    3    0    0 -0.24154953593E+02  0.13307873377E+02  0.12402956837E+02  0.30238958571E+02  0.51100000000E-03 0.  1.
        -11    1    3    3    0    0 -0.77283439802E+01  0.14130744253E+02 -0.30354740803E+01  0.16389610641E+02  0.51100000000E-03 0. -1.
        -12    1    3    3    0    0  0.34377057432E+01  0.59511795824E+00 -0.17436721464E+01  0.39003049516E+01  0.00000000000E+00 0.  1.
</event>
<event>
 7    1  0.5290964E-013  0.5052885E+02  0.7816164E-02  0.1300439E+00
        -11   -1    0    0    0    0  0.00000000000E+00  0.00000000000E+00  0.45593999997E+02  0.45594000000E+02  0.51100000000E-03 0. -1.
         11   -1    0    0    0    0 -0.00000000000E+00 -0.00000000000E+00 -0.45593999997E+02  0.45594000000E+02  0.51100000000E-03 0.  1.
    9900012    2    1    2    0    0  0.18803235217E+02  0.89499270595E+01 -0.34921390553E+02  0.50528851372E+02  0.29999974230E+02 0.  0.
         12    1    1    2    0    0 -0.18803235217E+02 -0.89499270595E+01  0.34921390553E+02  0.40659148628E+02  0.00000000000E+00 0. -1.
         11    1    3    3    0    0  0.17421151942E+02  0.24928319069E+01 -0.38303747113E+01  0.18010622326E+02  0.51100000000E-03 0. -1.
        -11    1    3    3    0    0 -0.37651758233E+00  0.19617245949E+01 -0.14046264540E+01  0.24419468898E+01  0.51100000000E-03 0.  1.
        -12    1    3    3    0    0  0.17586008572E+01  0.44953705577E+01 -0.29686389388E+02  0.30076282156E+02  0.00000000000E+00 0.  1.
</event>
<event>
 7    1  0.5290964E-013  0.5052885E+02  0.7816164E-02  0.1300439E+00
        -11   -1    0    0    0    0  0.00000000000E+00  0.00000000000E+00  0.45593999997E+02  0.45594000000E+02  0.51100000000E-03 0.  1.
         11   -1    0    0    0    0 -0.00000000000E+00 -0.00000000000E+00 -0.45593999997E+02  0.45594000000E+02  0.51100000000E-03 0. -1.
    9900012    2    1    2    0    0  0.21143872298E+02  0.84806370635E+01  0.33677613003E+02  0.50528853940E+02  0.29999982035E+02 0.  0.
         12    1    1    2    0    0 -0.21143872298E+02 -0.84806370635E+01 -0.33677613003E+02  0.40659146060E+02  0.00000000000E+00 0. -1.
         11    1    3    3    0    0 -0.24673911409E+01  0.55691074683E+01 -0.40595392616E+00  0.61047338916E+01  0.51100000000E-03 0. -1.
        -11    1    3    3    0    0  0.95980215764E+00  0.14673388562E+01 -0.14397145706E+01  0.22687180976E+01  0.51100000000E-03 0.  1.
        -12    1    3    3    0    0  0.22651461281E+02  0.14441907390E+01  0.35523281500E+02  0.42155401950E+02  0.00000000000E+00 0.  1.
</event>
<event>
 7    1  0.5290964E-013  0.5052885E+02  0.7816164E-02  0.1300439E+00
        -11   -1    0    0    0    0  0.00000000000E+00  0.00000000000E+00  0.45593999997E+02  0.45594000000E+02  0.51100000000E-03 0.  1.
         11   -1    0    0    0    0 -0.00000000000E+00 -0.00000000000E+00 -0.45593999997E+02  0.45594000000E+02  0.51100000000E-03 0. -1.
    9900012    2    1    2    0    0  0.12429975308E+02  0.27348742713E+01  0.38615834376E+02  0.50528849886E+02  0.29999969713E+02 0.  0.
         12    1    1    2    0    0 -0.12429975308E+02 -0.27348742713E+01 -0.38615834376E+02  0.40659150114E+02  0.00000000000E+00 0. -1.
         11    1    3    3    0    0 -0.15901418758E+00  0.42066954652E+01 -0.14830122282E+01  0.44632832958E+01  0.51100000000E-03 0. -1.
        -11    1    3    3    0    0  0.11108643275E+02 -0.27981965877E+01  0.81595874112E+01  0.14064520132E+02  0.51100000000E-03 0.  1.
        -12    1    3    3    0    0  0.14803462208E+01  0.13263753938E+01  0.31939259193E+02  0.32001046458E+02  0.00000000000E+00 0.  1.
</event>
<event>
 7    1  0.5290964E-013  0.5052885E+02  0.7816164E-02  0.1300439E+00
        -11   -1    0    0    0    0  0.00000000000E+00  0.00000000000E+00  0.45593999997E+02  0.45594000000E+02  0.51100000000E-03 0. -1.
         11   -1    0    0    0    0 -0.00000000000E+00 -0.00000000000E+00 -0.45593999997E+02  0.45594000000E+02  0.51100000000E-03 0.  1.
    9900012    2    1    2    0    0  0.35046649083E+02  0.67786780384E+01 -0.19466589196E+02  0.50528853639E+02  0.29999981122E+02 0.  0.
         12    1    1    2    0    0 -0.35046649083E+02 -0.67786780384E+01  0.19466589196E+02  0.40659146361E+02  0.00000000000E+00 0. -1.
         11    1    3    3    0    0  0.10136351910E+02  0.18982406125E+00  0.34584336382E+01  0.10711789146E+02  0.51100000000E-03 0. -1.
        -11    1    3    3    0    0  0.16056100060E+02  0.14797533066E+00 -0.19741656813E+01  0.16177687604E+02  0.51100000000E-03 0.  1.
        -12    1    3    3    0    0  0.88541971128E+01  0.64408786465E+01 -0.20950857153E+02  0.23639376889E+02  0.00000000000E+00 0.  1.
</event>
<event>
 7    1  0.5290964E-013  0.5052886E+02  0.7816164E-02  0.1300439E+00
        -11   -1    0    0    0    0  0.00000000000E+00  0.00000000000E+00  0.45593999997E+02  0.45594000000E+02  0.51100000000E-03 0. -1.
         11   -1    0    0    0    0 -0.00000000000E+00 -0.00000000000E+00 -0.45593999997E+02  0.45594000000E+02  0.51100000000E-03 0.  1.
    9900012    2    1    2    0    0 -0.39378798260E+02 -0.19542566127E+01 -0.99326249388E+01  0.50528857000E+02  0.29999991337E+02 0.  0.
         12    1    1    2    0    0  0.39378798260E+02  0.19542566127E+01  0.99326249388E+01  0.40659143000E+02  0.00000000000E+00 0. -1.
         11    1    3    3    0    0  0.18481391478E+01 -0.17668178867E+01 -0.27448869050E+01  0.37512222191E+01  0.51100000000E-03 0.  1.
        -11    1    3    3    0    0 -0.53792225522E+01 -0.67898810317E+01  0.25844002391E+01  0.90397812223E+01  0.51100000000E-03 0. -1.
        -12    1    3    3    0    0 -0.35847714856E+02  0.66024423057E+01 -0.97721382728E+01  0.37737853559E+02  0.00000000000E+00 0.  1.
</event>
<event>
 7    1  0.5290964E-013  0.5052886E+02  0.7816164E-02  0.1300439E+00
        -11   -1    0    0    0    0  0.00000000000E+00  0.00000000000E+00  0.45593999997E+02  0.45594000000E+02  0.51100000000E-03 0. -1.
         11   -1    0    0    0    0 -0.00000000000E+00 -0.00000000000E+00 -0.45593999997E+02  0.45594000000E+02  0.51100000000E-03 0.  1.
    9900012    2    1    2    0    0 -0.39792061477E+02  0.34423865187E+01 -0.76096999362E+01  0.50528859396E+02  0.29999998621E+02 0.  0.
         12    1    1    2    0    0  0.39792061477E+02 -0.34423865187E+01  0.76096999362E+01  0.40659140604E+02  0.00000000000E+00 0. -1.
         11    1    3    3    0    0 -0.13336672430E+01 -0.12646949305E+01  0.73658941519E+01  0.75917401497E+01  0.51100000000E-03 0. -1.
        -11    1    3    3    0    0 -0.37973394590E+00 -0.15931251651E+01 -0.45599916906E+00  0.17000532829E+01  0.51100000000E-03 0.  1.
        -12    1    3    3    0    0 -0.38078660288E+02  0.63002066143E+01 -0.14519594919E+02  0.41237065964E+02  0.00000000000E+00 0.  1.
</event>
<event>
 7    1  0.5290964E-013  0.5052884E+02  0.7816164E-02  0.1300439E+00
        -11   -1    0    0    0    0  0.00000000000E+00  0.00000000000E+00  0.45593999997E+02  0.45594000000E+02  0.51100000000E-03 0.  1.
         11   -1    0    0    0    0 -0.00000000000E+00 -0.00000000000E+00 -0.45593999997E+02  0.45594000000E+02  0.51100000000E-03 0. -1.
    9900012    2    1    2    0    0  0.23247785923E+02  0.48834694395E+01  0.32997873341E+02  0.50528837821E+02  0.29999933040E+02 0.  0.
         12    1    1    2    0    0 -0.23247785923E+02 -0.48834694395E+01 -0.32997873341E+02  0.40659162179E+02  0.00000000000E+00 0. -1.
         11    1    3    3    0    0  0.35353393469E+01 -0.13179621276E+01  0.21470124498E+01  0.43411186563E+01  0.51100000000E-03 0. -1.
        -11    1    3    3    0    0  0.19096654900E+02  0.86253222495E+01  0.35319089906E+02  0.41067219584E+02  0.51100000000E-03 0.  1.
        -12    1    3    3    0    0  0.61579167628E+00 -0.24238906824E+01 -0.44682290148E+01  0.51204995808E+01  0.00000000000E+00 0.  1.
</event>
<event>
 7    1  0.5290964E-013  0.5052888E+02  0.7816164E-02  0.1300439E+00
        -11   -1    0    0    0    0  0.00000000000E+00  0.00000000000E+00  0.45593999997E+02  0.45594000000E+02  0.51100000000E-03 0.  1.
         11   -1    0    0    0    0 -0.00000000000E+00 -0.00000000000E+00 -0.45593999997E+02  0.45594000000E+02  0.51100000000E-03 0. -1.
    9900012    2    1    2    0    0  0.35199233986E+02  0.16729223812E+02 -0.11589275272E+02  0.50528876745E+02  0.30000051354E+02 0.  0.
         12    1    1    2    0    0 -0.35199233986E+02 -0.16729223812E+02  0.11589275272E+02  0.40659123255E+02  0.00000000000E+00 0. -1.
         11    1    3    3    0    0  0.39114465023E-01  0.45069731269E+00 -0.34861253043E+01  0.35153560143E+01  0.51100000000E-03 0. -1.
        -11    1    3    3    0    0  0.53093418456E+01 -0.64689444421E+01  0.90442129074E+00  0.84175014797E+01  0.51100000000E-03 0.  1.
        -12    1    3    3    0    0  0.29850777675E+02  0.22747470941E+02 -0.90075712588E+01  0.38596019251E+02  0.00000000000E+00 0.  1.
</event>
<event>
 7    1  0.5290964E-013  0.5052887E+02  0.7816164E-02  0.1300439E+00
        -11   -1    0    0    0    0  0.00000000000E+00  0.00000000000E+00  0.45593999997E+02  0.45594000000E+02  0.51100000000E-03 0.  1.
         11   -1    0    0    0    0 -0.00000000000E+00 -0.00000000000E+00 -0.45593999997E+02  0.45594000000E+02  0.51100000000E-03 0. -1.
    9900012    2    1    2    0    0  0.34867584042E+02 -0.20206761619E+02 -0.53947215873E+01  0.50528872451E+02  0.30000038302E+02 0.  0.
         12    1    1    2    0    0 -0.34867584042E+02  0.20206761619E+02  0.53947215873E+01  0.40659127549E+02  0.00000000000E+00 0. -1.
         11    1    3    3    0    0  0.45825603981E+01 -0.42589150352E+01  0.96825155281E+00  0.63305393458E+01  0.51100000000E-03 0. -1.
        -11    1    3    3    0    0  0.19072242533E+02 -0.20958610562E+02  0.33573282974E+01  0.28535687226E+02  0.51100000000E-03 0.  1.
        -12    1    3    3    0    0  0.11212781111E+02  0.50107639780E+01 -0.97203014375E+01  0.15662645879E+02  0.00000000000E+00 0.  1.
</event>
<event>
 7    1  0.5290964E-013  0.5052887E+02  0.7816164E-02  0.1300439E+00
        -11   -1    0    0    0    0  0.00000000000E+00  0.00000000000E+00  0.45593999997E+02  0.45594000000E+02  0.51100000000E-03 0. -1.
         11   -1    0    0    0    0 -0.00000000000E+00 -0.00000000000E+00 -0.45593999997E+02  0.45594000000E+02  0.51100000000E-03 0.  1.
    9900012    2    1    2    0    0  0.38831026182E+02  0.11210531113E+02  0.44317370462E+01  0.50528869471E+02  0.30000029243E+02 0.  0.
         12    1    1    2    0    0 -0.38831026182E+02 -0.11210531113E+02 -0.44317370462E+01  0.40659130529E+02  0.00000000000E+00 0. -1.
         11    1    3    3    0    0 -0.37195185208E+00 -0.38117200110E+01  0.14638858769E+00  0.38326214922E+01  0.51100000000E-03 0. -1.
        -11    1    3    3    0    0 -0.24827279351E+00 -0.87014883082E+00 -0.33625115636E+01  0.34821376544E+01  0.51100000000E-03 0.  1.
         12    1    3    3    0    0  0.39451250827E+02  0.15892399955E+02  0.76478600221E+01  0.43214110324E+02  0.00000000000E+00 0. -1.
</event>
<event>
 7    1  0.5290964E-013  0.5052887E+02  0.7816164E-02  0.1300439E+00
        -11   -1    0    0    0    0  0.00000000000E+00  0.00000000000E+00  0.45593999997E+02  0.45594000000E+02  0.51100000000E-03 0. -1.
         11   -1    0    0    0    0 -0.00000000000E+00 -0.00000000000E+00 -0.45593999997E+02  0.45594000000E+02  0.51100000000E-03 0.  1.
    9900012    2    1    2    0    0  0.33267138821E+02 -0.16651057814E+02 -0.16407467496E+02  0.50528865217E+02  0.30000016313E+02 0.  0.
         12    1    1    2    0    0 -0.33267138821E+02  0.16651057814E+02  0.16407467496E+02  0.40659134783E+02  0.00000000000E+00 0. -1.
         11    1    3    3    0    0  0.10602032236E+01  0.49318378415E+01 -0.20536621054E+01  0.54465203272E+01  0.51100000000E-03 0. -1.
        -11    1    3    3    0    0 -0.54547791072E+00 -0.67580561870E+01 -0.25279688346E+01  0.72359861987E+01  0.51100000000E-03 0.  1.
        -12    1    3    3    0    0  0.32752413509E+02 -0.14824839469E+02 -0.11825836556E+02  0.37846358691E+02  0.00000000000E+00 0.  1.
</event>
<event>
 7    1  0.5290964E-013  0.5052885E+02  0.7816164E-02  0.1300439E+00
        -11   -1    0    0    0    0  0.00000000000E+00  0.00000000000E+00  0.45593999997E+02  0.45594000000E+02  0.51100000000E-03 0.  1.
         11   -1    0    0    0    0 -0.00000000000E+00 -0.00000000000E+00 -0.45593999997E+02  0.45594000000E+02  0.51100000000E-03 0. -1.
    9900012    2    1    2    0    0  0.14288424039E+02 -0.90318237382E+01  0.36978825279E+02  0.50528850716E+02  0.29999972235E+02 0.  0.
         12    1    1    2    0    0 -0.14288424039E+02  0.90318237382E+01 -0.36978825279E+02  0.40659149284E+02  0.00000000000E+00 0. -1.
         11    1    3    3    0    0  0.10514366399E+02  0.48081107665E+01  0.55329682052E+01  0.12817315137E+02  0.51100000000E-03 0. -1.
        -11    1    3    3    0    0  0.87439625545E+01 -0.40683780980E+01  0.17399213517E+02  0.19893245406E+02  0.51100000000E-03 0.  1.
         12    1    3    3    0    0 -0.49699049143E+01 -0.97715564068E+01  0.14046643556E+02  0.17818290172E+02  0.00000000000E+00 0. -1.
</event>
<event>
 7    1  0.5290964E-013  0.5052884E+02  0.7816164E-02  0.1300439E+00
        -11   -1    0    0    0    0  0.00000000000E+00  0.00000000000E+00  0.45593999997E+02  0.45594000000E+02  0.51100000000E-03 0.  1.
         11   -1    0    0    0    0 -0.00000000000E+00 -0.00000000000E+00 -0.45593999997E+02  0.45594000000E+02  0.51100000000E-03 0. -1.
    9900012    2    1    2    0    0  0.11910156797E+02  0.38851268744E+02 -0.13763547085E+01  0.50528840267E+02  0.29999940475E+02 0.  0.
         12    1    1    2    0    0 -0.11910156797E+02 -0.38851268744E+02  0.13763547085E+01  0.40659159733E+02  0.00000000000E+00 0. -1.
         11    1    3    3    0    0  0.10316110449E+02  0.71469119997E+01 -0.22135291953E+01  0.12743633614E+02  0.51100000000E-03 0. -1.
        -11    1    3    3    0    0 -0.86838834207E+01  0.15515976163E+02 -0.35081526128E+01  0.18123533943E+02  0.51100000000E-03 0.  1.
         12    1    3    3    0    0  0.10277929768E+02  0.16188380581E+02  0.43453270997E+01  0.19661672710E+02  0.00000000000E+00 0. -1.
</event>
<event>
 7    1  0.5290964E-013  0.5052887E+02  0.7816164E-02  0.1300439E+00
        -11   -1    0    0    0    0  0.00000000000E+00  0.00000000000E+00  0.45593999997E+02  0.45594000000E+02  0.51100000000E-03 0.  1.
         11   -1    0    0    0    0 -0.00000000000E+00 -0.00000000000E+00 -0.45593999997E+02  0.45594000000E+02  0.51100000000E-03 0. -1.
    9900012    2    1    2    0    0  0.32672765382E+02  0.24097581003E+02  0.22274869615E+01  0.50528871799E+02  0.30000036321E+02 0.  0.
         12    1    1    2    0    0 -0.32672765382E+02 -0.24097581003E+02 -0.22274869615E+01  0.40659128201E+02  0.00000000000E+00 0. -1.
         11    1    3    3    0    0  0.46269356355E+01  0.15830368962E+01 -0.62430703920E+01  0.79303510244E+01  0.51100000000E-03 0. -1.
        -11    1    3    3    0    0  0.29603533980E+02  0.13987408494E+02  0.88673962848E+01  0.33921195993E+02  0.51100000000E-03 0.  1.
         12    1    3    3    0    0 -0.15577042333E+01  0.85271356121E+01 -0.39683893135E+00  0.86773247815E+01  0.00000000000E+00 0. -1.
</event>
<event>
 7    1  0.5290964E-013  0.5052887E+02  0.7816164E-02  0.1300439E+00
        -11   -1    0    0    0    0  0.00000000000E+00  0.00000000000E+00  0.45593999997E+02  0.45594000000E+02  0.51100000000E-03 0.  1.
         11   -1    0    0    0    0 -0.00000000000E+00 -0.00000000000E+00 -0.45593999997E+02  0.45594000000E+02  0.51100000000E-03 0. -1.
    9900012    2    1    2    0    0 -0.19961193136E+02 -0.13508581462E+02  0.32744981161E+02  0.50528870696E+02  0.30000032967E+02 0.  0.
         12    1    1    2    0    0  0.19961193136E+02  0.13508581462E+02 -0.32744981161E+02  0.40659129304E+02  0.00000000000E+00 0. -1.
         11    1    3    3    0    0 -0.13009273208E+01  0.11043880033E+01  0.54091243093E+01  0.56719230258E+01  0.51100000000E-03 0. -1.
        -11    1    3    3    0    0 -0.25082142877E+01 -0.75759486522E+01  0.25989539013E+02  0.27187171152E+02  0.51100000000E-03 0.  1.
         12    1    3    3    0    0 -0.16152051527E+02 -0.70370208130E+01  0.13463178393E+01  0.17669776518E+02  0.00000000000E+00 0. -1.
</event>
<event>
 7    1  0.5290964E-013  0.5052886E+02  0.7816164E-02  0.1300439E+00
        -11   -1    0    0    0    0  0.00000000000E+00  0.00000000000E+00  0.45593999997E+02  0.45594000000E+02  0.51100000000E-03 0.  1.
         11   -1    0    0    0    0 -0.00000000000E+00 -0.00000000000E+00 -0.45593999997E+02  0.45594000000E+02  0.51100000000E-03 0. -1.
    9900012    2    1    2    0    0  0.38125607998E+01  0.30470279266E+02  0.26649432214E+02  0.50528858645E+02  0.29999996337E+02 0.  0.
         12    1    1    2    0    0 -0.38125607998E+01 -0.30470279266E+02 -0.26649432214E+02  0.40659141355E+02  0.00000000000E+00 0. -1.
         11    1    3    3    0    0 -0.37153368313E+00  0.67198243153E+01 -0.19864606737E+01  0.70171292119E+01  0.51100000000E-03 0. -1.
        -11    1    3    3    0    0  0.61565874028E+01 -0.22488630532E+01  0.42538922599E+01  0.78138692785E+01  0.51100000000E-03 0.  1.
        -12    1    3    3    0    0 -0.19724929199E+01  0.25999318004E+02  0.24382000628E+02  0.35697860154E+02  0.00000000000E+00 0.  1.
</event>
<event>
 7    1  0.5290964E-013  0.5052884E+02  0.7816164E-02  0.1300439E+00
        -11   -1    0    0    0    0  0.00000000000E+00  0.00000000000E+00  0.45593999997E+02  0.45594000000E+02  0.51100000000E-03 0.  1.
         11   -1    0    0    0    0 -0.00000000000E+00 -0.00000000000E+00 -0.45593999997E+02  0.45594000000E+02  0.51100000000E-03 0. -1.
    9900012    2    1    2    0    0 -0.53976213730E+01 -0.35945363672E+02  0.18219870546E+02  0.50528841515E+02  0.29999944269E+02 0.  0.
         12    1    1    2    0    0  0.53976213730E+01  0.35945363672E+02 -0.18219870546E+02  0.40659158485E+02  0.00000000000E+00 0. -1.
         11    1    3    3    0    0 -0.82178069081E-01  0.50150363136E+00  0.24435226900E+01  0.24958089921E+01  0.51100000000E-03 0. -1.
        -11    1    3    3    0    0 -0.15840245211E+02 -0.22914978506E+02  0.12703409357E+02  0.30616763674E+02  0.51100000000E-03 0.  1.
         12    1    3    3    0    0  0.10524801907E+02 -0.13531888797E+02  0.30729384989E+01  0.17416268849E+02  0.00000000000E+00 0. -1.
</event>
<event>
 7    1  0.5290964E-013  0.5052886E+02  0.7816164E-02  0.1300439E+00
        -11   -1    0    0    0    0  0.00000000000E+00  0.00000000000E+00  0.45593999997E+02  0.45594000000E+02  0.51100000000E-03 0.  1.
         11   -1    0    0    0    0 -0.00000000000E+00 -0.00000000000E+00 -0.45593999997E+02  0.45594000000E+02  0.51100000000E-03 0. -1.
    9900012    2    1    2    0    0  0.24305505702E+02 -0.11259276567E+02  0.30588181264E+02  0.50528858970E+02  0.29999997326E+02 0.  0.
         12    1    1    2    0    0 -0.24305505702E+02  0.11259276567E+02 -0.30588181264E+02  0.40659141030E+02  0.00000000000E+00 0. -1.
         11    1    3    3    0    0  0.11222761261E+02  0.66711062898E+01  0.13146237431E+02  0.18527751841E+02  0.51100000000E-03 0. -1.
        -11    1    3    3    0    0  0.12289954448E+02 -0.55132311723E+01  0.13189397284E+02  0.18852026397E+02  0.51100000000E-03 0.  1.
         12    1    3    3    0    0  0.79278999265E+00 -0.12417151685E+02  0.42525465489E+01  0.13149080732E+02  0.00000000000E+00 0. -1.
</event>
<event>
 7    1  0.5290964E-013  0.5052887E+02  0.7816164E-02  0.1300439E+00
        -11   -1    0    0    0    0  0.00000000000E+00  0.00000000000E+00  0.45593999997E+02  0.45594000000E+02  0.51100000000E-03 0. -1.
         11   -1    0    0    0    0 -0.00000000000E+00 -0.00000000000E+00 -0.45593999997E+02  0.45594000000E+02  0.51100000000E-03 0.  1.
    9900012    2    1    2    0    0 -0.54603673689E+01 -0.23734384932E+02 -0.32558077059E+02  0.50528867917E+02  0.30000024522E+02 0.  0.
         12    1    1    2    0    0  0.54603673689E+01  0.23734384932E+02  0.32558077059E+02  0.40659132083E+02  0.00000000000E+00 0. -1.
         11    1    3    3    0    0  0.49268791774E+01 -0.13030410237E+02 -0.32271286155E+01  0.14299653448E+02  0.51100000000E-03 0. -1.
        -11    1    3    3    0    0  0.28970179308E+01 -0.64048107140E+01 -0.72055074586E+01  0.10066461701E+02  0.51100000000E-03 0.  1.
         12    1    3    3    0    0 -0.13284264477E+02 -0.42991639805E+01 -0.22125440985E+02  0.26162752768E+02  0.00000000000E+00 0. -1.
</event>
<event>
 7    1  0.5290964E-013  0.5052886E+02  0.7816164E-02  0.1300439E+00
        -11   -1    0    0    0    0  0.00000000000E+00  0.00000000000E+00  0.45593999997E+02  0.45594000000E+02  0.51100000000E-03 0.  1.
         11   -1    0    0    0    0 -0.00000000000E+00 -0.00000000000E+00 -0.45593999997E+02  0.45594000000E+02  0.51100000000E-03 0. -1.
    9900012    2    1    2    0    0 -0.40344800263E+02  0.22633161467E+01  0.45100468388E+01  0.50528855509E+02  0.29999986804E+02 0.  0.
         12    1    1    2    0    0  0.40344800263E+02 -0.22633161467E+01 -0.45100468388E+01  0.40659144491E+02  0.00000000000E+00 0. -1.
         11    1    3    3    0    0 -0.10555489290E+02  0.55388431556E+01 -0.91473704421E+01  0.15025695456E+02  0.51100000000E-03 0. -1.
        -11    1    3    3    0    0 -0.11146635303E+02 -0.15721291441E+00 -0.15347542076E+01  0.11252895859E+02  0.51100000000E-03 0.  1.
        -12    1    3    3    0    0 -0.18642675670E+02 -0.31183140944E+01  0.15192171488E+02  0.24250264194E+02  0.00000000000E+00 0.  1.
</event>
<event>
 7    1  0.5290964E-013  0.5052883E+02  0.7816164E-02  0.1300439E+00
        -11   -1    0    0    0    0  0.00000000000E+00  0.00000000000E+00  0.45593999997E+02  0.45594000000E+02  0.51100000000E-03 0.  1.
         11   -1    0    0    0    0 -0.00000000000E+00 -0.00000000000E+00 -0.45593999997E+02  0.45594000000E+02  0.51100000000E-03 0. -1.
    9900012    2    1    2    0    0 -0.22642702641E+02 -0.22945404941E+02  0.24778709349E+02  0.50528830951E+02  0.29999912157E+02 0.  0.
         12    1    1    2    0    0  0.22642702641E+02  0.22945404941E+02 -0.24778709349E+02  0.40659169049E+02  0.00000000000E+00 0. -1.
         11    1    3    3    0    0 -0.97485184772E+01 -0.13017386810E+02  0.12766662878E+02  0.20675435985E+02  0.51100000000E-03 0. -1.
        -11    1    3    3    0    0 -0.26726025761E+01 -0.73872189300E+01  0.16599904679E+02  0.18364929721E+02  0.51100000000E-03 0.  1.
         12    1    3    3    0    0 -0.10221581588E+02 -0.25407992007E+01 -0.45878582084E+01  0.11488465245E+02  0.00000000000E+00 0. -1.
</event>
<event>
 7    1  0.5290964E-013  0.5052886E+02  0.7816164E-02  0.1300439E+00
        -11   -1    0    0    0    0  0.00000000000E+00  0.00000000000E+00  0.45593999997E+02  0.45594000000E+02  0.51100000000E-03 0. -1.
         11   -1    0    0    0    0 -0.00000000000E+00 -0.00000000000E+00 -0.45593999997E+02  0.45594000000E+02  0.51100000000E-03 0.  1.
    9900012    2    1    2    0    0 -0.31421187892E+01 -0.51117921074E+01 -0.40213960671E+02  0.50528856356E+02  0.29999989380E+02 0.  0.
         12    1    1    2    0    0  0.31421187892E+01  0.51117921074E+01  0.40213960671E+02  0.40659143644E+02  0.00000000000E+00 0. -1.
         11    1    3    3    0    0  0.76795521373E+01 -0.73593806208E+01 -0.13244787984E+02  0.16987066055E+02  0.51100000000E-03 0. -1.
        -11    1    3    3    0    0  0.19265455910E+01 -0.85787867962E+00 -0.16825119816E+02  0.16956774187E+02  0.51100000000E-03 0.  1.
        -12    1    3    3    0    0 -0.12748216518E+02  0.31054671930E+01 -0.10144052871E+02  0.16585016114E+02  0.00000000000E+00 0.  1.
</event>
<event>
 7    1  0.5290964E-013  0.5052886E+02  0.7816164E-02  0.1300439E+00
        -11   -1    0    0    0    0  0.00000000000E+00  0.00000000000E+00  0.45593999997E+02  0.45594000000E+02  0.51100000000E-03 0. -1.
         11   -1    0    0    0    0 -0.00000000000E+00 -0.00000000000E+00 -0.45593999997E+02  0.45594000000E+02  0.51100000000E-03 0.  1.
    9900012    2    1    2    0    0  0.27983071887E+02 -0.28722043028E+02 -0.67199397548E+01  0.50528860089E+02  0.30000000728E+02 0.  0.
         12    1    1    2    0    0 -0.27983071887E+02  0.28722043028E+02  0.67199397548E+01  0.40659139911E+02  0.00000000000E+00 0. -1.
         11    1    3    3    0    0 -0.46868844686E+01 -0.82230082661E+00 -0.37874574900E+00  0.47735221038E+01  0.51100000000E-03 0. -1.
        -11    1    3    3    0    0  0.10394039033E+02 -0.15653603224E+02 -0.76819543820E+01  0.20299846421E+02  0.51100000000E-03 0.  1.
        -12    1    3    3    0    0  0.22275917323E+02 -0.12246138978E+02  0.13407603761E+01  0.25455491565E+02  0.00000000000E+00 0.  1.
</event>
<event>
 7    1  0.5290964E-013  0.5052886E+02  0.7816164E-02  0.1300439E+00
        -11   -1    0    0    0    0  0.00000000000E+00  0.00000000000E+00  0.45593999997E+02  0.45594000000E+02  0.51100000000E-03 0. -1.
         11   -1    0    0    0    0 -0.00000000000E+00 -0.00000000000E+00 -0.45593999997E+02  0.45594000000E+02  0.51100000000E-03 0.  1.
    9900012    2    1    2    0    0 -0.11700924556E+02 -0.38042158913E+02  0.83095123648E+01  0.50528862208E+02  0.30000007168E+02 0.  0.
         12    1    1    2    0    0  0.11700924556E+02  0.38042158913E+02 -0.83095123648E+01  0.40659137792E+02  0.00000000000E+00 0. -1.
         11    1    3    3    0    0 -0.16862719827E+00  0.12401720259E+01  0.48144489553E+01  0.49744729158E+01  0.51100000000E-03 0. -1.
        -11    1    3    3    0    0  0.30363536208E+01 -0.52256703009E+00  0.27663424129E+01  0.41406726770E+01  0.51100000000E-03 0.  1.
        -12    1    3    3    0    0 -0.14568650979E+02 -0.38759763909E+02  0.72872099673E+00  0.41413716615E+02  0.00000000000E+00 0.  1.
</event>
<event>
 7    1  0.5290964E-013  0.5052885E+02  0.7816164E-02  0.1300439E+00
        -11   -1    0    0    0    0  0.00000000000E+00  0.00000000000E+00  0.45593999997E+02  0.45594000000E+02  0.51100000000E-03 0. -1.
         11   -1    0    0    0    0 -0.00000000000E+00 -0.00000000000E+00 -0.45593999997E+02  0.45594000000E+02  0.51100000000E-03 0.  1.
    9900012    2    1    2    0    0 -0.35511789222E+01  0.37117173669E+02 -0.16213285920E+02  0.50528854740E+02  0.29999984469E+02 0.  0.
         12    1    1    2    0    0  0.35511789222E+01 -0.37117173669E+02  0.16213285920E+02  0.40659145260E+02  0.00000000000E+00 0. -1.
         11    1    3    3    0    0  0.62066589449E+01  0.24738657558E+02 -0.27949289617E+01  0.25658047883E+02  0.51100000000E-03 0. -1.
        -11    1    3    3    0    0 -0.46386935079E+01  0.25739394159E+00  0.15909460333E+01  0.49106861683E+01  0.51100000000E-03 0.  1.
        -12    1    3    3    0    0 -0.51191443592E+01  0.12121122170E+02 -0.15009302992E+02  0.19960120689E+02  0.00000000000E+00 0.  1.
</event>
<event>
 7    1  0.5290964E-013  0.5052886E+02  0.7816164E-02  0.1300439E+00
        -11   -1    0    0    0    0  0.00000000000E+00  0.00000000000E+00  0.45593999997E+02  0.45594000000E+02  0.51100000000E-03 0.  1.
         11   -1    0    0    0    0 -0.00000000000E+00 -0.00000000000E+00 -0.45593999997E+02  0.45594000000E+02  0.51100000000E-03 0. -1.
    9900012    2    1    2    0    0  0.22991438410E+02  0.23218169014E+02  0.24196610921E+02  0.50528860897E+02  0.30000003182E+02 0.  0.
         12    1    1    2    0    0 -0.22991438410E+02 -0.23218169014E+02 -0.24196610921E+02  0.40659139103E+02  0.00000000000E+00 0. -1.
         11    1    3    3    0    0 -0.44990513538E+00  0.37912180801E+01  0.16688877476E+02  0.17119999440E+02  0.51100000000E-03 0.  1.
        -11    1    3    3    0    0 -0.28315529607E+00  0.70071220821E+00 -0.16604715759E+01  0.18243740395E+01  0.51100000000E-03 0. -1.
        -12    1    3    3    0    0  0.23724498841E+02  0.18726238726E+02  0.91682050213E+01  0.31584487417E+02  0.00000000000E+00 0.  1.
</event>
<event>
 7    1  0.5290964E-013  0.5052886E+02  0.7816164E-02  0.1300439E+00
        -11   -1    0    0    0    0  0.00000000000E+00  0.00000000000E+00  0.45593999997E+02  0.45594000000E+02  0.51100000000E-03 0. -1.
         11   -1    0    0    0    0 -0.00000000000E+00 -0.00000000000E+00 -0.45593999997E+02  0.45594000000E+02  0.51100000000E-03 0.  1.
    9900012    2    1    2    0    0 -0.55534240607E+01  0.19531977651E+02 -0.35225374670E+02  0.50528859694E+02  0.29999999527E+02 0.  0.
         12    1    1    2    0    0  0.55534240607E+01 -0.19531977651E+02  0.35225374670E+02  0.40659140306E+02  0.00000000000E+00 0. -1.
         11    1    3    3    0    0 -0.37708029042E+01  0.11885348165E+02 -0.16701117135E+01  0.12580529756E+02  0.51100000000E-03 0. -1.
        -11    1    3    3    0    0 -0.37353742999E+01  0.86726443089E+01 -0.82265243339E+01  0.12523716834E+02  0.51100000000E-03 0.  1.
         12    1    3    3    0    0  0.19527531433E+01 -0.10260148233E+01 -0.25328738623E+02  0.25424613104E+02  0.00000000000E+00 0. -1.
</event>
<event>
 7    1  0.5290964E-013  0.5052887E+02  0.7816164E-02  0.1300439E+00
        -11   -1    0    0    0    0  0.00000000000E+00  0.00000000000E+00  0.45593999997E+02  0.45594000000E+02  0.51100000000E-03 0.  1.
         11   -1    0    0    0    0 -0.00000000000E+00 -0.00000000000E+00 -0.45593999997E+02  0.45594000000E+02  0.51100000000E-03 0. -1.
    9900012    2    1    2    0    0  0.73612007173E+01 -0.23688057333E+02  0.32215737958E+02  0.50528866851E+02  0.30000021281E+02 0.  0.
         12    1    1    2    0    0 -0.73612007173E+01  0.23688057333E+02 -0.32215737958E+02  0.40659133149E+02  0.00000000000E+00 0. -1.
         11    1    3    3    0    0  0.70241064356E+01 -0.18247441514E+02  0.11614148668E+02  0.22741935770E+02  0.51100000000E-03 0.  1.
        -11    1    3    3    0    0  0.62435063444E+01 -0.39626317164E+01  0.12495187102E+01  0.74996745836E+01  0.51100000000E-03 0. -1.
        -12    1    3    3    0    0 -0.59064120626E+01 -0.14779841029E+01  0.19352070580E+02  0.20287256498E+02  0.00000000000E+00 0.  1.
</event>
<event>
 7    1  0.5290964E-013  0.5052887E+02  0.7816164E-02  0.1300439E+00
        -11   -1    0    0    0    0  0.00000000000E+00  0.00000000000E+00  0.45593999997E+02  0.45594000000E+02  0.51100000000E-03 0.  1.
         11   -1    0    0    0    0 -0.00000000000E+00 -0.00000000000E+00 -0.45593999997E+02  0.45594000000E+02  0.51100000000E-03 0. -1.
    9900012    2    1    2    0    0 -0.79063223589E+01 -0.27999079235E+02  0.28402582857E+02  0.50528867150E+02  0.30000022188E+02 0.  0.
         12    1    1    2    0    0  0.79063223589E+01  0.27999079235E+02 -0.28402582857E+02  0.40659132850E+02  0.00000000000E+00 0. -1.
         11    1    3    3    0    0  0.10249153280E+01  0.11431167250E+01  0.41308412629E-01  0.15358625989E+01  0.51100000000E-03 0. -1.
        -11    1    3    3    0    0  0.24136904438E+01 -0.51587582562E+01  0.20566138298E+02  0.21340213988E+02  0.51100000000E-03 0.  1.
         12    1    3    3    0    0 -0.11344928131E+02 -0.23983437704E+02  0.77951361462E+01  0.27652790563E+02  0.00000000000E+00 0. -1.
</event>
<event>
 7    1  0.5290964E-013  0.5052887E+02  0.7816164E-02  0.1300439E+00
        -11   -1    0    0    0    0  0.00000000000E+00  0.00000000000E+00  0.45593999997E+02  0.45594000000E+02  0.51100000000E-03 0.  1.
         11   -1    0    0    0    0 -0.00000000000E+00 -0.00000000000E+00 -0.45593999997E+02  0.45594000000E+02  0.51100000000E-03 0. -1.
    9900012    2    1    2    0    0  0.80778653344E+01 -0.16291918541E+02  0.36366007619E+02  0.50528867837E+02  0.30000024278E+02 0.  0.
         12    1    1    2    0    0 -0.80778653344E+01  0.16291918541E+02 -0.36366007619E+02  0.40659132163E+02  0.00000000000E+00 0. -1.
         11    1    3    3    0    0  0.78043093155E+01 -0.72570485352E+01  0.21456490160E+02  0.23957315534E+02  0.51100000000E-03 0. -1.
        -11    1    3    3    0    0 -0.86004020638E+01  0.46926406691E+00  0.83966395978E+01  0.12028743959E+02  0.51100000000E-03 0.  1.
         12    1    3    3    0    0  0.88739580828E+01 -0.95041340726E+01  0.65128778607E+01  0.14542808345E+02  0.00000000000E+00 0. -1.
</event>
<event>
 7    1  0.5290964E-013  0.5052886E+02  0.7816164E-02  0.1300439E+00
        -11   -1    0    0    0    0  0.00000000000E+00  0.00000000000E+00  0.45593999997E+02  0.45594000000E+02  0.51100000000E-03 0.  1.
         11   -1    0    0    0    0 -0.00000000000E+00 -0.00000000000E+00 -0.45593999997E+02  0.45594000000E+02  0.51100000000E-03 0. -1.
    9900012    2    1    2    0    0  0.37422078235E+02  0.11689992284E+02 -0.10774880867E+02  0.50528856911E+02  0.29999991067E+02 0.  0.
         12    1    1    2    0    0 -0.37422078235E+02 -0.11689992284E+02  0.10774880867E+02  0.40659143089E+02  0.00000000000E+00 0. -1.
         11    1    3    3    0    0  0.13229450604E+02  0.13565808909E+02 -0.15019051394E+02  0.24178946207E+02  0.51100000000E-03 0. -1.
        -11    1    3    3    0    0  0.68418125343E+01  0.34259226644E+01 -0.26136481167E+00  0.76560862511E+01  0.51100000000E-03 0.  1.
        -12    1    3    3    0    0  0.17350815096E+02 -0.53017392899E+01  0.45055353380E+01  0.18693824453E+02  0.00000000000E+00 0.  1.
</event>
<event>
 7    1  0.5290964E-013  0.5052886E+02  0.7816164E-02  0.1300439E+00
        -11   -1    0    0    0    0  0.00000000000E+00  0.00000000000E+00  0.45593999997E+02  0.45594000000E+02  0.51100000000E-03 0.  1.
         11   -1    0    0    0    0 -0.00000000000E+00 -0.00000000000E+00 -0.45593999997E+02  0.45594000000E+02  0.51100000000E-03 0. -1.
    9900012    2    1    2    0    0  0.92842824392E+01  0.24804098768E+02  0.30850026555E+02  0.50528863824E+02  0.30000012081E+02 0.  0.
         12    1    1    2    0    0 -0.92842824392E+01 -0.24804098768E+02 -0.30850026555E+02  0.40659136176E+02  0.00000000000E+00 0. -1.
         11    1    3    3    0    0  0.10382102425E+02 -0.72023262287E+00  0.11108211581E+01  0.10466169772E+02  0.51100000000E-03 0. -1.
        -11    1    3    3    0    0  0.17582996377E+00  0.65074575576E+00  0.46920237600E+01  0.47401976161E+01  0.51100000000E-03 0.  1.
         12    1    3    3    0    0 -0.12736499492E+01  0.24873585635E+02  0.25047181637E+02  0.35322496436E+02  0.00000000000E+00 0. -1.
</event>
<event>
 7    1  0.5290964E-013  0.5052885E+02  0.7816164E-02  0.1300439E+00
        -11   -1    0    0    0    0  0.00000000000E+00  0.00000000000E+00  0.45593999997E+02  0.45594000000E+02  0.51100000000E-03 0. -1.
         11   -1    0    0    0    0 -0.00000000000E+00 -0.00000000000E+00 -0.45593999997E+02  0.45594000000E+02  0.51100000000E-03 0.  1.
    9900012    2    1    2    0    0  0.35518552658E+02  0.14346854400E+02 -0.13629635729E+02  0.50528846243E+02  0.29999958641E+02 0.  0.
         12    1    1    2    0    0 -0.35518552658E+02 -0.14346854400E+02  0.13629635729E+02  0.40659153757E+02  0.00000000000E+00 0. -1.
         11    1    3    3    0    0  0.26242921073E+01 -0.49643399498E+01 -0.58710790594E+01  0.81241091687E+01  0.51100000000E-03 0. -1.
        -11    1    3    3    0    0  0.34781005767E+01  0.11992560067E+01 -0.69344524309E+01  0.78499700234E+01  0.51100000000E-03 0.  1.
         12    1    3    3    0    0  0.29416159974E+02  0.18111938343E+02 -0.82410423865E+00  0.34554767051E+02  0.00000000000E+00 0. -1.
</event>
<event>
 7    1  0.5290964E-013  0.5052886E+02  0.7816164E-02  0.1300439E+00
        -11   -1    0    0    0    0  0.00000000000E+00  0.00000000000E+00  0.45593999997E+02  0.45594000000E+02  0.51100000000E-03 0. -1.
         11   -1    0    0    0    0 -0.00000000000E+00 -0.00000000000E+00 -0.45593999997E+02  0.45594000000E+02  0.51100000000E-03 0.  1.
    9900012    2    1    2    0    0 -0.12364687447E+02  0.29239121206E+02 -0.25403813446E+02  0.50528862748E+02  0.30000008808E+02 0.  0.
         12    1    1    2    0    0  0.12364687447E+02 -0.29239121206E+02  0.25403813446E+02  0.40659137252E+02  0.00000000000E+00 0. -1.
         11    1    3    3    0    0 -0.96612493045E+01  0.16955293409E+01  0.14135656860E+00  0.98099204793E+01  0.51100000000E-03 0. -1.
        -11    1    3    3    0    0 -0.47141229353E+01  0.74042160104E+00 -0.47733814918E+01  0.67495444530E+01  0.51100000000E-03 0.  1.
        -12    1    3    3    0    0  0.20106847930E+01  0.26803170264E+02 -0.20771788522E+02  0.33969397815E+02  0.00000000000E+00 0.  1.
</event>
<event>
 7    1  0.5290964E-013  0.5052886E+02  0.7816164E-02  0.1300439E+00
        -11   -1    0    0    0    0  0.00000000000E+00  0.00000000000E+00  0.45593999997E+02  0.45594000000E+02  0.51100000000E-03 0.  1.
         11   -1    0    0    0    0 -0.00000000000E+00 -0.00000000000E+00 -0.45593999997E+02  0.45594000000E+02  0.51100000000E-03 0. -1.
    9900012    2    1    2    0    0 -0.50126934050E+01  0.62031379191E+01  0.39869280322E+02  0.50528861684E+02  0.30000005576E+02 0.  0.
         12    1    1    2    0    0  0.50126934050E+01 -0.62031379191E+01 -0.39869280322E+02  0.40659138316E+02  0.00000000000E+00 0. -1.
         11    1    3    3    0    0  0.49807009141E+01  0.12926518215E+02  0.20685611897E+02  0.24895718399E+02  0.51100000000E-03 0.  1.
        -11    1    3    3    0    0 -0.45831326439E+01 -0.13236105020E+01 -0.22270651712E+00  0.47756306439E+01  0.51100000000E-03 0. -1.
        -12    1    3    3    0    0 -0.54102616753E+01 -0.53997697943E+01  0.19406374941E+02  0.20857512641E+02  0.00000000000E+00 0.  1.
</event>
<event>
 7    1  0.5290964E-013  0.5052886E+02  0.7816164E-02  0.1300439E+00
        -11   -1    0    0    0    0  0.00000000000E+00  0.00000000000E+00  0.45593999997E+02  0.45594000000E+02  0.51100000000E-03 0. -1.
         11   -1    0    0    0    0 -0.00000000000E+00 -0.00000000000E+00 -0.45593999997E+02  0.45594000000E+02  0.51100000000E-03 0.  1.
    9900012    2    1    2    0    0  0.19688940839E+02 -0.41070532235E+01 -0.35336149997E+02  0.50528858664E+02  0.29999996396E+02 0.  0.
         12    1    1    2    0    0 -0.19688940839E+02  0.41070532235E+01  0.35336149997E+02  0.40659141336E+02  0.00000000000E+00 0. -1.
         11    1    3    3    0    0 -0.71506971591E+00 -0.39338310687E+01 -0.14157071192E+01  0.42415302055E+01  0.51100000000E-03 0. -1.
        -11    1    3    3    0    0  0.25336861890E+02 -0.30828185234E+01 -0.29774691568E+02  0.39217248739E+02  0.51100000000E-03 0.  1.
         12    1    3    3    0    0 -0.49328513345E+01  0.29095963685E+01 -0.41457513099E+01  0.70700797194E+01  0.00000000000E+00 0. -1.
</event>
<event>
 7    1  0.5290964E-013  0.5052886E+02  0.7816164E-02  0.1300439E+00
        -11   -1    0    0    0    0  0.00000000000E+00  0.00000000000E+00  0.45593999997E+02  0.45594000000E+02  0.51100000000E-03 0.  1.
         11   -1    0    0    0    0 -0.00000000000E+00 -0.00000000000E+00 -0.45593999997E+02  0.45594000000E+02  0.51100000000E-03 0. -1.
    9900012    2    1    2    0    0  0.12130852183E+01 -0.60895808432E+01  0.40182225613E+02  0.50528858030E+02  0.29999994467E+02 0.  0.
         12    1    1    2    0    0 -0.12130852183E+01  0.60895808432E+01 -0.40182225613E+02  0.40659141970E+02  0.00000000000E+00 0. -1.
         11    1    3    3    0    0 -0.20370358599E+01 -0.25486543858E+01  0.85191702178E+01  0.91225772528E+01  0.51100000000E-03 0. -1.
        -11    1    3    3    0    0 -0.60293210539E+01 -0.10739278945E+02  0.25085161515E+02  0.27945485380E+02  0.51100000000E-03 0.  1.
         12    1    3    3    0    0  0.92794421321E+01  0.71983524876E+01  0.65778938798E+01  0.13460795397E+02  0.00000000000E+00 0. -1.
</event>
<event>
 7    1  0.5290964E-013  0.5052887E+02  0.7816164E-02  0.1300439E+00
        -11   -1    0    0    0    0  0.00000000000E+00  0.00000000000E+00  0.45593999997E+02  0.45594000000E+02  0.51100000000E-03 0. -1.
         11   -1    0    0    0    0 -0.00000000000E+00 -0.00000000000E+00 -0.45593999997E+02  0.45594000000E+02  0.51100000000E-03 0.  1.
    9900012    2    1    2    0    0  0.16286697388E+02  0.21813126333E+02 -0.30200925824E+02  0.50528869256E+02  0.30000028590E+02 0.  0.
         12    1    1    2    0    0 -0.16286697388E+02 -0.21813126333E+02  0.30200925824E+02  0.40659130744E+02  0.00000000000E+00 0. -1.
         11    1    3    3    0    0  0.10824563119E+02  0.26929618975E+01 -0.75624717085E+01  0.13476430874E+02  0.51100000000E-03 0. -1.
        -11    1    3    3    0    0  0.13464651329E+02  0.81135210513E+01 -0.11839492591E+02  0.19679929988E+02  0.51100000000E-03 0.  1.
         12    1    3    3    0    0 -0.80025170597E+01  0.11006643384E+02 -0.10798961525E+02  0.17372508394E+02  0.00000000000E+00 0. -1.
</event>
<event>
 7    1  0.5290964E-013  0.5052886E+02  0.7816164E-02  0.1300439E+00
        -11   -1    0    0    0    0  0.00000000000E+00  0.00000000000E+00  0.45593999997E+02  0.45594000000E+02  0.51100000000E-03 0. -1.
         11   -1    0    0    0    0 -0.00000000000E+00 -0.00000000000E+00 -0.45593999997E+02  0.45594000000E+02  0.51100000000E-03 0.  1.
    9900012    2    1    2    0    0 -0.20931890128E+02  0.24177220830E+02 -0.25109439918E+02  0.50528855833E+02  0.29999987790E+02 0.  0.
         12    1    1    2    0    0  0.20931890128E+02 -0.24177220830E+02  0.25109439918E+02  0.40659144167E+02  0.00000000000E+00 0. -1.
         11    1    3    3    0    0 -0.10576835593E+01 -0.34571621319E+01 -0.85769888283E+00  0.37156846142E+01  0.51100000000E-03 0. -1.
        -11    1    3    3    0    0 -0.69214494759E+01  0.15689964712E+02 -0.39245986118E+00  0.17153293576E+02  0.51100000000E-03 0.  1.
         12    1    3    3    0    0 -0.12952757093E+02  0.11944418250E+02 -0.23859281174E+02  0.29659877643E+02  0.00000000000E+00 0. -1.
</event>
<event>
 7    1  0.5290964E-013  0.5052887E+02  0.7816164E-02  0.1300439E+00
        -11   -1    0    0    0    0  0.00000000000E+00  0.00000000000E+00  0.45593999997E+02  0.45594000000E+02  0.51100000000E-03 0.  1.
         11   -1    0    0    0    0 -0.00000000000E+00 -0.00000000000E+00 -0.45593999997E+02  0.45594000000E+02  0.51100000000E-03 0. -1.
    9900012    2    1    2    0    0 -0.10900471264E+02 -0.23136677259E+02  0.31607569490E+02  0.50528873627E+02  0.30000041875E+02 0.  0.
         12    1    1    2    0    0  0.10900471264E+02  0.23136677259E+02 -0.31607569490E+02  0.40659126373E+02  0.00000000000E+00 0. -1.
         11    1    3    3    0    0 -0.35263075034E+01 -0.53516866717E+01  0.59681719795E+01  0.87575380032E+01  0.51100000000E-03 0. -1.
        -11    1    3    3    0    0 -0.11975983404E+02 -0.64372689481E+00  0.19186372857E+01  0.12145770132E+02  0.51100000000E-03 0.  1.
         12    1    3    3    0    0  0.46018196434E+01 -0.17141263693E+02  0.23720760225E+02  0.29625565491E+02  0.00000000000E+00 0. -1.
</event>
<event>
 7    1  0.5290964E-013  0.5052886E+02  0.7816164E-02  0.1300439E+00
        -11   -1    0    0    0    0  0.00000000000E+00  0.00000000000E+00  0.45593999997E+02  0.45594000000E+02  0.51100000000E-03 0. -1.
         11   -1    0    0    0    0 -0.00000000000E+00 -0.00000000000E+00 -0.45593999997E+02  0.45594000000E+02  0.51100000000E-03 0.  1.
    9900012    2    1    2    0    0 -0.35741071555E+02  0.12978969196E+02 -0.14397496626E+02  0.50528859006E+02  0.29999997435E+02 0.  0.
         12    1    1    2    0    0  0.35741071555E+02 -0.12978969196E+02  0.14397496626E+02  0.40659140994E+02  0.00000000000E+00 0. -1.
         11    1    3    3    0    0 -0.15284879791E+02  0.39090028046E+00 -0.50390079929E+01  0.16098818437E+02  0.51100000000E-03 0. -1.
        -11    1    3    3    0    0 -0.25155993018E+02  0.13152014225E+02 -0.76723138700E+01  0.29405167289E+02  0.51100000000E-03 0.  1.
         12    1    3    3    0    0  0.46998012546E+01 -0.56394531027E+00 -0.16861747635E+01  0.50248732799E+01  0.00000000000E+00 0. -1.
</event>
<event>
 7    1  0.5290964E-013  0.5052886E+02  0.7816164E-02  0.1300439E+00
        -11   -1    0    0    0    0  0.00000000000E+00  0.00000000000E+00  0.45593999997E+02  0.45594000000E+02  0.51100000000E-03 0.  1.
         11   -1    0    0    0    0 -0.00000000000E+00 -0.00000000000E+00 -0.45593999997E+02  0.45594000000E+02  0.51100000000E-03 0. -1.
    9900012    2    1    2    0    0 -0.40097428082E+02 -0.41398170273E+01 -0.53126105310E+01  0.50528860136E+02  0.30000000869E+02 0.  0.
         12    1    1    2    0    0  0.40097428082E+02  0.41398170273E+01  0.53126105310E+01  0.40659139864E+02  0.00000000000E+00 0. -1.
         11    1    3    3    0    0 -0.22637908136E+01 -0.97434916620E+00 -0.71756144689E+01  0.75870645452E+01  0.51100000000E-03 0. -1.
        -11    1    3    3    0    0 -0.13020054183E+02 -0.87829057021E+01 -0.51899785092E+01  0.16540771466E+02  0.51100000000E-03 0.  1.
        -12    1    3    3    0    0 -0.24813583086E+02  0.56174378410E+01  0.70529824470E+01  0.26401024125E+02  0.00000000000E+00 0.  1.
</event>
<event>
 7    1  0.5290964E-013  0.5052887E+02  0.7816164E-02  0.1300439E+00
        -11   -1    0    0    0    0  0.00000000000E+00  0.00000000000E+00  0.45593999997E+02  0.45594000000E+02  0.51100000000E-03 0.  1.
         11   -1    0    0    0    0 -0.00000000000E+00 -0.00000000000E+00 -0.45593999997E+02  0.45594000000E+02  0.51100000000E-03 0. -1.
    9900012    2    1    2    0    0 -0.23571531690E+02  0.17587569442E+02  0.28075354890E+02  0.50528865020E+02  0.30000015715E+02 0.  0.
         12    1    1    2    0    0  0.23571531690E+02 -0.17587569442E+02 -0.28075354890E+02  0.40659134980E+02  0.00000000000E+00 0. -1.
         11    1    3    3    0    0 -0.94946286865E+01  0.12595711195E+02  0.26757304912E+00  0.15775661951E+02  0.51100000000E-03 0. -1.
        -11    1    3    3    0    0 -0.66658346007E+01  0.64648819201E+01  0.46325888786E+01  0.10377327649E+02  0.51100000000E-03 0.  1.
        -12    1    3    3    0    0 -0.74110684030E+01 -0.14730236732E+01  0.23175192963E+02  0.24375875420E+02  0.00000000000E+00 0.  1.
</event>
<event>
 7    1  0.5290964E-013  0.5052885E+02  0.7816164E-02  0.1300439E+00
        -11   -1    0    0    0    0  0.00000000000E+00  0.00000000000E+00  0.45593999997E+02  0.45594000000E+02  0.51100000000E-03 0.  1.
         11   -1    0    0    0    0 -0.00000000000E+00 -0.00000000000E+00 -0.45593999997E+02  0.45594000000E+02  0.51100000000E-03 0. -1.
    9900012    2    1    2    0    0  0.23019293502E+02  0.17592646719E+02  0.28526783067E+02  0.50528850426E+02  0.29999971355E+02 0.  0.
         12    1    1    2    0    0 -0.23019293502E+02 -0.17592646719E+02 -0.28526783067E+02  0.40659149574E+02  0.00000000000E+00 0. -1.
         11    1    3    3    0    0  0.85404053508E+00  0.20712191198E+01  0.13104202354E+00  0.22442161551E+01  0.51100000000E-03 0. -1.
        -11    1    3    3    0    0  0.10935318014E+02  0.18361970707E+02  0.46607751767E+01  0.21873865087E+02  0.51100000000E-03 0.  1.
        -12    1    3    3    0    0  0.11229934952E+02 -0.28405431082E+01  0.23734965867E+02  0.26410769184E+02  0.00000000000E+00 0.  1.
</event>
<event>
 7    1  0.5290964E-013  0.5052886E+02  0.7816164E-02  0.1300439E+00
        -11   -1    0    0    0    0  0.00000000000E+00  0.00000000000E+00  0.45593999997E+02  0.45594000000E+02  0.51100000000E-03 0. -1.
         11   -1    0    0    0    0 -0.00000000000E+00 -0.00000000000E+00 -0.45593999997E+02  0.45594000000E+02  0.51100000000E-03 0.  1.
    9900012    2    1    2    0    0 -0.22953896281E+02 -0.18622123545E+02 -0.27919539710E+02  0.50528861576E+02  0.30000005245E+02 0.  0.
         12    1    1    2    0    0  0.22953896281E+02  0.18622123545E+02  0.27919539710E+02  0.40659138424E+02  0.00000000000E+00 0. -1.
         11    1    3    3    0    0 -0.12351851530E+02 -0.10044076493E+02 -0.10813032742E+02  0.19245087326E+02  0.51100000000E-03 0. -1.
        -11    1    3    3    0    0 -0.90005485178E+01 -0.16126579006E+02 -0.12406814675E+02  0.22248718496E+02  0.51100000000E-03 0.  1.
         12    1    3    3    0    0 -0.16014962324E+01  0.75485319537E+01 -0.46996922925E+01  0.90350557543E+01  0.00000000000E+00 0. -1.
</event>
<event>
 7    1  0.5290964E-013  0.5052886E+02  0.7816164E-02  0.1300439E+00
        -11   -1    0    0    0    0  0.00000000000E+00  0.00000000000E+00  0.45593999997E+02  0.45594000000E+02  0.51100000000E-03 0.  1.
         11   -1    0    0    0    0 -0.00000000000E+00 -0.00000000000E+00 -0.45593999997E+02  0.45594000000E+02  0.51100000000E-03 0. -1.
    9900012    2    1    2    0    0 -0.73528395219E+00 -0.37463969520E+02  0.15782153148E+02  0.50528855731E+02  0.29999987481E+02 0.  0.
         12    1    1    2    0    0  0.73528395219E+00  0.37463969520E+02 -0.15782153148E+02  0.40659144269E+02  0.00000000000E+00 0. -1.
         11    1    3    3    0    0  0.12569032875E+01 -0.34763748937E+02  0.48017174473E+01  0.35116300157E+02  0.51100000000E-03 0. -1.
        -11    1    3    3    0    0  0.32214704620E+01 -0.36090117988E+01  0.25762535182E+01  0.54808685948E+01  0.51100000000E-03 0.  1.
         12    1    3    3    0    0 -0.52136577017E+01  0.90879121577E+00  0.84041821822E+01  0.99316869793E+01  0.00000000000E+00 0. -1.
</event>
<event>
 7    1  0.5290964E-013  0.5052889E+02  0.7816164E-02  0.1300439E+00
        -11   -1    0    0    0    0  0.00000000000E+00  0.00000000000E+00  0.45593999997E+02  0.45594000000E+02  0.51100000000E-03 0. -1.
         11   -1    0    0    0    0 -0.00000000000E+00 -0.00000000000E+00 -0.45593999997E+02  0.45594000000E+02  0.51100000000E-03 0.  1.
    9900012    2    1    2    0    0 -0.36252696904E+02 -0.74309067903E+01 -0.16843007772E+02  0.50528888852E+02  0.30000088154E+02 0.  0.
         12    1    1    2    0    0  0.36252696904E+02  0.74309067903E+01  0.16843007772E+02  0.40659111148E+02  0.00000000000E+00 0. -1.
         11    1    3    3    0    0 -0.96046913742E+01  0.58536183283E+01  0.23995477032E+01  0.11500990104E+02  0.51100000000E-03 0. -1.
        -11    1    3    3    0    0 -0.19697598878E+02 -0.24592017693E+01 -0.16640898871E+02  0.25902945593E+02  0.51100000000E-03 0.  1.
         12    1    3    3    0    0 -0.69504066520E+01 -0.10825323349E+02 -0.26016566046E+01  0.13124953156E+02  0.00000000000E+00 0. -1.
</event>
<event>
 7    1  0.5290964E-013  0.5052886E+02  0.7816164E-02  0.1300439E+00
        -11   -1    0    0    0    0  0.00000000000E+00  0.00000000000E+00  0.45593999997E+02  0.45594000000E+02  0.51100000000E-03 0. -1.
         11   -1    0    0    0    0 -0.00000000000E+00 -0.00000000000E+00 -0.45593999997E+02  0.45594000000E+02  0.51100000000E-03 0.  1.
    9900012    2    1    2    0    0  0.39982606436E+02  0.55732331561E+01 -0.48472901283E+01  0.50528856296E+02  0.29999989196E+02 0.  0.
         12    1    1    2    0    0 -0.39982606436E+02 -0.55732331561E+01  0.48472901283E+01  0.40659143704E+02  0.00000000000E+00 0. -1.
         11    1    3    3    0    0  0.57626744548E+01  0.28621050421E+01 -0.49751748408E+01  0.81334142340E+01  0.51100000000E-03 0. -1.
        -11    1    3    3    0    0  0.24254187438E+02  0.72418944955E+01 -0.10251899429E+02  0.27309560346E+02  0.51100000000E-03 0.  1.
         12    1    3    3    0    0  0.99657445431E+01 -0.45307663814E+01  0.10379784142E+02  0.15085881715E+02  0.00000000000E+00 0. -1.
</event>
<event>
 7    1  0.5290964E-013  0.5052888E+02  0.7816164E-02  0.1300439E+00
        -11   -1    0    0    0    0  0.00000000000E+00  0.00000000000E+00  0.45593999997E+02  0.45594000000E+02  0.51100000000E-03 0.  1.
         11   -1    0    0    0    0 -0.00000000000E+00 -0.00000000000E+00 -0.45593999997E+02  0.45594000000E+02  0.51100000000E-03 0. -1.
    9900012    2    1    2    0    0  0.37248082563E+02  0.28467259365E+01  0.16051193139E+02  0.50528876739E+02  0.30000051336E+02 0.  0.
         12    1    1    2    0    0 -0.37248082563E+02 -0.28467259365E+01 -0.16051193139E+02  0.40659123261E+02  0.00000000000E+00 0. -1.
         11    1    3    3    0    0  0.60557887869E+01  0.70525797587E+01  0.32538296719E+01  0.98488002761E+01  0.51100000000E-03 0.  1.
        -11    1    3    3    0    0  0.13399286647E+01 -0.83649752844E+01  0.29958224869E+01  0.89857205036E+01  0.51100000000E-03 0. -1.
        -12    1    3    3    0    0  0.29852365111E+02  0.41591214622E+01  0.98015409803E+01  0.31694355959E+02  0.00000000000E+00 0.  1.
</event>
<event>
 7    1  0.5290964E-013  0.5052885E+02  0.7816164E-02  0.1300439E+00
        -11   -1    0    0    0    0  0.00000000000E+00  0.00000000000E+00  0.45593999997E+02  0.45594000000E+02  0.51100000000E-03 0. -1.
         11   -1    0    0    0    0 -0.00000000000E+00 -0.00000000000E+00 -0.45593999997E+02  0.45594000000E+02  0.51100000000E-03 0.  1.
    9900012    2    1    2    0    0 -0.20674399650E+02 -0.34403584145E+02 -0.64907074506E+01  0.50528847449E+02  0.29999962307E+02 0.  0.
         12    1    1    2    0    0  0.20674399650E+02  0.34403584145E+02  0.64907074506E+01  0.40659152551E+02  0.00000000000E+00 0. -1.
         11    1    3    3    0    0  0.49495395662E+00  0.34335988495E+01  0.32628126068E+00  0.34843995466E+01  0.51100000000E-03 0. -1.
        -11    1    3    3    0    0 -0.52030518662E+01 -0.61565721258E+00  0.19758972741E+01  0.55995493412E+01  0.51100000000E-03 0.  1.
        -12    1    3    3    0    0 -0.15966301741E+02 -0.37221525782E+02 -0.87928859853E+01  0.41444898562E+02  0.00000000000E+00 0.  1.
</event>
<event>
 7    1  0.5290964E-013  0.5052891E+02  0.7816164E-02  0.1300439E+00
        -11   -1    0    0    0    0  0.00000000000E+00  0.00000000000E+00  0.45593999997E+02  0.45594000000E+02  0.51100000000E-03 0. -1.
         11   -1    0    0    0    0 -0.00000000000E+00 -0.00000000000E+00 -0.45593999997E+02  0.45594000000E+02  0.51100000000E-03 0.  1.
    9900012    2    1    2    0    0  0.21340569435E+02 -0.14895573654E+02 -0.31238813444E+02  0.50528911426E+02  0.30000156769E+02 0.  0.
         12    1    1    2    0    0 -0.21340569435E+02  0.14895573654E+02  0.31238813444E+02  0.40659088574E+02  0.00000000000E+00 0. -1.
         11    1    3    3    0    0  0.11086981674E+02  0.72022486285E+00 -0.23072011940E+02  0.25607764872E+02  0.51100000000E-03 0.  1.
        -11    1    3    3    0    0  0.75115785351E+01 -0.24295338259E+01  0.18834552277E+01  0.81162707296E+01  0.51100000000E-03 0. -1.
        -12    1    3    3    0    0  0.27420092257E+01 -0.13186264691E+02 -0.10050256732E+02  0.16804875824E+02  0.00000000000E+00 0.  1.
</event>
<event>
 7    1  0.5290964E-013  0.5052885E+02  0.7816164E-02  0.1300439E+00
        -11   -1    0    0    0    0  0.00000000000E+00  0.00000000000E+00  0.45593999997E+02  0.45594000000E+02  0.51100000000E-03 0.  1.
         11   -1    0    0    0    0 -0.00000000000E+00 -0.00000000000E+00 -0.45593999997E+02  0.45594000000E+02  0.51100000000E-03 0. -1.
    9900012    2    1    2    0    0  0.22518330823E+01  0.38868936936E+02  0.11717554236E+02  0.50528854805E+02  0.29999984665E+02 0.  0.
         12    1    1    2    0    0 -0.22518330823E+01 -0.38868936936E+02 -0.11717554236E+02  0.40659145195E+02  0.00000000000E+00 0. -1.
         11    1    3    3    0    0  0.57208204722E+01 -0.15888206643E+01  0.68670568615E+00  0.59769308963E+01  0.51100000000E-03 0. -1.
        -11    1    3    3    0    0  0.43605837955E+01  0.42755670392E+01  0.91569685417E+00  0.61752461922E+01  0.51100000000E-03 0.  1.
        -12    1    3    3    0    0 -0.78295711854E+01  0.36182190561E+02  0.10115151696E+02  0.38376677716E+02  0.00000000000E+00 0.  1.
</event>
<event>
 7    1  0.5290964E-013  0.5052885E+02  0.7816164E-02  0.1300439E+00
        -11   -1    0    0    0    0  0.00000000000E+00  0.00000000000E+00  0.45593999997E+02  0.45594000000E+02  0.51100000000E-03 0. -1.
         11   -1    0    0    0    0 -0.00000000000E+00 -0.00000000000E+00 -0.45593999997E+02  0.45594000000E+02  0.51100000000E-03 0.  1.
    9900012    2    1    2    0    0 -0.26661901295E+02 -0.18607517316E+02 -0.24414535465E+02  0.50528853141E+02  0.29999979609E+02 0.  0.
         12    1    1    2    0    0  0.26661901295E+02  0.18607517316E+02  0.24414535465E+02  0.40659146859E+02  0.00000000000E+00 0. -1.
         11    1    3    3    0    0 -0.21173951666E+02 -0.13295939493E+02 -0.73150451392E+01  0.26050491776E+02  0.51100000000E-03 0. -1.
        -11    1    3    3    0    0 -0.10529059652E+02 -0.81754834266E+00 -0.85801984197E+01  0.13606957325E+02  0.51100000000E-03 0.  1.
         12    1    3    3    0    0  0.50411100232E+01 -0.44940294798E+01 -0.85192919057E+01  0.10871404040E+02  0.00000000000E+00 0. -1.
</event>
<event>
 7    1  0.5290964E-013  0.5052887E+02  0.7816164E-02  0.1300439E+00
        -11   -1    0    0    0    0  0.00000000000E+00  0.00000000000E+00  0.45593999997E+02  0.45594000000E+02  0.51100000000E-03 0. -1.
         11   -1    0    0    0    0 -0.00000000000E+00 -0.00000000000E+00 -0.45593999997E+02  0.45594000000E+02  0.51100000000E-03 0.  1.
    9900012    2    1    2    0    0 -0.14202728765E+02  0.36389336544E+02 -0.11281128999E+02  0.50528865848E+02  0.30000018232E+02 0.  0.
         12    1    1    2    0    0  0.14202728765E+02 -0.36389336544E+02  0.11281128999E+02  0.40659134152E+02  0.00000000000E+00 0. -1.
         11    1    3    3    0    0 -0.43135267189E+01 -0.18061085321E+00 -0.29935416981E+01  0.52536106816E+01  0.51100000000E-03 0. -1.
        -11    1    3    3    0    0 -0.49885435248E+01  0.93382388077E+01 -0.13462015883E+02  0.17126416508E+02  0.51100000000E-03 0.  1.
         12    1    3    3    0    0 -0.49006585212E+01  0.27231708590E+02  0.51744285822E+01  0.28148838658E+02  0.00000000000E+00 0. -1.
</event>
<event>
 7    1  0.5290964E-013  0.5052887E+02  0.7816164E-02  0.1300439E+00
        -11   -1    0    0    0    0  0.00000000000E+00  0.00000000000E+00  0.45593999997E+02  0.45594000000E+02  0.51100000000E-03 0.  1.
         11   -1    0    0    0    0 -0.00000000000E+00 -0.00000000000E+00 -0.45593999997E+02  0.45594000000E+02  0.51100000000E-03 0. -1.
    9900012    2    1    2    0    0  0.14672827993E+02  0.36069829028E+02  0.11697889519E+02  0.50528867365E+02  0.30000022842E+02 0.  0.
         12    1    1    2    0    0 -0.14672827993E+02 -0.36069829028E+02 -0.11697889519E+02  0.40659132635E+02  0.00000000000E+00 0. -1.
         11    1    3    3    0    0 -0.38725874050E+01  0.38378650705E+01 -0.59804129249E+01  0.80926806759E+01  0.51100000000E-03 0. -1.
        -11    1    3    3    0    0  0.37066983734E+01  0.44764344733E+01 -0.91155353294E+00  0.58829421661E+01  0.51100000000E-03 0.  1.
        -12    1    3    3    0    0  0.14838717025E+02  0.27755529484E+02  0.18589855977E+02  0.36553244523E+02  0.00000000000E+00 0.  1.
</event>
<event>
 7    1  0.5290964E-013  0.5052887E+02  0.7816164E-02  0.1300439E+00
        -11   -1    0    0    0    0  0.00000000000E+00  0.00000000000E+00  0.45593999997E+02  0.45594000000E+02  0.51100000000E-03 0.  1.
         11   -1    0    0    0    0 -0.00000000000E+00 -0.00000000000E+00 -0.45593999997E+02  0.45594000000E+02  0.51100000000E-03 0. -1.
    9900012    2    1    2    0    0  0.13241976554E+01 -0.35168784593E+02  0.20360950557E+02  0.50528865519E+02  0.30000017230E+02 0.  0.
         12    1    1    2    0    0 -0.13241976554E+01  0.35168784593E+02 -0.20360950557E+02  0.40659134481E+02  0.00000000000E+00 0. -1.
         11    1    3    3    0    0 -0.17173107689E+01 -0.52825596221E+01  0.82529561783E+01  0.99481595474E+01  0.51100000000E-03 0. -1.
        -11    1    3    3    0    0 -0.26737343787E+01 -0.26206823565E+02  0.17735049149E+02  0.31756549332E+02  0.51100000000E-03 0.  1.
         12    1    3    3    0    0  0.57152428030E+01 -0.36794014064E+01 -0.56270547706E+01  0.88241566394E+01  0.00000000000E+00 0. -1.
</event>
<event>
 7    1  0.5290964E-013  0.5052887E+02  0.7816164E-02  0.1300439E+00
        -11   -1    0    0    0    0  0.00000000000E+00  0.00000000000E+00  0.45593999997E+02  0.45594000000E+02  0.51100000000E-03 0.  1.
         11   -1    0    0    0    0 -0.00000000000E+00 -0.00000000000E+00 -0.45593999997E+02  0.45594000000E+02  0.51100000000E-03 0. -1.
    9900012    2    1    2    0    0 -0.23921240207E+02 -0.23759245550E+02  0.22725263695E+02  0.50528867051E+02  0.30000021888E+02 0.  0.
         12    1    1    2    0    0  0.23921240207E+02  0.23759245550E+02 -0.22725263695E+02  0.40659132949E+02  0.00000000000E+00 0. -1.
         11    1    3    3    0    0  0.41525818423E+00  0.33693737492E+01  0.81169159189E+00  0.34905532975E+01  0.51100000000E-03 0. -1.
        -11    1    3    3    0    0 -0.60294879963E+01  0.23663112904E+00 -0.19878854045E+01  0.63531416190E+01  0.51100000000E-03 0.  1.
         12    1    3    3    0    0 -0.18307010395E+02 -0.27365250429E+02  0.23901457508E+02  0.40685172134E+02  0.00000000000E+00 0. -1.
</event>
<event>
 7    1  0.5290964E-013  0.5052888E+02  0.7816164E-02  0.1300439E+00
        -11   -1    0    0    0    0  0.00000000000E+00  0.00000000000E+00  0.45593999997E+02  0.45594000000E+02  0.51100000000E-03 0.  1.
         11   -1    0    0    0    0 -0.00000000000E+00 -0.00000000000E+00 -0.45593999997E+02  0.45594000000E+02  0.51100000000E-03 0. -1.
    9900012    2    1    2    0    0 -0.15898056290E+02  0.26363455403E+02  0.26559070715E+02  0.50528877877E+02  0.30000054794E+02 0.  0.
         12    1    1    2    0    0  0.15898056290E+02 -0.26363455403E+02 -0.26559070715E+02  0.40659122123E+02  0.00000000000E+00 0. -1.
         11    1    3    3    0    0 -0.52069562370E+01  0.45756449807E+01 -0.24306497308E+01  0.73455414108E+01  0.51100000000E-03 0. -1.
        -11    1    3    3    0    0 -0.16277548319E+02  0.10424978273E+02  0.18151286915E+02  0.26516183138E+02  0.51100000000E-03 0.  1.
         12    1    3    3    0    0  0.55864482654E+01  0.11362832149E+02  0.10838433531E+02  0.16667153328E+02  0.00000000000E+00 0. -1.
</event>
<event>
 7    1  0.5290964E-013  0.5052887E+02  0.7816164E-02  0.1300439E+00
        -11   -1    0    0    0    0  0.00000000000E+00  0.00000000000E+00  0.45593999997E+02  0.45594000000E+02  0.51100000000E-03 0.  1.
         11   -1    0    0    0    0 -0.00000000000E+00 -0.00000000000E+00 -0.45593999997E+02  0.45594000000E+02  0.51100000000E-03 0. -1.
    9900012    2    1    2    0    0  0.39520379005E+02 -0.83193707991E+01 -0.47002723085E+01  0.50528870066E+02  0.30000031053E+02 0.  0.
         12    1    1    2    0    0 -0.39520379005E+02  0.83193707991E+01  0.47002723085E+01  0.40659129934E+02  0.00000000000E+00 0. -1.
         11    1    3    3    0    0  0.16581334245E+02 -0.18026647691E+01  0.64654427985E+01  0.17888325703E+02  0.51100000000E-03 0. -1.
        -11    1    3    3    0    0  0.14048736166E+02 -0.61319486886E+01  0.32784199085E+01  0.15675325194E+02  0.51100000000E-03 0.  1.
         12    1    3    3    0    0  0.88903085939E+01 -0.38475734150E+00 -0.14444135015E+02  0.16965219169E+02  0.00000000000E+00 0. -1.
</event>
<event>
 7    1  0.5290964E-013  0.5052887E+02  0.7816164E-02  0.1300439E+00
        -11   -1    0    0    0    0  0.00000000000E+00  0.00000000000E+00  0.45593999997E+02  0.45594000000E+02  0.51100000000E-03 0.  1.
         11   -1    0    0    0    0 -0.00000000000E+00 -0.00000000000E+00 -0.45593999997E+02  0.45594000000E+02  0.51100000000E-03 0. -1.
    9900012    2    1    2    0    0 -0.26137427776E+02 -0.15779389249E+02  0.26851647378E+02  0.50528865446E+02  0.30000017010E+02 0.  0.
         12    1    1    2    0    0  0.26137427776E+02  0.15779389249E+02 -0.26851647378E+02  0.40659134554E+02  0.00000000000E+00 0. -1.
         11    1    3    3    0    0 -0.12093361197E+02 -0.11742734707E+02  0.14586441874E+02  0.22291377038E+02  0.51100000000E-03 0. -1.
        -11    1    3    3    0    0 -0.17676472456E+02 -0.81918638401E+01  0.72734041688E+01  0.20795834201E+02  0.51100000000E-03 0.  1.
         12    1    3    3    0    0  0.36324058774E+01  0.41552092981E+01  0.49918013349E+01  0.74416542070E+01  0.00000000000E+00 0. -1.
</event>
<event>
 7    1  0.5290964E-013  0.5052885E+02  0.7816164E-02  0.1300439E+00
        -11   -1    0    0    0    0  0.00000000000E+00  0.00000000000E+00  0.45593999997E+02  0.45594000000E+02  0.51100000000E-03 0.  1.
         11   -1    0    0    0    0 -0.00000000000E+00 -0.00000000000E+00 -0.45593999997E+02  0.45594000000E+02  0.51100000000E-03 0. -1.
    9900012    2    1    2    0    0 -0.63612481242E+01  0.23353988210E+02  0.32669442870E+02  0.50528846782E+02  0.29999960278E+02 0.  0.
         12    1    1    2    0    0  0.63612481242E+01 -0.23353988210E+02 -0.32669442870E+02  0.40659153218E+02  0.00000000000E+00 0. -1.
         11    1    3    3    0    0 -0.91101826817E+00  0.21502711104E+02  0.67132962593E+01  0.22544730782E+02  0.51100000000E-03 0. -1.
        -11    1    3    3    0    0 -0.27125501733E+01  0.50905216533E+01  0.18806292571E+02  0.19670993358E+02  0.51100000000E-03 0.  1.
        -12    1    3    3    0    0 -0.27376796827E+01 -0.32392445473E+01  0.71498540392E+01  0.83131226422E+01  0.00000000000E+00 0.  1.
</event>
<event>
 7    1  0.5290964E-013  0.5052886E+02  0.7816164E-02  0.1300439E+00
        -11   -1    0    0    0    0  0.00000000000E+00  0.00000000000E+00  0.45593999997E+02  0.45594000000E+02  0.51100000000E-03 0. -1.
         11   -1    0    0    0    0 -0.00000000000E+00 -0.00000000000E+00 -0.45593999997E+02  0.45594000000E+02  0.51100000000E-03 0.  1.
    9900012    2    1    2    0    0 -0.27624806857E+01  0.20790921155E+02 -0.34832049100E+02  0.50528863923E+02  0.30000012381E+02 0.  0.
         12    1    1    2    0    0  0.27624806857E+01 -0.20790921155E+02  0.34832049100E+02  0.40659136077E+02  0.00000000000E+00 0. -1.
         11    1    3    3    0    0 -0.59060145601E+01  0.10651754449E+02 -0.95862352713E+00  0.12217194447E+02  0.51100000000E-03 0. -1.
        -11    1    3    3    0    0 -0.18497560320E+01  0.73287452696E+00  0.72017226851E+00  0.21159751435E+01  0.51100000000E-03 0.  1.
        -12    1    3    3    0    0  0.49932899064E+01  0.94062921789E+01 -0.34593597841E+02  0.36195694333E+02  0.00000000000E+00 0.  1.
</event>
<event>
 7    1  0.5290964E-013  0.5052887E+02  0.7816164E-02  0.1300439E+00
        -11   -1    0    0    0    0  0.00000000000E+00  0.00000000000E+00  0.45593999997E+02  0.45594000000E+02  0.51100000000E-03 0.  1.
         11   -1    0    0    0    0 -0.00000000000E+00 -0.00000000000E+00 -0.45593999997E+02  0.45594000000E+02  0.51100000000E-03 0. -1.
    9900012    2    1    2    0    0 -0.12239902855E+02  0.72298098713E+01  0.38093041201E+02  0.50528866209E+02  0.30000019330E+02 0.  0.
         12    1    1    2    0    0  0.12239902855E+02 -0.72298098713E+01 -0.38093041201E+02  0.40659133791E+02  0.00000000000E+00 0. -1.
         11    1    3    3    0    0 -0.75940016584E+01  0.67581808613E+01  0.15610263694E+02  0.18628531949E+02  0.51100000000E-03 0. -1.
        -11    1    3    3    0    0 -0.60013943559E+01  0.86256920337E+01  0.21027958326E+02  0.23507325005E+02  0.51100000000E-03 0.  1.
         12    1    3    3    0    0  0.13554931595E+01 -0.81540630237E+01  0.14548191810E+01  0.83930092547E+01  0.00000000000E+00 0. -1.
</event>
<event>
 7    1  0.5290964E-013  0.5052885E+02  0.7816164E-02  0.1300439E+00
        -11   -1    0    0    0    0  0.00000000000E+00  0.00000000000E+00  0.45593999997E+02  0.45594000000E+02  0.51100000000E-03 0.  1.
         11   -1    0    0    0    0 -0.00000000000E+00 -0.00000000000E+00 -0.45593999997E+02  0.45594000000E+02  0.51100000000E-03 0. -1.
    9900012    2    1    2    0    0  0.11070445991E+02 -0.37226649045E+02  0.12032796986E+02  0.50528851253E+02  0.29999973868E+02 0.  0.
         12    1    1    2    0    0 -0.11070445991E+02  0.37226649045E+02 -0.12032796986E+02  0.40659148747E+02  0.00000000000E+00 0. -1.
         11    1    3    3    0    0  0.10823246224E+01 -0.12395001802E+01  0.36095169213E+01  0.39669131515E+01  0.51100000000E-03 0. -1.
        -11    1    3    3    0    0  0.10577167407E+02 -0.14815194976E+02  0.15830319097E+02  0.24123960610E+02  0.51100000000E-03 0.  1.
         12    1    3    3    0    0 -0.58904603830E+00 -0.21171953888E+02 -0.74070390320E+01  0.22437977492E+02  0.00000000000E+00 0. -1.
</event>
<event>
 7    1  0.5290964E-013  0.5052886E+02  0.7816164E-02  0.1300439E+00
        -11   -1    0    0    0    0  0.00000000000E+00  0.00000000000E+00  0.45593999997E+02  0.45594000000E+02  0.51100000000E-03 0.  1.
         11   -1    0    0    0    0 -0.00000000000E+00 -0.00000000000E+00 -0.45593999997E+02  0.45594000000E+02  0.51100000000E-03 0. -1.
    9900012    2    1    2    0    0 -0.25165845287E+02  0.87190005726E+01  0.30721739700E+02  0.50528855516E+02  0.29999986826E+02 0.  0.
         12    1    1    2    0    0  0.25165845287E+02 -0.87190005726E+01 -0.30721739700E+02  0.40659144484E+02  0.00000000000E+00 0. -1.
         11    1    3    3    0    0 -0.72774383948E+01 -0.18791523880E+00  0.21444644823E+02  0.22646615941E+02  0.51100000000E-03 0. -1.
        -11    1    3    3    0    0 -0.45689678775E+01  0.10960526502E+02  0.80575349068E+01  0.14350347651E+02  0.51100000000E-03 0.  1.
         12    1    3    3    0    0 -0.13319439015E+02 -0.20536106904E+01  0.12195599703E+01  0.13531891924E+02  0.00000000000E+00 0. -1.
</event>
<event>
 7    1  0.5290964E-013  0.5052886E+02  0.7816164E-02  0.1300439E+00
        -11   -1    0    0    0    0  0.00000000000E+00  0.00000000000E+00  0.45593999997E+02  0.45594000000E+02  0.51100000000E-03 0.  1.
         11   -1    0    0    0    0 -0.00000000000E+00 -0.00000000000E+00 -0.45593999997E+02  0.45594000000E+02  0.51100000000E-03 0. -1.
    9900012    2    1    2    0    0 -0.22842287649E+02  0.15577587933E+01  0.33600134426E+02  0.50528858950E+02  0.29999997263E+02 0.  0.
         12    1    1    2    0    0  0.22842287649E+02 -0.15577587933E+01 -0.33600134426E+02  0.40659141050E+02  0.00000000000E+00 0. -1.
         11    1    3    3    0    0 -0.32722860536E+01  0.69294869723E+01  0.62047087211E+01  0.98602259756E+01  0.51100000000E-03 0. -1.
        -11    1    3    3    0    0 -0.32552832411E+01  0.76390592606E+01  0.36890634165E+01  0.90863240377E+01  0.51100000000E-03 0.  1.
        -12    1    3    3    0    0 -0.16314718354E+02 -0.13010787440E+02  0.23706362289E+02  0.31582308936E+02  0.00000000000E+00 0.  1.
</event>
<event>
 7    1  0.5290964E-013  0.5052885E+02  0.7816164E-02  0.1300439E+00
        -11   -1    0    0    0    0  0.00000000000E+00  0.00000000000E+00  0.45593999997E+02  0.45594000000E+02  0.51100000000E-03 0.  1.
         11   -1    0    0    0    0 -0.00000000000E+00 -0.00000000000E+00 -0.45593999997E+02  0.45594000000E+02  0.51100000000E-03 0. -1.
    9900012    2    1    2    0    0  0.12365725719E+02  0.38201899561E+02  0.63929512907E+01  0.50528854303E+02  0.29999983140E+02 0.  0.
         12    1    1    2    0    0 -0.12365725719E+02 -0.38201899561E+02 -0.63929512907E+01  0.40659145697E+02  0.00000000000E+00 0. -1.
         11    1    3    3    0    0 -0.16921504604E+01  0.59968867187E+01  0.90160838961E+01  0.10959735060E+02  0.51100000000E-03 0. -1.
        -11    1    3    3    0    0 -0.31612517039E+01  0.10386941308E+02  0.28852527377E+01  0.11234177570E+02  0.51100000000E-03 0.  1.
        -12    1    3    3    0    0  0.17219127883E+02  0.21818071534E+02 -0.55083853431E+01  0.28334941673E+02  0.00000000000E+00 0.  1.
</event>
<event>
 7    1  0.5290964E-013  0.5052886E+02  0.7816164E-02  0.1300439E+00
        -11   -1    0    0    0    0  0.00000000000E+00  0.00000000000E+00  0.45593999997E+02  0.45594000000E+02  0.51100000000E-03 0.  1.
         11   -1    0    0    0    0 -0.00000000000E+00 -0.00000000000E+00 -0.45593999997E+02  0.45594000000E+02  0.51100000000E-03 0. -1.
    9900012    2    1    2    0    0  0.19297443016E+02 -0.21496511120E+02  0.28612486945E+02  0.50528859496E+02  0.29999998925E+02 0.  0.
         12    1    1    2    0    0 -0.19297443016E+02  0.21496511120E+02 -0.28612486945E+02  0.40659140504E+02  0.00000000000E+00 0. -1.
         11    1    3    3    0    0  0.96094281333E+01 -0.21559153460E+01  0.10617162682E+02  0.14481478643E+02  0.51100000000E-03 0. -1.
        -11    1    3    3    0    0  0.50842883592E+01 -0.83403191958E+01  0.21502860484E+02  0.23617449516E+02  0.51100000000E-03 0.  1.
         12    1    3    3    0    0  0.46037265237E+01 -0.11000276578E+02 -0.35075362202E+01  0.12429931337E+02  0.00000000000E+00 0. -1.
</event>
<event>
 7    1  0.5290964E-013  0.5052886E+02  0.7816164E-02  0.1300439E+00
        -11   -1    0    0    0    0  0.00000000000E+00  0.00000000000E+00  0.45593999997E+02  0.45594000000E+02  0.51100000000E-03 0. -1.
         11   -1    0    0    0    0 -0.00000000000E+00 -0.00000000000E+00 -0.45593999997E+02  0.45594000000E+02  0.51100000000E-03 0.  1.
    9900012    2    1    2    0    0  0.12170521758E+02  0.12295768334E+02 -0.36794810299E+02  0.50528861006E+02  0.30000003514E+02 0.  0.
         12    1    1    2    0    0 -0.12170521758E+02 -0.12295768334E+02  0.36794810299E+02  0.40659138994E+02  0.00000000000E+00 0. -1.
         11    1    3    3    0    0  0.11556850532E+02  0.13354351126E+02 -0.26088191303E+02  0.31503860302E+02  0.51100000000E-03 0. -1.
        -11    1    3    3    0    0  0.44593187081E+01  0.60970513046E+01 -0.59101674850E+01  0.95911228703E+01  0.51100000000E-03 0.  1.
        -12    1    3    3    0    0 -0.38456474818E+01 -0.71556340967E+01 -0.47964515115E+01  0.94338778338E+01  0.00000000000E+00 0.  1.
</event>
<event>
 7    1  0.5290964E-013  0.5052883E+02  0.7816164E-02  0.1300439E+00
        -11   -1    0    0    0    0  0.00000000000E+00  0.00000000000E+00  0.45593999997E+02  0.45594000000E+02  0.51100000000E-03 0.  1.
         11   -1    0    0    0    0 -0.00000000000E+00 -0.00000000000E+00 -0.45593999997E+02  0.45594000000E+02  0.51100000000E-03 0. -1.
    9900012    2    1    2    0    0 -0.22687357141E+01  0.23287426646E+02  0.33252313524E+02  0.50528834290E+02  0.29999922308E+02 0.  0.
         12    1    1    2    0    0  0.22687357141E+01 -0.23287426646E+02 -0.33252313524E+02  0.40659165710E+02  0.00000000000E+00 0. -1.
         11    1    3    3    0    0 -0.45077912808E+01  0.88734366782E+01  0.23314188883E+01  0.10222209889E+02  0.51100000000E-03 0. -1.
        -11    1    3    3    0    0 -0.81813307792E+01  0.12091326861E+02  0.13555941519E+02  0.19922296788E+02  0.51100000000E-03 0.  1.
        -12    1    3    3    0    0  0.10420386346E+02  0.23226631072E+01  0.17364953117E+02  0.20384327614E+02  0.00000000000E+00 0.  1.
</event>
<event>
 7    1  0.5290964E-013  0.5052886E+02  0.7816164E-02  0.1300439E+00
        -11   -1    0    0    0    0  0.00000000000E+00  0.00000000000E+00  0.45593999997E+02  0.45594000000E+02  0.51100000000E-03 0.  1.
         11   -1    0    0    0    0 -0.00000000000E+00 -0.00000000000E+00 -0.45593999997E+02  0.45594000000E+02  0.51100000000E-03 0. -1.
    9900012    2    1    2    0    0  0.31761333299E+02 -0.23038817655E+02  0.10658155253E+02  0.50528859758E+02  0.29999999720E+02 0.  0.
         12    1    1    2    0    0 -0.31761333299E+02  0.23038817655E+02 -0.10658155253E+02  0.40659140242E+02  0.00000000000E+00 0. -1.
         11    1    3    3    0    0 -0.19935758353E+01 -0.59923521014E+01  0.27022962947E+01  0.68691363244E+01  0.51100000000E-03 0. -1.
        -11    1    3    3    0    0  0.52115224373E+01 -0.91785567416E+01  0.92343231931E+01  0.14024214597E+02  0.51100000000E-03 0.  1.
         12    1    3    3    0    0  0.28543386697E+02 -0.78679088118E+01 -0.12784642345E+01  0.29635508836E+02  0.00000000000E+00 0. -1.
</event>
<event>
 7    1  0.5290964E-013  0.5052886E+02  0.7816164E-02  0.1300439E+00
        -11   -1    0    0    0    0  0.00000000000E+00  0.00000000000E+00  0.45593999997E+02  0.45594000000E+02  0.51100000000E-03 0. -1.
         11   -1    0    0    0    0 -0.00000000000E+00 -0.00000000000E+00 -0.45593999997E+02  0.45594000000E+02  0.51100000000E-03 0.  1.
    9900012    2    1    2    0    0 -0.23306697764E+02  0.31391375767E+02  0.11159979763E+02  0.50528858574E+02  0.29999996121E+02 0.  0.
         12    1    1    2    0    0  0.23306697764E+02 -0.31391375767E+02 -0.11159979763E+02  0.40659141426E+02  0.00000000000E+00 0. -1.
         11    1    3    3    0    0 -0.12995912917E+02  0.19698627781E+02  0.11549206101E+02  0.26273824442E+02  0.51100000000E-03 0. -1.
        -11    1    3    3    0    0 -0.92917346619E+01  0.14114235557E+02  0.55291545582E+01  0.17779750526E+02  0.51100000000E-03 0.  1.
         12    1    3    3    0    0 -0.10190501844E+01 -0.24214875710E+01 -0.59183808962E+01  0.64752836052E+01  0.00000000000E+00 0. -1.
</event>
<event>
 7    1  0.5290964E-013  0.5052887E+02  0.7816164E-02  0.1300439E+00
        -11   -1    0    0    0    0  0.00000000000E+00  0.00000000000E+00  0.45593999997E+02  0.45594000000E+02  0.51100000000E-03 0.  1.
         11   -1    0    0    0    0 -0.00000000000E+00 -0.00000000000E+00 -0.45593999997E+02  0.45594000000E+02  0.51100000000E-03 0. -1.
    9900012    2    1    2    0    0 -0.13340186963E+02 -0.30356782183E+01  0.38288239669E+02  0.50528865388E+02  0.30000016833E+02 0.  0.
         12    1    1    2    0    0  0.13340186963E+02  0.30356782183E+01 -0.38288239669E+02  0.40659134612E+02  0.00000000000E+00 0. -1.
         11    1    3    3    0    0 -0.43496218124E+01  0.47076908647E+01  0.18272403748E+01  0.66648609015E+01  0.51100000000E-03 0. -1.
        -11    1    3    3    0    0  0.13465368274E+01  0.36192456663E+01 -0.44656006148E+00  0.38873534404E+01  0.51100000000E-03 0.  1.
        -12    1    3    3    0    0 -0.10337101978E+02 -0.11362614749E+02  0.36907559356E+02  0.39976651046E+02  0.00000000000E+00 0.  1.
</event>
<event>
 7    1  0.5290964E-013  0.5052886E+02  0.7816164E-02  0.1300439E+00
        -11   -1    0    0    0    0  0.00000000000E+00  0.00000000000E+00  0.45593999997E+02  0.45594000000E+02  0.51100000000E-03 0.  1.
         11   -1    0    0    0    0 -0.00000000000E+00 -0.00000000000E+00 -0.45593999997E+02  0.45594000000E+02  0.51100000000E-03 0. -1.
    9900012    2    1    2    0    0 -0.95303770208E+01 -0.26350252271E+02  0.29461863564E+02  0.50528864673E+02  0.30000014659E+02 0.  0.
         12    1    1    2    0    0  0.95303770208E+01  0.26350252271E+02 -0.29461863564E+02  0.40659135327E+02  0.00000000000E+00 0. -1.
         11    1    3    3    0    0 -0.11617817522E+01  0.15532031158E+01  0.12887497125E+02  0.13032642064E+02  0.51100000000E-03 0. -1.
        -11    1    3    3    0    0 -0.72276782835E+01 -0.19104781404E+02  0.19414136393E+02  0.28180502089E+02  0.51100000000E-03 0.  1.
         12    1    3    3    0    0 -0.11409169851E+01 -0.87986739824E+01 -0.28397699532E+01  0.93157205198E+01  0.00000000000E+00 0. -1.
</event>
<event>
 7    1  0.5290964E-013  0.5052885E+02  0.7816164E-02  0.1300439E+00
        -11   -1    0    0    0    0  0.00000000000E+00  0.00000000000E+00  0.45593999997E+02  0.45594000000E+02  0.51100000000E-03 0.  1.
         11   -1    0    0    0    0 -0.00000000000E+00 -0.00000000000E+00 -0.45593999997E+02  0.45594000000E+02  0.51100000000E-03 0. -1.
    9900012    2    1    2    0    0 -0.15302454534E+02 -0.36332211874E+01  0.37494010761E+02  0.50528852764E+02  0.29999978463E+02 0.  0.
         12    1    1    2    0    0  0.15302454534E+02  0.36332211874E+01 -0.37494010761E+02  0.40659147236E+02  0.00000000000E+00 0. -1.
         11    1    3    3    0    0 -0.24899817537E+01 -0.18215359692E-01 -0.81893936197E+00  0.26212597874E+01  0.51100000000E-03 0. -1.
        -11    1    3    3    0    0 -0.18558510679E+02  0.41659938935E+01  0.23799130967E+02  0.30465922911E+02  0.51100000000E-03 0.  1.
        -12    1    3    3    0    0  0.57460378994E+01 -0.77809997212E+01  0.14513819156E+02  0.17441670066E+02  0.00000000000E+00 0.  1.
</event>
<event>
 7    1  0.5290964E-013  0.5052888E+02  0.7816164E-02  0.1300439E+00
        -11   -1    0    0    0    0  0.00000000000E+00  0.00000000000E+00  0.45593999997E+02  0.45594000000E+02  0.51100000000E-03 0. -1.
         11   -1    0    0    0    0 -0.00000000000E+00 -0.00000000000E+00 -0.45593999997E+02  0.45594000000E+02  0.51100000000E-03 0.  1.
    9900012    2    1    2    0    0 -0.89992045994E+01 -0.36828076030E+02 -0.14692560057E+02  0.50528878163E+02  0.30000055665E+02 0.  0.
         12    1    1    2    0    0  0.89992045994E+01  0.36828076030E+02  0.14692560057E+02  0.40659121837E+02  0.00000000000E+00 0. -1.
         11    1    3    3    0    0 -0.57703523728E+01 -0.15387654681E+02  0.62092123889E+01  0.17567902602E+02  0.51100000000E-03 0. -1.
        -11    1    3    3    0    0 -0.18155045468E+01 -0.33682742864E+00  0.13297585702E+01  0.22754708507E+01  0.51100000000E-03 0.  1.
        -12    1    3    3    0    0 -0.14133476799E+01 -0.21103593920E+02 -0.22231531016E+02  0.30685504711E+02  0.00000000000E+00 0.  1.
</event>
<event>
 7    1  0.5290964E-013  0.5052888E+02  0.7816164E-02  0.1300439E+00
        -11   -1    0    0    0    0  0.00000000000E+00  0.00000000000E+00  0.45593999997E+02  0.45594000000E+02  0.51100000000E-03 0.  1.
         11   -1    0    0    0    0 -0.00000000000E+00 -0.00000000000E+00 -0.45593999997E+02  0.45594000000E+02  0.51100000000E-03 0. -1.
    9900012    2    1    2    0    0 -0.72605798479E+01 -0.39853774819E+02 -0.34820105842E+01  0.50528883129E+02  0.30000070758E+02 0.  0.
         12    1    1    2    0    0  0.72605798479E+01  0.39853774819E+02  0.34820105842E+01  0.40659116871E+02  0.00000000000E+00 0. -1.
         11    1    3    3    0    0 -0.23395587535E+01  0.19328198897E+01 -0.74411796576E+00  0.31245863239E+01  0.51100000000E-03 0. -1.
        -11    1    3    3    0    0 -0.11041125115E+02 -0.21787476238E+02 -0.82403659813E+01  0.25777978904E+02  0.51100000000E-03 0.  1.
         12    1    3    3    0    0  0.61201040203E+01 -0.19999118471E+02  0.55024733628E+01  0.21626317901E+02  0.00000000000E+00 0. -1.
</event>
<event>
 7    1  0.5290964E-013  0.5052885E+02  0.7816164E-02  0.1300439E+00
        -11   -1    0    0    0    0  0.00000000000E+00  0.00000000000E+00  0.45593999997E+02  0.45594000000E+02  0.51100000000E-03 0.  1.
         11   -1    0    0    0    0 -0.00000000000E+00 -0.00000000000E+00 -0.45593999997E+02  0.45594000000E+02  0.51100000000E-03 0. -1.
    9900012    2    1    2    0    0  0.30951637235E+02 -0.25022437230E+01  0.26246936158E+02  0.50528846924E+02  0.29999960711E+02 0.  0.
         12    1    1    2    0    0 -0.30951637235E+02  0.25022437230E+01 -0.26246936158E+02  0.40659153076E+02  0.00000000000E+00 0. -1.
         11    1    3    3    0    0  0.11026968004E+02 -0.42730028949E+01  0.92766650532E+01  0.15030272515E+02  0.51100000000E-03 0. -1.
        -11    1    3    3    0    0  0.24231383348E+02  0.33004696636E+00  0.18730130490E+02  0.30628200378E+02  0.51100000000E-03 0.  1.
         12    1    3    3    0    0 -0.43067141173E+01  0.14407122056E+01 -0.17598593854E+01  0.48703740313E+01  0.00000000000E+00 0. -1.
</event>
<event>
 7    1  0.5290964E-013  0.5052887E+02  0.7816164E-02  0.1300439E+00
        -11   -1    0    0    0    0  0.00000000000E+00  0.00000000000E+00  0.45593999997E+02  0.45594000000E+02  0.51100000000E-03 0.  1.
         11   -1    0    0    0    0 -0.00000000000E+00 -0.00000000000E+00 -0.45593999997E+02  0.45594000000E+02  0.51100000000E-03 0. -1.
    9900012    2    1    2    0    0 -0.40606916917E+02  0.10227832548E+01 -0.17881335214E+01  0.50528865619E+02  0.30000017536E+02 0.  0.
         12    1    1    2    0    0  0.40606916917E+02 -0.10227832548E+01  0.17881335214E+01  0.40659134381E+02  0.00000000000E+00 0. -1.
         11    1    3    3    0    0 -0.84087061548E+01  0.10886111819E+02 -0.28671842324E+01  0.14051139292E+02  0.51100000000E-03 0. -1.
        -11    1    3    3    0    0 -0.85344966369E+01  0.31864034675E+01  0.24040999776E+01  0.94218096386E+01  0.51100000000E-03 0.  1.
        -12    1    3    3    0    0 -0.23663714125E+02 -0.13049732031E+02 -0.13250492665E+01  0.27055916689E+02  0.00000000000E+00 0.  1.
</event>
<event>
 7    1  0.5290964E-013  0.5052886E+02  0.7816164E-02  0.1300439E+00
        -11   -1    0    0    0    0  0.00000000000E+00  0.00000000000E+00  0.45593999997E+02  0.45594000000E+02  0.51100000000E-03 0. -1.
         11   -1    0    0    0    0 -0.00000000000E+00 -0.00000000000E+00 -0.45593999997E+02  0.45594000000E+02  0.51100000000E-03 0.  1.
    9900012    2    1    2    0    0 -0.33763364087E+02 -0.86527885618E+01 -0.20936338379E+02  0.50528858727E+02  0.29999996587E+02 0.  0.
         12    1    1    2    0    0  0.33763364087E+02  0.86527885618E+01  0.20936338379E+02  0.40659141273E+02  0.00000000000E+00 0. -1.
         11    1    3    3    0    0 -0.37250851990E+01  0.20347042872E+01 -0.11162224347E+02  0.11942007114E+02  0.51100000000E-03 0. -1.
        -11    1    3    3    0    0 -0.20952786531E+02 -0.11416616579E+02 -0.14898437124E+02  0.28130443056E+02  0.51100000000E-03 0.  1.
        -12    1    3    3    0    0 -0.90854923565E+01  0.72912373027E+00  0.51243230916E+01  0.10456408557E+02  0.00000000000E+00 0.  1.
</event>
<event>
 7    1  0.5290964E-013  0.5052886E+02  0.7816164E-02  0.1300439E+00
        -11   -1    0    0    0    0  0.00000000000E+00  0.00000000000E+00  0.45593999997E+02  0.45594000000E+02  0.51100000000E-03 0. -1.
         11   -1    0    0    0    0 -0.00000000000E+00 -0.00000000000E+00 -0.45593999997E+02  0.45594000000E+02  0.51100000000E-03 0.  1.
    9900012    2    1    2    0    0  0.33342560043E+02 -0.11456535738E+02 -0.20253080404E+02  0.50528858504E+02  0.29999995908E+02 0.  0.
         12    1    1    2    0    0 -0.33342560043E+02  0.11456535738E+02  0.20253080404E+02  0.40659141496E+02  0.00000000000E+00 0. -1.
         11    1    3    3    0    0  0.19690161510E+02  0.63020331216E+01 -0.10102062903E+02  0.23010209841E+02  0.51100000000E-03 0.  1.
        -11    1    3    3    0    0  0.75319810779E+01 -0.18749645108E+01 -0.12386115456E+00  0.77628327768E+01  0.51100000000E-03 0. -1.
        -12    1    3    3    0    0  0.61204174552E+01 -0.15883604349E+02 -0.10027156347E+02  0.19755815886E+02  0.00000000000E+00 0.  1.
</event>
<event>
 7    1  0.5290964E-013  0.5052886E+02  0.7816164E-02  0.1300439E+00
        -11   -1    0    0    0    0  0.00000000000E+00  0.00000000000E+00  0.45593999997E+02  0.45594000000E+02  0.51100000000E-03 0.  1.
         11   -1    0    0    0    0 -0.00000000000E+00 -0.00000000000E+00 -0.45593999997E+02  0.45594000000E+02  0.51100000000E-03 0. -1.
    9900012    2    1    2    0    0  0.54651089531E+01 -0.89863353870E+01  0.39275229097E+02  0.50528864985E+02  0.30000015608E+02 0.  0.
         12    1    1    2    0    0 -0.54651089531E+01  0.89863353870E+01 -0.39275229097E+02  0.40659135015E+02  0.00000000000E+00 0. -1.
         11    1    3    3    0    0  0.79338163166E+01 -0.89195720983E+01  0.15751206151E+02  0.19763721897E+02  0.51100000000E-03 0. -1.
        -11    1    3    3    0    0  0.55946988905E+01 -0.34042905081E+01  0.20513634737E+02  0.21533672700E+02  0.51100000000E-03 0.  1.
         12    1    3    3    0    0 -0.80634062540E+01  0.33375272194E+01  0.30103882086E+01  0.92314703880E+01  0.00000000000E+00 0. -1.
</event>
<event>
 7    1  0.5290964E-013  0.5052886E+02  0.7816164E-02  0.1300439E+00
        -11   -1    0    0    0    0  0.00000000000E+00  0.00000000000E+00  0.45593999997E+02  0.45594000000E+02  0.51100000000E-03 0. -1.
         11   -1    0    0    0    0 -0.00000000000E+00 -0.00000000000E+00 -0.45593999997E+02  0.45594000000E+02  0.51100000000E-03 0.  1.
    9900012    2    1    2    0    0 -0.22288451346E+02  0.33740315996E+02 -0.42405023249E+01  0.50528857770E+02  0.29999993679E+02 0.  0.
         12    1    1    2    0    0  0.22288451346E+02 -0.33740315996E+02  0.42405023249E+01  0.40659142230E+02  0.00000000000E+00 0. -1.
         11    1    3    3    0    0  0.10517411805E+01 -0.55262549857E+00  0.17386394611E+01  0.21058067075E+01  0.51100000000E-03 0. -1.
        -11    1    3    3    0    0 -0.10720001336E+02  0.44285476617E+01  0.69467461999E+01  0.13519901851E+02  0.51100000000E-03 0.  1.
         12    1    3    3    0    0 -0.12620191190E+02  0.29864393833E+02 -0.12925887986E+02  0.34903149212E+02  0.00000000000E+00 0. -1.
</event>
<event>
 7    1  0.5290964E-013  0.5052885E+02  0.7816164E-02  0.1300439E+00
        -11   -1    0    0    0    0  0.00000000000E+00  0.00000000000E+00  0.45593999997E+02  0.45594000000E+02  0.51100000000E-03 0.  1.
         11   -1    0    0    0    0 -0.00000000000E+00 -0.00000000000E+00 -0.45593999997E+02  0.45594000000E+02  0.51100000000E-03 0. -1.
    9900012    2    1    2    0    0  0.12852093857E+02  0.29311393225E+02  0.25076535106E+02  0.50528847252E+02  0.29999961707E+02 0.  0.
         12    1    1    2    0    0 -0.12852093857E+02 -0.29311393225E+02 -0.25076535106E+02  0.40659152748E+02  0.00000000000E+00 0. -1.
         11    1    3    3    0    0  0.13173384102E+02  0.24778619209E+01  0.89897700878E+01  0.16139820783E+02  0.51100000000E-03 0. -1.
        -11    1    3    3    0    0  0.59475883846E+01  0.88709206379E+01  0.93858551908E+01  0.14218344435E+02  0.51100000000E-03 0.  1.
        -12    1    3    3    0    0 -0.62688786297E+01  0.17962610666E+02  0.67009098270E+01  0.20170682034E+02  0.00000000000E+00 0.  1.
</event>
<event>
 7    1  0.5290964E-013  0.5052884E+02  0.7816164E-02  0.1300439E+00
        -11   -1    0    0    0    0  0.00000000000E+00  0.00000000000E+00  0.45593999997E+02  0.45594000000E+02  0.51100000000E-03 0.  1.
         11   -1    0    0    0    0 -0.00000000000E+00 -0.00000000000E+00 -0.45593999997E+02  0.45594000000E+02  0.51100000000E-03 0. -1.
    9900012    2    1    2    0    0 -0.99753649987E+00 -0.30482352836E+02  0.26888633900E+02  0.50528836869E+02  0.29999930147E+02 0.  0.
         12    1    1    2    0    0  0.99753649987E+00  0.30482352836E+02 -0.26888633900E+02  0.40659163131E+02  0.00000000000E+00 0. -1.
         11    1    3    3    0    0  0.46856820852E+00 -0.12275222984E+02  0.94477977854E+01  0.15497146148E+02  0.51100000000E-03 0. -1.
        -11    1    3    3    0    0 -0.18603998632E+01 -0.23974280194E+02  0.11205497761E+02  0.26529047831E+02  0.51100000000E-03 0.  1.
         12    1    3    3    0    0  0.39429515485E+00  0.57671503420E+01  0.62353383540E+01  0.85026428906E+01  0.00000000000E+00 0. -1.
</event>
<event>
 7    1  0.5290964E-013  0.5052885E+02  0.7816164E-02  0.1300439E+00
        -11   -1    0    0    0    0  0.00000000000E+00  0.00000000000E+00  0.45593999997E+02  0.45594000000E+02  0.51100000000E-03 0.  1.
         11   -1    0    0    0    0 -0.00000000000E+00 -0.00000000000E+00 -0.45593999997E+02  0.45594000000E+02  0.51100000000E-03 0. -1.
    9900012    2    1    2    0    0  0.29784353246E+02 -0.26807973605E+02 -0.68841220951E+01  0.50528852393E+02  0.29999977333E+02 0.  0.
         12    1    1    2    0    0 -0.29784353246E+02  0.26807973605E+02  0.68841220951E+01  0.40659147607E+02  0.00000000000E+00 0. -1.
         11    1    3    3    0    0  0.17443779748E+02 -0.15315406562E+02 -0.90207509307E+01  0.24904238147E+02  0.51100000000E-03 0.  1.
        -11    1    3    3    0    0  0.36625507845E+01 -0.14784008692E+02  0.47989468717E+01  0.15969066428E+02  0.51100000000E-03 0. -1.
         12    1    3    3    0    0  0.86780227137E+01  0.32914416481E+01 -0.26623180361E+01  0.96555478181E+01  0.00000000000E+00 0. -1.
</event>
<event>
 7    1  0.5290964E-013  0.5052884E+02  0.7816164E-02  0.1300439E+00
        -11   -1    0    0    0    0  0.00000000000E+00  0.00000000000E+00  0.45593999997E+02  0.45594000000E+02  0.51100000000E-03 0. -1.
         11   -1    0    0    0    0 -0.00000000000E+00 -0.00000000000E+00 -0.45593999997E+02  0.45594000000E+02  0.51100000000E-03 0.  1.
    9900012    2    1    2    0    0  0.13551408626E+02  0.28659950442E+02 -0.25458480919E+02  0.50528835156E+02  0.29999924940E+02 0.  0.
         12    1    1    2    0    0 -0.13551408626E+02 -0.28659950442E+02  0.25458480919E+02  0.40659164844E+02  0.00000000000E+00 0. -1.
         11    1    3    3    0    0 -0.51069501379E-01  0.11499719456E+02 -0.44224694757E+01  0.12320892508E+02  0.51100000000E-03 0. -1.
        -11    1    3    3    0    0 -0.51353045269E+01  0.80958897002E+01 -0.15814586736E+01  0.97167790147E+01  0.51100000000E-03 0.  1.
         12    1    3    3    0    0  0.18737782654E+02  0.90643412862E+01 -0.19454552770E+02  0.28491163634E+02  0.00000000000E+00 0. -1.
</event>
<event>
 7    1  0.5290964E-013  0.5052886E+02  0.7816164E-02  0.1300439E+00
        -11   -1    0    0    0    0  0.00000000000E+00  0.00000000000E+00  0.45593999997E+02  0.45594000000E+02  0.51100000000E-03 0.  1.
         11   -1    0    0    0    0 -0.00000000000E+00 -0.00000000000E+00 -0.45593999997E+02  0.45594000000E+02  0.51100000000E-03 0. -1.
    9900012    2    1    2    0    0 -0.15882126753E+02 -0.22763973339E+02  0.29710690071E+02  0.50528861583E+02  0.30000005266E+02 0.  0.
         12    1    1    2    0    0  0.15882126753E+02  0.22763973339E+02 -0.29710690071E+02  0.40659138417E+02  0.00000000000E+00 0. -1.
         11    1    3    3    0    0 -0.79137937556E+01 -0.80899170351E+01  0.20372005440E+02  0.23304366439E+02  0.51100000000E-03 0. -1.
        -11    1    3    3    0    0 -0.13128048712E+02 -0.14791229952E+02  0.97450084008E+01  0.22047479118E+02  0.51100000000E-03 0.  1.
        -12    1    3    3    0    0  0.51597157147E+01  0.11717364764E+00 -0.40632376989E+00  0.51770160253E+01  0.00000000000E+00 0.  1.
</event>
<event>
 7    1  0.5290964E-013  0.5052886E+02  0.7816164E-02  0.1300439E+00
        -11   -1    0    0    0    0  0.00000000000E+00  0.00000000000E+00  0.45593999997E+02  0.45594000000E+02  0.51100000000E-03 0. -1.
         11   -1    0    0    0    0 -0.00000000000E+00 -0.00000000000E+00 -0.45593999997E+02  0.45594000000E+02  0.51100000000E-03 0.  1.
    9900012    2    1    2    0    0  0.23217655453E+02 -0.17635462828E+02 -0.28338958436E+02  0.50528860325E+02  0.30000001444E+02 0.  0.
         12    1    1    2    0    0 -0.23217655453E+02  0.17635462828E+02  0.28338958436E+02  0.40659139675E+02  0.00000000000E+00 0. -1.
         11    1    3    3    0    0  0.16586893720E+01  0.45117984074E+01 -0.16752984140E+01  0.50905992122E+01  0.51100000000E-03 0. -1.
        -11    1    3    3    0    0  0.37165185398E-01  0.20881054152E+01  0.14417338068E+01  0.25377474474E+01  0.51100000000E-03 0.  1.
        -12    1    3    3    0    0  0.21521800895E+02 -0.24235366651E+02 -0.28105393829E+02  0.42900513665E+02  0.00000000000E+00 0.  1.
</event>
<event>
 7    1  0.5290964E-013  0.5052887E+02  0.7816164E-02  0.1300439E+00
        -11   -1    0    0    0    0  0.00000000000E+00  0.00000000000E+00  0.45593999997E+02  0.45594000000E+02  0.51100000000E-03 0.  1.
         11   -1    0    0    0    0 -0.00000000000E+00 -0.00000000000E+00 -0.45593999997E+02  0.45594000000E+02  0.51100000000E-03 0. -1.
    9900012    2    1    2    0    0  0.65030459372E+00 -0.22942633587E+02  0.33561550919E+02  0.50528867790E+02  0.30000024136E+02 0.  0.
         12    1    1    2    0    0 -0.65030459372E+00  0.22942633587E+02 -0.33561550919E+02  0.40659132210E+02  0.00000000000E+00 0. -1.
         11    1    3    3    0    0 -0.46681661164E+00  0.75577302384E+00  0.19394210800E+01  0.21331818955E+01  0.51100000000E-03 0. -1.
        -11    1    3    3    0    0 -0.58922182073E+01  0.67212470962E+00  0.19321816211E+02  0.20211446484E+02  0.51100000000E-03 0.  1.
         12    1    3    3    0    0  0.70093394127E+01 -0.24370531320E+02  0.12300313628E+02  0.28184239411E+02  0.00000000000E+00 0. -1.
</event>
<event>
 7    1  0.5290964E-013  0.5052885E+02  0.7816164E-02  0.1300439E+00
        -11   -1    0    0    0    0  0.00000000000E+00  0.00000000000E+00  0.45593999997E+02  0.45594000000E+02  0.51100000000E-03 0. -1.
         11   -1    0    0    0    0 -0.00000000000E+00 -0.00000000000E+00 -0.45593999997E+02  0.45594000000E+02  0.51100000000E-03 0.  1.
    9900012    2    1    2    0    0 -0.29712045311E+01 -0.15549885811E+02 -0.37450489813E+02  0.50528853521E+02  0.29999980763E+02 0.  0.
         12    1    1    2    0    0  0.29712045311E+01  0.15549885811E+02  0.37450489813E+02  0.40659146479E+02  0.00000000000E+00 0. -1.
         11    1    3    3    0    0  0.74968001512E+01 -0.47572091750E+01 -0.72337331889E+01  0.11452508361E+02  0.51100000000E-03 0. -1.
        -11    1    3    3    0    0 -0.99062856463E+01 -0.13530053487E+02 -0.31737295930E+02  0.35895024668E+02  0.51100000000E-03 0.  1.
         12    1    3    3    0    0 -0.56171903594E+00  0.27373768508E+01  0.15205393057E+01  0.31813204929E+01  0.00000000000E+00 0. -1.
</event>
<event>
 7    1  0.5290964E-013  0.5052884E+02  0.7816164E-02  0.1300439E+00
        -11   -1    0    0    0    0  0.00000000000E+00  0.00000000000E+00  0.45593999997E+02  0.45594000000E+02  0.51100000000E-03 0.  1.
         11   -1    0    0    0    0 -0.00000000000E+00 -0.00000000000E+00 -0.45593999997E+02  0.45594000000E+02  0.51100000000E-03 0. -1.
    9900012    2    1    2    0    0 -0.21351821622E+02 -0.26013492841E+02  0.22815898423E+02  0.50528839689E+02  0.29999938719E+02 0.  0.
         12    1    1    2    0    0  0.21351821622E+02  0.26013492841E+02 -0.22815898423E+02  0.40659160311E+02  0.00000000000E+00 0. -1.
         11    1    3    3    0    0 -0.16301077143E+02 -0.18597089502E+02  0.15476791152E+02  0.29173753934E+02  0.51100000000E-03 0. -1.
        -11    1    3    3    0    0 -0.10344674869E+02 -0.69813530730E+01  0.94346025921E+01  0.15644913397E+02  0.51100000000E-03 0.  1.
         12    1    3    3    0    0  0.52939303905E+01 -0.43505026622E+00 -0.20954953216E+01  0.57101723579E+01  0.00000000000E+00 0. -1.
</event>
<event>
 7    1  0.5290964E-013  0.5052884E+02  0.7816164E-02  0.1300439E+00
        -11   -1    0    0    0    0  0.00000000000E+00  0.00000000000E+00  0.45593999997E+02  0.45594000000E+02  0.51100000000E-03 0. -1.
         11   -1    0    0    0    0 -0.00000000000E+00 -0.00000000000E+00 -0.45593999997E+02  0.45594000000E+02  0.51100000000E-03 0.  1.
    9900012    2    1    2    0    0  0.32788545139E+02 -0.23053844783E+02  0.68263281900E+01  0.50528841030E+02  0.29999942796E+02 0.  0.
         12    1    1    2    0    0 -0.32788545139E+02  0.23053844783E+02 -0.68263281900E+01  0.40659158970E+02  0.00000000000E+00 0. -1.
         11    1    3    3    0    0  0.80162472368E+01 -0.15798531558E+02 -0.12302776285E+01  0.17758586725E+02  0.51100000000E-03 0. -1.
        -11    1    3    3    0    0  0.26361280076E+00 -0.60491372385E+01 -0.18144520666E+01  0.63209010119E+01  0.51100000000E-03 0.  1.
        -12    1    3    3    0    0  0.24508685101E+02 -0.12061759860E+01  0.98710578851E+01  0.26449353294E+02  0.00000000000E+00 0.  1.
</event>
<event>
 7    1  0.5290964E-013  0.5052886E+02  0.7816164E-02  0.1300439E+00
        -11   -1    0    0    0    0  0.00000000000E+00  0.00000000000E+00  0.45593999997E+02  0.45594000000E+02  0.51100000000E-03 0. -1.
         11   -1    0    0    0    0 -0.00000000000E+00 -0.00000000000E+00 -0.45593999997E+02  0.45594000000E+02  0.51100000000E-03 0.  1.
    9900012    2    1    2    0    0 -0.19414603746E+02  0.19932612566E+02 -0.29646752602E+02  0.50528858074E+02  0.29999994600E+02 0.  0.
         12    1    1    2    0    0  0.19414603746E+02 -0.19932612566E+02  0.29646752602E+02  0.40659141926E+02  0.00000000000E+00 0. -1.
         11    1    3    3    0    0 -0.17908637084E+02  0.49685208344E+01 -0.46828253864E+01  0.19165968156E+02  0.51100000000E-03 0. -1.
        -11    1    3    3    0    0 -0.46059009333E+00  0.16971868170E+01 -0.14028459975E+02  0.14138255757E+02  0.51100000000E-03 0.  1.
        -12    1    3    3    0    0 -0.10453765687E+01  0.13266904915E+02 -0.10935467241E+02  0.17224634161E+02  0.00000000000E+00 0.  1.
</event>
<event>
 7    1  0.5290964E-013  0.5052887E+02  0.7816164E-02  0.1300439E+00
        -11   -1    0    0    0    0  0.00000000000E+00  0.00000000000E+00  0.45593999997E+02  0.45594000000E+02  0.51100000000E-03 0.  1.
         11   -1    0    0    0    0 -0.00000000000E+00 -0.00000000000E+00 -0.45593999997E+02  0.45594000000E+02  0.51100000000E-03 0. -1.
    9900012    2    1    2    0    0 -0.10485389349E+02 -0.93598784799E+01  0.38152512812E+02  0.50528868814E+02  0.30000027247E+02 0.  0.
         12    1    1    2    0    0  0.10485389349E+02  0.93598784799E+01 -0.38152512812E+02  0.40659131186E+02  0.00000000000E+00 0. -1.
         11    1    3    3    0    0 -0.13514244725E+02 -0.35424254973E+01  0.46597574010E+01  0.14727420962E+02  0.51100000000E-03 0. -1.
        -11    1    3    3    0    0 -0.81339230407E+00  0.56414989774E+00 -0.42360391484E+00  0.10767138363E+01  0.51100000000E-03 0.  1.
        -12    1    3    3    0    0  0.38422476802E+01 -0.63816028803E+01  0.33916359325E+02  0.34724734016E+02  0.00000000000E+00 0.  1.
</event>
<event>
 7    1  0.5290964E-013  0.5052886E+02  0.7816164E-02  0.1300439E+00
        -11   -1    0    0    0    0  0.00000000000E+00  0.00000000000E+00  0.45593999997E+02  0.45594000000E+02  0.51100000000E-03 0.  1.
         11   -1    0    0    0    0 -0.00000000000E+00 -0.00000000000E+00 -0.45593999997E+02  0.45594000000E+02  0.51100000000E-03 0. -1.
    9900012    2    1    2    0    0 -0.35614850644E+02 -0.41018402222E+01  0.19181314717E+02  0.50528861865E+02  0.30000006125E+02 0.  0.
         12    1    1    2    0    0  0.35614850644E+02  0.41018402222E+01 -0.19181314717E+02  0.40659138135E+02  0.00000000000E+00 0. -1.
         11    1    3    3    0    0 -0.27167695127E+00 -0.12518625471E+01  0.34760598811E+01  0.37045864493E+01  0.51100000000E-03 0. -1.
        -11    1    3    3    0    0 -0.85530857761E+01 -0.12747151519E+02  0.33801908452E+01  0.15718487159E+02  0.51100000000E-03 0.  1.
        -12    1    3    3    0    0 -0.26790087917E+02  0.98971738443E+01  0.12325063991E+02  0.31105788257E+02  0.00000000000E+00 0.  1.
</event>
<event>
 7    1  0.5290964E-013  0.5052886E+02  0.7816164E-02  0.1300439E+00
        -11   -1    0    0    0    0  0.00000000000E+00  0.00000000000E+00  0.45593999997E+02  0.45594000000E+02  0.51100000000E-03 0.  1.
         11   -1    0    0    0    0 -0.00000000000E+00 -0.00000000000E+00 -0.45593999997E+02  0.45594000000E+02  0.51100000000E-03 0. -1.
    9900012    2    1    2    0    0  0.10980639411E+02 -0.29462875754E+02  0.25778481604E+02  0.50528860764E+02  0.30000002779E+02 0.  0.
         12    1    1    2    0    0 -0.10980639411E+02  0.29462875754E+02 -0.25778481604E+02  0.40659139236E+02  0.00000000000E+00 0. -1.
         11    1    3    3    0    0  0.16625227189E+01 -0.15208655389E+02  0.11018993805E+02  0.18854320600E+02  0.51100000000E-03 0. -1.
        -11    1    3    3    0    0 -0.29145442853E+01 -0.15141288440E+02  0.57508605808E+01  0.16456779202E+02  0.51100000000E-03 0.  1.
         12    1    3    3    0    0  0.12232660977E+02  0.88706807504E+00  0.90086272181E+01  0.15217760962E+02  0.00000000000E+00 0. -1.
</event>
<event>
 7    1  0.5290964E-013  0.5052886E+02  0.7816164E-02  0.1300439E+00
        -11   -1    0    0    0    0  0.00000000000E+00  0.00000000000E+00  0.45593999997E+02  0.45594000000E+02  0.51100000000E-03 0.  1.
         11   -1    0    0    0    0 -0.00000000000E+00 -0.00000000000E+00 -0.45593999997E+02  0.45594000000E+02  0.51100000000E-03 0. -1.
    9900012    2    1    2    0    0  0.55370656000E+01  0.70834881204E+01  0.39652626293E+02  0.50528859928E+02  0.30000000238E+02 0.  0.
         12    1    1    2    0    0 -0.55370656000E+01 -0.70834881204E+01 -0.39652626293E+02  0.40659140072E+02  0.00000000000E+00 0. -1.
         11    1    3    3    0    0 -0.54118573952E+00 -0.85589880171E+00  0.21299079680E+02  0.21323138612E+02  0.51100000000E-03 0. -1.
        -11    1    3    3    0    0  0.10969960603E+01 -0.68924050409E+01  0.69119154768E+01  0.98225874099E+01  0.51100000000E-03 0.  1.
        -12    1    3    3    0    0  0.49812552792E+01  0.14831791963E+02  0.11441631136E+02  0.19383133907E+02  0.00000000000E+00 0.  1.
</event>
<event>
 7    1  0.5290964E-013  0.5052886E+02  0.7816164E-02  0.1300439E+00
        -11   -1    0    0    0    0  0.00000000000E+00  0.00000000000E+00  0.45593999997E+02  0.45594000000E+02  0.51100000000E-03 0. -1.
         11   -1    0    0    0    0 -0.00000000000E+00 -0.00000000000E+00 -0.45593999997E+02  0.45594000000E+02  0.51100000000E-03 0.  1.
    9900012    2    1    2    0    0 -0.19712172501E+02  0.31888441916E+02 -0.15739233037E+02  0.50528856758E+02  0.29999990603E+02 0.  0.
         12    1    1    2    0    0  0.19712172501E+02 -0.31888441916E+02  0.15739233037E+02  0.40659143242E+02  0.00000000000E+00 0. -1.
         11    1    3    3    0    0 -0.26087357352E+01 -0.41453990060E+01 -0.54487059942E+01  0.73265429998E+01  0.51100000000E-03 0. -1.
        -11    1    3    3    0    0 -0.74130455522E+01  0.38626198118E+01 -0.19396706188E+01  0.85811070696E+01  0.51100000000E-03 0.  1.
         12    1    3    3    0    0 -0.96903912136E+01  0.32171221110E+02 -0.83508564244E+01  0.34621206689E+02  0.00000000000E+00 0. -1.
</event>
<event>
 7    1  0.5290964E-013  0.5052887E+02  0.7816164E-02  0.1300439E+00
        -11   -1    0    0    0    0  0.00000000000E+00  0.00000000000E+00  0.45593999997E+02  0.45594000000E+02  0.51100000000E-03 0.  1.
         11   -1    0    0    0    0 -0.00000000000E+00 -0.00000000000E+00 -0.45593999997E+02  0.45594000000E+02  0.51100000000E-03 0. -1.
    9900012    2    1    2    0    0 -0.50775499931E+01  0.23625261506E+02  0.32699092139E+02  0.50528866686E+02  0.30000020779E+02 0.  0.
         12    1    1    2    0    0  0.50775499931E+01 -0.23625261506E+02 -0.32699092139E+02  0.40659133314E+02  0.00000000000E+00 0. -1.
         11    1    3    3    0    0  0.15752173235E+01  0.69841197454E+01 -0.19577131355E+01  0.74223903977E+01  0.51100000000E-03 0. -1.
        -11    1    3    3    0    0 -0.59732432885E+00 -0.18568459974E+01 -0.12123855333E+01  0.22966393610E+01  0.51100000000E-03 0.  1.
        -12    1    3    3    0    0 -0.60554429877E+01  0.18497987758E+02  0.35869190807E+02  0.40809836927E+02  0.00000000000E+00 0.  1.
</event>
<event>
 7    1  0.5290964E-013  0.5052886E+02  0.7816164E-02  0.1300439E+00
        -11   -1    0    0    0    0  0.00000000000E+00  0.00000000000E+00  0.45593999997E+02  0.45594000000E+02  0.51100000000E-03 0. -1.
         11   -1    0    0    0    0 -0.00000000000E+00 -0.00000000000E+00 -0.45593999997E+02  0.45594000000E+02  0.51100000000E-03 0.  1.
    9900012    2    1    2    0    0 -0.28034957892E+02  0.26215454532E+02  0.13414800040E+02  0.50528858588E+02  0.29999996163E+02 0.  0.
         12    1    1    2    0    0  0.28034957892E+02 -0.26215454532E+02 -0.13414800040E+02  0.40659141412E+02  0.00000000000E+00 0. -1.
         11    1    3    3    0    0 -0.19603027023E+02  0.13146258247E+02  0.10528516100E+01  0.23626495109E+02  0.51100000000E-03 0.  1.
        -11    1    3    3    0    0 -0.71295016831E+01 -0.30787463919E+00 -0.18188196096E+01  0.73642844918E+01  0.51100000000E-03 0. -1.
         12    1    3    3    0    0 -0.13024291851E+01  0.13377070923E+02  0.14180768040E+02  0.19538078986E+02  0.00000000000E+00 0. -1.
</event>
<event>
 7    1  0.5290964E-013  0.5052886E+02  0.7816164E-02  0.1300439E+00
        -11   -1    0    0    0    0  0.00000000000E+00  0.00000000000E+00  0.45593999997E+02  0.45594000000E+02  0.51100000000E-03 0. -1.
         11   -1    0    0    0    0 -0.00000000000E+00 -0.00000000000E+00 -0.45593999997E+02  0.45594000000E+02  0.51100000000E-03 0.  1.
    9900012    2    1    2    0    0 -0.28071594362E+02  0.10983542890E+02 -0.27285768687E+02  0.50528858380E+02  0.29999995531E+02 0.  0.
         12    1    1    2    0    0  0.28071594362E+02 -0.10983542890E+02  0.27285768687E+02  0.40659141620E+02  0.00000000000E+00 0. -1.
         11    1    3    3    0    0 -0.59543607581E+01 -0.12655308718E+01 -0.72007871714E+01  0.94290676408E+01  0.51100000000E-03 0. -1.
        -11    1    3    3    0    0 -0.26284032090E+02  0.49218161969E+01 -0.18516535272E+02  0.32525938823E+02  0.51100000000E-03 0.  1.
         12    1    3    3    0    0  0.41667984863E+01  0.73272575650E+01 -0.15684462438E+01  0.85738519155E+01  0.00000000000E+00 0. -1.
</event>
<event>
 7    1  0.5290964E-013  0.5052887E+02  0.7816164E-02  0.1300439E+00
        -11   -1    0    0    0    0  0.00000000000E+00  0.00000000000E+00  0.45593999997E+02  0.45594000000E+02  0.51100000000E-03 0.  1.
         11   -1    0    0    0    0 -0.00000000000E+00 -0.00000000000E+00 -0.45593999997E+02  0.45594000000E+02  0.51100000000E-03 0. -1.
    9900012    2    1    2    0    0  0.32885902356E+00 -0.40540177089E+02  0.30904100941E+01  0.50528871366E+02  0.30000035005E+02 0.  0.
         12    1    1    2    0    0 -0.32885902356E+00  0.40540177089E+02 -0.30904100941E+01  0.40659128634E+02  0.00000000000E+00 0. -1.
         11    1    3    3    0    0  0.13509500063E+01  0.10212679419E+01  0.48357681653E+01  0.51237396634E+01  0.51100000000E-03 0. -1.
        -11    1    3    3    0    0 -0.60360332855E+01 -0.78449157147E+01 -0.51327149780E+01  0.11149940076E+02  0.51100000000E-03 0.  1.
         12    1    3    3    0    0  0.50139423028E+01 -0.33716529317E+02  0.33873569068E+01  0.34255191627E+02  0.00000000000E+00 0. -1.
</event>
<event>
 7    1  0.5290964E-013  0.5052886E+02  0.7816164E-02  0.1300439E+00
        -11   -1    0    0    0    0  0.00000000000E+00  0.00000000000E+00  0.45593999997E+02  0.45594000000E+02  0.51100000000E-03 0. -1.
         11   -1    0    0    0    0 -0.00000000000E+00 -0.00000000000E+00 -0.45593999997E+02  0.45594000000E+02  0.51100000000E-03 0.  1.
    9900012    2    1    2    0    0 -0.11056077368E+01 -0.27928638909E+02  0.29528538530E+02  0.50528858009E+02  0.29999994404E+02 0.  0.
         12    1    1    2    0    0  0.11056077368E+01  0.27928638909E+02 -0.29528538530E+02  0.40659141991E+02  0.00000000000E+00 0. -1.
         11    1    3    3    0    0 -0.36728640218E+01 -0.45820630066E+01  0.88770362308E+01  0.10643636786E+02  0.51100000000E-03 0. -1.
        -11    1    3    3    0    0 -0.61704100545E+01 -0.24142972627E+02  0.12370709747E+02  0.27820703575E+02  0.51100000000E-03 0.  1.
        -12    1    3    3    0    0  0.87376663394E+01  0.79639672469E+00  0.82807925515E+01  0.12064517648E+02  0.00000000000E+00 0.  1.
</event>
<event>
 7    1  0.5290964E-013  0.5052885E+02  0.7816164E-02  0.1300439E+00
        -11   -1    0    0    0    0  0.00000000000E+00  0.00000000000E+00  0.45593999997E+02  0.45594000000E+02  0.51100000000E-03 0.  1.
         11   -1    0    0    0    0 -0.00000000000E+00 -0.00000000000E+00 -0.45593999997E+02  0.45594000000E+02  0.51100000000E-03 0. -1.
    9900012    2    1    2    0    0 -0.33526881021E+02 -0.66583920350E+01  0.22017734808E+02  0.50528848735E+02  0.29999966216E+02 0.  0.
         12    1    1    2    0    0  0.33526881021E+02  0.66583920350E+01 -0.22017734808E+02  0.40659151265E+02  0.00000000000E+00 0. -1.
         11    1    3    3    0    0 -0.11757683810E+02 -0.39126268447E+01  0.50360620928E+01  0.13375862554E+02  0.51100000000E-03 0. -1.
        -11    1    3    3    0    0 -0.21649334007E+02 -0.74956803186E+01  0.20887167297E+02  0.31002461908E+02  0.51100000000E-03 0.  1.
         12    1    3    3    0    0 -0.11986320423E+00  0.47499151283E+01 -0.39054945821E+01  0.61505242739E+01  0.00000000000E+00 0. -1.
</event>
<event>
 7    1  0.5290964E-013  0.5052886E+02  0.7816164E-02  0.1300439E+00
        -11   -1    0    0    0    0  0.00000000000E+00  0.00000000000E+00  0.45593999997E+02  0.45594000000E+02  0.51100000000E-03 0.  1.
         11   -1    0    0    0    0 -0.00000000000E+00 -0.00000000000E+00 -0.45593999997E+02  0.45594000000E+02  0.51100000000E-03 0. -1.
    9900012    2    1    2    0    0 -0.14552905390E+02  0.33301108666E+01  0.37819165120E+02  0.50528856576E+02  0.29999990047E+02 0.  0.
         12    1    1    2    0    0  0.14552905390E+02 -0.33301108666E+01 -0.37819165120E+02  0.40659143424E+02  0.00000000000E+00 0. -1.
         11    1    3    3    0    0  0.13279603642E+00 -0.16052756616E+01 -0.23255249789E+01  0.28288887263E+01  0.51100000000E-03 0. -1.
        -11    1    3    3    0    0 -0.53578078187E+01 -0.75179945169E+01  0.90407296216E+01  0.12921344300E+02  0.51100000000E-03 0.  1.
        -12    1    3    3    0    0 -0.93278936073E+01  0.12453381045E+02  0.31103960477E+02  0.34778623549E+02  0.00000000000E+00 0.  1.
</event>
<event>
 7    1  0.5290964E-013  0.5052889E+02  0.7816164E-02  0.1300439E+00
        -11   -1    0    0    0    0  0.00000000000E+00  0.00000000000E+00  0.45593999997E+02  0.45594000000E+02  0.51100000000E-03 0.  1.
         11   -1    0    0    0    0 -0.00000000000E+00 -0.00000000000E+00 -0.45593999997E+02  0.45594000000E+02  0.51100000000E-03 0. -1.
    9900012    2    1    2    0    0 -0.77281092215E+01  0.39912944275E+02  0.62945855957E+00  0.50528892645E+02  0.30000099683E+02 0.  0.
         12    1    1    2    0    0  0.77281092215E+01 -0.39912944275E+02 -0.62945855957E+00  0.40659107355E+02  0.00000000000E+00 0. -1.
         11    1    3    3    0    0  0.23457191669E-01 -0.18549458616E+01 -0.43949213137E+00  0.19064438057E+01  0.51100000000E-03 0. -1.
        -11    1    3    3    0    0  0.80907066860E+01  0.83474993287E+01  0.35678126972E+00  0.11630458841E+02  0.51100000000E-03 0.  1.
         12    1    3    3    0    0 -0.15842273099E+02  0.33420390808E+02  0.71216942122E+00  0.36991989998E+02  0.00000000000E+00 0. -1.
</event>
<event>
 7    1  0.5290964E-013  0.5052887E+02  0.7816164E-02  0.1300439E+00
        -11   -1    0    0    0    0  0.00000000000E+00  0.00000000000E+00  0.45593999997E+02  0.45594000000E+02  0.51100000000E-03 0.  1.
         11   -1    0    0    0    0 -0.00000000000E+00 -0.00000000000E+00 -0.45593999997E+02  0.45594000000E+02  0.51100000000E-03 0. -1.
    9900012    2    1    2    0    0 -0.38937729435E+01 -0.40462236464E+02  0.90058148469E+00  0.50528867023E+02  0.30000021804E+02 0.  0.
         12    1    1    2    0    0  0.38937729435E+01  0.40462236464E+02 -0.90058148469E+00  0.40659132977E+02  0.00000000000E+00 0. -1.
         11    1    3    3    0    0  0.12023421913E+02 -0.14582464556E+02  0.51614072773E+01  0.19592117608E+02  0.51100000000E-03 0. -1.
        -11    1    3    3    0    0 -0.85427837683E-01  0.11856622089E+00 -0.16918402489E+00  0.22356063962E+00  0.51100000000E-03 0.  1.
        -12    1    3    3    0    0 -0.15831767019E+02 -0.25998338129E+02 -0.40916417678E+01  0.30713188776E+02  0.00000000000E+00 0.  1.
</event>
<event>
 7    1  0.5290964E-013  0.5052888E+02  0.7816164E-02  0.1300439E+00
        -11   -1    0    0    0    0  0.00000000000E+00  0.00000000000E+00  0.45593999997E+02  0.45594000000E+02  0.51100000000E-03 0. -1.
         11   -1    0    0    0    0 -0.00000000000E+00 -0.00000000000E+00 -0.45593999997E+02  0.45594000000E+02  0.51100000000E-03 0.  1.
    9900012    2    1    2    0    0  0.17712505611E+02 -0.61301055808E+01 -0.36081201396E+02  0.50528878715E+02  0.30000057343E+02 0.  0.
         12    1    1    2    0    0 -0.17712505611E+02  0.61301055808E+01  0.36081201396E+02  0.40659121285E+02  0.00000000000E+00 0. -1.
         11    1    3    3    0    0 -0.13839611673E+01  0.31338043634E+01  0.29187898810E+01  0.45006013967E+01  0.51100000000E-03 0. -1.
        -11    1    3    3    0    0  0.36265683465E+01  0.20766770983E+01 -0.27099054258E+01  0.49807804027E+01  0.51100000000E-03 0.  1.
        -12    1    3    3    0    0  0.15469898432E+02 -0.11340587043E+02 -0.36290085851E+02  0.41047496916E+02  0.00000000000E+00 0.  1.
</event>
<event>
 7    1  0.5290964E-013  0.5052885E+02  0.7816164E-02  0.1300439E+00
        -11   -1    0    0    0    0  0.00000000000E+00  0.00000000000E+00  0.45593999997E+02  0.45594000000E+02  0.51100000000E-03 0.  1.
         11   -1    0    0    0    0 -0.00000000000E+00 -0.00000000000E+00 -0.45593999997E+02  0.45594000000E+02  0.51100000000E-03 0. -1.
    9900012    2    1    2    0    0 -0.14508315672E+02  0.54985381925E+01  0.37582457302E+02  0.50528852902E+02  0.29999978882E+02 0.  0.
         12    1    1    2    0    0  0.14508315672E+02 -0.54985381925E+01 -0.37582457302E+02  0.40659147098E+02  0.00000000000E+00 0. -1.
         11    1    3    3    0    0 -0.12273144629E+02 -0.96302036104E+01  0.14688498988E+02  0.21427153414E+02  0.51100000000E-03 0. -1.
        -11    1    3    3    0    0 -0.29008621636E+01  0.12288452552E+01  0.12910207013E+01  0.34046727693E+01  0.51100000000E-03 0.  1.
        -12    1    3    3    0    0  0.66569112101E+00  0.13899896548E+02  0.21602937613E+02  0.25697026719E+02  0.00000000000E+00 0.  1.
</event>
<event>
 7    1  0.5290964E-013  0.5052886E+02  0.7816164E-02  0.1300439E+00
        -11   -1    0    0    0    0  0.00000000000E+00  0.00000000000E+00  0.45593999997E+02  0.45594000000E+02  0.51100000000E-03 0.  1.
         11   -1    0    0    0    0 -0.00000000000E+00 -0.00000000000E+00 -0.45593999997E+02  0.45594000000E+02  0.51100000000E-03 0. -1.
    9900012    2    1    2    0    0 -0.28744501083E+02 -0.18594848095E+02  0.21935151512E+02  0.50528860928E+02  0.30000003276E+02 0.  0.
         12    1    1    2    0    0  0.28744501083E+02  0.18594848095E+02 -0.21935151512E+02  0.40659139072E+02  0.00000000000E+00 0. -1.
         11    1    3    3    0    0 -0.16753064548E+02 -0.67223297796E+00 -0.21692606821E+00  0.16767949371E+02  0.51100000000E-03 0. -1.
        -11    1    3    3    0    0 -0.90452198221E+01 -0.19895043925E+01  0.75510960569E+01  0.11949610089E+02  0.51100000000E-03 0.  1.
        -12    1    3    3    0    0 -0.29462167137E+01 -0.15933110725E+02  0.14600981524E+02  0.21811301468E+02  0.00000000000E+00 0.  1.
</event>
<event>
 7    1  0.5290964E-013  0.5052886E+02  0.7816164E-02  0.1300439E+00
        -11   -1    0    0    0    0  0.00000000000E+00  0.00000000000E+00  0.45593999997E+02  0.45594000000E+02  0.51100000000E-03 0.  1.
         11   -1    0    0    0    0 -0.00000000000E+00 -0.00000000000E+00 -0.45593999997E+02  0.45594000000E+02  0.51100000000E-03 0. -1.
    9900012    2    1    2    0    0  0.71519413123E+01 -0.73638421939E+01  0.39341954410E+02  0.50528858184E+02  0.29999994936E+02 0.  0.
         12    1    1    2    0    0 -0.71519413123E+01  0.73638421939E+01 -0.39341954410E+02  0.40659141816E+02  0.00000000000E+00 0. -1.
         11    1    3    3    0    0 -0.68202407972E+00 -0.10568490470E+02  0.29391110581E+02  0.31240927149E+02  0.51100000000E-03 0. -1.
        -11    1    3    3    0    0 -0.21854858897E+00 -0.39793494283E+01  0.70745338949E+01  0.81198531667E+01  0.51100000000E-03 0.  1.
        -12    1    3    3    0    0  0.80525139810E+01  0.71839977045E+01  0.28763099341E+01  0.11168077868E+02  0.00000000000E+00 0.  1.
</event>
<event>
 7    1  0.5290964E-013  0.5052885E+02  0.7816164E-02  0.1300439E+00
        -11   -1    0    0    0    0  0.00000000000E+00  0.00000000000E+00  0.45593999997E+02  0.45594000000E+02  0.51100000000E-03 0. -1.
         11   -1    0    0    0    0 -0.00000000000E+00 -0.00000000000E+00 -0.45593999997E+02  0.45594000000E+02  0.51100000000E-03 0.  1.
    9900012    2    1    2    0    0 -0.18552611818E+02  0.35669404467E+02 -0.60548067345E+01  0.50528849678E+02  0.29999969081E+02 0.  0.
         12    1    1    2    0    0  0.18552611818E+02 -0.35669404467E+02  0.60548067345E+01  0.40659150322E+02  0.00000000000E+00 0. -1.
         11    1    3    3    0    0  0.18340107323E+01  0.22390044011E+01  0.22001105315E+01  0.36355498465E+01  0.51100000000E-03 0. -1.
        -11    1    3    3    0    0 -0.16909346680E+00  0.14460351084E+02  0.60743732881E+01  0.15685291109E+02  0.51100000000E-03 0.  1.
        -12    1    3    3    0    0 -0.20217529083E+02  0.18970048983E+02 -0.14329290554E+02  0.31208008723E+02  0.00000000000E+00 0.  1.
</event>
<event>
 7    1  0.5290964E-013  0.5052886E+02  0.7816164E-02  0.1300439E+00
        -11   -1    0    0    0    0  0.00000000000E+00  0.00000000000E+00  0.45593999997E+02  0.45594000000E+02  0.51100000000E-03 0.  1.
         11   -1    0    0    0    0 -0.00000000000E+00 -0.00000000000E+00 -0.45593999997E+02  0.45594000000E+02  0.51100000000E-03 0. -1.
    9900012    2    1    2    0    0 -0.26700885723E+02 -0.20622247923E+02  0.22692544838E+02  0.50528855899E+02  0.29999987990E+02 0.  0.
         12    1    1    2    0    0  0.26700885723E+02  0.20622247923E+02 -0.22692544838E+02  0.40659144101E+02  0.00000000000E+00 0. -1.
         11    1    3    3    0    0 -0.10177182789E+02 -0.14410815653E+02 -0.13076735835E+01  0.17690581329E+02  0.51100000000E-03 0. -1.
        -11    1    3    3    0    0 -0.14694043405E+02 -0.82128925797E+01  0.12353481891E+02  0.20880015115E+02  0.51100000000E-03 0.  1.
        -12    1    3    3    0    0 -0.18296595289E+01  0.20014603095E+01  0.11646736531E+02  0.11958259454E+02  0.00000000000E+00 0.  1.
</event>
<event>
 7    1  0.5290964E-013  0.5052885E+02  0.7816164E-02  0.1300439E+00
        -11   -1    0    0    0    0  0.00000000000E+00  0.00000000000E+00  0.45593999997E+02  0.45594000000E+02  0.51100000000E-03 0.  1.
         11   -1    0    0    0    0 -0.00000000000E+00 -0.00000000000E+00 -0.45593999997E+02  0.45594000000E+02  0.51100000000E-03 0. -1.
    9900012    2    1    2    0    0 -0.39884316731E+02  0.62435777049E+01 -0.48400149551E+01  0.50528846929E+02  0.29999960726E+02 0.  0.
         12    1    1    2    0    0  0.39884316731E+02 -0.62435777049E+01  0.48400149551E+01  0.40659153071E+02  0.00000000000E+00 0. -1.
         11    1    3    3    0    0 -0.27663555074E+02 -0.11456091759E+01  0.36660552170E+01  0.27928921584E+02  0.51100000000E-03 0. -1.
        -11    1    3    3    0    0 -0.13440463594E+02  0.30760510092E+01 -0.95788316639E+00  0.13821204429E+02  0.51100000000E-03 0.  1.
         12    1    3    3    0    0  0.12197019368E+01  0.43131358716E+01 -0.75481870057E+01  0.87787209168E+01  0.00000000000E+00 0. -1.
</event>
<event>
 7    1  0.5290964E-013  0.5052885E+02  0.7816164E-02  0.1300439E+00
        -11   -1    0    0    0    0  0.00000000000E+00  0.00000000000E+00  0.45593999997E+02  0.45594000000E+02  0.51100000000E-03 0.  1.
         11   -1    0    0    0    0 -0.00000000000E+00 -0.00000000000E+00 -0.45593999997E+02  0.45594000000E+02  0.51100000000E-03 0. -1.
    9900012    2    1    2    0    0 -0.23870811680E+02  0.14876496055E+02  0.29360530047E+02  0.50528849618E+02  0.29999968897E+02 0.  0.
         12    1    1    2    0    0  0.23870811680E+02 -0.14876496055E+02 -0.29360530047E+02  0.40659150382E+02  0.00000000000E+00 0. -1.
         11    1    3    3    0    0 -0.46618959532E+01  0.26508175258E+00  0.10577317615E+02  0.11562144715E+02  0.51100000000E-03 0. -1.
        -11    1    3    3    0    0 -0.39621272297E+01  0.12311979883E+02  0.19648401183E+02  0.23523243189E+02  0.51100000000E-03 0.  1.
         12    1    3    3    0    0 -0.15246788497E+02  0.22994344198E+01 -0.86518875046E+00  0.15443461714E+02  0.00000000000E+00 0. -1.
</event>
<event>
 7    1  0.5290964E-013  0.5052886E+02  0.7816164E-02  0.1300439E+00
        -11   -1    0    0    0    0  0.00000000000E+00  0.00000000000E+00  0.45593999997E+02  0.45594000000E+02  0.51100000000E-03 0.  1.
         11   -1    0    0    0    0 -0.00000000000E+00 -0.00000000000E+00 -0.45593999997E+02  0.45594000000E+02  0.51100000000E-03 0. -1.
    9900012    2    1    2    0    0 -0.48397642825E+01  0.24259935063E+02  0.32267600864E+02  0.50528857940E+02  0.29999994194E+02 0.  0.
         12    1    1    2    0    0  0.48397642825E+01 -0.24259935063E+02 -0.32267600864E+02  0.40659142060E+02  0.00000000000E+00 0. -1.
         11    1    3    3    0    0  0.37639345672E+01 -0.17598545482E+01  0.57140145825E+01  0.70650020784E+01  0.51100000000E-03 0. -1.
        -11    1    3    3    0    0 -0.10198924321E+02  0.10933926039E+02  0.23708103373E+02  0.28029323248E+02  0.51100000000E-03 0.  1.
        -12    1    3    3    0    0  0.15952254708E+01  0.15085863572E+02  0.28454829083E+01  0.15434532614E+02  0.00000000000E+00 0.  1.
</event>
<event>
 7    1  0.5290964E-013  0.5052886E+02  0.7816164E-02  0.1300439E+00
        -11   -1    0    0    0    0  0.00000000000E+00  0.00000000000E+00  0.45593999997E+02  0.45594000000E+02  0.51100000000E-03 0.  1.
         11   -1    0    0    0    0 -0.00000000000E+00 -0.00000000000E+00 -0.45593999997E+02  0.45594000000E+02  0.51100000000E-03 0. -1.
    9900012    2    1    2    0    0  0.10670396319E+02  0.53500438592E+00  0.39230368350E+02  0.50528863411E+02  0.30000010825E+02 0.  0.
         12    1    1    2    0    0 -0.10670396319E+02 -0.53500438592E+00 -0.39230368350E+02  0.40659136589E+02  0.00000000000E+00 0. -1.
         11    1    3    3    0    0 -0.87222511410E+00 -0.35148019441E+01 -0.11828661776E+00  0.36233411848E+01  0.51100000000E-03 0. -1.
        -11    1    3    3    0    0 -0.67600225853E+01  0.15005871142E+00  0.11848768914E+02  0.13642351264E+02  0.51100000000E-03 0.  1.
         12    1    3    3    0    0  0.18302644018E+02  0.38997476186E+01  0.27499886054E+02  0.33263170963E+02  0.00000000000E+00 0. -1.
</event>
<event>
 7    1  0.5290964E-013  0.5052889E+02  0.7816164E-02  0.1300439E+00
        -11   -1    0    0    0    0  0.00000000000E+00  0.00000000000E+00  0.45593999997E+02  0.45594000000E+02  0.51100000000E-03 0.  1.
         11   -1    0    0    0    0 -0.00000000000E+00 -0.00000000000E+00 -0.45593999997E+02  0.45594000000E+02  0.51100000000E-03 0. -1.
    9900012    2    1    2    0    0 -0.12168532309E+02  0.15625018924E+02  0.35509839925E+02  0.50528891224E+02  0.30000095365E+02 0.  0.
         12    1    1    2    0    0  0.12168532309E+02 -0.15625018924E+02 -0.35509839925E+02  0.40659108776E+02  0.00000000000E+00 0. -1.
         11    1    3    3    0    0  0.68395179158E+01  0.36248323036E+01  0.11947628077E+02  0.14236018807E+02  0.51100000000E-03 0. -1.
        -11    1    3    3    0    0 -0.99946638694E+01  0.10637276741E+02  0.22895954610E+02  0.27152710732E+02  0.51100000000E-03 0.  1.
         12    1    3    3    0    0 -0.90133863550E+01  0.13629098792E+01  0.66625723811E+00  0.91401616851E+01  0.00000000000E+00 0. -1.
</event>
<event>
 7    1  0.5290964E-013  0.5052886E+02  0.7816164E-02  0.1300439E+00
        -11   -1    0    0    0    0  0.00000000000E+00  0.00000000000E+00  0.45593999997E+02  0.45594000000E+02  0.51100000000E-03 0.  1.
         11   -1    0    0    0    0 -0.00000000000E+00 -0.00000000000E+00 -0.45593999997E+02  0.45594000000E+02  0.51100000000E-03 0. -1.
    9900012    2    1    2    0    0 -0.33257529066E+02 -0.11855801261E+02  0.20162898607E+02  0.50528859044E+02  0.29999997549E+02 0.  0.
         12    1    1    2    0    0  0.33257529066E+02  0.11855801261E+02 -0.20162898607E+02  0.40659140956E+02  0.00000000000E+00 0. -1.
         11    1    3    3    0    0 -0.22219985080E+02 -0.95455623304E+01  0.17324622708E+02  0.29748748703E+02  0.51100000000E-03 0. -1.
        -11    1    3    3    0    0 -0.94216267420E+01  0.15088043732E+01  0.91553035456E+01  0.13223582131E+02  0.51100000000E-03 0.  1.
         12    1    3    3    0    0 -0.16159172442E+01 -0.38190433033E+01 -0.63170276470E+01  0.75565282098E+01  0.00000000000E+00 0. -1.
</event>
<event>
 7    1  0.5290964E-013  0.5052885E+02  0.7816164E-02  0.1300439E+00
        -11   -1    0    0    0    0  0.00000000000E+00  0.00000000000E+00  0.45593999997E+02  0.45594000000E+02  0.51100000000E-03 0. -1.
         11   -1    0    0    0    0 -0.00000000000E+00 -0.00000000000E+00 -0.45593999997E+02  0.45594000000E+02  0.51100000000E-03 0.  1.
    9900012    2    1    2    0    0 -0.20535163974E+02  0.26013508057E+02 -0.23553567933E+02  0.50528854372E+02  0.29999983349E+02 0.  0.
         12    1    1    2    0    0  0.20535163974E+02 -0.26013508057E+02  0.23553567933E+02  0.40659145628E+02  0.00000000000E+00 0. -1.
         11    1    3    3    0    0 -0.36045184327E+01  0.98336747426E+01 -0.40925733226E+01  0.11244681798E+02  0.51100000000E-03 0. -1.
        -11    1    3    3    0    0 -0.21497587568E+02  0.19029565718E+02 -0.16994351379E+02  0.33362832939E+02  0.51100000000E-03 0.  1.
         12    1    3    3    0    0  0.45669420266E+01 -0.28497324036E+01 -0.24666432307E+01  0.59213396351E+01  0.00000000000E+00 0. -1.
</event>
<event>
 7    1  0.5290964E-013  0.5052886E+02  0.7816164E-02  0.1300439E+00
        -11   -1    0    0    0    0  0.00000000000E+00  0.00000000000E+00  0.45593999997E+02  0.45594000000E+02  0.51100000000E-03 0.  1.
         11   -1    0    0    0    0 -0.00000000000E+00 -0.00000000000E+00 -0.45593999997E+02  0.45594000000E+02  0.51100000000E-03 0. -1.
    9900012    2    1    2    0    0 -0.10402631971E+01  0.82655185697E+01  0.39796538757E+02  0.50528862752E+02  0.30000008820E+02 0.  0.
         12    1    1    2    0    0  0.10402631971E+01 -0.82655185697E+01 -0.39796538757E+02  0.40659137248E+02  0.00000000000E+00 0. -1.
         11    1    3    3    0    0 -0.47298030017E+01  0.18713905901E+01  0.90515406155E+01  0.10382847728E+02  0.51100000000E-03 0. -1.
        -11    1    3    3    0    0 -0.30731149331E+00  0.14471256498E+02  0.26475475701E+02  0.30173871459E+02  0.51100000000E-03 0.  1.
        -12    1    3    3    0    0  0.39968512980E+01 -0.80771285184E+01  0.42695224407E+01  0.99721435645E+01  0.00000000000E+00 0.  1.
</event>
<event>
 7    1  0.5290964E-013  0.5052887E+02  0.7816164E-02  0.1300439E+00
        -11   -1    0    0    0    0  0.00000000000E+00  0.00000000000E+00  0.45593999997E+02  0.45594000000E+02  0.51100000000E-03 0.  1.
         11   -1    0    0    0    0 -0.00000000000E+00 -0.00000000000E+00 -0.45593999997E+02  0.45594000000E+02  0.51100000000E-03 0. -1.
    9900012    2    1    2    0    0  0.23704547285E+02 -0.59884855595E+00  0.33028780649E+02  0.50528873931E+02  0.30000042800E+02 0.  0.
         12    1    1    2    0    0 -0.23704547285E+02  0.59884855595E+00 -0.33028780649E+02  0.40659126069E+02  0.00000000000E+00 0. -1.
         11    1    3    3    0    0  0.29295576302E+01  0.30953290424E+01  0.68502661850E+00  0.43165531989E+01  0.51100000000E-03 0. -1.
        -11    1    3    3    0    0  0.12890554376E+02  0.80039448019E+01  0.59754929198E+01  0.16307545505E+02  0.51100000000E-03 0.  1.
        -12    1    3    3    0    0  0.78844352790E+01 -0.11698122400E+02  0.26368261110E+02  0.29904775226E+02  0.00000000000E+00 0.  1.
</event>
<event>
 7    1  0.5290964E-013  0.5052886E+02  0.7816164E-02  0.1300439E+00
        -11   -1    0    0    0    0  0.00000000000E+00  0.00000000000E+00  0.45593999997E+02  0.45594000000E+02  0.51100000000E-03 0.  1.
         11   -1    0    0    0    0 -0.00000000000E+00 -0.00000000000E+00 -0.45593999997E+02  0.45594000000E+02  0.51100000000E-03 0. -1.
    9900012    2    1    2    0    0 -0.65028000225E+01  0.55311346799E+01  0.39752813219E+02  0.50528855668E+02  0.29999987288E+02 0.  0.
         12    1    1    2    0    0  0.65028000225E+01 -0.55311346799E+01 -0.39752813219E+02  0.40659144332E+02  0.00000000000E+00 0. -1.
         11    1    3    3    0    0  0.26768221816E+01  0.34905004937E+00 -0.46129685438E+00  0.27386142441E+01  0.51100000000E-03 0. -1.
        -11    1    3    3    0    0 -0.88121933796E+01 -0.38130526464E+01  0.38777386304E+01  0.10355239243E+02  0.51100000000E-03 0.  1.
        -12    1    3    3    0    0 -0.36742882453E+00  0.89951372769E+01  0.36336371443E+02  0.37435002180E+02  0.00000000000E+00 0.  1.
</event>
<event>
 7    1  0.5290964E-013  0.5052885E+02  0.7816164E-02  0.1300439E+00
        -11   -1    0    0    0    0  0.00000000000E+00  0.00000000000E+00  0.45593999997E+02  0.45594000000E+02  0.51100000000E-03 0.  1.
         11   -1    0    0    0    0 -0.00000000000E+00 -0.00000000000E+00 -0.45593999997E+02  0.45594000000E+02  0.51100000000E-03 0. -1.
    9900012    2    1    2    0    0  0.19523030486E+01  0.52181628447E+01  0.40275626948E+02  0.50528845597E+02  0.29999956677E+02 0.  0.
         12    1    1    2    0    0 -0.19523030486E+01 -0.52181628447E+01 -0.40275626948E+02  0.40659154403E+02  0.00000000000E+00 0. -1.
         11    1    3    3    0    0 -0.79261789794E+01 -0.65685013326E+01  0.76212209161E+01  0.12808299320E+02  0.51100000000E-03 0. -1.
        -11    1    3    3    0    0 -0.46262005621E+00  0.29535356376E+01  0.81575768285E+00  0.30988467108E+01  0.51100000000E-03 0.  1.
        -12    1    3    3    0    0  0.10341102084E+02  0.88331285398E+01  0.31838648349E+02  0.34621699566E+02  0.00000000000E+00 0.  1.
</event>
<event>
 7    1  0.5290964E-013  0.5052885E+02  0.7816164E-02  0.1300439E+00
        -11   -1    0    0    0    0  0.00000000000E+00  0.00000000000E+00  0.45593999997E+02  0.45594000000E+02  0.51100000000E-03 0.  1.
         11   -1    0    0    0    0 -0.00000000000E+00 -0.00000000000E+00 -0.45593999997E+02  0.45594000000E+02  0.51100000000E-03 0. -1.
    9900012    2    1    2    0    0  0.16925395840E+02  0.36968763700E+02  0.87541109712E-01  0.50528853707E+02  0.29999981327E+02 0.  0.
         12    1    1    2    0    0 -0.16925395840E+02 -0.36968763700E+02 -0.87541109712E-01  0.40659146293E+02  0.00000000000E+00 0. -1.
         11    1    3    3    0    0  0.24053655794E+01  0.90494103146E+01 -0.83789321904E+01  0.12565194607E+02  0.51100000000E-03 0. -1.
        -11    1    3    3    0    0  0.13369089279E+02  0.10243374975E+02  0.10932649447E+02  0.20079394992E+02  0.51100000000E-03 0.  1.
         12    1    3    3    0    0  0.11509409819E+01  0.17675978410E+02 -0.24661761472E+01  0.17884264108E+02  0.00000000000E+00 0. -1.
</event>
<event>
 7    1  0.5290964E-013  0.5052888E+02  0.7816164E-02  0.1300439E+00
        -11   -1    0    0    0    0  0.00000000000E+00  0.00000000000E+00  0.45593999997E+02  0.45594000000E+02  0.51100000000E-03 0.  1.
         11   -1    0    0    0    0 -0.00000000000E+00 -0.00000000000E+00 -0.45593999997E+02  0.45594000000E+02  0.51100000000E-03 0. -1.
    9900012    2    1    2    0    0  0.32827496160E+01 -0.27643069621E+02  0.29635255340E+02  0.50528879225E+02  0.30000058894E+02 0.  0.
         12    1    1    2    0    0 -0.32827496160E+01  0.27643069621E+02 -0.29635255340E+02  0.40659120775E+02  0.00000000000E+00 0. -1.
         11    1    3    3    0    0  0.53088448844E+01 -0.15072369128E+01  0.15425386898E+01  0.57301852491E+01  0.51100000000E-03 0. -1.
        -11    1    3    3    0    0  0.70298183704E+01 -0.65212063829E+01  0.19150464805E+02  0.21416927453E+02  0.51100000000E-03 0.  1.
        -12    1    3    3    0    0 -0.90559136389E+01 -0.19614626325E+02  0.89422518453E+01  0.23381766524E+02  0.00000000000E+00 0.  1.
</event>
<event>
 7    1  0.5290964E-013  0.5052886E+02  0.7816164E-02  0.1300439E+00
        -11   -1    0    0    0    0  0.00000000000E+00  0.00000000000E+00  0.45593999997E+02  0.45594000000E+02  0.51100000000E-03 0.  1.
         11   -1    0    0    0    0 -0.00000000000E+00 -0.00000000000E+00 -0.45593999997E+02  0.45594000000E+02  0.51100000000E-03 0. -1.
    9900012    2    1    2    0    0 -0.39104850475E+02  0.11074880770E+02 -0.11502236683E+01  0.50528864136E+02  0.30000013027E+02 0.  0.
         12    1    1    2    0    0  0.39104850475E+02 -0.11074880770E+02  0.11502236683E+01  0.40659135864E+02  0.00000000000E+00 0. -1.
         11    1    3    3    0    0 -0.28076907794E+02  0.69284864193E+01 -0.72533239892E+01  0.29814885284E+02  0.51100000000E-03 0. -1.
        -11    1    3    3    0    0 -0.10692321983E+02  0.76635661036E+01 -0.56551012563E+00  0.13167224338E+02  0.51100000000E-03 0.  1.
         12    1    3    3    0    0 -0.33562069779E+00 -0.35171717533E+01  0.66686104465E+01  0.75467545132E+01  0.00000000000E+00 0. -1.
</event>
<event>
 7    1  0.5290964E-013  0.5052887E+02  0.7816164E-02  0.1300439E+00
        -11   -1    0    0    0    0  0.00000000000E+00  0.00000000000E+00  0.45593999997E+02  0.45594000000E+02  0.51100000000E-03 0. -1.
         11   -1    0    0    0    0 -0.00000000000E+00 -0.00000000000E+00 -0.45593999997E+02  0.45594000000E+02  0.51100000000E-03 0.  1.
    9900012    2    1    2    0    0  0.18863034449E+02  0.29180695690E+02 -0.21114875202E+02  0.50528867885E+02  0.30000024422E+02 0.  0.
         12    1    1    2    0    0 -0.18863034449E+02 -0.29180695690E+02  0.21114875202E+02  0.40659132115E+02  0.00000000000E+00 0. -1.
         11    1    3    3    0    0  0.38210266386E+01  0.67021326027E+01 -0.57577423253E+01  0.96265478206E+01  0.51100000000E-03 0. -1.
        -11    1    3    3    0    0  0.21107947007E+02  0.90433146975E+01 -0.11408991200E+02  0.25641607750E+02  0.51100000000E-03 0.  1.
         12    1    3    3    0    0 -0.60659391965E+01  0.13435248389E+02 -0.39481416776E+01  0.15260712314E+02  0.00000000000E+00 0. -1.
</event>
<event>
 7    1  0.5290964E-013  0.5052886E+02  0.7816164E-02  0.1300439E+00
        -11   -1    0    0    0    0  0.00000000000E+00  0.00000000000E+00  0.45593999997E+02  0.45594000000E+02  0.51100000000E-03 0. -1.
         11   -1    0    0    0    0 -0.00000000000E+00 -0.00000000000E+00 -0.45593999997E+02  0.45594000000E+02  0.51100000000E-03 0.  1.
    9900012    2    1    2    0    0  0.94909137309E+01 -0.22028516741E+02 -0.32830361122E+02  0.50528860749E+02  0.30000002733E+02 0.  0.
         12    1    1    2    0    0 -0.94909137309E+01  0.22028516741E+02  0.32830361122E+02  0.40659139251E+02  0.00000000000E+00 0. -1.
         11    1    3    3    0    0  0.87523119416E+01 -0.10334083678E-01 -0.13440793903E+02  0.16039264700E+02  0.51100000000E-03 0. -1.
        -11    1    3    3    0    0  0.81027584267E+01 -0.45557828163E+01 -0.86960140793E+01  0.12729120642E+02  0.51100000000E-03 0.  1.
         12    1    3    3    0    0 -0.73641566375E+01 -0.17462399841E+02 -0.10693553140E+02  0.21760475407E+02  0.00000000000E+00 0. -1.
</event>
<event>
 7    1  0.5290964E-013  0.5052886E+02  0.7816164E-02  0.1300439E+00
        -11   -1    0    0    0    0  0.00000000000E+00  0.00000000000E+00  0.45593999997E+02  0.45594000000E+02  0.51100000000E-03 0.  1.
         11   -1    0    0    0    0 -0.00000000000E+00 -0.00000000000E+00 -0.45593999997E+02  0.45594000000E+02  0.51100000000E-03 0. -1.
    9900012    2    1    2    0    0 -0.14849929339E+02 -0.19552815076E+02  0.32408833175E+02  0.50528862693E+02  0.30000008641E+02 0.  0.
         12    1    1    2    0    0  0.14849929339E+02  0.19552815076E+02 -0.32408833175E+02  0.40659137307E+02  0.00000000000E+00 0. -1.
         11    1    3    3    0    0 -0.95196311129E+01  0.38056994749E+01  0.11198900277E+02  0.15182954017E+02  0.51100000000E-03 0. -1.
        -11    1    3    3    0    0  0.23258556863E+01  0.85210011510E+00  0.38807458973E+01  0.46038970732E+01  0.51100000000E-03 0.  1.
         12    1    3    3    0    0 -0.76561539128E+01 -0.24210614666E+02  0.17329187001E+02  0.30742011602E+02  0.00000000000E+00 0. -1.
</event>
<event>
 7    1  0.5290964E-013  0.5052886E+02  0.7816164E-02  0.1300439E+00
        -11   -1    0    0    0    0  0.00000000000E+00  0.00000000000E+00  0.45593999997E+02  0.45594000000E+02  0.51100000000E-03 0.  1.
         11   -1    0    0    0    0 -0.00000000000E+00 -0.00000000000E+00 -0.45593999997E+02  0.45594000000E+02  0.51100000000E-03 0. -1.
    9900012    2    1    2    0    0  0.12128237759E+02 -0.29870899718E+02  0.24775007223E+02  0.50528858544E+02  0.29999996030E+02 0.  0.
         12    1    1    2    0    0 -0.12128237759E+02  0.29870899718E+02 -0.24775007223E+02  0.40659141456E+02  0.00000000000E+00 0. -1.
         11    1    3    3    0    0 -0.50954296113E+01 -0.25425528176E+01  0.81230583089E+01  0.99202849911E+01  0.51100000000E-03 0. -1.
        -11    1    3    3    0    0  0.75110631944E+01 -0.20238833746E+02  0.20383885817E+01  0.21683668739E+02  0.51100000000E-03 0.  1.
        -12    1    3    3    0    0  0.97126041754E+01 -0.70895131543E+01  0.14613560332E+02  0.18924904814E+02  0.00000000000E+00 0.  1.
</event>
<event>
 7    1  0.5290964E-013  0.5052886E+02  0.7816164E-02  0.1300439E+00
        -11   -1    0    0    0    0  0.00000000000E+00  0.00000000000E+00  0.45593999997E+02  0.45594000000E+02  0.51100000000E-03 0.  1.
         11   -1    0    0    0    0 -0.00000000000E+00 -0.00000000000E+00 -0.45593999997E+02  0.45594000000E+02  0.51100000000E-03 0. -1.
    9900012    2    1    2    0    0  0.14806571763E+02 -0.37291137028E+02  0.65804548224E+01  0.50528857684E+02  0.29999993417E+02 0.  0.
         12    1    1    2    0    0 -0.14806571763E+02  0.37291137028E+02 -0.65804548224E+01  0.40659142316E+02  0.00000000000E+00 0. -1.
         11    1    3    3    0    0  0.19629709893E+02 -0.28028513080E+02  0.78569465548E+01  0.35109182066E+02  0.51100000000E-03 0. -1.
        -11    1    3    3    0    0 -0.55268653132E+00 -0.53961711906E+01 -0.59134818501E+01  0.80245494436E+01  0.51100000000E-03 0.  1.
        -12    1    3    3    0    0 -0.42704515985E+01 -0.38664527573E+01  0.46369901177E+01  0.73951261741E+01  0.00000000000E+00 0.  1.
</event>
<event>
 7    1  0.5290964E-013  0.5052883E+02  0.7816164E-02  0.1300439E+00
        -11   -1    0    0    0    0  0.00000000000E+00  0.00000000000E+00  0.45593999997E+02  0.45594000000E+02  0.51100000000E-03 0.  1.
         11   -1    0    0    0    0 -0.00000000000E+00 -0.00000000000E+00 -0.45593999997E+02  0.45594000000E+02  0.51100000000E-03 0. -1.
    9900012    2    1    2    0    0 -0.38592340758E+02 -0.52034124524E+01  0.11692902395E+02  0.50528828430E+02  0.29999904496E+02 0.  0.
         12    1    1    2    0    0  0.38592340758E+02  0.52034124524E+01 -0.11692902395E+02  0.40659171570E+02  0.00000000000E+00 0. -1.
         11    1    3    3    0    0 -0.25928284786E+02 -0.46045574493E+01  0.14560132738E+02  0.30091117740E+02  0.51100000000E-03 0. -1.
        -11    1    3    3    0    0 -0.15528459226E+02 -0.18943296460E+01  0.72969213152E+00  0.15660586886E+02  0.51100000000E-03 0.  1.
         12    1    3    3    0    0  0.28644032540E+01  0.12954746429E+01 -0.35969224746E+01  0.47771238041E+01  0.00000000000E+00 0. -1.
</event>
<event>
 7    1  0.5290964E-013  0.5052874E+02  0.7816164E-02  0.1300439E+00
        -11   -1    0    0    0    0  0.00000000000E+00  0.00000000000E+00  0.45593999997E+02  0.45594000000E+02  0.51100000000E-03 0.  1.
         11   -1    0    0    0    0 -0.00000000000E+00 -0.00000000000E+00 -0.45593999997E+02  0.45594000000E+02  0.51100000000E-03 0. -1.
    9900012    2    1    2    0    0  0.21836296597E+02 -0.41646779510E+01  0.34044186438E+02  0.50528744944E+02  0.29999650731E+02 0.  0.
         12    1    1    2    0    0 -0.21836296597E+02  0.41646779510E+01 -0.34044186438E+02  0.40659255056E+02  0.00000000000E+00 0. -1.
         11    1    3    3    0    0 -0.13031383914E+01  0.12342016930E+01 -0.13932629593E+01  0.22721367523E+01  0.51100000000E-03 0. -1.
        -11    1    3    3    0    0  0.68577338938E+01  0.82668799829E+01  0.72766952743E+01  0.12973824154E+02  0.51100000000E-03 0.  1.
         12    1    3    3    0    0  0.16281701094E+02 -0.13665759627E+02  0.28160754123E+02  0.35282784038E+02  0.00000000000E+00 0. -1.
</event>
<event>
 7    1  0.5290964E-013  0.5052881E+02  0.7816164E-02  0.1300439E+00
        -11   -1    0    0    0    0  0.00000000000E+00  0.00000000000E+00  0.45593999997E+02  0.45594000000E+02  0.51100000000E-03 0.  1.
         11   -1    0    0    0    0 -0.00000000000E+00 -0.00000000000E+00 -0.45593999997E+02  0.45594000000E+02  0.51100000000E-03 0. -1.
    9900012    2    1    2    0    0  0.27040648880E+02 -0.17332992348E+02  0.24930704484E+02  0.50528814794E+02  0.29999863047E+02 0.  0.
         12    1    1    2    0    0 -0.27040648880E+02  0.17332992348E+02 -0.24930704484E+02  0.40659185206E+02  0.00000000000E+00 0. -1.
         11    1    3    3    0    0 -0.39473806962E+01  0.10130600972E+01  0.19168721515E+01  0.45036101327E+01  0.51100000000E-03 0. -1.
        -11    1    3    3    0    0  0.42861521606E+01 -0.11467091005E+02  0.80674151819E+01  0.14661120845E+02  0.51100000000E-03 0.  1.
         12    1    3    3    0    0  0.26701877415E+02 -0.68789614402E+01  0.14946417150E+02  0.31364083816E+02  0.00000000000E+00 0. -1.
</event>
<event>
 7    1  0.5290964E-013  0.5052887E+02  0.7816164E-02  0.1300439E+00
        -11   -1    0    0    0    0  0.00000000000E+00  0.00000000000E+00  0.45593999997E+02  0.45594000000E+02  0.51100000000E-03 0. -1.
         11   -1    0    0    0    0 -0.00000000000E+00 -0.00000000000E+00 -0.45593999997E+02  0.45594000000E+02  0.51100000000E-03 0.  1.
    9900012    2    1    2    0    0 -0.22736045409E+02 -0.33391722681E+02 -0.46075682313E+01  0.50528873233E+02  0.30000040679E+02 0.  0.
         12    1    1    2    0    0  0.22736045409E+02  0.33391722681E+02  0.46075682313E+01  0.40659126767E+02  0.00000000000E+00 0. -1.
         11    1    3    3    0    0  0.21781234629E+01  0.17084701958E+01 -0.28259819789E+01  0.39559153980E+01  0.51100000000E-03 0. -1.
        -11    1    3    3    0    0 -0.59680320927E+01 -0.33732733102E+01 -0.63422518176E+01  0.93391936624E+01  0.51100000000E-03 0.  1.
         12    1    3    3    0    0 -0.18946136779E+02 -0.31726919567E+02  0.45606655652E+01  0.37233764173E+02  0.00000000000E+00 0. -1.
</event>
<event>
 7    1  0.5290964E-013  0.5052886E+02  0.7816164E-02  0.1300439E+00
        -11   -1    0    0    0    0  0.00000000000E+00  0.00000000000E+00  0.45593999997E+02  0.45594000000E+02  0.51100000000E-03 0.  1.
         11   -1    0    0    0    0 -0.00000000000E+00 -0.00000000000E+00 -0.45593999997E+02  0.45594000000E+02  0.51100000000E-03 0. -1.
    9900012    2    1    2    0    0 -0.35710564056E+02  0.18787035945E+02  0.49968918409E+01  0.50528855483E+02  0.29999986726E+02 0.  0.
         12    1    1    2    0    0  0.35710564056E+02 -0.18787035945E+02 -0.49968918409E+01  0.40659144517E+02  0.00000000000E+00 0. -1.
         11    1    3    3    0    0 -0.58399770311E+01 -0.32437736772E+01  0.13611274262E+01  0.68176291718E+01  0.51100000000E-03 0. -1.
        -11    1    3    3    0    0 -0.33413978727E+02  0.17235466752E+02  0.31238269738E+01  0.37726828435E+02  0.51100000000E-03 0.  1.
         12    1    3    3    0    0  0.35433917025E+01  0.47953428698E+01  0.51193744099E+00  0.59843978761E+01  0.00000000000E+00 0. -1.
</event>
<event>
 7    1  0.5290964E-013  0.5052887E+02  0.7816164E-02  0.1300439E+00
        -11   -1    0    0    0    0  0.00000000000E+00  0.00000000000E+00  0.45593999997E+02  0.45594000000E+02  0.51100000000E-03 0. -1.
         11   -1    0    0    0    0 -0.00000000000E+00 -0.00000000000E+00 -0.45593999997E+02  0.45594000000E+02  0.51100000000E-03 0.  1.
    9900012    2    1    2    0    0 -0.26617722716E+02 -0.24651339884E+01 -0.30636331108E+02  0.50528870251E+02  0.30000031615E+02 0.  0.
         12    1    1    2    0    0  0.26617722716E+02  0.24651339884E+01  0.30636331108E+02  0.40659129749E+02  0.00000000000E+00 0. -1.
         11    1    3    3    0    0  0.28201460500E+01  0.12376527675E+01 -0.51308995769E+01  0.59842408746E+01  0.51100000000E-03 0. -1.
        -11    1    3    3    0    0  0.33091543494E+01  0.60395102922E+00 -0.13473104270E+01  0.36236038693E+01  0.51100000000E-03 0.  1.
        -12    1    3    3    0    0 -0.32747023115E+02 -0.43067377851E+01 -0.24158121104E+02  0.40921025507E+02  0.00000000000E+00 0.  1.
</event>
<event>
 7    1  0.5290964E-013  0.5052887E+02  0.7816164E-02  0.1300439E+00
        -11   -1    0    0    0    0  0.00000000000E+00  0.00000000000E+00  0.45593999997E+02  0.45594000000E+02  0.51100000000E-03 0. -1.
         11   -1    0    0    0    0 -0.00000000000E+00 -0.00000000000E+00 -0.45593999997E+02  0.45594000000E+02  0.51100000000E-03 0.  1.
    9900012    2    1    2    0    0  0.31966629466E+02 -0.24576712157E+02  0.52234436544E+01  0.50528873799E+02  0.30000042399E+02 0.  0.
         12    1    1    2    0    0 -0.31966629466E+02  0.24576712157E+02 -0.52234436544E+01  0.40659126201E+02  0.00000000000E+00 0. -1.
         11    1    3    3    0    0  0.25985664413E+01 -0.56172817850E+01  0.10954234098E+02  0.12581798247E+02  0.51100000000E-03 0. -1.
        -11    1    3    3    0    0  0.53550155765E+01 -0.75091731092E+01  0.33861449542E+01  0.98249605862E+01  0.51100000000E-03 0.  1.
         12    1    3    3    0    0  0.24013047448E+02 -0.11450257263E+02 -0.91169353973E+01  0.28122114966E+02  0.00000000000E+00 0. -1.
</event>
<event>
 7    1  0.5290964E-013  0.5052886E+02  0.7816164E-02  0.1300439E+00
        -11   -1    0    0    0    0  0.00000000000E+00  0.00000000000E+00  0.45593999997E+02  0.45594000000E+02  0.51100000000E-03 0. -1.
         11   -1    0    0    0    0 -0.00000000000E+00 -0.00000000000E+00 -0.45593999997E+02  0.45594000000E+02  0.51100000000E-03 0.  1.
    9900012    2    1    2    0    0  0.27434103871E+02 -0.26046853336E+01 -0.29895671649E+02  0.50528860508E+02  0.30000001999E+02 0.  0.
         12    1    1    2    0    0 -0.27434103871E+02  0.26046853336E+01  0.29895671649E+02  0.40659139492E+02  0.00000000000E+00 0. -1.
         11    1    3    3    0    0 -0.89073824100E+00  0.41857542551E+01 -0.14396664963E+02  0.15019251500E+02  0.51100000000E-03 0. -1.
        -11    1    3    3    0    0  0.27777535093E+01  0.32685507968E+01 -0.78959266718E+00  0.43615130071E+01  0.51100000000E-03 0.  1.
        -12    1    3    3    0    0  0.25547088603E+02 -0.10058990385E+02 -0.14709414019E+02  0.31148096000E+02  0.00000000000E+00 0.  1.
</event>
<event>
 7    1  0.5290964E-013  0.5052886E+02  0.7816164E-02  0.1300439E+00
        -11   -1    0    0    0    0  0.00000000000E+00  0.00000000000E+00  0.45593999997E+02  0.45594000000E+02  0.51100000000E-03 0. -1.
         11   -1    0    0    0    0 -0.00000000000E+00 -0.00000000000E+00 -0.45593999997E+02  0.45594000000E+02  0.51100000000E-03 0.  1.
    9900012    2    1    2    0    0  0.71982546853E+01  0.39519796357E+02 -0.62878282570E+01  0.50528856394E+02  0.29999989495E+02 0.  0.
         12    1    1    2    0    0 -0.71982546853E+01 -0.39519796357E+02  0.62878282570E+01  0.40659143606E+02  0.00000000000E+00 0. -1.
         11    1    3    3    0    0  0.11162045445E+02  0.17012146532E+02 -0.74935425164E+01  0.21683117115E+02  0.51100000000E-03 0. -1.
        -11    1    3    3    0    0  0.10237160598E+01  0.14524292210E+01 -0.58283844740E+01  0.60932430651E+01  0.51100000000E-03 0.  1.
        -12    1    3    3    0    0 -0.49875068191E+01  0.21055220604E+02  0.70340987334E+01  0.22752496213E+02  0.00000000000E+00 0.  1.
</event>
<event>
 7    1  0.5290964E-013  0.5052885E+02  0.7816164E-02  0.1300439E+00
        -11   -1    0    0    0    0  0.00000000000E+00  0.00000000000E+00  0.45593999997E+02  0.45594000000E+02  0.51100000000E-03 0.  1.
         11   -1    0    0    0    0 -0.00000000000E+00 -0.00000000000E+00 -0.45593999997E+02  0.45594000000E+02  0.51100000000E-03 0. -1.
    9900012    2    1    2    0    0  0.14242127494E+01 -0.35839932174E+02 -0.19147769312E+02  0.50528853552E+02  0.29999980858E+02 0.  0.
         12    1    1    2    0    0 -0.14242127494E+01  0.35839932174E+02  0.19147769312E+02  0.40659146448E+02  0.00000000000E+00 0. -1.
         11    1    3    3    0    0  0.47707549334E+01 -0.10829410985E+01 -0.80189519264E+01  0.93934261224E+01  0.51100000000E-03 0. -1.
        -11    1    3    3    0    0 -0.31094416476E+01 -0.32355645703E+02 -0.15600236724E+02  0.36054456345E+02  0.51100000000E-03 0.  1.
         12    1    3    3    0    0 -0.23710053644E+00 -0.24013453725E+01  0.44714193386E+01  0.50809710847E+01  0.00000000000E+00 0. -1.
</event>
<event>
 7    1  0.5290964E-013  0.5052885E+02  0.7816164E-02  0.1300439E+00
        -11   -1    0    0    0    0  0.00000000000E+00  0.00000000000E+00  0.45593999997E+02  0.45594000000E+02  0.51100000000E-03 0.  1.
         11   -1    0    0    0    0 -0.00000000000E+00 -0.00000000000E+00 -0.45593999997E+02  0.45594000000E+02  0.51100000000E-03 0. -1.
    9900012    2    1    2    0    0 -0.98032990231E+01  0.26443697148E+02  0.29288091282E+02  0.50528854884E+02  0.29999984906E+02 0.  0.
         12    1    1    2    0    0  0.98032990231E+01 -0.26443697148E+02 -0.29288091282E+02  0.40659145116E+02  0.00000000000E+00 0. -1.
         11    1    3    3    0    0 -0.30337330445E+01  0.11918097059E+02  0.25422966165E+02  0.28241313400E+02  0.51100000000E-03 0.  1.
        -11    1    3    3    0    0  0.44700928246E+01  0.61675508128E+01  0.32090941384E+01  0.82655125879E+01  0.51100000000E-03 0. -1.
        -12    1    3    3    0    0 -0.11239658803E+02  0.83580492767E+01  0.65603097909E+00  0.14022028896E+02  0.00000000000E+00 0.  1.
</event>
<event>
 7    1  0.5290964E-013  0.5052885E+02  0.7816164E-02  0.1300439E+00
        -11   -1    0    0    0    0  0.00000000000E+00  0.00000000000E+00  0.45593999997E+02  0.45594000000E+02  0.51100000000E-03 0.  1.
         11   -1    0    0    0    0 -0.00000000000E+00 -0.00000000000E+00 -0.45593999997E+02  0.45594000000E+02  0.51100000000E-03 0. -1.
    9900012    2    1    2    0    0 -0.16884169144E+02 -0.20533146906E+02  0.30764931160E+02  0.50528852458E+02  0.29999977531E+02 0.  0.
         12    1    1    2    0    0  0.16884169144E+02  0.20533146906E+02 -0.30764931160E+02  0.40659147542E+02  0.00000000000E+00 0. -1.
         11    1    3    3    0    0 -0.84930341337E+01  0.32017958877E+01  0.11126713124E+02  0.14359208575E+02  0.51100000000E-03 0.  1.
        -11    1    3    3    0    0  0.39267433978E+01 -0.28764703350E+01 -0.18101945229E+00  0.48709509958E+01  0.51100000000E-03 0. -1.
        -12    1    3    3    0    0 -0.12317878408E+02 -0.20858472459E+02  0.19819237489E+02  0.31298692887E+02  0.00000000000E+00 0.  1.
</event>
<event>
 7    1  0.5290964E-013  0.5052886E+02  0.7816164E-02  0.1300439E+00
        -11   -1    0    0    0    0  0.00000000000E+00  0.00000000000E+00  0.45593999997E+02  0.45594000000E+02  0.51100000000E-03 0.  1.
         11   -1    0    0    0    0 -0.00000000000E+00 -0.00000000000E+00 -0.45593999997E+02  0.45594000000E+02  0.51100000000E-03 0. -1.
    9900012    2    1    2    0    0 -0.23508804821E+02 -0.10795165937E+02  0.31368236936E+02  0.50528858344E+02  0.29999995423E+02 0.  0.
         12    1    1    2    0    0  0.23508804821E+02  0.10795165937E+02 -0.31368236936E+02  0.40659141656E+02  0.00000000000E+00 0. -1.
         11    1    3    3    0    0 -0.23574017639E+02 -0.82195914484E+01  0.22851561861E+02  0.33845086364E+02  0.51100000000E-03 0. -1.
        -11    1    3    3    0    0 -0.60231559030E+01 -0.19679903222E+01  0.84536614396E+01  0.10564837194E+02  0.51100000000E-03 0.  1.
         12    1    3    3    0    0  0.60883687211E+01 -0.60758416616E+00  0.63013635416E-01  0.61189347864E+01  0.00000000000E+00 0. -1.
</event>
<event>
 7    1  0.5290964E-013  0.5052886E+02  0.7816164E-02  0.1300439E+00
        -11   -1    0    0    0    0  0.00000000000E+00  0.00000000000E+00  0.45593999997E+02  0.45594000000E+02  0.51100000000E-03 0. -1.
         11   -1    0    0    0    0 -0.00000000000E+00 -0.00000000000E+00 -0.45593999997E+02  0.45594000000E+02  0.51100000000E-03 0.  1.
    9900012    2    1    2    0    0  0.17851756569E+02 -0.20000914369E+02 -0.30568669206E+02  0.50528864185E+02  0.30000013178E+02 0.  0.
         12    1    1    2    0    0 -0.17851756569E+02  0.20000914369E+02  0.30568669206E+02  0.40659135815E+02  0.00000000000E+00 0. -1.
         11    1    3    3    0    0  0.12493912559E+02 -0.86511446200E+01 -0.18459251876E+02  0.23909917072E+02  0.51100000000E-03 0. -1.
        -11    1    3    3    0    0  0.64631349198E+01 -0.24538270931E+01 -0.15549606588E+02  0.17017157392E+02  0.51100000000E-03 0.  1.
         12    1    3    3    0    0 -0.11052909103E+01 -0.88959426557E+01  0.34401892584E+01  0.96017897219E+01  0.00000000000E+00 0. -1.
</event>
<event>
 7    1  0.5290964E-013  0.5052886E+02  0.7816164E-02  0.1300439E+00
        -11   -1    0    0    0    0  0.00000000000E+00  0.00000000000E+00  0.45593999997E+02  0.45594000000E+02  0.51100000000E-03 0. -1.
         11   -1    0    0    0    0 -0.00000000000E+00 -0.00000000000E+00 -0.45593999997E+02  0.45594000000E+02  0.51100000000E-03 0.  1.
    9900012    2    1    2    0    0 -0.12137835009E+02 -0.77642233285E+01 -0.38020457718E+02  0.50528863171E+02  0.30000010095E+02 0.  0.
         12    1    1    2    0    0  0.12137835009E+02  0.77642233285E+01  0.38020457718E+02  0.40659136829E+02  0.00000000000E+00 0. -1.
         11    1    3    3    0    0  0.28024526063E+01 -0.12812427281E+01  0.60300967586E+00  0.31398956143E+01  0.51100000000E-03 0.  1.
        -11    1    3    3    0    0  0.28612948791E+01  0.35197056765E+01 -0.10969944463E+01  0.46667690655E+01  0.51100000000E-03 0. -1.
        -12    1    3    3    0    0 -0.17801582494E+02 -0.10002686277E+02 -0.37526472947E+02  0.42722198491E+02  0.00000000000E+00 0.  1.
</event>
<event>
 7    1  0.5290964E-013  0.5052886E+02  0.7816164E-02  0.1300439E+00
        -11   -1    0    0    0    0  0.00000000000E+00  0.00000000000E+00  0.45593999997E+02  0.45594000000E+02  0.51100000000E-03 0.  1.
         11   -1    0    0    0    0 -0.00000000000E+00 -0.00000000000E+00 -0.45593999997E+02  0.45594000000E+02  0.51100000000E-03 0. -1.
    9900012    2    1    2    0    0 -0.50345893662E+01  0.45320767918E+01  0.40090883280E+02  0.50528859179E+02  0.29999997961E+02 0.  0.
         12    1    1    2    0    0  0.50345893662E+01 -0.45320767918E+01 -0.40090883280E+02  0.40659140821E+02  0.00000000000E+00 0. -1.
         11    1    3    3    0    0 -0.12408744963E+02  0.36860296325E+01  0.15236030473E+02  0.19992508368E+02  0.51100000000E-03 0. -1.
        -11    1    3    3    0    0 -0.31080638323E+01  0.13734591303E+01  0.17234273653E+02  0.17566064994E+02  0.51100000000E-03 0.  1.
         12    1    3    3    0    0  0.10482219429E+02 -0.52741197102E+00  0.76205791538E+01  0.12970285817E+02  0.00000000000E+00 0. -1.
</event>
<event>
 7    1  0.5290964E-013  0.5052886E+02  0.7816164E-02  0.1300439E+00
        -11   -1    0    0    0    0  0.00000000000E+00  0.00000000000E+00  0.45593999997E+02  0.45594000000E+02  0.51100000000E-03 0. -1.
         11   -1    0    0    0    0 -0.00000000000E+00 -0.00000000000E+00 -0.45593999997E+02  0.45594000000E+02  0.51100000000E-03 0.  1.
    9900012    2    1    2    0    0 -0.87713568154E+01  0.35910229171E+02 -0.16931761129E+02  0.50528858415E+02  0.29999995637E+02 0.  0.
         12    1    1    2    0    0  0.87713568154E+01 -0.35910229171E+02  0.16931761129E+02  0.40659141585E+02  0.00000000000E+00 0. -1.
         11    1    3    3    0    0 -0.88886971492E+00  0.14677573170E+01  0.40773624593E+01  0.44237185486E+01  0.51100000000E-03 0. -1.
        -11    1    3    3    0    0  0.13011375781E+01  0.30248635845E+02 -0.11979753915E+02  0.32560519554E+02  0.51100000000E-03 0.  1.
        -12    1    3    3    0    0 -0.91836246786E+01  0.41938360093E+01 -0.90293696736E+01  0.13544620313E+02  0.00000000000E+00 0.  1.
</event>
<event>
 7    1  0.5290964E-013  0.5052885E+02  0.7816164E-02  0.1300439E+00
        -11   -1    0    0    0    0  0.00000000000E+00  0.00000000000E+00  0.45593999997E+02  0.45594000000E+02  0.51100000000E-03 0.  1.
         11   -1    0    0    0    0 -0.00000000000E+00 -0.00000000000E+00 -0.45593999997E+02  0.45594000000E+02  0.51100000000E-03 0. -1.
    9900012    2    1    2    0    0 -0.65514574444E+01  0.37704848029E+02  0.13732771493E+02  0.50528853766E+02  0.29999981509E+02 0.  0.
         12    1    1    2    0    0  0.65514574444E+01 -0.37704848029E+02 -0.13732771493E+02  0.40659146234E+02  0.00000000000E+00 0. -1.
         11    1    3    3    0    0 -0.50404375687E+01 -0.43024837562E+00  0.32275452044E+01  0.60006810327E+01  0.51100000000E-03 0. -1.
        -11    1    3    3    0    0  0.68102730846E+01  0.79237439320E+01  0.78710701509E+01  0.13081256934E+02  0.51100000000E-03 0.  1.
        -12    1    3    3    0    0 -0.83212929602E+01  0.30211352473E+02  0.26341561378E+01  0.31446915800E+02  0.00000000000E+00 0.  1.
</event>
<event>
 7    1  0.5290964E-013  0.5052885E+02  0.7816164E-02  0.1300439E+00
        -11   -1    0    0    0    0  0.00000000000E+00  0.00000000000E+00  0.45593999997E+02  0.45594000000E+02  0.51100000000E-03 0.  1.
         11   -1    0    0    0    0 -0.00000000000E+00 -0.00000000000E+00 -0.45593999997E+02  0.45594000000E+02  0.51100000000E-03 0. -1.
    9900012    2    1    2    0    0 -0.60406036176E+01  0.19392487850E+02  0.35222279039E+02  0.50528850749E+02  0.29999972338E+02 0.  0.
         12    1    1    2    0    0  0.60406036176E+01 -0.19392487850E+02 -0.35222279039E+02  0.40659149251E+02  0.00000000000E+00 0. -1.
         11    1    3    3    0    0 -0.12637178805E+01  0.10755337834E+02  0.70171783486E+01  0.12904071724E+02  0.51100000000E-03 0. -1.
        -11    1    3    3    0    0 -0.39592566703E+01  0.16509204202E+02  0.18736376136E+02  0.25284013284E+02  0.51100000000E-03 0.  1.
        -12    1    3    3    0    0 -0.81762906682E+00 -0.78720541866E+01  0.94687245544E+01  0.12340765742E+02  0.00000000000E+00 0.  1.
</event>
<event>
 7    1  0.5290964E-013  0.5052884E+02  0.7816164E-02  0.1300439E+00
        -11   -1    0    0    0    0  0.00000000000E+00  0.00000000000E+00  0.45593999997E+02  0.45594000000E+02  0.51100000000E-03 0.  1.
         11   -1    0    0    0    0 -0.00000000000E+00 -0.00000000000E+00 -0.45593999997E+02  0.45594000000E+02  0.51100000000E-03 0. -1.
    9900012    2    1    2    0    0  0.78739987857E+01 -0.24841372071E+02  0.31210159250E+02  0.50528835429E+02  0.29999925769E+02 0.  0.
         12    1    1    2    0    0 -0.78739987857E+01  0.24841372071E+02 -0.31210159250E+02  0.40659164571E+02  0.00000000000E+00 0. -1.
         11    1    3    3    0    0  0.64666389916E+01  0.88855419019E+00  0.32581776590E+01  0.72953869202E+01  0.51100000000E-03 0. -1.
        -11    1    3    3    0    0  0.53974043542E+01 -0.23114747513E+01 -0.81243197222E+00  0.59274729235E+01  0.51100000000E-03 0.  1.
        -12    1    3    3    0    0 -0.39900445601E+01 -0.23418451510E+02  0.28764413563E+02  0.37305975585E+02  0.00000000000E+00 0.  1.
</event>
<event>
 7    1  0.5290964E-013  0.5052886E+02  0.7816164E-02  0.1300439E+00
        -11   -1    0    0    0    0  0.00000000000E+00  0.00000000000E+00  0.45593999997E+02  0.45594000000E+02  0.51100000000E-03 0. -1.
         11   -1    0    0    0    0 -0.00000000000E+00 -0.00000000000E+00 -0.45593999997E+02  0.45594000000E+02  0.51100000000E-03 0.  1.
    9900012    2    1    2    0    0 -0.36977669091E+02  0.26359094920E+01 -0.16699382457E+02  0.50528863207E+02  0.30000010205E+02 0.  0.
         12    1    1    2    0    0  0.36977669091E+02 -0.26359094920E+01  0.16699382457E+02  0.40659136793E+02  0.00000000000E+00 0. -1.
         11    1    3    3    0    0 -0.18678447288E+02  0.32808301450E+01  0.51883612449E+01  0.19661315627E+02  0.51100000000E-03 0. -1.
        -11    1    3    3    0    0 -0.10240944867E+02 -0.46499899804E+01 -0.63603064971E+01  0.12921023859E+02  0.51100000000E-03 0.  1.
        -12    1    3    3    0    0 -0.80582769369E+01  0.40050693274E+01 -0.15527437205E+02  0.17946523721E+02  0.00000000000E+00 0.  1.
</event>
<event>
 7    1  0.5290964E-013  0.5052878E+02  0.7816164E-02  0.1300439E+00
        -11   -1    0    0    0    0  0.00000000000E+00  0.00000000000E+00  0.45593999997E+02  0.45594000000E+02  0.51100000000E-03 0.  1.
         11   -1    0    0    0    0 -0.00000000000E+00 -0.00000000000E+00 -0.45593999997E+02  0.45594000000E+02  0.51100000000E-03 0. -1.
    9900012    2    1    2    0    0  0.37046476753E+01  0.46568434028E+01  0.40221407253E+02  0.50528779567E+02  0.29999755969E+02 0.  0.
         12    1    1    2    0    0 -0.37046476753E+01 -0.46568434028E+01 -0.40221407253E+02  0.40659220433E+02  0.00000000000E+00 0. -1.
         11    1    3    3    0    0  0.59735449154E+01  0.86806620906E-01  0.24517967076E+02  0.25235322150E+02  0.51100000000E-03 0. -1.
        -11    1    3    3    0    0 -0.17698886266E+01  0.57669759856E+01  0.19955857284E+02  0.20847703902E+02  0.51100000000E-03 0.  1.
         12    1    3    3    0    0 -0.49900861359E+00 -0.11969392037E+01 -0.42524171074E+01  0.44457535142E+01  0.00000000000E+00 0. -1.
</event>
<event>
 7    1  0.5290964E-013  0.5052885E+02  0.7816164E-02  0.1300439E+00
        -11   -1    0    0    0    0  0.00000000000E+00  0.00000000000E+00  0.45593999997E+02  0.45594000000E+02  0.51100000000E-03 0.  1.
         11   -1    0    0    0    0 -0.00000000000E+00 -0.00000000000E+00 -0.45593999997E+02  0.45594000000E+02  0.51100000000E-03 0. -1.
    9900012    2    1    2    0    0 -0.17610274923E+02  0.29028852689E+01  0.36532423731E+02  0.50528849623E+02  0.29999968913E+02 0.  0.
         12    1    1    2    0    0  0.17610274923E+02 -0.29028852689E+01 -0.36532423731E+02  0.40659150377E+02  0.00000000000E+00 0. -1.
         11    1    3    3    0    0 -0.46680136576E+01 -0.16922479244E+01  0.20152437211E+02  0.20755114559E+02  0.51100000000E-03 0. -1.
        -11    1    3    3    0    0 -0.99274517773E+01  0.67536373344E+00  0.20853267011E+02  0.23105608849E+02  0.51100000000E-03 0.  1.
         12    1    3    3    0    0 -0.30148094883E+01  0.39197694599E+01 -0.44732804911E+01  0.66681262152E+01  0.00000000000E+00 0. -1.
</event>
<event>
 7    1  0.5290964E-013  0.5052885E+02  0.7816164E-02  0.1300439E+00
        -11   -1    0    0    0    0  0.00000000000E+00  0.00000000000E+00  0.45593999997E+02  0.45594000000E+02  0.51100000000E-03 0.  1.
         11   -1    0    0    0    0 -0.00000000000E+00 -0.00000000000E+00 -0.45593999997E+02  0.45594000000E+02  0.51100000000E-03 0. -1.
    9900012    2    1    2    0    0  0.89667302503E+01 -0.40136842896E+01  0.39454460921E+02  0.50528850974E+02  0.29999973021E+02 0.  0.
         12    1    1    2    0    0 -0.89667302503E+01  0.40136842896E+01 -0.39454460921E+02  0.40659149026E+02  0.00000000000E+00 0. -1.
         11    1    3    3    0    0 -0.50873902756E+01 -0.53208280852E+00  0.23770597079E+01  0.56404844692E+01  0.51100000000E-03 0. -1.
        -11    1    3    3    0    0  0.18682865911E+01  0.46919251767E+01  0.26045762248E+02  0.26530857280E+02  0.51100000000E-03 0.  1.
        -12    1    3    3    0    0  0.12185833935E+02 -0.81735266578E+01  0.11031638964E+02  0.18357509225E+02  0.00000000000E+00 0.  1.
</event>
<event>
 7    1  0.5290964E-013  0.5052886E+02  0.7816164E-02  0.1300439E+00
        -11   -1    0    0    0    0  0.00000000000E+00  0.00000000000E+00  0.45593999997E+02  0.45594000000E+02  0.51100000000E-03 0. -1.
         11   -1    0    0    0    0 -0.00000000000E+00 -0.00000000000E+00 -0.45593999997E+02  0.45594000000E+02  0.51100000000E-03 0.  1.
    9900012    2    1    2    0    0 -0.20023098577E+02 -0.32868293170E+02 -0.13111691863E+02  0.50528860362E+02  0.30000001557E+02 0.  0.
         12    1    1    2    0    0  0.20023098577E+02  0.32868293170E+02  0.13111691863E+02  0.40659139638E+02  0.00000000000E+00 0. -1.
         11    1    3    3    0    0  0.16095381582E+00 -0.13324126684E+02  0.87199699850E+00  0.13353600153E+02  0.51100000000E-03 0. -1.
        -11    1    3    3    0    0 -0.32354191200E+01 -0.10959578564E+02 -0.14134517699E+02  0.18175942617E+02  0.51100000000E-03 0.  1.
        -12    1    3    3    0    0 -0.16948633273E+02 -0.85845879231E+01  0.15082883795E+00  0.18999317592E+02  0.00000000000E+00 0.  1.
</event>
<event>
 7    1  0.5290964E-013  0.5052886E+02  0.7816164E-02  0.1300439E+00
        -11   -1    0    0    0    0  0.00000000000E+00  0.00000000000E+00  0.45593999997E+02  0.45594000000E+02  0.51100000000E-03 0. -1.
         11   -1    0    0    0    0 -0.00000000000E+00 -0.00000000000E+00 -0.45593999997E+02  0.45594000000E+02  0.51100000000E-03 0.  1.
    9900012    2    1    2    0    0 -0.36226079484E+02  0.73551606456E+01  0.16933358032E+02  0.50528857890E+02  0.29999994042E+02 0.  0.
         12    1    1    2    0    0  0.36226079484E+02 -0.73551606456E+01 -0.16933358032E+02  0.40659142110E+02  0.00000000000E+00 0. -1.
         11    1    3    3    0    0 -0.96215238251E+00 -0.21751215681E+01 -0.37376233588E+01  0.44302053763E+01  0.51100000000E-03 0. -1.
        -11    1    3    3    0    0 -0.27051900934E+02  0.30068949328E+01  0.56825740013E+01  0.27805366547E+02  0.51100000000E-03 0.  1.
        -12    1    3    3    0    0 -0.82120261677E+01  0.65233872809E+01  0.14988407389E+02  0.18293285967E+02  0.00000000000E+00 0.  1.
</event>
<event>
 7    1  0.5290964E-013  0.5052883E+02  0.7816164E-02  0.1300439E+00
        -11   -1    0    0    0    0  0.00000000000E+00  0.00000000000E+00  0.45593999997E+02  0.45594000000E+02  0.51100000000E-03 0. -1.
         11   -1    0    0    0    0 -0.00000000000E+00 -0.00000000000E+00 -0.45593999997E+02  0.45594000000E+02  0.51100000000E-03 0.  1.
    9900012    2    1    2    0    0 -0.34104544231E+02 -0.21100408785E+02 -0.66948496362E+01  0.50528828836E+02  0.29999905731E+02 0.  0.
         12    1    1    2    0    0  0.34104544231E+02  0.21100408785E+02  0.66948496362E+01  0.40659171164E+02  0.00000000000E+00 0. -1.
         11    1    3    3    0    0  0.44276004089E+01 -0.15758869445E+01 -0.35577013159E+01  0.58944299094E+01  0.51100000000E-03 0. -1.
        -11    1    3    3    0    0  0.65667559059E-01 -0.22239730274E+01 -0.82047152455E-01  0.22264546371E+01  0.51100000000E-03 0.  1.
        -12    1    3    3    0    0 -0.38597812199E+02 -0.17300548813E+02 -0.30551011678E+01  0.42407944290E+02  0.00000000000E+00 0.  1.
</event>
<event>
 7    1  0.5290964E-013  0.5052886E+02  0.7816164E-02  0.1300439E+00
        -11   -1    0    0    0    0  0.00000000000E+00  0.00000000000E+00  0.45593999997E+02  0.45594000000E+02  0.51100000000E-03 0. -1.
         11   -1    0    0    0    0 -0.00000000000E+00 -0.00000000000E+00 -0.45593999997E+02  0.45594000000E+02  0.51100000000E-03 0.  1.
    9900012    2    1    2    0    0  0.21517411767E+02  0.33810339684E+02 -0.68576756985E+01  0.50528858412E+02  0.29999995629E+02 0.  0.
         12    1    1    2    0    0 -0.21517411767E+02 -0.33810339684E+02  0.68576756985E+01  0.40659141588E+02  0.00000000000E+00 0. -1.
         11    1    3    3    0    0  0.91640370392E+01  0.73884021260E+01  0.72266988973E+01  0.13812792551E+02  0.51100000000E-03 0. -1.
        -11    1    3    3    0    0  0.52139920507E+01  0.42629951081E+01  0.34535208374E+01  0.75687282176E+01  0.51100000000E-03 0.  1.
        -12    1    3    3    0    0  0.71393826771E+01  0.22158942450E+02 -0.17537895433E+02  0.29147337644E+02  0.00000000000E+00 0.  1.
</event>
<event>
 7    1  0.5290964E-013  0.5052889E+02  0.7816164E-02  0.1300439E+00
        -11   -1    0    0    0    0  0.00000000000E+00  0.00000000000E+00  0.45593999997E+02  0.45594000000E+02  0.51100000000E-03 0.  1.
         11   -1    0    0    0    0 -0.00000000000E+00 -0.00000000000E+00 -0.45593999997E+02  0.45594000000E+02  0.51100000000E-03 0. -1.
    9900012    2    1    2    0    0 -0.87161266016E+01  0.24875491141E+01  0.39635894556E+02  0.50528893999E+02  0.30000103800E+02 0.  0.
         12    1    1    2    0    0  0.87161266016E+01 -0.24875491141E+01 -0.39635894556E+02  0.40659106001E+02  0.00000000000E+00 0. -1.
         11    1    3    3    0    0 -0.43144904245E+00 -0.49462799078E+01  0.40892791904E+01  0.64322653677E+01  0.51100000000E-03 0.  1.
        -11    1    3    3    0    0 -0.72958383549E+01  0.13495796648E+02  0.11220228233E+02  0.19006822626E+02  0.51100000000E-03 0. -1.
         12    1    3    3    0    0 -0.98883920426E+00 -0.60619676264E+01  0.24326387132E+02  0.25089806005E+02  0.00000000000E+00 0. -1.
</event>
<event>
 7    1  0.5290964E-013  0.5052886E+02  0.7816164E-02  0.1300439E+00
        -11   -1    0    0    0    0  0.00000000000E+00  0.00000000000E+00  0.45593999997E+02  0.45594000000E+02  0.51100000000E-03 0.  1.
         11   -1    0    0    0    0 -0.00000000000E+00 -0.00000000000E+00 -0.45593999997E+02  0.45594000000E+02  0.51100000000E-03 0. -1.
    9900012    2    1    2    0    0 -0.13509516174E+02  0.12706755306E+02  0.36182829204E+02  0.50528858508E+02  0.29999995921E+02 0.  0.
         12    1    1    2    0    0  0.13509516174E+02 -0.12706755306E+02 -0.36182829204E+02  0.40659141492E+02  0.00000000000E+00 0. -1.
         11    1    3    3    0    0 -0.18900308542E+01  0.46733286065E+01 -0.36083637528E+00  0.50539509342E+01  0.51100000000E-03 0.  1.
        -11    1    3    3    0    0 -0.32799078338E+01 -0.27340161825E+01 -0.19122003117E+01  0.46785842065E+01  0.51100000000E-03 0. -1.
        -12    1    3    3    0    0 -0.83395774863E+01  0.10767442882E+02  0.38455865891E+02  0.40796323367E+02  0.00000000000E+00 0.  1.
</event>
<event>
 7    1  0.5290964E-013  0.5052888E+02  0.7816164E-02  0.1300439E+00
        -11   -1    0    0    0    0  0.00000000000E+00  0.00000000000E+00  0.45593999997E+02  0.45594000000E+02  0.51100000000E-03 0.  1.
         11   -1    0    0    0    0 -0.00000000000E+00 -0.00000000000E+00 -0.45593999997E+02  0.45594000000E+02  0.51100000000E-03 0. -1.
    9900012    2    1    2    0    0 -0.37993898161E+02 -0.12453756536E+02  0.73845620445E+01  0.50528879180E+02  0.30000058754E+02 0.  0.
         12    1    1    2    0    0  0.37993898161E+02  0.12453756536E+02 -0.73845620445E+01  0.40659120820E+02  0.00000000000E+00 0. -1.
         11    1    3    3    0    0 -0.98414477083E+00  0.18070640253E+01 -0.10606201188E+01  0.23149377139E+01  0.51100000000E-03 0. -1.
        -11    1    3    3    0    0 -0.41391393333E+00  0.56226693549E+01  0.24057020519E+01  0.61296931443E+01  0.51100000000E-03 0.  1.
        -12    1    3    3    0    0 -0.36595839457E+02 -0.19883489916E+02  0.60394801114E+01  0.42084248321E+02  0.00000000000E+00 0.  1.
</event>
<event>
 7    1  0.5290964E-013  0.5052886E+02  0.7816164E-02  0.1300439E+00
        -11   -1    0    0    0    0  0.00000000000E+00  0.00000000000E+00  0.45593999997E+02  0.45594000000E+02  0.51100000000E-03 0.  1.
         11   -1    0    0    0    0 -0.00000000000E+00 -0.00000000000E+00 -0.45593999997E+02  0.45594000000E+02  0.51100000000E-03 0. -1.
    9900012    2    1    2    0    0 -0.21555284784E+01 -0.12530763132E+02  0.38619930280E+02  0.50528863972E+02  0.30000012529E+02 0.  0.
         12    1    1    2    0    0  0.21555284784E+01  0.12530763132E+02 -0.38619930280E+02  0.40659136028E+02  0.00000000000E+00 0. -1.
         11    1    3    3    0    0 -0.29190540517E+01 -0.22976378480E+00  0.61802329420E+01  0.68387825987E+01  0.51100000000E-03 0. -1.
        -11    1    3    3    0    0 -0.58280757518E+01 -0.57915511842E+01  0.33381974973E+02  0.34378260361E+02  0.51100000000E-03 0.  1.
         12    1    3    3    0    0  0.65916013251E+01 -0.65094481634E+01 -0.94227763461E+00  0.93118210122E+01  0.00000000000E+00 0. -1.
</event>
<event>
 7    1  0.5290964E-013  0.5052884E+02  0.7816164E-02  0.1300439E+00
        -11   -1    0    0    0    0  0.00000000000E+00  0.00000000000E+00  0.45593999997E+02  0.45594000000E+02  0.51100000000E-03 0. -1.
         11   -1    0    0    0    0 -0.00000000000E+00 -0.00000000000E+00 -0.45593999997E+02  0.45594000000E+02  0.51100000000E-03 0.  1.
    9900012    2    1    2    0    0  0.22317747133E+02 -0.30941788580E+02 -0.14060257109E+02  0.50528844234E+02  0.29999952534E+02 0.  0.
         12    1    1    2    0    0 -0.22317747133E+02  0.30941788580E+02  0.14060257109E+02  0.40659155766E+02  0.00000000000E+00 0. -1.
         11    1    3    3    0    0 -0.60852401989E+01 -0.21947800228E+01 -0.19126820407E+01  0.67457809389E+01  0.51100000000E-03 0. -1.
        -11    1    3    3    0    0  0.35022347402E+00 -0.35346333413E+01 -0.37040191651E+01  0.51318658961E+01  0.51100000000E-03 0.  1.
         12    1    3    3    0    0  0.28052763858E+02 -0.25212375216E+02 -0.84435559029E+01  0.38651197399E+02  0.00000000000E+00 0. -1.
</event>
<event>
 7    1  0.5290964E-013  0.5052889E+02  0.7816164E-02  0.1300439E+00
        -11   -1    0    0    0    0  0.00000000000E+00  0.00000000000E+00  0.45593999997E+02  0.45594000000E+02  0.51100000000E-03 0.  1.
         11   -1    0    0    0    0 -0.00000000000E+00 -0.00000000000E+00 -0.45593999997E+02  0.45594000000E+02  0.51100000000E-03 0. -1.
    9900012    2    1    2    0    0  0.16899636446E+02  0.40170631068E+01  0.36761781022E+02  0.50528892141E+02  0.30000098150E+02 0.  0.
         12    1    1    2    0    0 -0.16899636446E+02 -0.40170631068E+01 -0.36761781022E+02  0.40659107859E+02  0.00000000000E+00 0. -1.
         11    1    3    3    0    0  0.11251157540E+02  0.21546823202E+01 -0.92682450295E+00  0.11493050327E+02  0.51100000000E-03 0. -1.
        -11    1    3    3    0    0  0.70081620210E+00  0.29715880229E+01  0.43538261790E+01  0.53176387038E+01  0.51100000000E-03 0.  1.
         12    1    3    3    0    0  0.49476627039E+01 -0.11092072362E+01  0.33334779346E+02  0.33718203110E+02  0.00000000000E+00 0. -1.
</event>
<event>
 7    1  0.5290964E-013  0.5052885E+02  0.7816164E-02  0.1300439E+00
        -11   -1    0    0    0    0  0.00000000000E+00  0.00000000000E+00  0.45593999997E+02  0.45594000000E+02  0.51100000000E-03 0. -1.
         11   -1    0    0    0    0 -0.00000000000E+00 -0.00000000000E+00 -0.45593999997E+02  0.45594000000E+02  0.51100000000E-03 0.  1.
    9900012    2    1    2    0    0  0.10898691532E+02  0.37737969262E+02 -0.10499060782E+02  0.50528854922E+02  0.29999985022E+02 0.  0.
         12    1    1    2    0    0 -0.10898691532E+02 -0.37737969262E+02  0.10499060782E+02  0.40659145078E+02  0.00000000000E+00 0. -1.
         11    1    3    3    0    0  0.71481671386E+01  0.19267455678E+02  0.67010397308E+00  0.20561619132E+02  0.51100000000E-03 0. -1.
        -11    1    3    3    0    0  0.27316604491E+01  0.87783835957E+01  0.54600677120E+01  0.10692723088E+02  0.51100000000E-03 0.  1.
         12    1    3    3    0    0  0.10188639438E+01  0.96921299890E+01 -0.16629232467E+02  0.19274512702E+02  0.00000000000E+00 0. -1.
</event>
<event>
 7    1  0.5290964E-013  0.5052889E+02  0.7816164E-02  0.1300439E+00
        -11   -1    0    0    0    0  0.00000000000E+00  0.00000000000E+00  0.45593999997E+02  0.45594000000E+02  0.51100000000E-03 0. -1.
         11   -1    0    0    0    0 -0.00000000000E+00 -0.00000000000E+00 -0.45593999997E+02  0.45594000000E+02  0.51100000000E-03 0.  1.
    9900012    2    1    2    0    0  0.16230736037E+02  0.89968955341E+01 -0.36177096836E+02  0.50528889618E+02  0.30000090482E+02 0.  0.
         12    1    1    2    0    0 -0.16230736037E+02 -0.89968955341E+01  0.36177096836E+02  0.40659110382E+02  0.00000000000E+00 0. -1.
         11    1    3    3    0    0  0.46189929061E+01  0.44622760050E+01 -0.17919500502E+01  0.66676898440E+01  0.51100000000E-03 0. -1.
        -11    1    3    3    0    0  0.17828259770E+02 -0.93942792471E+00 -0.17231519822E+02  0.24812388980E+02  0.51100000000E-03 0.  1.
        -12    1    3    3    0    0 -0.62165166388E+01  0.54740474538E+01 -0.17153626964E+02  0.19048810794E+02  0.00000000000E+00 0.  1.
</event>
<event>
 7    1  0.5290964E-013  0.5052879E+02  0.7816164E-02  0.1300439E+00
        -11   -1    0    0    0    0  0.00000000000E+00  0.00000000000E+00  0.45593999997E+02  0.45594000000E+02  0.51100000000E-03 0. -1.
         11   -1    0    0    0    0 -0.00000000000E+00 -0.00000000000E+00 -0.45593999997E+02  0.45594000000E+02  0.51100000000E-03 0.  1.
    9900012    2    1    2    0    0  0.22679383084E+02  0.82034320345E+01 -0.32734088957E+02  0.50528790784E+02  0.29999790065E+02 0.  0.
         12    1    1    2    0    0 -0.22679383084E+02 -0.82034320345E+01  0.32734088957E+02  0.40659209216E+02  0.00000000000E+00 0. -1.
         11    1    3    3    0    0  0.25368158274E+02  0.50979318105E+00 -0.29714036075E+02  0.39073357719E+02  0.51100000000E-03 0. -1.
        -11    1    3    3    0    0  0.14443795703E+01  0.56472986360E+01 -0.35311281943E+01  0.68152095209E+01  0.51100000000E-03 0.  1.
        -12    1    3    3    0    0 -0.41331547603E+01  0.20463402175E+01  0.51107531231E+00  0.46402235434E+01  0.00000000000E+00 0.  1.
</event>
<event>
 7    1  0.5290964E-013  0.5052886E+02  0.7816164E-02  0.1300439E+00
        -11   -1    0    0    0    0  0.00000000000E+00  0.00000000000E+00  0.45593999997E+02  0.45594000000E+02  0.51100000000E-03 0.  1.
         11   -1    0    0    0    0 -0.00000000000E+00 -0.00000000000E+00 -0.45593999997E+02  0.45594000000E+02  0.51100000000E-03 0. -1.
    9900012    2    1    2    0    0  0.89497543583E+01  0.27985163109E+02  0.28105131583E+02  0.50528857380E+02  0.29999992492E+02 0.  0.
         12    1    1    2    0    0 -0.89497543583E+01 -0.27985163109E+02 -0.28105131583E+02  0.40659142620E+02  0.00000000000E+00 0. -1.
         11    1    3    3    0    0 -0.31320631196E+01 -0.64020836654E+00  0.27986154437E+01  0.42487568535E+01  0.51100000000E-03 0. -1.
        -11    1    3    3    0    0  0.67875566978E+01  0.30941254334E+02  0.16419555017E+02  0.35679601075E+02  0.51100000000E-03 0.  1.
         12    1    3    3    0    0  0.52942607802E+01 -0.23158828582E+01  0.88869611221E+01  0.10600499451E+02  0.00000000000E+00 0. -1.
</event>
<event>
 7    1  0.5290964E-013  0.5052886E+02  0.7816164E-02  0.1300439E+00
        -11   -1    0    0    0    0  0.00000000000E+00  0.00000000000E+00  0.45593999997E+02  0.45594000000E+02  0.51100000000E-03 0.  1.
         11   -1    0    0    0    0 -0.00000000000E+00 -0.00000000000E+00 -0.45593999997E+02  0.45594000000E+02  0.51100000000E-03 0. -1.
    9900012    2    1    2    0    0 -0.38770546881E+02 -0.11844863367E+02  0.31160201731E+01  0.50528859880E+02  0.30000000090E+02 0.  0.
         12    1    1    2    0    0  0.38770546881E+02  0.11844863367E+02 -0.31160201731E+01  0.40659140120E+02  0.00000000000E+00 0. -1.
         11    1    3    3    0    0 -0.17584600300E+02  0.59982913735E+01  0.69550712607E+01  0.19838615970E+02  0.51100000000E-03 0. -1.
        -11    1    3    3    0    0 -0.45089117546E+01  0.11969136252E+01  0.13422847498E+01  0.48543399188E+01  0.51100000000E-03 0.  1.
         12    1    3    3    0    0 -0.16677034827E+02 -0.19040068365E+02 -0.51813358373E+01  0.25835903991E+02  0.00000000000E+00 0. -1.
</event>
<event>
 7    1  0.5290964E-013  0.5052886E+02  0.7816164E-02  0.1300439E+00
        -11   -1    0    0    0    0  0.00000000000E+00  0.00000000000E+00  0.45593999997E+02  0.45594000000E+02  0.51100000000E-03 0.  1.
         11   -1    0    0    0    0 -0.00000000000E+00 -0.00000000000E+00 -0.45593999997E+02  0.45594000000E+02  0.51100000000E-03 0. -1.
    9900012    2    1    2    0    0  0.19067944975E+02  0.89938353292E+01  0.34766220422E+02  0.50528859799E+02  0.29999999844E+02 0.  0.
         12    1    1    2    0    0 -0.19067944975E+02 -0.89938353292E+01 -0.34766220422E+02  0.40659140201E+02  0.00000000000E+00 0. -1.
         11    1    3    3    0    0  0.19467762888E+01  0.34164051844E+01  0.23195648381E+01  0.45653196604E+01  0.51100000000E-03 0. -1.
        -11    1    3    3    0    0  0.80085166878E+01  0.15950157615E+02  0.23508200175E+02  0.29515747377E+02  0.51100000000E-03 0.  1.
         12    1    3    3    0    0  0.91126519986E+01 -0.10372727470E+02  0.89384554085E+01  0.16447792761E+02  0.00000000000E+00 0. -1.
</event>
<event>
 7    1  0.5290964E-013  0.5052887E+02  0.7816164E-02  0.1300439E+00
        -11   -1    0    0    0    0  0.00000000000E+00  0.00000000000E+00  0.45593999997E+02  0.45594000000E+02  0.51100000000E-03 0. -1.
         11   -1    0    0    0    0 -0.00000000000E+00 -0.00000000000E+00 -0.45593999997E+02  0.45594000000E+02  0.51100000000E-03 0.  1.
    9900012    2    1    2    0    0 -0.15540769106E+02 -0.21654935774E+02 -0.30703635443E+02  0.50528868465E+02  0.30000026185E+02 0.  0.
         12    1    1    2    0    0  0.15540769106E+02  0.21654935774E+02  0.30703635443E+02  0.40659131535E+02  0.00000000000E+00 0. -1.
         11    1    3    3    0    0 -0.99592798832E+01 -0.89635255877E+01 -0.47794650110E+01  0.14225868438E+02  0.51100000000E-03 0. -1.
        -11    1    3    3    0    0  0.36132927778E+01 -0.13745090599E+02 -0.84637746500E+01  0.16541429257E+02  0.51100000000E-03 0.  1.
         12    1    3    3    0    0 -0.91947820001E+01  0.10536804124E+01 -0.17460395782E+02  0.19761570770E+02  0.00000000000E+00 0. -1.
</event>
<event>
 7    1  0.5290964E-013  0.5052886E+02  0.7816164E-02  0.1300439E+00
        -11   -1    0    0    0    0  0.00000000000E+00  0.00000000000E+00  0.45593999997E+02  0.45594000000E+02  0.51100000000E-03 0.  1.
         11   -1    0    0    0    0 -0.00000000000E+00 -0.00000000000E+00 -0.45593999997E+02  0.45594000000E+02  0.51100000000E-03 0. -1.
    9900012    2    1    2    0    0  0.39877264669E+01  0.17823954058E+01  0.40423836742E+02  0.50528862371E+02  0.30000007664E+02 0.  0.
         12    1    1    2    0    0 -0.39877264669E+01 -0.17823954058E+01 -0.40423836742E+02  0.40659137629E+02  0.00000000000E+00 0. -1.
         11    1    3    3    0    0  0.44917436515E+01 -0.26385681281E+01  0.15108315188E+02  0.15981207429E+02  0.51100000000E-03 0.  1.
        -11    1    3    3    0    0  0.68080690425E+01  0.60223782835E+00  0.25394418447E+02  0.26298079455E+02  0.51100000000E-03 0. -1.
         12    1    3    3    0    0 -0.73120862270E+01  0.38187257056E+01 -0.78896893117E-01  0.82495754876E+01  0.00000000000E+00 0. -1.
</event>
<event>
 7    1  0.5290964E-013  0.5052885E+02  0.7816164E-02  0.1300439E+00
        -11   -1    0    0    0    0  0.00000000000E+00  0.00000000000E+00  0.45593999997E+02  0.45594000000E+02  0.51100000000E-03 0.  1.
         11   -1    0    0    0    0 -0.00000000000E+00 -0.00000000000E+00 -0.45593999997E+02  0.45594000000E+02  0.51100000000E-03 0. -1.
    9900012    2    1    2    0    0  0.31816296728E+02 -0.22903266730E+02  0.10785629746E+02  0.50528853755E+02  0.29999981473E+02 0.  0.
         12    1    1    2    0    0 -0.31816296728E+02  0.22903266730E+02 -0.10785629746E+02  0.40659146245E+02  0.00000000000E+00 0. -1.
         11    1    3    3    0    0 -0.11927375693E+01 -0.60178147605E+01 -0.12999766243E+01  0.62710969444E+01  0.51100000000E-03 0.  1.
        -11    1    3    3    0    0 -0.15649259458E+01 -0.52884702967E+01 -0.81709466966E+00  0.55753524782E+01  0.51100000000E-03 0. -1.
        -12    1    3    3    0    0  0.34573960243E+02 -0.11596981673E+02  0.12902701040E+02  0.38682404332E+02  0.00000000000E+00 0.  1.
</event>
<event>
 7    1  0.5290964E-013  0.5052886E+02  0.7816164E-02  0.1300439E+00
        -11   -1    0    0    0    0  0.00000000000E+00  0.00000000000E+00  0.45593999997E+02  0.45594000000E+02  0.51100000000E-03 0. -1.
         11   -1    0    0    0    0 -0.00000000000E+00 -0.00000000000E+00 -0.45593999997E+02  0.45594000000E+02  0.51100000000E-03 0.  1.
    9900012    2    1    2    0    0 -0.21859228318E+02 -0.11650292269E+02  0.32242991900E+02  0.50528859585E+02  0.29999999193E+02 0.  0.
         12    1    1    2    0    0  0.21859228318E+02  0.11650292269E+02 -0.32242991900E+02  0.40659140415E+02  0.00000000000E+00 0. -1.
         11    1    3    3    0    0  0.24569846417E+01 -0.11984679763E+02  0.15606015809E+02  0.19829701264E+02  0.51100000000E-03 0. -1.
        -11    1    3    3    0    0 -0.46003627437E+01 -0.28280841972E+01  0.60093101245E+01  0.80791835005E+01  0.51100000000E-03 0.  1.
        -12    1    3    3    0    0 -0.19715850216E+02  0.31624716909E+01  0.10627665967E+02  0.22619974820E+02  0.00000000000E+00 0.  1.
</event>
<event>
 7    1  0.5290964E-013  0.5052885E+02  0.7816164E-02  0.1300439E+00
        -11   -1    0    0    0    0  0.00000000000E+00  0.00000000000E+00  0.45593999997E+02  0.45594000000E+02  0.51100000000E-03 0.  1.
         11   -1    0    0    0    0 -0.00000000000E+00 -0.00000000000E+00 -0.45593999997E+02  0.45594000000E+02  0.51100000000E-03 0. -1.
    9900012    2    1    2    0    0  0.12496572401E+02 -0.85258350457E+01  0.37740066314E+02  0.50528846167E+02  0.29999958409E+02 0.  0.
         12    1    1    2    0    0 -0.12496572401E+02  0.85258350457E+01 -0.37740066314E+02  0.40659153833E+02  0.00000000000E+00 0. -1.
         11    1    3    3    0    0  0.56520278791E+01 -0.10317328370E+02  0.37132049775E+01  0.12336149128E+02  0.51100000000E-03 0. -1.
        -11    1    3    3    0    0  0.71200059893E+01 -0.33233448296E+01  0.65121399685E+01  0.10205247345E+02  0.51100000000E-03 0.  1.
         12    1    3    3    0    0 -0.27546146742E+00  0.51148381543E+01  0.27514721368E+02  0.27987449694E+02  0.00000000000E+00 0. -1.
</event>
<event>
 7    1  0.5290964E-013  0.5052885E+02  0.7816164E-02  0.1300439E+00
        -11   -1    0    0    0    0  0.00000000000E+00  0.00000000000E+00  0.45593999997E+02  0.45594000000E+02  0.51100000000E-03 0.  1.
         11   -1    0    0    0    0 -0.00000000000E+00 -0.00000000000E+00 -0.45593999997E+02  0.45594000000E+02  0.51100000000E-03 0. -1.
    9900012    2    1    2    0    0 -0.22052162064E+02  0.34123046981E+02 -0.15767442994E+01  0.50528852081E+02  0.29999976384E+02 0.  0.
         12    1    1    2    0    0  0.22052162064E+02 -0.34123046981E+02  0.15767442994E+01  0.40659147919E+02  0.00000000000E+00 0. -1.
         11    1    3    3    0    0 -0.89794465529E+01  0.39154097048E+01 -0.19181413351E-01  0.97959819182E+01  0.51100000000E-03 0. -1.
        -11    1    3    3    0    0 -0.10710786355E+02  0.27427325821E+01 -0.63544338890E+01  0.12752347105E+02  0.51100000000E-03 0.  1.
        -12    1    3    3    0    0 -0.23619291558E+01  0.27464904694E+02  0.47968710030E+01  0.27980523058E+02  0.00000000000E+00 0.  1.
</event>
<event>
 7    1  0.5290964E-013  0.5052887E+02  0.7816164E-02  0.1300439E+00
        -11   -1    0    0    0    0  0.00000000000E+00  0.00000000000E+00  0.45593999997E+02  0.45594000000E+02  0.51100000000E-03 0. -1.
         11   -1    0    0    0    0 -0.00000000000E+00 -0.00000000000E+00 -0.45593999997E+02  0.45594000000E+02  0.51100000000E-03 0.  1.
    9900012    2    1    2    0    0 -0.86403438916E+00 -0.71563944563E+01 -0.40015049918E+02  0.50528871173E+02  0.30000034418E+02 0.  0.
         12    1    1    2    0    0  0.86403438916E+00  0.71563944563E+01  0.40015049918E+02  0.40659128827E+02  0.00000000000E+00 0. -1.
         11    1    3    3    0    0  0.15959276689E+01  0.10136049991E+02 -0.10075978642E+02  0.14380954085E+02  0.51100000000E-03 0. -1.
        -11    1    3    3    0    0 -0.13735227518E+01 -0.48058326478E+01 -0.17462254207E+01  0.52945156218E+01  0.51100000000E-03 0.  1.
        -12    1    3    3    0    0 -0.10864393062E+01 -0.12486611800E+02 -0.28192845856E+02  0.30853401466E+02  0.00000000000E+00 0.  1.
</event>
<event>
 7    1  0.5290964E-013  0.5052886E+02  0.7816164E-02  0.1300439E+00
        -11   -1    0    0    0    0  0.00000000000E+00  0.00000000000E+00  0.45593999997E+02  0.45594000000E+02  0.51100000000E-03 0.  1.
         11   -1    0    0    0    0 -0.00000000000E+00 -0.00000000000E+00 -0.45593999997E+02  0.45594000000E+02  0.51100000000E-03 0. -1.
    9900012    2    1    2    0    0 -0.26366773606E+02  0.71873508805E+01  0.30104828761E+02  0.50528862308E+02  0.30000007473E+02 0.  0.
         12    1    1    2    0    0  0.26366773606E+02 -0.71873508805E+01 -0.30104828761E+02  0.40659137692E+02  0.00000000000E+00 0. -1.
         11    1    3    3    0    0 -0.73755245418E+01  0.68942294103E+01 -0.75374154252E+00  0.10124074674E+02  0.51100000000E-03 0. -1.
        -11    1    3    3    0    0 -0.15005919577E+01  0.58650914238E+01  0.23430804284E+01  0.64916176557E+01  0.51100000000E-03 0.  1.
        -12    1    3    3    0    0 -0.17490657107E+02 -0.55719699536E+01  0.28515489875E+02  0.33913169979E+02  0.00000000000E+00 0.  1.
</event>
<event>
 7    1  0.5290964E-013  0.5052884E+02  0.7816164E-02  0.1300439E+00
        -11   -1    0    0    0    0  0.00000000000E+00  0.00000000000E+00  0.45593999997E+02  0.45594000000E+02  0.51100000000E-03 0. -1.
         11   -1    0    0    0    0 -0.00000000000E+00 -0.00000000000E+00 -0.45593999997E+02  0.45594000000E+02  0.51100000000E-03 0.  1.
    9900012    2    1    2    0    0 -0.17697504516E+02  0.30924064713E+02 -0.19587449738E+02  0.50528835822E+02  0.29999926963E+02 0.  0.
         12    1    1    2    0    0  0.17697504516E+02 -0.30924064713E+02  0.19587449738E+02  0.40659164178E+02  0.00000000000E+00 0. -1.
         11    1    3    3    0    0 -0.12791520075E+02  0.25179802036E+02 -0.60164112989E+01  0.28876333243E+02  0.51100000000E-03 0. -1.
        -11    1    3    3    0    0 -0.63612951203E+00  0.87385728997E+01 -0.13895623044E+02  0.16427283924E+02  0.51100000000E-03 0.  1.
         12    1    3    3    0    0 -0.42698549285E+01 -0.29943102227E+01  0.32458460453E+00  0.52252186544E+01  0.00000000000E+00 0. -1.
</event>
<event>
 7    1  0.5290964E-013  0.5052886E+02  0.7816164E-02  0.1300439E+00
        -11   -1    0    0    0    0  0.00000000000E+00  0.00000000000E+00  0.45593999997E+02  0.45594000000E+02  0.51100000000E-03 0. -1.
         11   -1    0    0    0    0 -0.00000000000E+00 -0.00000000000E+00 -0.45593999997E+02  0.45594000000E+02  0.51100000000E-03 0.  1.
    9900012    2    1    2    0    0  0.16996239862E+02 -0.33076951801E+02 -0.16438027574E+02  0.50528860063E+02  0.30000000648E+02 0.  0.
         12    1    1    2    0    0 -0.16996239862E+02  0.33076951801E+02  0.16438027574E+02  0.40659139937E+02  0.00000000000E+00 0. -1.
         11    1    3    3    0    0  0.14645519165E+02 -0.10575603050E+02 -0.56717015037E+01  0.18934170426E+02  0.51100000000E-03 0. -1.
        -11    1    3    3    0    0  0.70701029159E+01 -0.13502116798E+02  0.18965292844E+01  0.15358721850E+02  0.51100000000E-03 0.  1.
        -12    1    3    3    0    0 -0.47193822197E+01 -0.89992319533E+01 -0.12662855354E+02  0.16235967788E+02  0.00000000000E+00 0.  1.
</event>
<event>
 7    1  0.5290964E-013  0.5052885E+02  0.7816164E-02  0.1300439E+00
        -11   -1    0    0    0    0  0.00000000000E+00  0.00000000000E+00  0.45593999997E+02  0.45594000000E+02  0.51100000000E-03 0.  1.
         11   -1    0    0    0    0 -0.00000000000E+00 -0.00000000000E+00 -0.45593999997E+02  0.45594000000E+02  0.51100000000E-03 0. -1.
    9900012    2    1    2    0    0  0.33064977832E+02 -0.22858102917E+02  0.61139795360E+01  0.50528851291E+02  0.29999973984E+02 0.  0.
         12    1    1    2    0    0 -0.33064977832E+02  0.22858102917E+02 -0.61139795360E+01  0.40659148709E+02  0.00000000000E+00 0. -1.
         11    1    3    3    0    0  0.47514678371E+01 -0.24977708271E+01 -0.16903319673E+01  0.56278351195E+01  0.51100000000E-03 0. -1.
        -11    1    3    3    0    0  0.12503070706E+02  0.55722518161E+01  0.68547158012E+00  0.13705715557E+02  0.51100000000E-03 0.  1.
        -12    1    3    3    0    0  0.15810439288E+02 -0.25932583906E+02  0.71188399232E+01  0.31195300614E+02  0.00000000000E+00 0.  1.
</event>
<event>
 7    1  0.5290964E-013  0.5052887E+02  0.7816164E-02  0.1300439E+00
        -11   -1    0    0    0    0  0.00000000000E+00  0.00000000000E+00  0.45593999997E+02  0.45594000000E+02  0.51100000000E-03 0.  1.
         11   -1    0    0    0    0 -0.00000000000E+00 -0.00000000000E+00 -0.45593999997E+02  0.45594000000E+02  0.51100000000E-03 0. -1.
    9900012    2    1    2    0    0 -0.31197222913E+02 -0.13801017942E+02  0.22123070680E+02  0.50528867324E+02  0.30000022717E+02 0.  0.
         12    1    1    2    0    0  0.31197222913E+02  0.13801017942E+02 -0.22123070680E+02  0.40659132676E+02  0.00000000000E+00 0. -1.
         11    1    3    3    0    0 -0.23084245616E+02  0.23407172881E+01  0.18398916144E+02  0.29612184462E+02  0.51100000000E-03 0.  1.
        -11    1    3    3    0    0 -0.58152100097E+01 -0.20743342146E+01 -0.39937507328E-01  0.61742307340E+01  0.51100000000E-03 0. -1.
        -12    1    3    3    0    0 -0.22977672875E+01 -0.14067401015E+02  0.37640920425E+01  0.14742452128E+02  0.00000000000E+00 0.  1.
</event>
<event>
 7    1  0.5290964E-013  0.5052888E+02  0.7816164E-02  0.1300439E+00
        -11   -1    0    0    0    0  0.00000000000E+00  0.00000000000E+00  0.45593999997E+02  0.45594000000E+02  0.51100000000E-03 0.  1.
         11   -1    0    0    0    0 -0.00000000000E+00 -0.00000000000E+00 -0.45593999997E+02  0.45594000000E+02  0.51100000000E-03 0. -1.
    9900012    2    1    2    0    0 -0.16182384627E+02 -0.37288476350E+02  0.92942548034E+00  0.50528882050E+02  0.30000067480E+02 0.  0.
         12    1    1    2    0    0  0.16182384627E+02  0.37288476350E+02 -0.92942548034E+00  0.40659117950E+02  0.00000000000E+00 0. -1.
         11    1    3    3    0    0 -0.66373009723E+00  0.13433717682E+00 -0.44430049830E+01  0.44943161503E+01  0.51100000000E-03 0. -1.
        -11    1    3    3    0    0 -0.17557854258E+02 -0.22892822570E+02 -0.32225762006E+01  0.29030063193E+02  0.51100000000E-03 0.  1.
         12    1    3    3    0    0  0.20391997288E+01 -0.14529990957E+02  0.85950066639E+01  0.17004502707E+02  0.00000000000E+00 0. -1.
</event>
<event>
 7    1  0.5290964E-013  0.5052888E+02  0.7816164E-02  0.1300439E+00
        -11   -1    0    0    0    0  0.00000000000E+00  0.00000000000E+00  0.45593999997E+02  0.45594000000E+02  0.51100000000E-03 0. -1.
         11   -1    0    0    0    0 -0.00000000000E+00 -0.00000000000E+00 -0.45593999997E+02  0.45594000000E+02  0.51100000000E-03 0.  1.
    9900012    2    1    2    0    0 -0.58912184754E+01 -0.24433156487E+02 -0.31960575725E+02  0.50528880583E+02  0.30000063021E+02 0.  0.
         12    1    1    2    0    0  0.58912184754E+01  0.24433156487E+02  0.31960575725E+02  0.40659119417E+02  0.00000000000E+00 0. -1.
         11    1    3    3    0    0 -0.78449488058E+01 -0.16264740414E+02 -0.34548424660E+01  0.18385345774E+02  0.51100000000E-03 0. -1.
        -11    1    3    3    0    0  0.63704295196E+00  0.88962035686E+00  0.85531329353E+00  0.13888157521E+01  0.51100000000E-03 0.  1.
        -12    1    3    3    0    0  0.13166873784E+01 -0.90580364299E+01 -0.29361046552E+02  0.30754719057E+02  0.00000000000E+00 0.  1.
</event>
<event>
 7    1  0.5290964E-013  0.5052886E+02  0.7816164E-02  0.1300439E+00
        -11   -1    0    0    0    0  0.00000000000E+00  0.00000000000E+00  0.45593999997E+02  0.45594000000E+02  0.51100000000E-03 0.  1.
         11   -1    0    0    0    0 -0.00000000000E+00 -0.00000000000E+00 -0.45593999997E+02  0.45594000000E+02  0.51100000000E-03 0. -1.
    9900012    2    1    2    0    0  0.20792914831E+02 -0.11648905835E+02  0.32941212131E+02  0.50528858703E+02  0.29999996515E+02 0.  0.
         12    1    1    2    0    0 -0.20792914831E+02  0.11648905835E+02 -0.32941212131E+02  0.40659141297E+02  0.00000000000E+00 0. -1.
         11    1    3    3    0    0 -0.21559598364E+01  0.29448762259E+00  0.10620859258E+01  0.24213451945E+01  0.51100000000E-03 0.  1.
        -11    1    3    3    0    0  0.15131036397E+02 -0.39977861599E+01  0.14692637950E+01  0.15719074177E+02  0.51100000000E-03 0. -1.
         12    1    3    3    0    0  0.78178382713E+01 -0.79456072976E+01  0.30409862410E+02  0.32388439332E+02  0.00000000000E+00 0. -1.
</event>
<event>
 7    1  0.5290964E-013  0.5052876E+02  0.7816164E-02  0.1300439E+00
        -11   -1    0    0    0    0  0.00000000000E+00  0.00000000000E+00  0.45593999997E+02  0.45594000000E+02  0.51100000000E-03 0. -1.
         11   -1    0    0    0    0 -0.00000000000E+00 -0.00000000000E+00 -0.45593999997E+02  0.45594000000E+02  0.51100000000E-03 0.  1.
    9900012    2    1    2    0    0 -0.24904199099E+02  0.74074138190E+01 -0.31274351111E+02  0.50528758127E+02  0.29999690803E+02 0.  0.
         12    1    1    2    0    0  0.24904199099E+02 -0.74074138190E+01  0.31274351111E+02  0.40659241873E+02  0.00000000000E+00 0. -1.
         11    1    3    3    0    0 -0.22448811304E+01  0.53002711674E+01  0.12053534626E+01  0.58809219489E+01  0.51100000000E-03 0. -1.
        -11    1    3    3    0    0 -0.10047105252E+02 -0.88644522981E+01 -0.10440255026E+02  0.16985928404E+02  0.51100000000E-03 0.  1.
         12    1    3    3    0    0 -0.12612212716E+02  0.10971594950E+02 -0.22039449547E+02  0.27661907774E+02  0.00000000000E+00 0. -1.
</event>
<event>
 7    1  0.5290964E-013  0.5052886E+02  0.7816164E-02  0.1300439E+00
        -11   -1    0    0    0    0  0.00000000000E+00  0.00000000000E+00  0.45593999997E+02  0.45594000000E+02  0.51100000000E-03 0. -1.
         11   -1    0    0    0    0 -0.00000000000E+00 -0.00000000000E+00 -0.45593999997E+02  0.45594000000E+02  0.51100000000E-03 0.  1.
    9900012    2    1    2    0    0  0.93067090298E+01  0.24649399886E+02 -0.30967049064E+02  0.50528857419E+02  0.29999992611E+02 0.  0.
         12    1    1    2    0    0 -0.93067090298E+01 -0.24649399886E+02  0.30967049064E+02  0.40659142581E+02  0.00000000000E+00 0. -1.
         11    1    3    3    0    0 -0.13428488716E+01  0.14982345166E+02 -0.85497101194E+01  0.17302353978E+02  0.51100000000E-03 0. -1.
        -11    1    3    3    0    0 -0.36605720514E+01  0.53407574546E+01 -0.23804414857E+00  0.64792085327E+01  0.51100000000E-03 0.  1.
        -12    1    3    3    0    0  0.14310129953E+02  0.43262972647E+01 -0.22179294796E+02  0.26747294909E+02  0.00000000000E+00 0.  1.
</event>
<event>
 7    1  0.5290964E-013  0.5052887E+02  0.7816164E-02  0.1300439E+00
        -11   -1    0    0    0    0  0.00000000000E+00  0.00000000000E+00  0.45593999997E+02  0.45594000000E+02  0.51100000000E-03 0.  1.
         11   -1    0    0    0    0 -0.00000000000E+00 -0.00000000000E+00 -0.45593999997E+02  0.45594000000E+02  0.51100000000E-03 0. -1.
    9900012    2    1    2    0    0  0.44307869061E+01  0.18807422327E+02  0.35774488855E+02  0.50528867446E+02  0.30000023089E+02 0.  0.
         12    1    1    2    0    0 -0.44307869061E+01 -0.18807422327E+02 -0.35774488855E+02  0.40659132554E+02  0.00000000000E+00 0. -1.
         11    1    3    3    0    0 -0.12061624134E+01  0.82713436235E+01 -0.54946266159E+00  0.83768647228E+01  0.51100000000E-03 0. -1.
        -11    1    3    3    0    0 -0.39337511142E+01 -0.13104106511E+01  0.20048910168E+01  0.46055577462E+01  0.51100000000E-03 0.  1.
        -12    1    3    3    0    0  0.95707004337E+01  0.11846489354E+02  0.34319060500E+02  0.37546444977E+02  0.00000000000E+00 0.  1.
</event>
<event>
 7    1  0.5290964E-013  0.5052885E+02  0.7816164E-02  0.1300439E+00
        -11   -1    0    0    0    0  0.00000000000E+00  0.00000000000E+00  0.45593999997E+02  0.45594000000E+02  0.51100000000E-03 0.  1.
         11   -1    0    0    0    0 -0.00000000000E+00 -0.00000000000E+00 -0.45593999997E+02  0.45594000000E+02  0.51100000000E-03 0. -1.
    9900012    2    1    2    0    0 -0.30450256257E+02 -0.11522501580E+01  0.26918777378E+02  0.50528851435E+02  0.29999974421E+02 0.  0.
         12    1    1    2    0    0  0.30450256257E+02  0.11522501580E+01 -0.26918777378E+02  0.40659148565E+02  0.00000000000E+00 0. -1.
         11    1    3    3    0    0 -0.19277590181E+02 -0.14492165837E+01  0.69752124109E+01  0.20551868536E+02  0.51100000000E-03 0. -1.
        -11    1    3    3    0    0 -0.60426583482E+01  0.94646659755E+01  0.13857332944E+02  0.17835899151E+02  0.51100000000E-03 0.  1.
         12    1    3    3    0    0 -0.51300077273E+01 -0.91676995497E+01  0.60862320230E+01  0.12141083747E+02  0.00000000000E+00 0. -1.
</event>
<event>
 7    1  0.5290964E-013  0.5052886E+02  0.7816164E-02  0.1300439E+00
        -11   -1    0    0    0    0  0.00000000000E+00  0.00000000000E+00  0.45593999997E+02  0.45594000000E+02  0.51100000000E-03 0. -1.
         11   -1    0    0    0    0 -0.00000000000E+00 -0.00000000000E+00 -0.45593999997E+02  0.45594000000E+02  0.51100000000E-03 0.  1.
    9900012    2    1    2    0    0 -0.17233774087E+02  0.29654423820E+02 -0.21835248748E+02  0.50528857002E+02  0.29999991345E+02 0.  0.
         12    1    1    2    0    0  0.17233774087E+02 -0.29654423820E+02  0.21835248748E+02  0.40659142998E+02  0.00000000000E+00 0. -1.
         11    1    3    3    0    0  0.33146682315E+01  0.11623533774E+02 -0.71145515960E+01  0.14025348750E+02  0.51100000000E-03 0. -1.
        -11    1    3    3    0    0 -0.58120733638E+01  0.17527961374E+02 -0.10119123468E+02  0.21057214601E+02  0.51100000000E-03 0.  1.
         12    1    3    3    0    0 -0.14736368954E+02  0.50292867232E+00 -0.46015736843E+01  0.15446293652E+02  0.00000000000E+00 0. -1.
</event>
<event>
 7    1  0.5290964E-013  0.5052887E+02  0.7816164E-02  0.1300439E+00
        -11   -1    0    0    0    0  0.00000000000E+00  0.00000000000E+00  0.45593999997E+02  0.45594000000E+02  0.51100000000E-03 0. -1.
         11   -1    0    0    0    0 -0.00000000000E+00 -0.00000000000E+00 -0.45593999997E+02  0.45594000000E+02  0.51100000000E-03 0.  1.
    9900012    2    1    2    0    0 -0.88332636005E+00 -0.54851709796E+01 -0.40277758084E+02  0.50528866187E+02  0.30000019263E+02 0.  0.
         12    1    1    2    0    0  0.88332636005E+00  0.54851709796E+01  0.40277758084E+02  0.40659133813E+02  0.00000000000E+00 0. -1.
         11    1    3    3    0    0 -0.45483621414E+01 -0.31533499280E+01 -0.22358256263E+02  0.23033081368E+02  0.51100000000E-03 0. -1.
        -11    1    3    3    0    0 -0.52212233955E+01 -0.64833879448E+01 -0.15179210648E+02  0.17311959137E+02  0.51100000000E-03 0.  1.
         12    1    3    3    0    0  0.88862591768E+01  0.41515668932E+01 -0.27402911732E+01  0.10183825683E+02  0.00000000000E+00 0. -1.
</event>
<event>
 7    1  0.5290964E-013  0.5052887E+02  0.7816164E-02  0.1300439E+00
        -11   -1    0    0    0    0  0.00000000000E+00  0.00000000000E+00  0.45593999997E+02  0.45594000000E+02  0.51100000000E-03 0. -1.
         11   -1    0    0    0    0 -0.00000000000E+00 -0.00000000000E+00 -0.45593999997E+02  0.45594000000E+02  0.51100000000E-03 0.  1.
    9900012    2    1    2    0    0  0.30353344713E+02  0.10034338098E+02 -0.25122722454E+02  0.50528872368E+02  0.30000038050E+02 0.  0.
         12    1    1    2    0    0 -0.30353344713E+02 -0.10034338098E+02  0.25122722454E+02  0.40659127632E+02  0.00000000000E+00 0. -1.
         11    1    3    3    0    0  0.19139097771E+02  0.16094587976E+02 -0.10393699496E+02  0.27080801595E+02  0.51100000000E-03 0. -1.
        -11    1    3    3    0    0  0.59536467454E+01  0.36791990225E+01 -0.41511925529E+01  0.81372486068E+01  0.51100000000E-03 0.  1.
        -12    1    3    3    0    0  0.52606001966E+01 -0.97394489003E+01 -0.10577830405E+02  0.15310822166E+02  0.00000000000E+00 0.  1.
</event>
<event>
 7    1  0.5290964E-013  0.5052886E+02  0.7816164E-02  0.1300439E+00
        -11   -1    0    0    0    0  0.00000000000E+00  0.00000000000E+00  0.45593999997E+02  0.45594000000E+02  0.51100000000E-03 0.  1.
         11   -1    0    0    0    0 -0.00000000000E+00 -0.00000000000E+00 -0.45593999997E+02  0.45594000000E+02  0.51100000000E-03 0. -1.
    9900012    2    1    2    0    0 -0.71859915939E+01 -0.34772263902E+02  0.19809507725E+02  0.50528863163E+02  0.30000010070E+02 0.  0.
         12    1    1    2    0    0  0.71859915939E+01  0.34772263902E+02 -0.19809507725E+02  0.40659136837E+02  0.00000000000E+00 0. -1.
         11    1    3    3    0    0 -0.74523870178E+01  0.14028657354E+01  0.33910064218E+01  0.83069265886E+01  0.51100000000E-03 0. -1.
        -11    1    3    3    0    0 -0.91893205304E+00 -0.16423545102E+02 -0.94768491820E-01  0.16449506107E+02  0.51100000000E-03 0.  1.
        -12    1    3    3    0    0  0.11853274770E+01 -0.19751584536E+02  0.16513269795E+02  0.25772430468E+02  0.00000000000E+00 0.  1.
</event>
<event>
 7    1  0.5290964E-013  0.5052888E+02  0.7816164E-02  0.1300439E+00
        -11   -1    0    0    0    0  0.00000000000E+00  0.00000000000E+00  0.45593999997E+02  0.45594000000E+02  0.51100000000E-03 0.  1.
         11   -1    0    0    0    0 -0.00000000000E+00 -0.00000000000E+00 -0.45593999997E+02  0.45594000000E+02  0.51100000000E-03 0. -1.
    9900012    2    1    2    0    0 -0.30813712522E+02 -0.15709177641E+02  0.21375245229E+02  0.50528877406E+02  0.30000053362E+02 0.  0.
         12    1    1    2    0    0  0.30813712522E+02  0.15709177641E+02 -0.21375245229E+02  0.40659122594E+02  0.00000000000E+00 0. -1.
         11    1    3    3    0    0 -0.28367589387E+02 -0.10978726217E+02  0.19126057141E+02  0.35931304166E+02  0.51100000000E-03 0. -1.
        -11    1    3    3    0    0 -0.39942749566E+01  0.28542350272E+01  0.43686368381E+01  0.65715963132E+01  0.51100000000E-03 0.  1.
         12    1    3    3    0    0  0.15481518223E+01 -0.75846864510E+01 -0.21194487501E+01  0.80259769267E+01  0.00000000000E+00 0. -1.
</event>
<event>
 7    1  0.5290964E-013  0.5052885E+02  0.7816164E-02  0.1300439E+00
        -11   -1    0    0    0    0  0.00000000000E+00  0.00000000000E+00  0.45593999997E+02  0.45594000000E+02  0.51100000000E-03 0.  1.
         11   -1    0    0    0    0 -0.00000000000E+00 -0.00000000000E+00 -0.45593999997E+02  0.45594000000E+02  0.51100000000E-03 0. -1.
    9900012    2    1    2    0    0  0.23637354226E+02 -0.22835040074E+02  0.23937471866E+02  0.50528854297E+02  0.29999983121E+02 0.  0.
         12    1    1    2    0    0 -0.23637354226E+02  0.22835040074E+02 -0.23937471866E+02  0.40659145703E+02  0.00000000000E+00 0. -1.
         11    1    3    3    0    0  0.72652660777E+01 -0.18703398302E+02  0.16151375870E+02  0.25757875339E+02  0.51100000000E-03 0. -1.
        -11    1    3    3    0    0  0.96622002567E+01 -0.74205011776E+01  0.11206163329E+02  0.16552946817E+02  0.51100000000E-03 0.  1.
         12    1    3    3    0    0  0.67098878913E+01  0.32888594049E+01 -0.34200673334E+01  0.82180321406E+01  0.00000000000E+00 0. -1.
</event>
<event>
 7    1  0.5290964E-013  0.5052887E+02  0.7816164E-02  0.1300439E+00
        -11   -1    0    0    0    0  0.00000000000E+00  0.00000000000E+00  0.45593999997E+02  0.45594000000E+02  0.51100000000E-03 0.  1.
         11   -1    0    0    0    0 -0.00000000000E+00 -0.00000000000E+00 -0.45593999997E+02  0.45594000000E+02  0.51100000000E-03 0. -1.
    9900012    2    1    2    0    0  0.28520005757E+02  0.53815620680E+01  0.28474776499E+02  0.50528870209E+02  0.30000031487E+02 0.  0.
         12    1    1    2    0    0 -0.28520005757E+02 -0.53815620680E+01 -0.28474776499E+02  0.40659129791E+02  0.00000000000E+00 0. -1.
         11    1    3    3    0    0  0.15506817097E+02  0.12570985755E+02  0.11168358152E+02  0.22874074482E+02  0.51100000000E-03 0. -1.
        -11    1    3    3    0    0  0.15115058275E+02 -0.11309915823E+01  0.12099583561E+02  0.19394433511E+02  0.51100000000E-03 0.  1.
        -12    1    3    3    0    0 -0.21018696146E+01 -0.60584321049E+01  0.52068347861E+01  0.82603622158E+01  0.00000000000E+00 0.  1.
</event>
<event>
 7    1  0.5290964E-013  0.5052886E+02  0.7816164E-02  0.1300439E+00
        -11   -1    0    0    0    0  0.00000000000E+00  0.00000000000E+00  0.45593999997E+02  0.45594000000E+02  0.51100000000E-03 0.  1.
         11   -1    0    0    0    0 -0.00000000000E+00 -0.00000000000E+00 -0.45593999997E+02  0.45594000000E+02  0.51100000000E-03 0. -1.
    9900012    2    1    2    0    0 -0.22316115657E+02 -0.16047409416E+02  0.29960594890E+02  0.50528860644E+02  0.30000002414E+02 0.  0.
         12    1    1    2    0    0  0.22316115657E+02  0.16047409416E+02 -0.29960594890E+02  0.40659139356E+02  0.00000000000E+00 0. -1.
         11    1    3    3    0    0 -0.15156408268E+01  0.31515604271E+01 -0.90149832076E+00  0.36113985830E+01  0.51100000000E-03 0. -1.
        -11    1    3    3    0    0  0.39095245637E+01 -0.28253272903E+01  0.11740649116E+01  0.49644018058E+01  0.51100000000E-03 0.  1.
        -12    1    3    3    0    0 -0.24709999394E+02 -0.16373642552E+02  0.29688028300E+02  0.41953060255E+02  0.00000000000E+00 0.  1.
</event>
<event>
 7    1  0.5290964E-013  0.5052889E+02  0.7816164E-02  0.1300439E+00
        -11   -1    0    0    0    0  0.00000000000E+00  0.00000000000E+00  0.45593999997E+02  0.45594000000E+02  0.51100000000E-03 0.  1.
         11   -1    0    0    0    0 -0.00000000000E+00 -0.00000000000E+00 -0.45593999997E+02  0.45594000000E+02  0.51100000000E-03 0. -1.
    9900012    2    1    2    0    0  0.27799707553E+02  0.15716860985E+02  0.25165842200E+02  0.50528891883E+02  0.30000097366E+02 0.  0.
         12    1    1    2    0    0 -0.27799707553E+02 -0.15716860985E+02 -0.25165842200E+02  0.40659108117E+02  0.00000000000E+00 0. -1.
         11    1    3    3    0    0  0.88782730308E+00  0.21830579125E+01 -0.15460272145E+01  0.28185421016E+01  0.51100000000E-03 0. -1.
        -11    1    3    3    0    0 -0.45072338667E+01  0.27743297196E+01  0.79971431789E+01  0.95899093743E+01  0.51100000000E-03 0.  1.
         12    1    3    3    0    0  0.31419114117E+02  0.10759473353E+02  0.18714726236E+02  0.38120440407E+02  0.00000000000E+00 0. -1.
</event>
<event>
 7    1  0.5290964E-013  0.5052886E+02  0.7816164E-02  0.1300439E+00
        -11   -1    0    0    0    0  0.00000000000E+00  0.00000000000E+00  0.45593999997E+02  0.45594000000E+02  0.51100000000E-03 0.  1.
         11   -1    0    0    0    0 -0.00000000000E+00 -0.00000000000E+00 -0.45593999997E+02  0.45594000000E+02  0.51100000000E-03 0. -1.
    9900012    2    1    2    0    0 -0.11360478585E+02 -0.25356555969E+02  0.29684173154E+02  0.50528861542E+02  0.30000005144E+02 0.  0.
         12    1    1    2    0    0  0.11360478585E+02  0.25356555969E+02 -0.29684173154E+02  0.40659138458E+02  0.00000000000E+00 0. -1.
         11    1    3    3    0    0  0.19274942782E+01  0.37995836569E+01  0.85799120613E+00  0.43460579068E+01  0.51100000000E-03 0. -1.
        -11    1    3    3    0    0 -0.10966629690E+02 -0.78079058295E+01  0.56858623458E+01  0.14613671376E+02  0.51100000000E-03 0.  1.
         12    1    3    3    0    0 -0.23213431733E+01 -0.21348233796E+02  0.23140319602E+02  0.31569132260E+02  0.00000000000E+00 0. -1.
</event>
<event>
 7    1  0.5290964E-013  0.5052886E+02  0.7816164E-02  0.1300439E+00
        -11   -1    0    0    0    0  0.00000000000E+00  0.00000000000E+00  0.45593999997E+02  0.45594000000E+02  0.51100000000E-03 0.  1.
         11   -1    0    0    0    0 -0.00000000000E+00 -0.00000000000E+00 -0.45593999997E+02  0.45594000000E+02  0.51100000000E-03 0. -1.
    9900012    2    1    2    0    0  0.20774459494E+02  0.15998190887E+02  0.31074834681E+02  0.50528860445E+02  0.30000001808E+02 0.  0.
         12    1    1    2    0    0 -0.20774459494E+02 -0.15998190887E+02 -0.31074834681E+02  0.40659139555E+02  0.00000000000E+00 0. -1.
         11    1    3    3    0    0  0.37171227005E+01  0.39984837326E+01 -0.22019790061E+01  0.58867295789E+01  0.51100000000E-03 0. -1.
        -11    1    3    3    0    0  0.18035653017E+02  0.16558634098E+02  0.24134601369E+02  0.34379530631E+02  0.51100000000E-03 0.  1.
         12    1    3    3    0    0 -0.97831622384E+00 -0.45589269433E+01  0.91422123179E+01  0.10262600235E+02  0.00000000000E+00 0. -1.
</event>
<event>
 7    1  0.5290964E-013  0.5052887E+02  0.7816164E-02  0.1300439E+00
        -11   -1    0    0    0    0  0.00000000000E+00  0.00000000000E+00  0.45593999997E+02  0.45594000000E+02  0.51100000000E-03 0.  1.
         11   -1    0    0    0    0 -0.00000000000E+00 -0.00000000000E+00 -0.45593999997E+02  0.45594000000E+02  0.51100000000E-03 0. -1.
    9900012    2    1    2    0    0  0.29727656917E+02  0.85241656207E+01  0.26396405910E+02  0.50528865352E+02  0.30000016725E+02 0.  0.
         12    1    1    2    0    0 -0.29727656917E+02 -0.85241656207E+01 -0.26396405910E+02  0.40659134648E+02  0.00000000000E+00 0. -1.
         11    1    3    3    0    0  0.10063522656E+02  0.14149977529E+01  0.10945121527E+02  0.14935608203E+02  0.51100000000E-03 0. -1.
        -11    1    3    3    0    0  0.14466730478E+02  0.26410024186E+00  0.20897931213E+02  0.25418095304E+02  0.51100000000E-03 0.  1.
         12    1    3    3    0    0  0.51974037822E+01  0.68450676259E+01 -0.54466468296E+01  0.10175161845E+02  0.00000000000E+00 0. -1.
</event>
<event>
 7    1  0.5290964E-013  0.5052888E+02  0.7816164E-02  0.1300439E+00
        -11   -1    0    0    0    0  0.00000000000E+00  0.00000000000E+00  0.45593999997E+02  0.45594000000E+02  0.51100000000E-03 0.  1.
         11   -1    0    0    0    0 -0.00000000000E+00 -0.00000000000E+00 -0.45593999997E+02  0.45594000000E+02  0.51100000000E-03 0. -1.
    9900012    2    1    2    0    0 -0.33107555066E+02 -0.23063243342E+02  0.50140272976E+01  0.50528882134E+02  0.30000067734E+02 0.  0.
         12    1    1    2    0    0  0.33107555066E+02  0.23063243342E+02 -0.50140272976E+01  0.40659117866E+02  0.00000000000E+00 0. -1.
         11    1    3    3    0    0 -0.11031583876E+01 -0.12982880671E+01 -0.26392746386E+01  0.31413820545E+01  0.51100000000E-03 0. -1.
        -11    1    3    3    0    0 -0.27852435807E+02 -0.22030854818E+02 -0.33053121108E+01  0.35665695463E+02  0.51100000000E-03 0.  1.
         12    1    3    3    0    0 -0.41519608708E+01  0.26589954264E+00  0.10958614047E+02  0.11721804617E+02  0.00000000000E+00 0. -1.
</event>
<event>
 7    1  0.5290964E-013  0.5052891E+02  0.7816164E-02  0.1300439E+00
        -11   -1    0    0    0    0  0.00000000000E+00  0.00000000000E+00  0.45593999997E+02  0.45594000000E+02  0.51100000000E-03 0.  1.
         11   -1    0    0    0    0 -0.00000000000E+00 -0.00000000000E+00 -0.45593999997E+02  0.45594000000E+02  0.51100000000E-03 0. -1.
    9900012    2    1    2    0    0 -0.23533096690E+02  0.10511755851E+02  0.31446107145E+02  0.50528913617E+02  0.30000163431E+02 0.  0.
         12    1    1    2    0    0  0.23533096690E+02 -0.10511755851E+02 -0.31446107145E+02  0.40659086383E+02  0.00000000000E+00 0. -1.
         11    1    3    3    0    0 -0.31959404552E+01  0.11448772274E+01  0.79355959179E+01  0.86312491618E+01  0.51100000000E-03 0. -1.
        -11    1    3    3    0    0 -0.10625675463E+02 -0.38035575579E+01  0.22891248629E+02  0.25522172580E+02  0.51100000000E-03 0.  1.
         12    1    3    3    0    0 -0.97114807720E+01  0.13170436182E+02  0.61926259792E+00  0.16375491876E+02  0.00000000000E+00 0. -1.
</event>
<event>
 7    1  0.5290964E-013  0.5052886E+02  0.7816164E-02  0.1300439E+00
        -11   -1    0    0    0    0  0.00000000000E+00  0.00000000000E+00  0.45593999997E+02  0.45594000000E+02  0.51100000000E-03 0.  1.
         11   -1    0    0    0    0 -0.00000000000E+00 -0.00000000000E+00 -0.45593999997E+02  0.45594000000E+02  0.51100000000E-03 0. -1.
    9900012    2    1    2    0    0 -0.33416455689E+02 -0.15665510836E+02  0.17061588782E+02  0.50528861392E+02  0.30000004688E+02 0.  0.
         12    1    1    2    0    0  0.33416455689E+02  0.15665510836E+02 -0.17061588782E+02  0.40659138608E+02  0.00000000000E+00 0. -1.
         11    1    3    3    0    0  0.37157264264E+01  0.33260274391E+01 -0.28965697106E+00  0.49952960696E+01  0.51100000000E-03 0. -1.
        -11    1    3    3    0    0 -0.12201707088E+02 -0.61310562778E+01  0.86431778966E+01  0.16160941537E+02  0.51100000000E-03 0.  1.
        -12    1    3    3    0    0 -0.24930475027E+02 -0.12860481997E+02  0.87080678561E+01  0.29372623786E+02  0.00000000000E+00 0.  1.
</event>
<event>
 7    1  0.5290964E-013  0.5052887E+02  0.7816164E-02  0.1300439E+00
        -11   -1    0    0    0    0  0.00000000000E+00  0.00000000000E+00  0.45593999997E+02  0.45594000000E+02  0.51100000000E-03 0.  1.
         11   -1    0    0    0    0 -0.00000000000E+00 -0.00000000000E+00 -0.45593999997E+02  0.45594000000E+02  0.51100000000E-03 0. -1.
    9900012    2    1    2    0    0 -0.21201588495E+02 -0.34668382728E+02  0.13270347210E+01  0.50528866501E+02  0.30000020217E+02 0.  0.
         12    1    1    2    0    0  0.21201588495E+02  0.34668382728E+02 -0.13270347210E+01  0.40659133499E+02  0.00000000000E+00 0. -1.
         11    1    3    3    0    0  0.51867206726E+00 -0.16210963177E+02  0.24366366136E+01  0.16401266600E+02  0.51100000000E-03 0. -1.
        -11    1    3    3    0    0 -0.22688126743E+02 -0.16963146949E+02 -0.59706482973E+01  0.28950787397E+02  0.51100000000E-03 0.  1.
         12    1    3    3    0    0  0.96786618082E+00 -0.14942726022E+01  0.48610464048E+01  0.51768125041E+01  0.00000000000E+00 0. -1.
</event>
<event>
 7    1  0.5290964E-013  0.5052885E+02  0.7816164E-02  0.1300439E+00
        -11   -1    0    0    0    0  0.00000000000E+00  0.00000000000E+00  0.45593999997E+02  0.45594000000E+02  0.51100000000E-03 0.  1.
         11   -1    0    0    0    0 -0.00000000000E+00 -0.00000000000E+00 -0.45593999997E+02  0.45594000000E+02  0.51100000000E-03 0. -1.
    9900012    2    1    2    0    0  0.73005388083E+00 -0.37629568220E+02  0.15383402865E+02  0.50528850146E+02  0.29999970505E+02 0.  0.
         12    1    1    2    0    0 -0.73005388083E+00  0.37629568220E+02 -0.15383402865E+02  0.40659149854E+02  0.00000000000E+00 0. -1.
         11    1    3    3    0    0  0.33774665018E+01 -0.29043113277E+02  0.16940527581E+02  0.33791880442E+02  0.51100000000E-03 0. -1.
        -11    1    3    3    0    0  0.32114554775E+01 -0.81094168396E+01  0.30798526406E+01  0.92499502869E+01  0.51100000000E-03 0.  1.
         12    1    3    3    0    0 -0.58588680984E+01 -0.47703810343E+00 -0.46369773570E+01  0.74870194174E+01  0.00000000000E+00 0. -1.
</event>
<event>
 7    1  0.5290964E-013  0.5052886E+02  0.7816164E-02  0.1300439E+00
        -11   -1    0    0    0    0  0.00000000000E+00  0.00000000000E+00  0.45593999997E+02  0.45594000000E+02  0.51100000000E-03 0.  1.
         11   -1    0    0    0    0 -0.00000000000E+00 -0.00000000000E+00 -0.45593999997E+02  0.45594000000E+02  0.51100000000E-03 0. -1.
    9900012    2    1    2    0    0 -0.41188681175E+00  0.24839796151E+02  0.32186647213E+02  0.50528863482E+02  0.30000011041E+02 0.  0.
         12    1    1    2    0    0  0.41188681175E+00 -0.24839796151E+02 -0.32186647213E+02  0.40659136518E+02  0.00000000000E+00 0. -1.
         11    1    3    3    0    0  0.20949227259E+01  0.12788554064E+02  0.91231092825E+01  0.15848247206E+02  0.51100000000E-03 0. -1.
        -11    1    3    3    0    0  0.46865911715E+01  0.16627163553E+02  0.13982224535E+02  0.22224520418E+02  0.51100000000E-03 0.  1.
         12    1    3    3    0    0 -0.71934007092E+01 -0.45759214659E+01  0.90813133956E+01  0.12456095858E+02  0.00000000000E+00 0. -1.
</event>
<event>
 7    1  0.5290964E-013  0.5052887E+02  0.7816164E-02  0.1300439E+00
        -11   -1    0    0    0    0  0.00000000000E+00  0.00000000000E+00  0.45593999997E+02  0.45594000000E+02  0.51100000000E-03 0. -1.
         11   -1    0    0    0    0 -0.00000000000E+00 -0.00000000000E+00 -0.45593999997E+02  0.45594000000E+02  0.51100000000E-03 0.  1.
    9900012    2    1    2    0    0  0.37756686291E+02 -0.12519572463E+02 -0.84177157717E+01  0.50528868269E+02  0.30000025590E+02 0.  0.
         12    1    1    2    0    0 -0.37756686291E+02  0.12519572463E+02  0.84177157717E+01  0.40659131731E+02  0.00000000000E+00 0. -1.
         11    1    3    3    0    0  0.68595251665E+01 -0.41870989729E+01  0.44366564712E+00  0.80487093864E+01  0.51100000000E-03 0. -1.
        -11    1    3    3    0    0  0.27702902999E+02 -0.12323272699E+02 -0.15539383922E+02  0.34070314608E+02  0.51100000000E-03 0.  1.
         12    1    3    3    0    0  0.31942581256E+01  0.39907992083E+01  0.66780025027E+01  0.84098442744E+01  0.00000000000E+00 0. -1.
</event>
<event>
 7    1  0.5290964E-013  0.5052886E+02  0.7816164E-02  0.1300439E+00
        -11   -1    0    0    0    0  0.00000000000E+00  0.00000000000E+00  0.45593999997E+02  0.45594000000E+02  0.51100000000E-03 0. -1.
         11   -1    0    0    0    0 -0.00000000000E+00 -0.00000000000E+00 -0.45593999997E+02  0.45594000000E+02  0.51100000000E-03 0.  1.
    9900012    2    1    2    0    0  0.78230988701E+01 -0.37843950465E+02 -0.12641213357E+02  0.50528859110E+02  0.29999997751E+02 0.  0.
         12    1    1    2    0    0 -0.78230988701E+01  0.37843950465E+02  0.12641213357E+02  0.40659140890E+02  0.00000000000E+00 0. -1.
         11    1    3    3    0    0 -0.20342418902E-01  0.23933825307E+01  0.13358675245E+01  0.27410282845E+01  0.51100000000E-03 0. -1.
        -11    1    3    3    0    0  0.29959455926E+01 -0.16481764047E+02 -0.16373369072E+02  0.23424590735E+02  0.51100000000E-03 0.  1.
        -12    1    3    3    0    0  0.48474956963E+01 -0.23755568949E+02  0.23962881898E+01  0.24363240091E+02  0.00000000000E+00 0.  1.
</event>
<event>
 7    1  0.5290964E-013  0.5052887E+02  0.7816164E-02  0.1300439E+00
        -11   -1    0    0    0    0  0.00000000000E+00  0.00000000000E+00  0.45593999997E+02  0.45594000000E+02  0.51100000000E-03 0.  1.
         11   -1    0    0    0    0 -0.00000000000E+00 -0.00000000000E+00 -0.45593999997E+02  0.45594000000E+02  0.51100000000E-03 0. -1.
    9900012    2    1    2    0    0  0.86571640475E+01 -0.22221034020E+02  0.32930898928E+02  0.50528868842E+02  0.30000027333E+02 0.  0.
         12    1    1    2    0    0 -0.86571640475E+01  0.22221034020E+02 -0.32930898928E+02  0.40659131158E+02  0.00000000000E+00 0. -1.
         11    1    3    3    0    0  0.10533261328E+02 -0.11664643778E+01  0.14163795457E+02  0.17689639209E+02  0.51100000000E-03 0. -1.
        -11    1    3    3    0    0 -0.71577381660E+01 -0.48385370681E+01  0.11292987055E+02  0.14218868221E+02  0.51100000000E-03 0.  1.
        -12    1    3    3    0    0  0.52816408856E+01 -0.16216032574E+02  0.74741164163E+01  0.18620361412E+02  0.00000000000E+00 0.  1.
</event>
<event>
 7    1  0.5290964E-013  0.5052885E+02  0.7816164E-02  0.1300439E+00
        -11   -1    0    0    0    0  0.00000000000E+00  0.00000000000E+00  0.45593999997E+02  0.45594000000E+02  0.51100000000E-03 0. -1.
         11   -1    0    0    0    0 -0.00000000000E+00 -0.00000000000E+00 -0.45593999997E+02  0.45594000000E+02  0.51100000000E-03 0.  1.
    9900012    2    1    2    0    0  0.11097696420E+02 -0.25436913920E+02 -0.29714823382E+02  0.50528853622E+02  0.29999981069E+02 0.  0.
         12    1    1    2    0    0 -0.11097696420E+02  0.25436913920E+02  0.29714823382E+02  0.40659146378E+02  0.00000000000E+00 0. -1.
         11    1    3    3    0    0 -0.13826862855E+01 -0.42328064352E+01  0.21234026350E+00  0.44579771568E+01  0.51100000000E-03 0. -1.
        -11    1    3    3    0    0 -0.30024378803E+00 -0.21831473324E+02 -0.15437487399E+02  0.26739846508E+02  0.51100000000E-03 0.  1.
        -12    1    3    3    0    0  0.12780626493E+02  0.62736583961E+00 -0.14489676246E+02  0.19331029957E+02  0.00000000000E+00 0.  1.
</event>
<event>
 7    1  0.5290964E-013  0.5052886E+02  0.7816164E-02  0.1300439E+00
        -11   -1    0    0    0    0  0.00000000000E+00  0.00000000000E+00  0.45593999997E+02  0.45594000000E+02  0.51100000000E-03 0.  1.
         11   -1    0    0    0    0 -0.00000000000E+00 -0.00000000000E+00 -0.45593999997E+02  0.45594000000E+02  0.51100000000E-03 0. -1.
    9900012    2    1    2    0    0 -0.15166805340E+02 -0.21053506223E+02  0.31303086176E+02  0.50528864339E+02  0.30000013646E+02 0.  0.
         12    1    1    2    0    0  0.15166805340E+02  0.21053506223E+02 -0.31303086176E+02  0.40659135661E+02  0.00000000000E+00 0. -1.
         11    1    3    3    0    0  0.10366056877E+01  0.36318245717E+01  0.13058826208E+02  0.13594029692E+02  0.51100000000E-03 0. -1.
        -11    1    3    3    0    0 -0.83014614701E+01 -0.46426005921E+01  0.14568268601E+01  0.96223878305E+01  0.51100000000E-03 0.  1.
        -12    1    3    3    0    0 -0.79019495579E+01 -0.20042730202E+02  0.16787433108E+02  0.27312446817E+02  0.00000000000E+00 0.  1.
</event>
<event>
 7    1  0.5290964E-013  0.5052886E+02  0.7816164E-02  0.1300439E+00
        -11   -1    0    0    0    0  0.00000000000E+00  0.00000000000E+00  0.45593999997E+02  0.45594000000E+02  0.51100000000E-03 0.  1.
         11   -1    0    0    0    0 -0.00000000000E+00 -0.00000000000E+00 -0.45593999997E+02  0.45594000000E+02  0.51100000000E-03 0. -1.
    9900012    2    1    2    0    0 -0.20497522792E+02 -0.32258658983E+02  0.13870682766E+02  0.50528863752E+02  0.30000011862E+02 0.  0.
         12    1    1    2    0    0  0.20497522792E+02  0.32258658983E+02 -0.13870682766E+02  0.40659136248E+02  0.00000000000E+00 0. -1.
         11    1    3    3    0    0 -0.55909454640E+01 -0.10589957823E+02  0.49817700138E+01  0.12970116060E+02  0.51100000000E-03 0. -1.
        -11    1    3    3    0    0 -0.11703981097E+02 -0.20195455135E+02  0.16892554883E+02  0.28813156585E+02  0.51100000000E-03 0.  1.
         12    1    3    3    0    0 -0.32025962310E+01 -0.14732460257E+01 -0.80036421310E+01  0.87455911082E+01  0.00000000000E+00 0. -1.
</event>
<event>
 7    1  0.5290964E-013  0.5052886E+02  0.7816164E-02  0.1300439E+00
        -11   -1    0    0    0    0  0.00000000000E+00  0.00000000000E+00  0.45593999997E+02  0.45594000000E+02  0.51100000000E-03 0.  1.
         11   -1    0    0    0    0 -0.00000000000E+00 -0.00000000000E+00 -0.45593999997E+02  0.45594000000E+02  0.51100000000E-03 0. -1.
    9900012    2    1    2    0    0  0.11530294368E+02  0.11879567379E+02  0.37136151846E+02  0.50528861012E+02  0.30000003532E+02 0.  0.
         12    1    1    2    0    0 -0.11530294368E+02 -0.11879567379E+02 -0.37136151846E+02  0.40659138988E+02  0.00000000000E+00 0. -1.
         11    1    3    3    0    0 -0.61637510408E+01 -0.23037965748E+01  0.13536521950E+02  0.15051137243E+02  0.51100000000E-03 0. -1.
        -11    1    3    3    0    0  0.27976537419E+01 -0.27359394783E+01  0.41558133454E+01  0.57081534766E+01  0.51100000000E-03 0.  1.
        -12    1    3    3    0    0  0.14896391667E+02  0.16919303432E+02  0.19443816550E+02  0.29769570292E+02  0.00000000000E+00 0.  1.
</event>
<event>
 7    1  0.5290964E-013  0.5052886E+02  0.7816164E-02  0.1300439E+00
        -11   -1    0    0    0    0  0.00000000000E+00  0.00000000000E+00  0.45593999997E+02  0.45594000000E+02  0.51100000000E-03 0.  1.
         11   -1    0    0    0    0 -0.00000000000E+00 -0.00000000000E+00 -0.45593999997E+02  0.45594000000E+02  0.51100000000E-03 0. -1.
    9900012    2    1    2    0    0  0.53063245147E+00  0.90714902911E+01  0.39630701814E+02  0.50528855479E+02  0.29999986715E+02 0.  0.
         12    1    1    2    0    0 -0.53063245147E+00 -0.90714902911E+01 -0.39630701814E+02  0.40659144521E+02  0.00000000000E+00 0. -1.
         11    1    3    3    0    0 -0.34164481491E+01  0.52822759975E+01  0.32849310660E+01  0.70968535309E+01  0.51100000000E-03 0. -1.
        -11    1    3    3    0    0  0.29627610959E+01  0.12712410365E+02  0.29106739185E+02  0.31899617503E+02  0.51100000000E-03 0.  1.
         12    1    3    3    0    0  0.98431950465E+00 -0.89231960718E+01  0.72390315632E+01  0.11532384445E+02  0.00000000000E+00 0. -1.
</event>
<event>
 7    1  0.5290964E-013  0.5052887E+02  0.7816164E-02  0.1300439E+00
        -11   -1    0    0    0    0  0.00000000000E+00  0.00000000000E+00  0.45593999997E+02  0.45594000000E+02  0.51100000000E-03 0. -1.
         11   -1    0    0    0    0 -0.00000000000E+00 -0.00000000000E+00 -0.45593999997E+02  0.45594000000E+02  0.51100000000E-03 0.  1.
    9900012    2    1    2    0    0  0.94813100986E+01 -0.28234393544E+02  0.27678305974E+02  0.50528870132E+02  0.30000031254E+02 0.  0.
         12    1    1    2    0    0 -0.94813100986E+01  0.28234393544E+02 -0.27678305974E+02  0.40659129868E+02  0.00000000000E+00 0. -1.
         11    1    3    3    0    0 -0.21526521091E+01 -0.10935756158E+02  0.15292662304E+02  0.18923271241E+02  0.51100000000E-03 0. -1.
        -11    1    3    3    0    0  0.29712474427E+01 -0.17473417647E+02  0.14250639354E+02  0.22742677017E+02  0.51100000000E-03 0.  1.
        -12    1    3    3    0    0  0.86627147651E+01  0.17478026154E+00 -0.18649956844E+01  0.88629218740E+01  0.00000000000E+00 0.  1.
</event>
<event>
 7    1  0.5290964E-013  0.5052886E+02  0.7816164E-02  0.1300439E+00
        -11   -1    0    0    0    0  0.00000000000E+00  0.00000000000E+00  0.45593999997E+02  0.45594000000E+02  0.51100000000E-03 0. -1.
         11   -1    0    0    0    0 -0.00000000000E+00 -0.00000000000E+00 -0.45593999997E+02  0.45594000000E+02  0.51100000000E-03 0.  1.
    9900012    2    1    2    0    0  0.17444488633E+02 -0.24342285981E+02 -0.27501067855E+02  0.50528858302E+02  0.29999995295E+02 0.  0.
         12    1    1    2    0    0 -0.17444488633E+02  0.24342285981E+02  0.27501067855E+02  0.40659141698E+02  0.00000000000E+00 0. -1.
         11    1    3    3    0    0  0.97613322855E+00 -0.85050796876E+01 -0.15378086930E+02  0.17600419724E+02  0.51100000000E-03 0. -1.
        -11    1    3    3    0    0  0.19145060702E+02 -0.13624533058E+02 -0.15447422157E+02  0.28120883732E+02  0.51100000000E-03 0.  1.
         12    1    3    3    0    0 -0.26767052977E+01 -0.22126732350E+01  0.33244412315E+01  0.48075548460E+01  0.00000000000E+00 0. -1.
</event>
<event>
 7    1  0.5290964E-013  0.5052888E+02  0.7816164E-02  0.1300439E+00
        -11   -1    0    0    0    0  0.00000000000E+00  0.00000000000E+00  0.45593999997E+02  0.45594000000E+02  0.51100000000E-03 0.  1.
         11   -1    0    0    0    0 -0.00000000000E+00 -0.00000000000E+00 -0.45593999997E+02  0.45594000000E+02  0.51100000000E-03 0. -1.
    9900012    2    1    2    0    0  0.77805305987E+01 -0.39422125415E+02 -0.62067320416E+01  0.50528878621E+02  0.30000057058E+02 0.  0.
         12    1    1    2    0    0 -0.77805305987E+01  0.39422125415E+02  0.62067320416E+01  0.40659121379E+02  0.00000000000E+00 0. -1.
         11    1    3    3    0    0 -0.16480749495E+00 -0.94987309046E+01 -0.12104269734E+01  0.95769611061E+01  0.51100000000E-03 0.  1.
        -11    1    3    3    0    0  0.21281267711E+01 -0.30878060419E+02 -0.10700611988E+02  0.32748841750E+02  0.51100000000E-03 0. -1.
         12    1    3    3    0    0  0.58172113225E+01  0.95466590887E+00  0.57043069199E+01  0.82030757649E+01  0.00000000000E+00 0. -1.
</event>
<event>
 7    1  0.5290964E-013  0.5052887E+02  0.7816164E-02  0.1300439E+00
        -11   -1    0    0    0    0  0.00000000000E+00  0.00000000000E+00  0.45593999997E+02  0.45594000000E+02  0.51100000000E-03 0.  1.
         11   -1    0    0    0    0 -0.00000000000E+00 -0.00000000000E+00 -0.45593999997E+02  0.45594000000E+02  0.51100000000E-03 0. -1.
    9900012    2    1    2    0    0  0.11267808101E+02 -0.10220381359E+02  0.37706040997E+02  0.50528865452E+02  0.30000017028E+02 0.  0.
         12    1    1    2    0    0 -0.11267808101E+02  0.10220381359E+02 -0.37706040997E+02  0.40659134548E+02  0.00000000000E+00 0. -1.
         11    1    3    3    0    0 -0.29258070718E+01  0.38316940227E+01 -0.20616095569E+00  0.48254252357E+01  0.51100000000E-03 0. -1.
        -11    1    3    3    0    0 -0.12924169387E+01 -0.52875803343E+01  0.23320279400E+01  0.59217566574E+01  0.51100000000E-03 0.  1.
        -12    1    3    3    0    0  0.15486032112E+02 -0.87644950475E+01  0.35580174013E+02  0.39781683559E+02  0.00000000000E+00 0.  1.
</event>
<event>
 7    1  0.5290964E-013  0.5052888E+02  0.7816164E-02  0.1300439E+00
        -11   -1    0    0    0    0  0.00000000000E+00  0.00000000000E+00  0.45593999997E+02  0.45594000000E+02  0.51100000000E-03 0. -1.
         11   -1    0    0    0    0 -0.00000000000E+00 -0.00000000000E+00 -0.45593999997E+02  0.45594000000E+02  0.51100000000E-03 0.  1.
    9900012    2    1    2    0    0 -0.53470667172E+01 -0.32001211349E+02 -0.24505008450E+02  0.50528879382E+02  0.30000059369E+02 0.  0.
         12    1    1    2    0    0  0.53470667172E+01  0.32001211349E+02  0.24505008450E+02  0.40659120618E+02  0.00000000000E+00 0. -1.
         11    1    3    3    0    0  0.48142838747E+01 -0.10033142903E+02  0.34292737140E+01  0.11644793008E+02  0.51100000000E-03 0. -1.
        -11    1    3    3    0    0 -0.10461312816E+02 -0.12127146761E+02 -0.11465787363E+02  0.19696980340E+02  0.51100000000E-03 0.  1.
        -12    1    3    3    0    0  0.29996222382E+00 -0.98409216854E+01 -0.16468494801E+02  0.19187106034E+02  0.00000000000E+00 0.  1.
</event>
<event>
 7    1  0.5290964E-013  0.5052886E+02  0.7816164E-02  0.1300439E+00
        -11   -1    0    0    0    0  0.00000000000E+00  0.00000000000E+00  0.45593999997E+02  0.45594000000E+02  0.51100000000E-03 0.  1.
         11   -1    0    0    0    0 -0.00000000000E+00 -0.00000000000E+00 -0.45593999997E+02  0.45594000000E+02  0.51100000000E-03 0. -1.
    9900012    2    1    2    0    0 -0.18543600591E+02 -0.24136532557E+02  0.26957896021E+02  0.50528862225E+02  0.30000007220E+02 0.  0.
         12    1    1    2    0    0  0.18543600591E+02  0.24136532557E+02 -0.26957896021E+02  0.40659137775E+02  0.00000000000E+00 0. -1.
         11    1    3    3    0    0  0.39653675300E+01  0.11132727088E+01 -0.14577930666E+01  0.43690590129E+01  0.51100000000E-03 0. -1.
        -11    1    3    3    0    0 -0.23044349012E+01 -0.46547725088E+00 -0.11432650293E+01  0.26142196682E+01  0.51100000000E-03 0.  1.
        -12    1    3    3    0    0 -0.20204533219E+02 -0.24784328015E+02  0.29558954116E+02  0.43545583544E+02  0.00000000000E+00 0.  1.
</event>
<event>
 7    1  0.5290964E-013  0.5052886E+02  0.7816164E-02  0.1300439E+00
        -11   -1    0    0    0    0  0.00000000000E+00  0.00000000000E+00  0.45593999997E+02  0.45594000000E+02  0.51100000000E-03 0.  1.
         11   -1    0    0    0    0 -0.00000000000E+00 -0.00000000000E+00 -0.45593999997E+02  0.45594000000E+02  0.51100000000E-03 0. -1.
    9900012    2    1    2    0    0  0.18116641652E+02 -0.32315242461E+02  0.16753440651E+02  0.50528863589E+02  0.30000011366E+02 0.  0.
         12    1    1    2    0    0 -0.18116641652E+02  0.32315242461E+02 -0.16753440651E+02  0.40659136411E+02  0.00000000000E+00 0. -1.
         11    1    3    3    0    0  0.94395156419E+01 -0.25143110748E+01  0.14057652070E+02  0.17118522066E+02  0.51100000000E-03 0. -1.
        -11    1    3    3    0    0  0.27973405695E+01 -0.81514284688E+01  0.63182314712E+01  0.10686016542E+02  0.51100000000E-03 0.  1.
         12    1    3    3    0    0  0.58797854403E+01 -0.21649502917E+02 -0.36224428902E+01  0.22724324982E+02  0.00000000000E+00 0. -1.
</event>
<event>
 7    1  0.5290964E-013  0.5052886E+02  0.7816164E-02  0.1300439E+00
        -11   -1    0    0    0    0  0.00000000000E+00  0.00000000000E+00  0.45593999997E+02  0.45594000000E+02  0.51100000000E-03 0.  1.
         11   -1    0    0    0    0 -0.00000000000E+00 -0.00000000000E+00 -0.45593999997E+02  0.45594000000E+02  0.51100000000E-03 0. -1.
    9900012    2    1    2    0    0 -0.33287017075E+02 -0.77065354401E+01  0.22039728630E+02  0.50528857949E+02  0.29999994221E+02 0.  0.
         12    1    1    2    0    0  0.33287017075E+02  0.77065354401E+01 -0.22039728630E+02  0.40659142051E+02  0.00000000000E+00 0. -1.
         11    1    3    3    0    0  0.37515875814E+01 -0.15644916875E+00  0.43881745976E+01  0.57753755101E+01  0.51100000000E-03 0. -1.
        -11    1    3    3    0    0 -0.28181962170E+01  0.19982522630E+01  0.67638335622E+01  0.75950435642E+01  0.51100000000E-03 0.  1.
        -12    1    3    3    0    0 -0.34220408440E+02 -0.95483385344E+01  0.10887720470E+02  0.37158438874E+02  0.00000000000E+00 0.  1.
</event>
<event>
 7    1  0.5290964E-013  0.5052889E+02  0.7816164E-02  0.1300439E+00
        -11   -1    0    0    0    0  0.00000000000E+00  0.00000000000E+00  0.45593999997E+02  0.45594000000E+02  0.51100000000E-03 0.  1.
         11   -1    0    0    0    0 -0.00000000000E+00 -0.00000000000E+00 -0.45593999997E+02  0.45594000000E+02  0.51100000000E-03 0. -1.
    9900012    2    1    2    0    0 -0.17887088921E+02 -0.20315408907E+02  0.30339738393E+02  0.50528886447E+02  0.30000080845E+02 0.  0.
         12    1    1    2    0    0  0.17887088921E+02  0.20315408907E+02 -0.30339738393E+02  0.40659113553E+02  0.00000000000E+00 0. -1.
         11    1    3    3    0    0 -0.19446658201E+02 -0.25144049022E+02  0.24008941464E+02  0.39834971908E+02  0.51100000000E-03 0. -1.
        -11    1    3    3    0    0 -0.24483690537E+01  0.48701074489E+00  0.30293803815E+01  0.39254090545E+01  0.51100000000E-03 0.  1.
         12    1    3    3    0    0  0.40079383339E+01  0.43416293701E+01  0.33014165479E+01  0.67685054848E+01  0.00000000000E+00 0. -1.
</event>
<event>
 7    1  0.5290964E-013  0.5052883E+02  0.7816164E-02  0.1300439E+00
        -11   -1    0    0    0    0  0.00000000000E+00  0.00000000000E+00  0.45593999997E+02  0.45594000000E+02  0.51100000000E-03 0.  1.
         11   -1    0    0    0    0 -0.00000000000E+00 -0.00000000000E+00 -0.45593999997E+02  0.45594000000E+02  0.51100000000E-03 0. -1.
    9900012    2    1    2    0    0 -0.51793072177E+01 -0.26273814464E+02  0.30594602170E+02  0.50528828443E+02  0.29999904537E+02 0.  0.
         12    1    1    2    0    0  0.51793072177E+01  0.26273814464E+02 -0.30594602170E+02  0.40659171557E+02  0.00000000000E+00 0. -1.
         11    1    3    3    0    0  0.37744695774E+01 -0.18061438414E+01  0.70133460552E+01  0.81667496176E+01  0.51100000000E-03 0. -1.
        -11    1    3    3    0    0 -0.19386002195E+01 -0.17905801051E+02  0.26749190533E+02  0.32247404183E+02  0.51100000000E-03 0.  1.
        -12    1    3    3    0    0 -0.70151765757E+01 -0.65618695714E+01 -0.31679344183E+01  0.10114674643E+02  0.00000000000E+00 0.  1.
</event>
<event>
 7    1  0.5290964E-013  0.5052886E+02  0.7816164E-02  0.1300439E+00
        -11   -1    0    0    0    0  0.00000000000E+00  0.00000000000E+00  0.45593999997E+02  0.45594000000E+02  0.51100000000E-03 0.  1.
         11   -1    0    0    0    0 -0.00000000000E+00 -0.00000000000E+00 -0.45593999997E+02  0.45594000000E+02  0.51100000000E-03 0. -1.
    9900012    2    1    2    0    0  0.15152221379E+02  0.17820607009E+02  0.33256604301E+02  0.50528861095E+02  0.30000003784E+02 0.  0.
         12    1    1    2    0    0 -0.15152221379E+02 -0.17820607009E+02 -0.33256604301E+02  0.40659138905E+02  0.00000000000E+00 0. -1.
         11    1    3    3    0    0  0.50809247012E+01  0.10450573953E+02  0.12432419525E+02  0.17017501205E+02  0.51100000000E-03 0. -1.
        -11    1    3    3    0    0  0.17035669877E+02  0.85881854244E+01  0.13806707259E+02  0.23549865024E+02  0.51100000000E-03 0.  1.
         12    1    3    3    0    0 -0.69643731997E+01 -0.12181523678E+01  0.70174775162E+01  0.99614948650E+01  0.00000000000E+00 0. -1.
</event>
<event>
 7    1  0.5290964E-013  0.5052886E+02  0.7816164E-02  0.1300439E+00
        -11   -1    0    0    0    0  0.00000000000E+00  0.00000000000E+00  0.45593999997E+02  0.45594000000E+02  0.51100000000E-03 0.  1.
         11   -1    0    0    0    0 -0.00000000000E+00 -0.00000000000E+00 -0.45593999997E+02  0.45594000000E+02  0.51100000000E-03 0. -1.
    9900012    2    1    2    0    0  0.16751332051E+02 -0.24511338802E+02  0.27780445651E+02  0.50528855692E+02  0.29999987360E+02 0.  0.
         12    1    1    2    0    0 -0.16751332051E+02  0.24511338802E+02 -0.27780445651E+02  0.40659144308E+02  0.00000000000E+00 0. -1.
         11    1    3    3    0    0  0.44276907768E+00  0.12158650984E+00 -0.22390456104E+01  0.22856406634E+01  0.51100000000E-03 0. -1.
        -11    1    3    3    0    0  0.79818796022E+01 -0.14468441823E+02  0.11975588396E+01  0.16567448754E+02  0.51100000000E-03 0.  1.
        -12    1    3    3    0    0  0.83266833708E+01 -0.10164483489E+02  0.28821932421E+02  0.31675766274E+02  0.00000000000E+00 0.  1.
</event>
<event>
 7    1  0.5290964E-013  0.5052886E+02  0.7816164E-02  0.1300439E+00
        -11   -1    0    0    0    0  0.00000000000E+00  0.00000000000E+00  0.45593999997E+02  0.45594000000E+02  0.51100000000E-03 0.  1.
         11   -1    0    0    0    0 -0.00000000000E+00 -0.00000000000E+00 -0.45593999997E+02  0.45594000000E+02  0.51100000000E-03 0. -1.
    9900012    2    1    2    0    0  0.39740229528E+02  0.46802238693E+01  0.72093703556E+01  0.50528863765E+02  0.30000011901E+02 0.  0.
         12    1    1    2    0    0 -0.39740229528E+02 -0.46802238693E+01 -0.72093703556E+01  0.40659136235E+02  0.00000000000E+00 0. -1.
         11    1    3    3    0    0  0.14253681399E+02 -0.27447330616E+01  0.15238390809E+01  0.14595310165E+02  0.51100000000E-03 0. -1.
        -11    1    3    3    0    0  0.14200679642E+02 -0.55072339007E+01  0.10018613694E+02  0.18230785725E+02  0.51100000000E-03 0.  1.
         12    1    3    3    0    0  0.11285868487E+02  0.12932190832E+02 -0.43330824191E+01  0.17702767876E+02  0.00000000000E+00 0. -1.
</event>
<event>
 7    1  0.5290964E-013  0.5052886E+02  0.7816164E-02  0.1300439E+00
        -11   -1    0    0    0    0  0.00000000000E+00  0.00000000000E+00  0.45593999997E+02  0.45594000000E+02  0.51100000000E-03 0. -1.
         11   -1    0    0    0    0 -0.00000000000E+00 -0.00000000000E+00 -0.45593999997E+02  0.45594000000E+02  0.51100000000E-03 0.  1.
    9900012    2    1    2    0    0  0.33000581749E+02  0.71310204009E+01 -0.22655600049E+02  0.50528855134E+02  0.29999985664E+02 0.  0.
         12    1    1    2    0    0 -0.33000581749E+02 -0.71310204009E+01  0.22655600049E+02  0.40659144866E+02  0.00000000000E+00 0. -1.
         11    1    3    3    0    0  0.13209680646E+01  0.98100559586E+01 -0.74737826029E+01  0.12403208504E+02  0.51100000000E-03 0. -1.
        -11    1    3    3    0    0  0.11257445458E+02 -0.45828708462E+01 -0.12508922760E+02  0.17441500288E+02  0.51100000000E-03 0.  1.
         12    1    3    3    0    0  0.20422168226E+02  0.19038352885E+01 -0.26728946858E+01  0.20684146341E+02  0.00000000000E+00 0. -1.
</event>
<event>
 7    1  0.5290964E-013  0.5052884E+02  0.7816164E-02  0.1300439E+00
        -11   -1    0    0    0    0  0.00000000000E+00  0.00000000000E+00  0.45593999997E+02  0.45594000000E+02  0.51100000000E-03 0.  1.
         11   -1    0    0    0    0 -0.00000000000E+00 -0.00000000000E+00 -0.45593999997E+02  0.45594000000E+02  0.51100000000E-03 0. -1.
    9900012    2    1    2    0    0 -0.78489289827E+01 -0.37756248142E+02  0.12885156080E+02  0.50528841042E+02  0.29999942832E+02 0.  0.
         12    1    1    2    0    0  0.78489289827E+01  0.37756248142E+02 -0.12885156080E+02  0.40659158958E+02  0.00000000000E+00 0. -1.
         11    1    3    3    0    0 -0.75277260577E+01 -0.31158751302E+02  0.67579322396E+01  0.32759793814E+02  0.51100000000E-03 0. -1.
        -11    1    3    3    0    0  0.71034785091E+01 -0.48624112597E+01  0.52771877092E+01  0.10097086737E+02  0.51100000000E-03 0.  1.
        -12    1    3    3    0    0 -0.74246814341E+01 -0.17350855805E+01  0.85003613091E+00  0.76719604922E+01  0.00000000000E+00 0.  1.
</event>
<event>
 7    1  0.5290964E-013  0.5052886E+02  0.7816164E-02  0.1300439E+00
        -11   -1    0    0    0    0  0.00000000000E+00  0.00000000000E+00  0.45593999997E+02  0.45594000000E+02  0.51100000000E-03 0. -1.
         11   -1    0    0    0    0 -0.00000000000E+00 -0.00000000000E+00 -0.45593999997E+02  0.45594000000E+02  0.51100000000E-03 0.  1.
    9900012    2    1    2    0    0 -0.25590810854E+02 -0.11775621222E+02 -0.29319126386E+02  0.50528855551E+02  0.29999986933E+02 0.  0.
         12    1    1    2    0    0  0.25590810854E+02  0.11775621222E+02  0.29319126386E+02  0.40659144449E+02  0.00000000000E+00 0. -1.
         11    1    3    3    0    0 -0.77405708384E+01 -0.63045926880E+01 -0.58560497804E+01  0.11574007308E+02  0.51100000000E-03 0. -1.
        -11    1    3    3    0    0 -0.37753509679E+01 -0.12358286937E+02 -0.18406518530E+02  0.22489563260E+02  0.51100000000E-03 0.  1.
        -12    1    3    3    0    0 -0.14074889047E+02  0.68872584036E+01 -0.50565580749E+01  0.16465284983E+02  0.00000000000E+00 0.  1.
</event>
<event>
 7    1  0.5290964E-013  0.5052886E+02  0.7816164E-02  0.1300439E+00
        -11   -1    0    0    0    0  0.00000000000E+00  0.00000000000E+00  0.45593999997E+02  0.45594000000E+02  0.51100000000E-03 0.  1.
         11   -1    0    0    0    0 -0.00000000000E+00 -0.00000000000E+00 -0.45593999997E+02  0.45594000000E+02  0.51100000000E-03 0. -1.
    9900012    2    1    2    0    0 -0.38614750809E+02 -0.11982822106E+02  0.42986414532E+01  0.50528864200E+02  0.30000013224E+02 0.  0.
         12    1    1    2    0    0  0.38614750809E+02  0.11982822106E+02 -0.42986414532E+01  0.40659135800E+02  0.00000000000E+00 0. -1.
         11    1    3    3    0    0  0.27861897384E+00  0.17475872994E+01 -0.73479349059E+00  0.19161449936E+01  0.51100000000E-03 0. -1.
        -11    1    3    3    0    0  0.24341670272E+01 -0.17698433798E+01 -0.36406465071E+01  0.47235391346E+01  0.51100000000E-03 0.  1.
        -12    1    3    3    0    0 -0.41327536810E+02 -0.11960566025E+02  0.86740814509E+01  0.43889180072E+02  0.00000000000E+00 0.  1.
</event>
<event>
 7    1  0.5290964E-013  0.5052885E+02  0.7816164E-02  0.1300439E+00
        -11   -1    0    0    0    0  0.00000000000E+00  0.00000000000E+00  0.45593999997E+02  0.45594000000E+02  0.51100000000E-03 0.  1.
         11   -1    0    0    0    0 -0.00000000000E+00 -0.00000000000E+00 -0.45593999997E+02  0.45594000000E+02  0.51100000000E-03 0. -1.
    9900012    2    1    2    0    0  0.15033767943E+02  0.16048238212E+01  0.37743571730E+02  0.50528845496E+02  0.29999956369E+02 0.  0.
         12    1    1    2    0    0 -0.15033767943E+02 -0.16048238212E+01 -0.37743571730E+02  0.40659154504E+02  0.00000000000E+00 0. -1.
         11    1    3    3    0    0  0.42626659148E+01  0.40710595267E+01  0.97313095481E+01  0.11377268220E+02  0.51100000000E-03 0. -1.
        -11    1    3    3    0    0  0.17030929827E+01  0.34797331508E+01  0.28041596186E+02  0.28307952689E+02  0.51100000000E-03 0.  1.
         12    1    3    3    0    0  0.90680090459E+01 -0.59459688564E+01 -0.29334004460E-01  0.10843624587E+02  0.00000000000E+00 0. -1.
</event>
<event>
 7    1  0.5290964E-013  0.5052885E+02  0.7816164E-02  0.1300439E+00
        -11   -1    0    0    0    0  0.00000000000E+00  0.00000000000E+00  0.45593999997E+02  0.45594000000E+02  0.51100000000E-03 0.  1.
         11   -1    0    0    0    0 -0.00000000000E+00 -0.00000000000E+00 -0.45593999997E+02  0.45594000000E+02  0.51100000000E-03 0. -1.
    9900012    2    1    2    0    0  0.39336896849E+02  0.55939687883E+01  0.86303044567E+01  0.50528854712E+02  0.29999984382E+02 0.  0.
         12    1    1    2    0    0 -0.39336896849E+02 -0.55939687883E+01 -0.86303044567E+01  0.40659145288E+02  0.00000000000E+00 0. -1.
         11    1    3    3    0    0  0.10392060497E+02  0.57191276222E+01  0.27875322118E+01  0.12184977563E+02  0.51100000000E-03 0. -1.
        -11    1    3    3    0    0  0.82045948463E+01  0.10055444607E+02  0.78256112504E+01  0.15154785862E+02  0.51100000000E-03 0.  1.
        -12    1    3    3    0    0  0.20740241506E+02 -0.10180603441E+02 -0.19828390056E+01  0.23189091286E+02  0.00000000000E+00 0.  1.
</event>
<event>
 7    1  0.5290964E-013  0.5052886E+02  0.7816164E-02  0.1300439E+00
        -11   -1    0    0    0    0  0.00000000000E+00  0.00000000000E+00  0.45593999997E+02  0.45594000000E+02  0.51100000000E-03 0.  1.
         11   -1    0    0    0    0 -0.00000000000E+00 -0.00000000000E+00 -0.45593999997E+02  0.45594000000E+02  0.51100000000E-03 0. -1.
    9900012    2    1    2    0    0 -0.34945171544E+02 -0.20276739555E+02  0.45667032926E+01  0.50528856377E+02  0.29999989442E+02 0.  0.
         12    1    1    2    0    0  0.34945171544E+02  0.20276739555E+02 -0.45667032926E+01  0.40659143623E+02  0.00000000000E+00 0. -1.
         11    1    3    3    0    0 -0.81830293152E+01  0.26801258295E+00  0.27771618192E+01  0.86456016302E+01  0.51100000000E-03 0. -1.
        -11    1    3    3    0    0 -0.11538787151E+02  0.33909824573E+01 -0.44763232716E+01  0.12832764364E+02  0.51100000000E-03 0.  1.
        -12    1    3    3    0    0 -0.15223355078E+02 -0.23935734595E+02  0.62658647450E+01  0.29050490382E+02  0.00000000000E+00 0.  1.
</event>
<event>
 7    1  0.5290964E-013  0.5052886E+02  0.7816164E-02  0.1300439E+00
        -11   -1    0    0    0    0  0.00000000000E+00  0.00000000000E+00  0.45593999997E+02  0.45594000000E+02  0.51100000000E-03 0. -1.
         11   -1    0    0    0    0 -0.00000000000E+00 -0.00000000000E+00 -0.45593999997E+02  0.45594000000E+02  0.51100000000E-03 0.  1.
    9900012    2    1    2    0    0  0.29537880544E+02  0.26534327880E+02 -0.87526234995E+01  0.50528863743E+02  0.30000011832E+02 0.  0.
         12    1    1    2    0    0 -0.29537880544E+02 -0.26534327880E+02  0.87526234995E+01  0.40659136257E+02  0.00000000000E+00 0. -1.
         11    1    3    3    0    0 -0.21051808148E+01  0.35457050800E+01  0.64242764278E+00  0.41733109535E+01  0.51100000000E-03 0. -1.
        -11    1    3    3    0    0  0.17858860344E+01 -0.23532222698E+01 -0.64364108971E+01  0.70819792062E+01  0.51100000000E-03 0.  1.
        -12    1    3    3    0    0  0.29857175324E+02  0.25341845070E+02 -0.29586402452E+01  0.39273573583E+02  0.00000000000E+00 0.  1.
</event>
<event>
 7    1  0.5290964E-013  0.5052886E+02  0.7816164E-02  0.1300439E+00
        -11   -1    0    0    0    0  0.00000000000E+00  0.00000000000E+00  0.45593999997E+02  0.45594000000E+02  0.51100000000E-03 0.  1.
         11   -1    0    0    0    0 -0.00000000000E+00 -0.00000000000E+00 -0.45593999997E+02  0.45594000000E+02  0.51100000000E-03 0. -1.
    9900012    2    1    2    0    0  0.10401496286E+02  0.95982267682E+01  0.38116253362E+02  0.50528857702E+02  0.29999993471E+02 0.  0.
         12    1    1    2    0    0 -0.10401496286E+02 -0.95982267682E+01 -0.38116253362E+02  0.40659142298E+02  0.00000000000E+00 0. -1.
         11    1    3    3    0    0  0.83921882887E-01 -0.57710261843E+01  0.40550966530E+01  0.70537646139E+01  0.51100000000E-03 0. -1.
        -11    1    3    3    0    0  0.67340164834E+01  0.29195549946E+01  0.28406872808E+02  0.29339754640E+02  0.51100000000E-03 0.  1.
         12    1    3    3    0    0  0.35835579197E+01  0.12449697958E+02  0.56542839009E+01  0.14135338448E+02  0.00000000000E+00 0. -1.
</event>
<event>
 7    1  0.5290964E-013  0.5052886E+02  0.7816164E-02  0.1300439E+00
        -11   -1    0    0    0    0  0.00000000000E+00  0.00000000000E+00  0.45593999997E+02  0.45594000000E+02  0.51100000000E-03 0. -1.
         11   -1    0    0    0    0 -0.00000000000E+00 -0.00000000000E+00 -0.45593999997E+02  0.45594000000E+02  0.51100000000E-03 0.  1.
    9900012    2    1    2    0    0 -0.33115004764E+02  0.14582264070E+02  0.18545064001E+02  0.50528863699E+02  0.30000011700E+02 0.  0.
         12    1    1    2    0    0  0.33115004764E+02 -0.14582264070E+02 -0.18545064001E+02  0.40659136301E+02  0.00000000000E+00 0. -1.
         11    1    3    3    0    0 -0.97828918839E+01  0.49152009136E+01  0.24243034105E+01  0.11213448217E+02  0.51100000000E-03 0.  1.
        -11    1    3    3    0    0 -0.30497825226E+01 -0.74153925498E+01  0.85869007305E+01  0.11748365185E+02  0.51100000000E-03 0. -1.
         12    1    3    3    0    0 -0.20282330357E+02  0.17082455707E+02  0.75338598596E+01  0.27567050297E+02  0.00000000000E+00 0. -1.
</event>
<event>
 7    1  0.5290964E-013  0.5052885E+02  0.7816164E-02  0.1300439E+00
        -11   -1    0    0    0    0  0.00000000000E+00  0.00000000000E+00  0.45593999997E+02  0.45594000000E+02  0.51100000000E-03 0.  1.
         11   -1    0    0    0    0 -0.00000000000E+00 -0.00000000000E+00 -0.45593999997E+02  0.45594000000E+02  0.51100000000E-03 0. -1.
    9900012    2    1    2    0    0  0.34749443336E+02 -0.13419857527E+02  0.16295716829E+02  0.50528846354E+02  0.29999958978E+02 0.  0.
         12    1    1    2    0    0 -0.34749443336E+02  0.13419857527E+02 -0.16295716829E+02  0.40659153646E+02  0.00000000000E+00 0. -1.
         11    1    3    3    0    0  0.11546950233E+02 -0.98789420382E+01  0.21230743515E+01  0.15343826134E+02  0.51100000000E-03 0. -1.
        -11    1    3    3    0    0  0.10246805219E+02 -0.12688236307E+02  0.63566443801E+01  0.17504150531E+02  0.51100000000E-03 0.  1.
         12    1    3    3    0    0  0.12955687885E+02  0.91473208178E+01  0.78159980976E+01  0.17680869689E+02  0.00000000000E+00 0. -1.
</event>
<event>
 7    1  0.5290964E-013  0.5052886E+02  0.7816164E-02  0.1300439E+00
        -11   -1    0    0    0    0  0.00000000000E+00  0.00000000000E+00  0.45593999997E+02  0.45594000000E+02  0.51100000000E-03 0.  1.
         11   -1    0    0    0    0 -0.00000000000E+00 -0.00000000000E+00 -0.45593999997E+02  0.45594000000E+02  0.51100000000E-03 0. -1.
    9900012    2    1    2    0    0 -0.14471936266E+02 -0.28169434766E+02  0.25499243831E+02  0.50528862893E+02  0.30000009250E+02 0.  0.
         12    1    1    2    0    0  0.14471936266E+02  0.28169434766E+02 -0.25499243831E+02  0.40659137107E+02  0.00000000000E+00 0. -1.
         11    1    3    3    0    0 -0.24782349158E+01 -0.34148546381E+01  0.16508084875E+02  0.17038771875E+02  0.51100000000E-03 0. -1.
        -11    1    3    3    0    0  0.14198958616E+01 -0.13902000654E+02  0.82332579333E+01  0.16219379239E+02  0.51100000000E-03 0.  1.
         12    1    3    3    0    0 -0.13413597212E+02 -0.10852579473E+02  0.75790102247E+00  0.17270711779E+02  0.00000000000E+00 0. -1.
</event>
<event>
 7    1  0.5290964E-013  0.5052886E+02  0.7816164E-02  0.1300439E+00
        -11   -1    0    0    0    0  0.00000000000E+00  0.00000000000E+00  0.45593999997E+02  0.45594000000E+02  0.51100000000E-03 0. -1.
         11   -1    0    0    0    0 -0.00000000000E+00 -0.00000000000E+00 -0.45593999997E+02  0.45594000000E+02  0.51100000000E-03 0.  1.
    9900012    2    1    2    0    0  0.20440893666E+02 -0.34358415464E+02 -0.74050496778E+01  0.50528860710E+02  0.30000002614E+02 0.  0.
         12    1    1    2    0    0 -0.20440893666E+02  0.34358415464E+02  0.74050496778E+01  0.40659139290E+02  0.00000000000E+00 0. -1.
         11    1    3    3    0    0  0.97814935698E+01 -0.12840304197E+02 -0.13725534111E+02  0.21188235302E+02  0.51100000000E-03 0. -1.
        -11    1    3    3    0    0  0.10103981781E+02 -0.12907415313E+02 -0.29728227510E+01  0.16659216467E+02  0.51100000000E-03 0.  1.
         12    1    3    3    0    0  0.55541831464E+00 -0.86106959543E+01  0.92933071841E+01  0.12681408941E+02  0.00000000000E+00 0. -1.
</event>
<event>
 7    1  0.5290964E-013  0.5052885E+02  0.7816164E-02  0.1300439E+00
        -11   -1    0    0    0    0  0.00000000000E+00  0.00000000000E+00  0.45593999997E+02  0.45594000000E+02  0.51100000000E-03 0. -1.
         11   -1    0    0    0    0 -0.00000000000E+00 -0.00000000000E+00 -0.45593999997E+02  0.45594000000E+02  0.51100000000E-03 0.  1.
    9900012    2    1    2    0    0  0.14488535964E+02 -0.37943513449E+02  0.18810845306E+01  0.50528851383E+02  0.29999974264E+02 0.  0.
         12    1    1    2    0    0 -0.14488535964E+02  0.37943513449E+02 -0.18810845306E+01  0.40659148617E+02  0.00000000000E+00 0. -1.
         11    1    3    3    0    0  0.10695208083E+02 -0.21648689595E+02 -0.24724311223E+01  0.24272745066E+02  0.51100000000E-03 0. -1.
        -11    1    3    3    0    0 -0.60234497143E+01 -0.12654103492E+02  0.66883928016E+01  0.15528775875E+02  0.51100000000E-03 0.  1.
         12    1    3    3    0    0  0.98167775953E+01 -0.36407203613E+01 -0.23348771486E+01  0.10727330442E+02  0.00000000000E+00 0. -1.
</event>
<event>
 7    1  0.5290964E-013  0.5052887E+02  0.7816164E-02  0.1300439E+00
        -11   -1    0    0    0    0  0.00000000000E+00  0.00000000000E+00  0.45593999997E+02  0.45594000000E+02  0.51100000000E-03 0.  1.
         11   -1    0    0    0    0 -0.00000000000E+00 -0.00000000000E+00 -0.45593999997E+02  0.45594000000E+02  0.51100000000E-03 0. -1.
    9900012    2    1    2    0    0  0.10453621010E+02 -0.38886742832E+02  0.56309550708E+01  0.50528872915E+02  0.30000039714E+02 0.  0.
         12    1    1    2    0    0 -0.10453621010E+02  0.38886742832E+02 -0.56309550708E+01  0.40659127085E+02  0.00000000000E+00 0. -1.
         11    1    3    3    0    0 -0.10450193039E+01 -0.15622294427E+02 -0.75320126523E+01  0.17374675921E+02  0.51100000000E-03 0. -1.
        -11    1    3    3    0    0  0.60275087573E+01 -0.26818552612E+00 -0.12976167086E+00  0.60348673264E+01  0.51100000000E-03 0.  1.
         12    1    3    3    0    0  0.54711315566E+01 -0.22996262879E+02  0.13292729394E+02  0.27119329668E+02  0.00000000000E+00 0. -1.
</event>
<event>
 7    1  0.5290964E-013  0.5052889E+02  0.7816164E-02  0.1300439E+00
        -11   -1    0    0    0    0  0.00000000000E+00  0.00000000000E+00  0.45593999997E+02  0.45594000000E+02  0.51100000000E-03 0. -1.
         11   -1    0    0    0    0 -0.00000000000E+00 -0.00000000000E+00 -0.45593999997E+02  0.45594000000E+02  0.51100000000E-03 0.  1.
    9900012    2    1    2    0    0  0.24939418771E+02  0.31753763357E+02  0.47840908739E+01  0.50528885137E+02  0.30000076861E+02 0.  0.
         12    1    1    2    0    0 -0.24939418771E+02 -0.31753763357E+02 -0.47840908739E+01  0.40659114863E+02  0.00000000000E+00 0. -1.
         11    1    3    3    0    0  0.70110149046E+01  0.23476650458E+00  0.68256957372E+01  0.97877253671E+01  0.51100000000E-03 0. -1.
        -11    1    3    3    0    0 -0.23606273473E+01  0.25961174713E+01  0.35273292135E+01  0.49753833057E+01  0.51100000000E-03 0.  1.
        -12    1    3    3    0    0  0.20289031213E+02  0.28922879382E+02 -0.55689340767E+01  0.35765776464E+02  0.00000000000E+00 0.  1.
</event>
<event>
 7    1  0.5290964E-013  0.5052887E+02  0.7816164E-02  0.1300439E+00
        -11   -1    0    0    0    0  0.00000000000E+00  0.00000000000E+00  0.45593999997E+02  0.45594000000E+02  0.51100000000E-03 0. -1.
         11   -1    0    0    0    0 -0.00000000000E+00 -0.00000000000E+00 -0.45593999997E+02  0.45594000000E+02  0.51100000000E-03 0.  1.
    9900012    2    1    2    0    0 -0.20255121918E+02  0.17078121006E+02 -0.30842065193E+02  0.50528866139E+02  0.30000019115E+02 0.  0.
         12    1    1    2    0    0  0.20255121918E+02 -0.17078121006E+02  0.30842065193E+02  0.40659133861E+02  0.00000000000E+00 0. -1.
         11    1    3    3    0    0 -0.11422797093E+02  0.69589804904E+01 -0.15062783495E+02  0.20144357765E+02  0.51100000000E-03 0. -1.
        -11    1    3    3    0    0 -0.14276892721E+02  0.27573137289E+01 -0.15458367670E+02  0.21222478084E+02  0.51100000000E-03 0.  1.
         12    1    3    3    0    0  0.54445678963E+01  0.73618267866E+01 -0.32091402850E+00  0.91620302895E+01  0.00000000000E+00 0. -1.
</event>
<event>
 7    1  0.5290964E-013  0.5052885E+02  0.7816164E-02  0.1300439E+00
        -11   -1    0    0    0    0  0.00000000000E+00  0.00000000000E+00  0.45593999997E+02  0.45594000000E+02  0.51100000000E-03 0. -1.
         11   -1    0    0    0    0 -0.00000000000E+00 -0.00000000000E+00 -0.45593999997E+02  0.45594000000E+02  0.51100000000E-03 0.  1.
    9900012    2    1    2    0    0 -0.38007151468E+01 -0.12605756844E+02 -0.38468377617E+02  0.50528848291E+02  0.29999964865E+02 0.  0.
         12    1    1    2    0    0  0.38007151468E+01  0.12605756844E+02  0.38468377617E+02  0.40659151709E+02  0.00000000000E+00 0. -1.
         11    1    3    3    0    0  0.71877078007E+01 -0.75880092261E+01 -0.85407912538E+01  0.13497634717E+02  0.51100000000E-03 0. -1.
        -11    1    3    3    0    0 -0.14120706181E+01  0.62274222029E+00 -0.24701701862E+02  0.24749865180E+02  0.51100000000E-03 0.  1.
        -12    1    3    3    0    0 -0.95763523293E+01 -0.56404898384E+01 -0.52258845010E+01  0.12281348394E+02  0.00000000000E+00 0.  1.
</event>
<event>
 7    1  0.5290964E-013  0.5052886E+02  0.7816164E-02  0.1300439E+00
        -11   -1    0    0    0    0  0.00000000000E+00  0.00000000000E+00  0.45593999997E+02  0.45594000000E+02  0.51100000000E-03 0.  1.
         11   -1    0    0    0    0 -0.00000000000E+00 -0.00000000000E+00 -0.45593999997E+02  0.45594000000E+02  0.51100000000E-03 0. -1.
    9900012    2    1    2    0    0  0.39212253942E+02 -0.54949415481E+01  0.92396288670E+01  0.50528856091E+02  0.29999988575E+02 0.  0.
         12    1    1    2    0    0 -0.39212253942E+02  0.54949415481E+01 -0.92396288670E+01  0.40659143909E+02  0.00000000000E+00 0. -1.
         11    1    3    3    0    0  0.32341551953E+02  0.34080639057E+01  0.67238172267E+01  0.33208441708E+02  0.51100000000E-03 0.  1.
        -11    1    3    3    0    0  0.86908635046E+01 -0.13852220436E+01  0.36026978620E+01  0.95094364035E+01  0.51100000000E-03 0. -1.
         12    1    3    3    0    0 -0.18201615155E+01 -0.75177834103E+01 -0.10868862217E+01  0.78109779801E+01  0.00000000000E+00 0. -1.
</event>
<event>
 7    1  0.5290964E-013  0.5052886E+02  0.7816164E-02  0.1300439E+00
        -11   -1    0    0    0    0  0.00000000000E+00  0.00000000000E+00  0.45593999997E+02  0.45594000000E+02  0.51100000000E-03 0.  1.
         11   -1    0    0    0    0 -0.00000000000E+00 -0.00000000000E+00 -0.45593999997E+02  0.45594000000E+02  0.51100000000E-03 0. -1.
    9900012    2    1    2    0    0  0.93743608236E+01 -0.11919200684E+02  0.37725585459E+02  0.50528858543E+02  0.29999996027E+02 0.  0.
         12    1    1    2    0    0 -0.93743608236E+01  0.11919200684E+02 -0.37725585459E+02  0.40659141457E+02  0.00000000000E+00 0. -1.
         11    1    3    3    0    0  0.10563290839E+02 -0.51901919689E+01  0.10027688711E+02  0.15462074478E+02  0.51100000000E-03 0. -1.
        -11    1    3    3    0    0  0.95145601529E+01 -0.46539626971E+01  0.13078695808E+02  0.16829691262E+02  0.51100000000E-03 0.  1.
         12    1    3    3    0    0 -0.10703490168E+02 -0.20750460184E+01  0.14619200940E+02  0.18237092802E+02  0.00000000000E+00 0. -1.
</event>
<event>
 7    1  0.5290964E-013  0.5052886E+02  0.7816164E-02  0.1300439E+00
        -11   -1    0    0    0    0  0.00000000000E+00  0.00000000000E+00  0.45593999997E+02  0.45594000000E+02  0.51100000000E-03 0.  1.
         11   -1    0    0    0    0 -0.00000000000E+00 -0.00000000000E+00 -0.45593999997E+02  0.45594000000E+02  0.51100000000E-03 0. -1.
    9900012    2    1    2    0    0  0.27468152830E+02 -0.23849829260E+02  0.18161818680E+02  0.50528862855E+02  0.30000009134E+02 0.  0.
         12    1    1    2    0    0 -0.27468152830E+02  0.23849829260E+02 -0.18161818680E+02  0.40659137145E+02  0.00000000000E+00 0. -1.
         11    1    3    3    0    0  0.60190501772E+01 -0.10315564383E+02  0.28020255655E+01  0.12267484710E+02  0.51100000000E-03 0. -1.
        -11    1    3    3    0    0  0.76169264979E+01 -0.16522092127E+02  0.11850013516E+01  0.18231876644E+02  0.51100000000E-03 0.  1.
        -12    1    3    3    0    0  0.13832176155E+02  0.29878272497E+01  0.14174791763E+02  0.20029501501E+02  0.00000000000E+00 0.  1.
</event>
<event>
 7    1  0.5290964E-013  0.5052885E+02  0.7816164E-02  0.1300439E+00
        -11   -1    0    0    0    0  0.00000000000E+00  0.00000000000E+00  0.45593999997E+02  0.45594000000E+02  0.51100000000E-03 0. -1.
         11   -1    0    0    0    0 -0.00000000000E+00 -0.00000000000E+00 -0.45593999997E+02  0.45594000000E+02  0.51100000000E-03 0.  1.
    9900012    2    1    2    0    0  0.13917938785E+02  0.30080000337E+02  0.23551025001E+02  0.50528853195E+02  0.29999979773E+02 0.  0.
         12    1    1    2    0    0 -0.13917938785E+02 -0.30080000337E+02 -0.23551025001E+02  0.40659146805E+02  0.00000000000E+00 0. -1.
         11    1    3    3    0    0 -0.15032737758E+01  0.16244773676E+02  0.21012944796E+02  0.26602562905E+02  0.51100000000E-03 0. -1.
        -11    1    3    3    0    0 -0.58927585881E+00  0.47846434530E+01  0.27173002478E+01  0.55338756679E+01  0.51100000000E-03 0.  1.
         12    1    3    3    0    0  0.16010488419E+02  0.90505832083E+01 -0.17922004332E+00  0.18392414623E+02  0.00000000000E+00 0. -1.
</event>
<event>
 7    1  0.5290964E-013  0.5052888E+02  0.7816164E-02  0.1300439E+00
        -11   -1    0    0    0    0  0.00000000000E+00  0.00000000000E+00  0.45593999997E+02  0.45594000000E+02  0.51100000000E-03 0.  1.
         11   -1    0    0    0    0 -0.00000000000E+00 -0.00000000000E+00 -0.45593999997E+02  0.45594000000E+02  0.51100000000E-03 0. -1.
    9900012    2    1    2    0    0 -0.19008233101E+02 -0.10528698502E+02  0.34365651429E+02  0.50528875367E+02  0.30000047165E+02 0.  0.
         12    1    1    2    0    0  0.19008233101E+02  0.10528698502E+02 -0.34365651429E+02  0.40659124633E+02  0.00000000000E+00 0. -1.
         11    1    3    3    0    0 -0.12363715220E+00 -0.28536961670E+01 -0.18761679115E+01  0.34174367957E+01  0.51100000000E-03 0. -1.
        -11    1    3    3    0    0  0.81695394734E+00  0.43274552550E+01  0.31458861729E+00  0.44151159662E+01  0.51100000000E-03 0.  1.
        -12    1    3    3    0    0 -0.19701549896E+02 -0.12002457590E+02  0.35927230724E+02  0.42696322605E+02  0.00000000000E+00 0.  1.
</event>
<event>
 7    1  0.5290964E-013  0.5052886E+02  0.7816164E-02  0.1300439E+00
        -11   -1    0    0    0    0  0.00000000000E+00  0.00000000000E+00  0.45593999997E+02  0.45594000000E+02  0.51100000000E-03 0.  1.
         11   -1    0    0    0    0 -0.00000000000E+00 -0.00000000000E+00 -0.45593999997E+02  0.45594000000E+02  0.51100000000E-03 0. -1.
    9900012    2    1    2    0    0  0.20707830026E+02 -0.25870514363E+02  0.23559875503E+02  0.50528862386E+02  0.30000007709E+02 0.  0.
         12    1    1    2    0    0 -0.20707830026E+02  0.25870514363E+02 -0.23559875503E+02  0.40659137614E+02  0.00000000000E+00 0. -1.
         11    1    3    3    0    0  0.79905265811E+01 -0.43810481307E+01  0.12161717207E+02  0.15197021532E+02  0.51100000000E-03 0. -1.
        -11    1    3    3    0    0  0.17777637849E+02 -0.10031333340E+02  0.40522389419E+01  0.20810879288E+02  0.51100000000E-03 0.  1.
         12    1    3    3    0    0 -0.50603344033E+01 -0.11458132892E+02  0.73459193543E+01  0.14520961566E+02  0.00000000000E+00 0. -1.
</event>
<event>
 7    1  0.5290964E-013  0.5052886E+02  0.7816164E-02  0.1300439E+00
        -11   -1    0    0    0    0  0.00000000000E+00  0.00000000000E+00  0.45593999997E+02  0.45594000000E+02  0.51100000000E-03 0. -1.
         11   -1    0    0    0    0 -0.00000000000E+00 -0.00000000000E+00 -0.45593999997E+02  0.45594000000E+02  0.51100000000E-03 0.  1.
    9900012    2    1    2    0    0 -0.26037220435E+02  0.29928490450E+02 -0.89170790087E+01  0.50528859740E+02  0.29999999666E+02 0.  0.
         12    1    1    2    0    0  0.26037220435E+02 -0.29928490450E+02  0.89170790087E+01  0.40659140260E+02  0.00000000000E+00 0. -1.
         11    1    3    3    0    0 -0.61284813299E+01  0.11746562126E+02 -0.12797742104E+02  0.18420700541E+02  0.51100000000E-03 0. -1.
        -11    1    3    3    0    0 -0.68354321362E+01  0.17487648037E+02  0.20070928491E+01  0.18883044996E+02  0.51100000000E-03 0.  1.
         12    1    3    3    0    0 -0.13073306969E+02  0.69428028724E+00  0.18735702460E+01  0.13225114204E+02  0.00000000000E+00 0. -1.
</event>
<event>
 7    1  0.5290964E-013  0.5052879E+02  0.7816164E-02  0.1300439E+00
        -11   -1    0    0    0    0  0.00000000000E+00  0.00000000000E+00  0.45593999997E+02  0.45594000000E+02  0.51100000000E-03 0. -1.
         11   -1    0    0    0    0 -0.00000000000E+00 -0.00000000000E+00 -0.45593999997E+02  0.45594000000E+02  0.51100000000E-03 0.  1.
    9900012    2    1    2    0    0  0.33765728469E+02 -0.65640324889E+01 -0.21678572801E+02  0.50528788741E+02  0.29999783856E+02 0.  0.
         12    1    1    2    0    0 -0.33765728469E+02  0.65640324889E+01  0.21678572801E+02  0.40659211259E+02  0.00000000000E+00 0. -1.
         11    1    3    3    0    0  0.84134828322E+01 -0.53937829845E+01 -0.90888967312E+01  0.13508798329E+02  0.51100000000E-03 0. -1.
        -11    1    3    3    0    0  0.25707013567E+02 -0.78656680299E+01 -0.58485986769E+01  0.27512277020E+02  0.51100000000E-03 0.  1.
         12    1    3    3    0    0 -0.35476793096E+00  0.66954185255E+01 -0.67410773926E+01  0.95077133912E+01  0.00000000000E+00 0. -1.
</event>
<event>
 7    1  0.5290964E-013  0.5052886E+02  0.7816164E-02  0.1300439E+00
        -11   -1    0    0    0    0  0.00000000000E+00  0.00000000000E+00  0.45593999997E+02  0.45594000000E+02  0.51100000000E-03 0.  1.
         11   -1    0    0    0    0 -0.00000000000E+00 -0.00000000000E+00 -0.45593999997E+02  0.45594000000E+02  0.51100000000E-03 0. -1.
    9900012    2    1    2    0    0  0.18010909705E+02 -0.25623093563E+02  0.25927394427E+02  0.50528861127E+02  0.30000003881E+02 0.  0.
         12    1    1    2    0    0 -0.18010909705E+02  0.25623093563E+02 -0.25927394427E+02  0.40659138873E+02  0.00000000000E+00 0. -1.
         11    1    3    3    0    0  0.48612008610E+01 -0.21968316090E+01  0.10534268525E+01  0.54375593168E+01  0.51100000000E-03 0. -1.
        -11    1    3    3    0    0  0.17819938585E+02 -0.25485994242E+02  0.25127174658E+02  0.39980758125E+02  0.51100000000E-03 0.  1.
         12    1    3    3    0    0 -0.46702297413E+01  0.20597322880E+01 -0.25320708298E+00  0.51105436856E+01  0.00000000000E+00 0. -1.
</event>
<event>
 7    1  0.5290964E-013  0.5052885E+02  0.7816164E-02  0.1300439E+00
        -11   -1    0    0    0    0  0.00000000000E+00  0.00000000000E+00  0.45593999997E+02  0.45594000000E+02  0.51100000000E-03 0.  1.
         11   -1    0    0    0    0 -0.00000000000E+00 -0.00000000000E+00 -0.45593999997E+02  0.45594000000E+02  0.51100000000E-03 0. -1.
    9900012    2    1    2    0    0  0.79594444409E+01 -0.18942526445E+01  0.39827444039E+02  0.50528852843E+02  0.29999978701E+02 0.  0.
         12    1    1    2    0    0 -0.79594444409E+01  0.18942526445E+01 -0.39827444039E+02  0.40659147157E+02  0.00000000000E+00 0. -1.
         11    1    3    3    0    0  0.44584686710E+01 -0.68035319567E+00  0.18999553086E+02  0.19527514974E+02  0.51100000000E-03 0. -1.
        -11    1    3    3    0    0  0.12098703442E+02 -0.42453699331E+01  0.16537160684E+02  0.20925569875E+02  0.51100000000E-03 0.  1.
         12    1    3    3    0    0 -0.85977276719E+01  0.30314704842E+01  0.42907302690E+01  0.10075767993E+02  0.00000000000E+00 0. -1.
</event>
<event>
 7    1  0.5290964E-013  0.5052884E+02  0.7816164E-02  0.1300439E+00
        -11   -1    0    0    0    0  0.00000000000E+00  0.00000000000E+00  0.45593999997E+02  0.45594000000E+02  0.51100000000E-03 0.  1.
         11   -1    0    0    0    0 -0.00000000000E+00 -0.00000000000E+00 -0.45593999997E+02  0.45594000000E+02  0.51100000000E-03 0. -1.
    9900012    2    1    2    0    0  0.17374280308E+02  0.10061474481E+02  0.35356301064E+02  0.50528844698E+02  0.29999953945E+02 0.  0.
         12    1    1    2    0    0 -0.17374280308E+02 -0.10061474481E+02 -0.35356301064E+02  0.40659155302E+02  0.00000000000E+00 0. -1.
         11    1    3    3    0    0  0.15006528191E+02  0.60748299242E+01  0.99376707844E+01  0.18996229832E+02  0.51100000000E-03 0. -1.
        -11    1    3    3    0    0  0.58588267154E+01  0.94466438333E+01  0.10604460604E+02  0.15362926647E+02  0.51100000000E-03 0.  1.
         12    1    3    3    0    0 -0.34910745982E+01 -0.54599992766E+01  0.14814169675E+02  0.16169688220E+02  0.00000000000E+00 0. -1.
</event>
<event>
 7    1  0.5290964E-013  0.5052885E+02  0.7816164E-02  0.1300439E+00
        -11   -1    0    0    0    0  0.00000000000E+00  0.00000000000E+00  0.45593999997E+02  0.45594000000E+02  0.51100000000E-03 0. -1.
         11   -1    0    0    0    0 -0.00000000000E+00 -0.00000000000E+00 -0.45593999997E+02  0.45594000000E+02  0.51100000000E-03 0.  1.
    9900012    2    1    2    0    0 -0.10274166689E+02  0.21621962273E+02 -0.32864853982E+02  0.50528851202E+02  0.29999973713E+02 0.  0.
         12    1    1    2    0    0  0.10274166689E+02 -0.21621962273E+02  0.32864853982E+02  0.40659148798E+02  0.00000000000E+00 0. -1.
         11    1    3    3    0    0 -0.46908823948E+01  0.16635773319E+02 -0.11704774102E+02  0.20874747151E+02  0.51100000000E-03 0. -1.
        -11    1    3    3    0    0 -0.50137160811E+01  0.93852680392E+01 -0.22608930916E+02  0.24987684217E+02  0.51100000000E-03 0.  1.
        -12    1    3    3    0    0 -0.56956821347E+00 -0.43990790848E+01  0.14488510361E+01  0.46664198342E+01  0.00000000000E+00 0.  1.
</event>
<event>
 7    1  0.5290964E-013  0.5052880E+02  0.7816164E-02  0.1300439E+00
        -11   -1    0    0    0    0  0.00000000000E+00  0.00000000000E+00  0.45593999997E+02  0.45594000000E+02  0.51100000000E-03 0.  1.
         11   -1    0    0    0    0 -0.00000000000E+00 -0.00000000000E+00 -0.45593999997E+02  0.45594000000E+02  0.51100000000E-03 0. -1.
    9900012    2    1    2    0    0 -0.26229185572E+02 -0.83956402865E+01  0.29911756846E+02  0.50528804863E+02  0.29999832860E+02 0.  0.
         12    1    1    2    0    0  0.26229185572E+02  0.83956402865E+01 -0.29911756846E+02  0.40659195137E+02  0.00000000000E+00 0. -1.
         11    1    3    3    0    0 -0.12983755206E+02 -0.18252494612E+01  0.58316088296E+01  0.14349811729E+02  0.51100000000E-03 0. -1.
        -11    1    3    3    0    0 -0.16406861878E+02  0.32082883154E+01  0.15299571852E+02  0.22661754780E+02  0.51100000000E-03 0.  1.
         12    1    3    3    0    0  0.31614315118E+01 -0.97786791407E+01  0.87805761648E+01  0.13517238354E+02  0.00000000000E+00 0. -1.
</event>
<event>
 7    1  0.5290964E-013  0.5052886E+02  0.7816164E-02  0.1300439E+00
        -11   -1    0    0    0    0  0.00000000000E+00  0.00000000000E+00  0.45593999997E+02  0.45594000000E+02  0.51100000000E-03 0. -1.
         11   -1    0    0    0    0 -0.00000000000E+00 -0.00000000000E+00 -0.45593999997E+02  0.45594000000E+02  0.51100000000E-03 0.  1.
    9900012    2    1    2    0    0  0.39657861117E+02 -0.88791883556E+01  0.12569675029E+01  0.50528857098E+02  0.29999991635E+02 0.  0.
         12    1    1    2    0    0 -0.39657861117E+02  0.88791883556E+01 -0.12569675029E+01  0.40659142902E+02  0.00000000000E+00 0. -1.
         11    1    3    3    0    0  0.16564276871E+01  0.17891744062E+01  0.10031703250E+01  0.26365220842E+01  0.51100000000E-03 0. -1.
        -11    1    3    3    0    0  0.10536045690E+02 -0.46451889462E+01  0.12699985658E+02  0.17142802429E+02  0.51100000000E-03 0.  1.
        -12    1    3    3    0    0  0.27465387740E+02 -0.60231738156E+01 -0.12446188481E+02  0.30749532585E+02  0.00000000000E+00 0.  1.
</event>
<event>
 7    1  0.5290964E-013  0.5052886E+02  0.7816164E-02  0.1300439E+00
        -11   -1    0    0    0    0  0.00000000000E+00  0.00000000000E+00  0.45593999997E+02  0.45594000000E+02  0.51100000000E-03 0.  1.
         11   -1    0    0    0    0 -0.00000000000E+00 -0.00000000000E+00 -0.45593999997E+02  0.45594000000E+02  0.51100000000E-03 0. -1.
    9900012    2    1    2    0    0 -0.32076808506E+02 -0.14163527660E+02  0.20582479011E+02  0.50528860782E+02  0.30000002833E+02 0.  0.
         12    1    1    2    0    0  0.32076808506E+02  0.14163527660E+02 -0.20582479011E+02  0.40659139218E+02  0.00000000000E+00 0. -1.
         11    1    3    3    0    0 -0.39301932635E+01 -0.62010114348E+01  0.10630552019E+02  0.12919272363E+02  0.51100000000E-03 0.  1.
        -11    1    3    3    0    0 -0.52563632570E+01 -0.10248344344E+02  0.89453846083E+01  0.14583477725E+02  0.51100000000E-03 0. -1.
         12    1    3    3    0    0 -0.22890251986E+02  0.22858281194E+01  0.10065423843E+01  0.23026110695E+02  0.00000000000E+00 0. -1.
</event>
<event>
 7    1  0.5290964E-013  0.5052893E+02  0.7816164E-02  0.1300439E+00
        -11   -1    0    0    0    0  0.00000000000E+00  0.00000000000E+00  0.45593999997E+02  0.45594000000E+02  0.51100000000E-03 0. -1.
         11   -1    0    0    0    0 -0.00000000000E+00 -0.00000000000E+00 -0.45593999997E+02  0.45594000000E+02  0.51100000000E-03 0.  1.
    9900012    2    1    2    0    0  0.18470936797E+02 -0.36056185759E+02 -0.34548339283E+01  0.50528930715E+02  0.30000215400E+02 0.  0.
         12    1    1    2    0    0 -0.18470936797E+02  0.36056185759E+02  0.34548339283E+01  0.40659069285E+02  0.00000000000E+00 0. -1.
         11    1    3    3    0    0 -0.23822706639E+01 -0.59962058167E+01 -0.18030954644E+01  0.66993172210E+01  0.51100000000E-03 0. -1.
        -11    1    3    3    0    0  0.14769476664E+02 -0.12059876340E+02 -0.11664295211E+02  0.22352490718E+02  0.51100000000E-03 0.  1.
         12    1    3    3    0    0  0.60837307971E+01 -0.18000103602E+02  0.10012556747E+02  0.21477122776E+02  0.00000000000E+00 0. -1.
</event>
<event>
 7    1  0.5290964E-013  0.5052886E+02  0.7816164E-02  0.1300439E+00
        -11   -1    0    0    0    0  0.00000000000E+00  0.00000000000E+00  0.45593999997E+02  0.45594000000E+02  0.51100000000E-03 0.  1.
         11   -1    0    0    0    0 -0.00000000000E+00 -0.00000000000E+00 -0.45593999997E+02  0.45594000000E+02  0.51100000000E-03 0. -1.
    9900012    2    1    2    0    0  0.10031532425E+02  0.34441279844E+02  0.19139806789E+02  0.50528860757E+02  0.30000002756E+02 0.  0.
         12    1    1    2    0    0 -0.10031532425E+02 -0.34441279844E+02 -0.19139806789E+02  0.40659139243E+02  0.00000000000E+00 0. -1.
         11    1    3    3    0    0  0.27117645739E+01 -0.21312200003E+00  0.80411582791E+00  0.28364926612E+01  0.51100000000E-03 0. -1.
        -11    1    3    3    0    0 -0.32923653054E+01  0.58915272706E+01  0.15497298222E+02  0.16903136257E+02  0.51100000000E-03 0.  1.
        -12    1    3    3    0    0  0.10612133157E+02  0.28762874573E+02  0.28383927392E+01  0.30789231838E+02  0.00000000000E+00 0.  1.
</event>
<event>
 7    1  0.5290964E-013  0.5052886E+02  0.7816164E-02  0.1300439E+00
        -11   -1    0    0    0    0  0.00000000000E+00  0.00000000000E+00  0.45593999997E+02  0.45594000000E+02  0.51100000000E-03 0. -1.
         11   -1    0    0    0    0 -0.00000000000E+00 -0.00000000000E+00 -0.45593999997E+02  0.45594000000E+02  0.51100000000E-03 0.  1.
    9900012    2    1    2    0    0  0.25125560217E+02  0.31624057875E+02  0.46680927332E+01  0.50528857086E+02  0.29999991599E+02 0.  0.
         12    1    1    2    0    0 -0.25125560217E+02 -0.31624057875E+02 -0.46680927332E+01  0.40659142914E+02  0.00000000000E+00 0. -1.
         11    1    3    3    0    0  0.53671416109E+01  0.16164200710E+02 -0.31092566067E+01  0.17313436128E+02  0.51100000000E-03 0. -1.
        -11    1    3    3    0    0  0.19250453565E+02  0.10740049811E+02 -0.22130099095E+01  0.22154594231E+02  0.51100000000E-03 0.  1.
         12    1    3    3    0    0  0.50796504080E+00  0.47198073542E+01  0.99903592495E+01  0.11060826727E+02  0.00000000000E+00 0. -1.
</event>
<event>
 7    1  0.5290964E-013  0.5052886E+02  0.7816164E-02  0.1300439E+00
        -11   -1    0    0    0    0  0.00000000000E+00  0.00000000000E+00  0.45593999997E+02  0.45594000000E+02  0.51100000000E-03 0.  1.
         11   -1    0    0    0    0 -0.00000000000E+00 -0.00000000000E+00 -0.45593999997E+02  0.45594000000E+02  0.51100000000E-03 0. -1.
    9900012    2    1    2    0    0 -0.40509785572E+02 -0.21591630541E+01 -0.27314657344E+01  0.50528860594E+02  0.30000002263E+02 0.  0.
         12    1    1    2    0    0  0.40509785572E+02  0.21591630541E+01  0.27314657344E+01  0.40659139406E+02  0.00000000000E+00 0. -1.
         11    1    3    3    0    0 -0.47762075272E+01 -0.37160630240E+01 -0.70535680124E+01  0.92937669816E+01  0.51100000000E-03 0. -1.
        -11    1    3    3    0    0 -0.11409741132E+02 -0.81411564378E+01  0.54158082984E+01  0.15026363519E+02  0.51100000000E-03 0.  1.
         12    1    3    3    0    0 -0.24323836913E+02  0.96980564077E+01 -0.10937060204E+01  0.26208730093E+02  0.00000000000E+00 0. -1.
</event>
<event>
 7    1  0.5290964E-013  0.5052886E+02  0.7816164E-02  0.1300439E+00
        -11   -1    0    0    0    0  0.00000000000E+00  0.00000000000E+00  0.45593999997E+02  0.45594000000E+02  0.51100000000E-03 0.  1.
         11   -1    0    0    0    0 -0.00000000000E+00 -0.00000000000E+00 -0.45593999997E+02  0.45594000000E+02  0.51100000000E-03 0. -1.
    9900012    2    1    2    0    0 -0.15045907936E+02  0.37017418200E+02  0.75164569299E+01  0.50528859323E+02  0.29999998398E+02 0.  0.
         12    1    1    2    0    0  0.15045907936E+02 -0.37017418200E+02 -0.75164569299E+01  0.40659140677E+02  0.00000000000E+00 0. -1.
         11    1    3    3    0    0 -0.69937402806E+01  0.72222937111E+01 -0.49789542682E+01  0.11218908834E+02  0.51100000000E-03 0. -1.
        -11    1    3    3    0    0  0.16324924662E+01  0.40442593564E+01 -0.50553915552E+01  0.66766795214E+01  0.51100000000E-03 0.  1.
        -12    1    3    3    0    0 -0.96846601216E+01  0.25750865133E+02  0.17550802753E+02  0.32633270967E+02  0.00000000000E+00 0.  1.
</event>
<event>
 7    1  0.5290964E-013  0.5052886E+02  0.7816164E-02  0.1300439E+00
        -11   -1    0    0    0    0  0.00000000000E+00  0.00000000000E+00  0.45593999997E+02  0.45594000000E+02  0.51100000000E-03 0.  1.
         11   -1    0    0    0    0 -0.00000000000E+00 -0.00000000000E+00 -0.45593999997E+02  0.45594000000E+02  0.51100000000E-03 0. -1.
    9900012    2    1    2    0    0 -0.72467606525E+01 -0.28930164914E+02  0.27635045019E+02  0.50528859637E+02  0.29999999352E+02 0.  0.
         12    1    1    2    0    0  0.72467606525E+01  0.28930164914E+02 -0.27635045019E+02  0.40659140363E+02  0.00000000000E+00 0. -1.
         11    1    3    3    0    0 -0.11725400167E+02 -0.19282060634E+02  0.17126198169E+02  0.28330011214E+02  0.51100000000E-03 0. -1.
        -11    1    3    3    0    0 -0.52783200131E+01 -0.81002014866E+01  0.49077882394E+01  0.10842523320E+02  0.51100000000E-03 0.  1.
         12    1    3    3    0    0  0.97569595279E+01 -0.15479027926E+01  0.56010586104E+01  0.11356325103E+02  0.00000000000E+00 0. -1.
</event>
<event>
 7    1  0.5290964E-013  0.5052881E+02  0.7816164E-02  0.1300439E+00
        -11   -1    0    0    0    0  0.00000000000E+00  0.00000000000E+00  0.45593999997E+02  0.45594000000E+02  0.51100000000E-03 0.  1.
         11   -1    0    0    0    0 -0.00000000000E+00 -0.00000000000E+00 -0.45593999997E+02  0.45594000000E+02  0.51100000000E-03 0. -1.
    9900012    2    1    2    0    0 -0.29010875543E+01  0.69672417852E+01  0.39952611570E+02  0.50528807456E+02  0.29999840743E+02 0.  0.
         12    1    1    2    0    0  0.29010875543E+01 -0.69672417852E+01 -0.39952611570E+02  0.40659192544E+02  0.00000000000E+00 0. -1.
         11    1    3    3    0    0  0.17408909568E+01  0.28126495877E+01  0.20945756439E+01  0.39152198426E+01  0.51100000000E-03 0. -1.
        -11    1    3    3    0    0  0.16479562461E+01  0.73161351250E+01 -0.59354323896E+00  0.75228908535E+01  0.51100000000E-03 0.  1.
        -12    1    3    3    0    0 -0.62899347572E+01 -0.31615429275E+01  0.38451579165E+02  0.39090696760E+02  0.00000000000E+00 0.  1.
</event>
<event>
 7    1  0.5290964E-013  0.5052886E+02  0.7816164E-02  0.1300439E+00
        -11   -1    0    0    0    0  0.00000000000E+00  0.00000000000E+00  0.45593999997E+02  0.45594000000E+02  0.51100000000E-03 0.  1.
         11   -1    0    0    0    0 -0.00000000000E+00 -0.00000000000E+00 -0.45593999997E+02  0.45594000000E+02  0.51100000000E-03 0. -1.
    9900012    2    1    2    0    0  0.10320235288E+02 -0.10493826908E+02  0.37901686621E+02  0.50528861934E+02  0.30000006333E+02 0.  0.
         12    1    1    2    0    0 -0.10320235288E+02  0.10493826908E+02 -0.37901686621E+02  0.40659138066E+02  0.00000000000E+00 0. -1.
         11    1    3    3    0    0  0.13198402949E+02  0.53359025249E+00  0.24552711864E+02  0.27880427168E+02  0.51100000000E-03 0. -1.
        -11    1    3    3    0    0  0.55908346192E+01 -0.20588242147E+01  0.41504635860E+01  0.72610286548E+01  0.51100000000E-03 0.  1.
         12    1    3    3    0    0 -0.84690022799E+01 -0.89685929453E+01  0.91985111716E+01  0.15387406110E+02  0.00000000000E+00 0. -1.
</event>
<event>
 7    1  0.5290964E-013  0.5052886E+02  0.7816164E-02  0.1300439E+00
        -11   -1    0    0    0    0  0.00000000000E+00  0.00000000000E+00  0.45593999997E+02  0.45594000000E+02  0.51100000000E-03 0. -1.
         11   -1    0    0    0    0 -0.00000000000E+00 -0.00000000000E+00 -0.45593999997E+02  0.45594000000E+02  0.51100000000E-03 0.  1.
    9900012    2    1    2    0    0  0.27100442637E+02  0.13875046770E+02 -0.26948366295E+02  0.50528863758E+02  0.30000011879E+02 0.  0.
         12    1    1    2    0    0 -0.27100442637E+02 -0.13875046770E+02  0.26948366295E+02  0.40659136242E+02  0.00000000000E+00 0. -1.
         11    1    3    3    0    0  0.16538729925E+02  0.53402224419E+01 -0.14926208811E+02  0.22909370855E+02  0.51100000000E-03 0. -1.
        -11    1    3    3    0    0  0.16700558260E+02  0.47615914102E+01 -0.10370339296E+02  0.20226846920E+02  0.51100000000E-03 0.  1.
         12    1    3    3    0    0 -0.61388455473E+01  0.37732329179E+01 -0.16518181880E+01  0.73926459832E+01  0.00000000000E+00 0. -1.
</event>
<event>
 7    1  0.5290964E-013  0.5052886E+02  0.7816164E-02  0.1300439E+00
        -11   -1    0    0    0    0  0.00000000000E+00  0.00000000000E+00  0.45593999997E+02  0.45594000000E+02  0.51100000000E-03 0.  1.
         11   -1    0    0    0    0 -0.00000000000E+00 -0.00000000000E+00 -0.45593999997E+02  0.45594000000E+02  0.51100000000E-03 0. -1.
    9900012    2    1    2    0    0  0.14186409143E+02  0.35848733117E+02  0.12914330819E+02  0.50528858211E+02  0.29999995020E+02 0.  0.
         12    1    1    2    0    0 -0.14186409143E+02 -0.35848733117E+02 -0.12914330819E+02  0.40659141789E+02  0.00000000000E+00 0. -1.
         11    1    3    3    0    0 -0.21535752388E+01  0.11600497562E+02 -0.43927125844E-01  0.11798786372E+02  0.51100000000E-03 0. -1.
        -11    1    3    3    0    0 -0.13105278820E+01  0.15380105433E+02  0.10843950133E+02  0.18864155990E+02  0.51100000000E-03 0.  1.
        -12    1    3    3    0    0  0.17650512264E+02  0.88681301222E+01  0.21143078120E+01  0.19865915850E+02  0.00000000000E+00 0.  1.
</event>
<event>
 7    1  0.5290964E-013  0.5052883E+02  0.7816164E-02  0.1300439E+00
        -11   -1    0    0    0    0  0.00000000000E+00  0.00000000000E+00  0.45593999997E+02  0.45594000000E+02  0.51100000000E-03 0.  1.
         11   -1    0    0    0    0 -0.00000000000E+00 -0.00000000000E+00 -0.45593999997E+02  0.45594000000E+02  0.51100000000E-03 0. -1.
    9900012    2    1    2    0    0 -0.38370217112E+02  0.82120409858E+01 -0.10651630521E+02  0.50528826237E+02  0.29999897829E+02 0.  0.
         12    1    1    2    0    0  0.38370217112E+02 -0.82120409858E+01  0.10651630521E+02  0.40659173763E+02  0.00000000000E+00 0. -1.
         11    1    3    3    0    0 -0.33087053946E+01 -0.16339595044E+01 -0.78971196894E+01  0.87167571206E+01  0.51100000000E-03 0. -1.
        -11    1    3    3    0    0 -0.29954482798E+02  0.92044747773E-01 -0.55223978901E+01  0.30459422034E+02  0.51100000000E-03 0.  1.
        -12    1    3    3    0    0 -0.51070289193E+01  0.97539557424E+01  0.27678870580E+01  0.11352647082E+02  0.00000000000E+00 0.  1.
</event>
<event>
 7    1  0.5290964E-013  0.5052885E+02  0.7816164E-02  0.1300439E+00
        -11   -1    0    0    0    0  0.00000000000E+00  0.00000000000E+00  0.45593999997E+02  0.45594000000E+02  0.51100000000E-03 0.  1.
         11   -1    0    0    0    0 -0.00000000000E+00 -0.00000000000E+00 -0.45593999997E+02  0.45594000000E+02  0.51100000000E-03 0. -1.
    9900012    2    1    2    0    0  0.12254404793E+02  0.14346267384E+00  0.38768230850E+02  0.50528846767E+02  0.29999960233E+02 0.  0.
         12    1    1    2    0    0 -0.12254404793E+02 -0.14346267384E+00 -0.38768230850E+02  0.40659153233E+02  0.00000000000E+00 0. -1.
         11    1    3    3    0    0 -0.11074936884E+01 -0.29275508523E+01  0.40548259168E+00  0.31561864101E+01  0.51100000000E-03 0. -1.
        -11    1    3    3    0    0  0.48478524260E+01 -0.10587955830E+02  0.14671807353E+02  0.18731481871E+02  0.51100000000E-03 0.  1.
         12    1    3    3    0    0  0.85140460551E+01  0.13658969356E+02  0.23690940905E+02  0.28641178486E+02  0.00000000000E+00 0. -1.
</event>
<event>
 7    1  0.5290964E-013  0.5052887E+02  0.7816164E-02  0.1300439E+00
        -11   -1    0    0    0    0  0.00000000000E+00  0.00000000000E+00  0.45593999997E+02  0.45594000000E+02  0.51100000000E-03 0. -1.
         11   -1    0    0    0    0 -0.00000000000E+00 -0.00000000000E+00 -0.45593999997E+02  0.45594000000E+02  0.51100000000E-03 0.  1.
    9900012    2    1    2    0    0 -0.17676643350E+02 -0.34809520565E+02  0.11357756019E+02  0.50528867399E+02  0.30000022947E+02 0.  0.
         12    1    1    2    0    0  0.17676643350E+02  0.34809520565E+02 -0.11357756019E+02  0.40659132601E+02  0.00000000000E+00 0. -1.
         11    1    3    3    0    0 -0.64265665373E+00 -0.12927482200E+02  0.41949944451E+01  0.13606277311E+02  0.51100000000E-03 0. -1.
        -11    1    3    3    0    0 -0.40664256003E+01 -0.10645525229E+02  0.14345804411E+02  0.18321166148E+02  0.51100000000E-03 0.  1.
         12    1    3    3    0    0 -0.12967561096E+02 -0.11236513135E+02 -0.71830428367E+01  0.18601423940E+02  0.00000000000E+00 0. -1.
</event>
<event>
 7    1  0.5290964E-013  0.5052886E+02  0.7816164E-02  0.1300439E+00
        -11   -1    0    0    0    0  0.00000000000E+00  0.00000000000E+00  0.45593999997E+02  0.45594000000E+02  0.51100000000E-03 0.  1.
         11   -1    0    0    0    0 -0.00000000000E+00 -0.00000000000E+00 -0.45593999997E+02  0.45594000000E+02  0.51100000000E-03 0. -1.
    9900012    2    1    2    0    0  0.36783993105E+02 -0.16827097024E+02  0.41173614049E+01  0.50528855789E+02  0.29999987656E+02 0.  0.
         12    1    1    2    0    0 -0.36783993105E+02  0.16827097024E+02 -0.41173614049E+01  0.40659144211E+02  0.00000000000E+00 0. -1.
         11    1    3    3    0    0  0.10494447776E+02 -0.13490209879E+02 -0.15946593851E+01  0.17165725604E+02  0.51100000000E-03 0. -1.
        -11    1    3    3    0    0  0.14302783728E+02 -0.11481353001E+02  0.39829574280E+01  0.18768458627E+02  0.51100000000E-03 0.  1.
         12    1    3    3    0    0  0.11986761601E+02  0.81444658556E+01  0.17290633621E+01  0.14594671557E+02  0.00000000000E+00 0. -1.
</event>
<event>
 7    1  0.5290964E-013  0.5052886E+02  0.7816164E-02  0.1300439E+00
        -11   -1    0    0    0    0  0.00000000000E+00  0.00000000000E+00  0.45593999997E+02  0.45594000000E+02  0.51100000000E-03 0.  1.
         11   -1    0    0    0    0 -0.00000000000E+00 -0.00000000000E+00 -0.45593999997E+02  0.45594000000E+02  0.51100000000E-03 0. -1.
    9900012    2    1    2    0    0  0.10661357629E+02  0.14214855134E+01  0.39210716357E+02  0.50528862714E+02  0.30000008707E+02 0.  0.
         12    1    1    2    0    0 -0.10661357629E+02 -0.14214855134E+01 -0.39210716357E+02  0.40659137286E+02  0.00000000000E+00 0. -1.
         11    1    3    3    0    0 -0.51206605073E+01 -0.78279581069E+01  0.69625609714E+01  0.11660846783E+02  0.51100000000E-03 0. -1.
        -11    1    3    3    0    0  0.16786233854E+00 -0.76625571720E+00  0.94219793538E+01  0.94545767115E+01  0.51100000000E-03 0.  1.
         12    1    3    3    0    0  0.15614155798E+02  0.10015699338E+02  0.22826176032E+02  0.29413439220E+02  0.00000000000E+00 0. -1.
</event>
<event>
 7    1  0.5290964E-013  0.5052885E+02  0.7816164E-02  0.1300439E+00
        -11   -1    0    0    0    0  0.00000000000E+00  0.00000000000E+00  0.45593999997E+02  0.45594000000E+02  0.51100000000E-03 0.  1.
         11   -1    0    0    0    0 -0.00000000000E+00 -0.00000000000E+00 -0.45593999997E+02  0.45594000000E+02  0.51100000000E-03 0. -1.
    9900012    2    1    2    0    0 -0.15532314881E+02  0.60926175716E+01  0.37078210504E+02  0.50528849878E+02  0.29999969690E+02 0.  0.
         12    1    1    2    0    0  0.15532314881E+02 -0.60926175716E+01 -0.37078210504E+02  0.40659150122E+02  0.00000000000E+00 0. -1.
         11    1    3    3    0    0 -0.21670034764E+00  0.12973950355E+02  0.18515090703E+02  0.22609266482E+02  0.51100000000E-03 0.  1.
        -11    1    3    3    0    0 -0.99149806325E+01  0.20071926630E+01  0.11659394626E+02  0.15436228381E+02  0.51100000000E-03 0. -1.
        -12    1    3    3    0    0 -0.54006339012E+01 -0.88885254461E+01  0.69037251748E+01  0.12483355015E+02  0.00000000000E+00 0.  1.
</event>
<event>
 7    1  0.5290964E-013  0.5052884E+02  0.7816164E-02  0.1300439E+00
        -11   -1    0    0    0    0  0.00000000000E+00  0.00000000000E+00  0.45593999997E+02  0.45594000000E+02  0.51100000000E-03 0.  1.
         11   -1    0    0    0    0 -0.00000000000E+00 -0.00000000000E+00 -0.45593999997E+02  0.45594000000E+02  0.51100000000E-03 0. -1.
    9900012    2    1    2    0    0  0.13374119974E+02  0.38377468712E+02 -0.12124247634E+01  0.50528841578E+02  0.29999944460E+02 0.  0.
         12    1    1    2    0    0 -0.13374119974E+02 -0.38377468712E+02  0.12124247634E+01  0.40659158422E+02  0.00000000000E+00 0. -1.
         11    1    3    3    0    0 -0.28587137417E+00  0.19527895680E+02  0.81723543407E+01  0.21170918918E+02  0.51100000000E-03 0. -1.
        -11    1    3    3    0    0 -0.15904483895E+01  0.90332325804E+01 -0.56250566526E+00  0.91894085672E+01  0.51100000000E-03 0.  1.
         12    1    3    3    0    0  0.15250439738E+02  0.98163404517E+01 -0.88222734388E+01  0.20168514092E+02  0.00000000000E+00 0. -1.
</event>
<event>
 7    1  0.5290964E-013  0.5052879E+02  0.7816164E-02  0.1300439E+00
        -11   -1    0    0    0    0  0.00000000000E+00  0.00000000000E+00  0.45593999997E+02  0.45594000000E+02  0.51100000000E-03 0.  1.
         11   -1    0    0    0    0 -0.00000000000E+00 -0.00000000000E+00 -0.45593999997E+02  0.45594000000E+02  0.51100000000E-03 0. -1.
    9900012    2    1    2    0    0 -0.22198128994E+01  0.34694320679E+02 -0.21084298214E+02  0.50528793319E+02  0.29999797772E+02 0.  0.
         12    1    1    2    0    0  0.22198128994E+01 -0.34694320679E+02  0.21084298214E+02  0.40659206681E+02  0.00000000000E+00 0. -1.
         11    1    3    3    0    0 -0.38510011042E+01  0.25719597382E+01 -0.55632831522E+01  0.72384602018E+01  0.51100000000E-03 0. -1.
        -11    1    3    3    0    0 -0.63690292042E+01  0.17943837719E+02 -0.18717069448E+02  0.26699710375E+02  0.51100000000E-03 0.  1.
        -12    1    3    3    0    0  0.80002174091E+01  0.14178523222E+02  0.31960543862E+01  0.16590622743E+02  0.00000000000E+00 0.  1.
</event>
<event>
 7    1  0.5290964E-013  0.5052884E+02  0.7816164E-02  0.1300439E+00
        -11   -1    0    0    0    0  0.00000000000E+00  0.00000000000E+00  0.45593999997E+02  0.45594000000E+02  0.51100000000E-03 0. -1.
         11   -1    0    0    0    0 -0.00000000000E+00 -0.00000000000E+00 -0.45593999997E+02  0.45594000000E+02  0.51100000000E-03 0.  1.
    9900012    2    1    2    0    0 -0.34176457030E+02  0.21703753552E+02 -0.37528887155E+01  0.50528839814E+02  0.29999939097E+02 0.  0.
         12    1    1    2    0    0  0.34176457030E+02 -0.21703753552E+02  0.37528887155E+01  0.40659160186E+02  0.00000000000E+00 0. -1.
         11    1    3    3    0    0 -0.18169225458E+02  0.46376836593E+01  0.12379515963E+01  0.18792588642E+02  0.51100000000E-03 0. -1.
        -11    1    3    3    0    0 -0.46231230782E+01 -0.30120424835E+01 -0.65960052863E+01  0.85995902761E+01  0.51100000000E-03 0.  1.
        -12    1    3    3    0    0 -0.11384108494E+02  0.20078112376E+02  0.16051649744E+01  0.23136660895E+02  0.00000000000E+00 0.  1.
</event>
<event>
 7    1  0.5290964E-013  0.5052886E+02  0.7816164E-02  0.1300439E+00
        -11   -1    0    0    0    0  0.00000000000E+00  0.00000000000E+00  0.45593999997E+02  0.45594000000E+02  0.51100000000E-03 0.  1.
         11   -1    0    0    0    0 -0.00000000000E+00 -0.00000000000E+00 -0.45593999997E+02  0.45594000000E+02  0.51100000000E-03 0. -1.
    9900012    2    1    2    0    0  0.17266737235E+02 -0.26412062056E+02  0.25640368202E+02  0.50528859351E+02  0.29999998483E+02 0.  0.
         12    1    1    2    0    0 -0.17266737235E+02  0.26412062056E+02 -0.25640368202E+02  0.40659140649E+02  0.00000000000E+00 0. -1.
         11    1    3    3    0    0  0.11367372250E+01 -0.18114825309E+02  0.94722230199E+01  0.20473448090E+02  0.51100000000E-03 0. -1.
        -11    1    3    3    0    0 -0.14513514610E+01 -0.17180502792E+01 -0.26495889828E+01  0.34754049929E+01  0.51100000000E-03 0.  1.
        -12    1    3    3    0    0  0.17581351471E+02 -0.65791864677E+01  0.18817734165E+02  0.26580006268E+02  0.00000000000E+00 0.  1.
</event>
<event>
 7    1  0.5290964E-013  0.5052886E+02  0.7816164E-02  0.1300439E+00
        -11   -1    0    0    0    0  0.00000000000E+00  0.00000000000E+00  0.45593999997E+02  0.45594000000E+02  0.51100000000E-03 0.  1.
         11   -1    0    0    0    0 -0.00000000000E+00 -0.00000000000E+00 -0.45593999997E+02  0.45594000000E+02  0.51100000000E-03 0. -1.
    9900012    2    1    2    0    0 -0.19153188419E+02 -0.25636166377E+02  0.25082020387E+02  0.50528863268E+02  0.30000010388E+02 0.  0.
         12    1    1    2    0    0  0.19153188419E+02  0.25636166377E+02 -0.25082020387E+02  0.40659136732E+02  0.00000000000E+00 0. -1.
         11    1    3    3    0    0 -0.19291618615E+02 -0.15974821306E+02  0.16917808385E+02  0.30225381807E+02  0.51100000000E-03 0. -1.
        -11    1    3    3    0    0 -0.55966250838E+01 -0.10906484027E+02  0.33372809053E+01  0.12704764865E+02  0.51100000000E-03 0.  1.
         12    1    3    3    0    0  0.57350552802E+01  0.12451389566E+01  0.48269310966E+01  0.75987165956E+01  0.00000000000E+00 0. -1.
</event>
<event>
 7    1  0.5290964E-013  0.5052886E+02  0.7816164E-02  0.1300439E+00
        -11   -1    0    0    0    0  0.00000000000E+00  0.00000000000E+00  0.45593999997E+02  0.45594000000E+02  0.51100000000E-03 0. -1.
         11   -1    0    0    0    0 -0.00000000000E+00 -0.00000000000E+00 -0.45593999997E+02  0.45594000000E+02  0.51100000000E-03 0.  1.
    9900012    2    1    2    0    0  0.20294178699E+02 -0.33272605042E+02 -0.11586449466E+02  0.50528859003E+02  0.29999997426E+02 0.  0.
         12    1    1    2    0    0 -0.20294178699E+02  0.33272605042E+02  0.11586449466E+02  0.40659140997E+02  0.00000000000E+00 0. -1.
         11    1    3    3    0    0  0.19331243406E+02 -0.23176950297E+02 -0.12870650813E+02  0.32810389350E+02  0.51100000000E-03 0. -1.
        -11    1    3    3    0    0  0.49815945009E+00 -0.17063072223E+00 -0.56038271761E+01  0.56285128552E+01  0.51100000000E-03 0.  1.
         12    1    3    3    0    0  0.46477584376E+00 -0.99250240229E+01  0.68880285232E+01  0.12089956798E+02  0.00000000000E+00 0. -1.
</event>
<event>
 7    1  0.5290964E-013  0.5052886E+02  0.7816164E-02  0.1300439E+00
        -11   -1    0    0    0    0  0.00000000000E+00  0.00000000000E+00  0.45593999997E+02  0.45594000000E+02  0.51100000000E-03 0.  1.
         11   -1    0    0    0    0 -0.00000000000E+00 -0.00000000000E+00 -0.45593999997E+02  0.45594000000E+02  0.51100000000E-03 0. -1.
    9900012    2    1    2    0    0 -0.35755036524E+00  0.32433961133E+02  0.24516845008E+02  0.50528863681E+02  0.30000011646E+02 0.  0.
         12    1    1    2    0    0  0.35755036524E+00 -0.32433961133E+02 -0.24516845008E+02  0.40659136319E+02  0.00000000000E+00 0. -1.
         11    1    3    3    0    0 -0.74751631707E+01  0.19841955261E+02  0.88264901464E+01  0.22967110867E+02  0.51100000000E-03 0. -1.
        -11    1    3    3    0    0  0.80709563029E+01  0.15924505932E+02  0.16139165809E+02  0.24066634540E+02  0.51100000000E-03 0.  1.
        -12    1    3    3    0    0 -0.95334349749E+00 -0.33325000610E+01 -0.44881094710E+00  0.34951182737E+01  0.00000000000E+00 0.  1.
</event>
<event>
 7    1  0.5290964E-013  0.5052886E+02  0.7816164E-02  0.1300439E+00
        -11   -1    0    0    0    0  0.00000000000E+00  0.00000000000E+00  0.45593999997E+02  0.45594000000E+02  0.51100000000E-03 0.  1.
         11   -1    0    0    0    0 -0.00000000000E+00 -0.00000000000E+00 -0.45593999997E+02  0.45594000000E+02  0.51100000000E-03 0. -1.
    9900012    2    1    2    0    0  0.14298808605E+02  0.37538291688E+02  0.62917513093E+01  0.50528863206E+02  0.30000010200E+02 0.  0.
         12    1    1    2    0    0 -0.14298808605E+02 -0.37538291688E+02 -0.62917513093E+01  0.40659136794E+02  0.00000000000E+00 0. -1.
         11    1    3    3    0    0  0.21333583504E+00 -0.22408643667E+01  0.57641884365E+01  0.61881219995E+01  0.51100000000E-03 0. -1.
        -11    1    3    3    0    0  0.63839164410E+01  0.38907529588E+01  0.14877632664E+01  0.76227152321E+01  0.51100000000E-03 0.  1.
         12    1    3    3    0    0  0.77015563287E+01  0.35888403095E+02 -0.96020039366E+00  0.36718025974E+02  0.00000000000E+00 0. -1.
</event>
<event>
 7    1  0.5290964E-013  0.5052884E+02  0.7816164E-02  0.1300439E+00
        -11   -1    0    0    0    0  0.00000000000E+00  0.00000000000E+00  0.45593999997E+02  0.45594000000E+02  0.51100000000E-03 0.  1.
         11   -1    0    0    0    0 -0.00000000000E+00 -0.00000000000E+00 -0.45593999997E+02  0.45594000000E+02  0.51100000000E-03 0. -1.
    9900012    2    1    2    0    0  0.26279787111E+02  0.28302953470E+01  0.30895456396E+02  0.50528843488E+02  0.29999950266E+02 0.  0.
         12    1    1    2    0    0 -0.26279787111E+02 -0.28302953470E+01 -0.30895456396E+02  0.40659156512E+02  0.00000000000E+00 0. -1.
         11    1    3    3    0    0  0.30213315184E+01 -0.24878442638E+01  0.21190548805E+02  0.21548948284E+02  0.51100000000E-03 0. -1.
        -11    1    3    3    0    0  0.81733044523E+01 -0.21101163657E+01  0.87195577694E+01  0.12136151973E+02  0.51100000000E-03 0.  1.
         12    1    3    3    0    0  0.15085151140E+02  0.74282559765E+01  0.98534982195E+00  0.16843743231E+02  0.00000000000E+00 0. -1.
</event>
<event>
 7    1  0.5290964E-013  0.5052885E+02  0.7816164E-02  0.1300439E+00
        -11   -1    0    0    0    0  0.00000000000E+00  0.00000000000E+00  0.45593999997E+02  0.45594000000E+02  0.51100000000E-03 0. -1.
         11   -1    0    0    0    0 -0.00000000000E+00 -0.00000000000E+00 -0.45593999997E+02  0.45594000000E+02  0.51100000000E-03 0.  1.
    9900012    2    1    2    0    0 -0.39334691747E+02  0.76518745819E+01 -0.68845735649E+01  0.50528849583E+02  0.29999968792E+02 0.  0.
         12    1    1    2    0    0  0.39334691747E+02 -0.76518745819E+01  0.68845735649E+01  0.40659150417E+02  0.00000000000E+00 0. -1.
         11    1    3    3    0    0 -0.81680173955E+01  0.90569939880E+01 -0.58741800056E+01  0.13537046918E+02  0.51100000000E-03 0. -1.
        -11    1    3    3    0    0 -0.21410350347E+02  0.78514322291E+01 -0.41557033158E+01  0.23180119938E+02  0.51100000000E-03 0.  1.
        -12    1    3    3    0    0 -0.97563240048E+01 -0.92565516353E+01  0.31453097565E+01  0.13811682726E+02  0.00000000000E+00 0.  1.
</event>
<event>
 7    1  0.5290964E-013  0.5052879E+02  0.7816164E-02  0.1300439E+00
        -11   -1    0    0    0    0  0.00000000000E+00  0.00000000000E+00  0.45593999997E+02  0.45594000000E+02  0.51100000000E-03 0.  1.
         11   -1    0    0    0    0 -0.00000000000E+00 -0.00000000000E+00 -0.45593999997E+02  0.45594000000E+02  0.51100000000E-03 0. -1.
    9900012    2    1    2    0    0  0.49156544870E+01 -0.34495818638E+02  0.20953431942E+02  0.50528788587E+02  0.29999783389E+02 0.  0.
         12    1    1    2    0    0 -0.49156544870E+01  0.34495818638E+02 -0.20953431942E+02  0.40659211413E+02  0.00000000000E+00 0. -1.
         11    1    3    3    0    0 -0.74627837913E+01 -0.12657495215E+02  0.83769725202E+01  0.16913869926E+02  0.51100000000E-03 0. -1.
        -11    1    3    3    0    0  0.80202079387E+01 -0.65079964010E+01 -0.35694052495E+01  0.10927872924E+02  0.51100000000E-03 0.  1.
         12    1    3    3    0    0  0.43582303395E+01 -0.15330327022E+02  0.16145864671E+02  0.22687045737E+02  0.00000000000E+00 0. -1.
</event>
<event>
 7    1  0.5290964E-013  0.5052887E+02  0.7816164E-02  0.1300439E+00
        -11   -1    0    0    0    0  0.00000000000E+00  0.00000000000E+00  0.45593999997E+02  0.45594000000E+02  0.51100000000E-03 0.  1.
         11   -1    0    0    0    0 -0.00000000000E+00 -0.00000000000E+00 -0.45593999997E+02  0.45594000000E+02  0.51100000000E-03 0. -1.
    9900012    2    1    2    0    0 -0.40260676429E+02 -0.20734035617E+01 -0.52861814789E+01  0.50528870847E+02  0.30000033428E+02 0.  0.
         12    1    1    2    0    0  0.40260676429E+02  0.20734035617E+01  0.52861814789E+01  0.40659129153E+02  0.00000000000E+00 0. -1.
         11    1    3    3    0    0 -0.27560326193E+02  0.59968567233E+00 -0.90508208121E+01  0.29014626663E+02  0.51100000000E-03 0. -1.
        -11    1    3    3    0    0 -0.16358533428E+02 -0.29416552142E+01  0.53899729530E+00  0.16629656330E+02  0.51100000000E-03 0.  1.
        -12    1    3    3    0    0  0.36581831920E+01  0.26856598015E+00  0.32256420379E+01  0.48845878545E+01  0.00000000000E+00 0.  1.
</event>
<event>
 7    1  0.5290964E-013  0.5052886E+02  0.7816164E-02  0.1300439E+00
        -11   -1    0    0    0    0  0.00000000000E+00  0.00000000000E+00  0.45593999997E+02  0.45594000000E+02  0.51100000000E-03 0.  1.
         11   -1    0    0    0    0 -0.00000000000E+00 -0.00000000000E+00 -0.45593999997E+02  0.45594000000E+02  0.51100000000E-03 0. -1.
    9900012    2    1    2    0    0  0.79604010045E+01 -0.27501581580E+01  0.39777311295E+02  0.50528857758E+02  0.29999993640E+02 0.  0.
         12    1    1    2    0    0 -0.79604010045E+01  0.27501581580E+01 -0.39777311295E+02  0.40659142242E+02  0.00000000000E+00 0. -1.
         11    1    3    3    0    0  0.24322859286E+01 -0.24774999963E+01 -0.38752850645E+01  0.52030621428E+01  0.51100000000E-03 0. -1.
        -11    1    3    3    0    0  0.96600667384E+00 -0.50442895653E+01  0.13158637394E+02  0.14125429708E+02  0.51100000000E-03 0.  1.
        -12    1    3    3    0    0  0.45621084021E+01  0.47716314036E+01  0.30493958966E+02  0.31200365907E+02  0.00000000000E+00 0.  1.
</event>
<event>
 7    1  0.5290964E-013  0.5052886E+02  0.7816164E-02  0.1300439E+00
        -11   -1    0    0    0    0  0.00000000000E+00  0.00000000000E+00  0.45593999997E+02  0.45594000000E+02  0.51100000000E-03 0.  1.
         11   -1    0    0    0    0 -0.00000000000E+00 -0.00000000000E+00 -0.45593999997E+02  0.45594000000E+02  0.51100000000E-03 0. -1.
    9900012    2    1    2    0    0 -0.34420276040E+01  0.27448490243E+02  0.29797627811E+02  0.50528858422E+02  0.29999995660E+02 0.  0.
         12    1    1    2    0    0  0.34420276040E+01 -0.27448490243E+02 -0.29797627811E+02  0.40659141578E+02  0.00000000000E+00 0. -1.
         11    1    3    3    0    0 -0.63544150494E+01  0.17875831830E+02  0.93169643030E+01  0.21135983022E+02  0.51100000000E-03 0. -1.
        -11    1    3    3    0    0 -0.24588365145E+00  0.12538742404E+02  0.21546909874E+02  0.24930901412E+02  0.51100000000E-03 0.  1.
        -12    1    3    3    0    0  0.31582710968E+01 -0.29660839902E+01 -0.10662463656E+01  0.44619739881E+01  0.00000000000E+00 0.  1.
</event>
<event>
 7    1  0.5290964E-013  0.5052890E+02  0.7816164E-02  0.1300439E+00
        -11   -1    0    0    0    0  0.00000000000E+00  0.00000000000E+00  0.45593999997E+02  0.45594000000E+02  0.51100000000E-03 0.  1.
         11   -1    0    0    0    0 -0.00000000000E+00 -0.00000000000E+00 -0.45593999997E+02  0.45594000000E+02  0.51100000000E-03 0. -1.
    9900012    2    1    2    0    0  0.38006921641E+02 -0.87437317765E+00  0.14417763325E+02  0.50528898677E+02  0.30000118019E+02 0.  0.
         12    1    1    2    0    0 -0.38006921641E+02  0.87437317765E+00 -0.14417763325E+02  0.40659101323E+02  0.00000000000E+00 0. -1.
         11    1    3    3    0    0  0.10305795303E+02  0.14000035904E+01  0.82850248098E+01  0.13297032121E+02  0.51100000000E-03 0. -1.
        -11    1    3    3    0    0  0.28420608577E+02  0.51071325583E+01  0.71448305742E+01  0.29746636769E+02  0.51100000000E-03 0.  1.
         12    1    3    3    0    0 -0.71948223864E+00 -0.73815093264E+01 -0.10120920591E+01  0.74852297870E+01  0.00000000000E+00 0. -1.
</event>
<event>
 7    1  0.5290964E-013  0.5052886E+02  0.7816164E-02  0.1300439E+00
        -11   -1    0    0    0    0  0.00000000000E+00  0.00000000000E+00  0.45593999997E+02  0.45594000000E+02  0.51100000000E-03 0. -1.
         11   -1    0    0    0    0 -0.00000000000E+00 -0.00000000000E+00 -0.45593999997E+02  0.45594000000E+02  0.51100000000E-03 0.  1.
    9900012    2    1    2    0    0  0.54069216107E+01 -0.39252934478E+02 -0.91180201484E+01  0.50528856405E+02  0.29999989529E+02 0.  0.
         12    1    1    2    0    0 -0.54069216107E+01  0.39252934478E+02  0.91180201484E+01  0.40659143595E+02  0.00000000000E+00 0. -1.
         11    1    3    3    0    0  0.57846829195E+01 -0.14184401646E+02  0.40298076062E+01  0.15839796594E+02  0.51100000000E-03 0. -1.
        -11    1    3    3    0    0 -0.82087737670E+01 -0.76283258880E+01  0.47201381765E+00  0.11215976102E+02  0.51100000000E-03 0.  1.
         12    1    3    3    0    0  0.78310124581E+01 -0.17440206944E+02 -0.13619841572E+02  0.23473083710E+02  0.00000000000E+00 0. -1.
</event>
<event>
 7    1  0.5290964E-013  0.5052885E+02  0.7816164E-02  0.1300439E+00
        -11   -1    0    0    0    0  0.00000000000E+00  0.00000000000E+00  0.45593999997E+02  0.45594000000E+02  0.51100000000E-03 0.  1.
         11   -1    0    0    0    0 -0.00000000000E+00 -0.00000000000E+00 -0.45593999997E+02  0.45594000000E+02  0.51100000000E-03 0. -1.
    9900012    2    1    2    0    0 -0.21614375220E+02  0.23937770003E+02  0.24758191056E+02  0.50528854986E+02  0.29999985216E+02 0.  0.
         12    1    1    2    0    0  0.21614375220E+02 -0.23937770003E+02 -0.24758191056E+02  0.40659145014E+02  0.00000000000E+00 0. -1.
         11    1    3    3    0    0 -0.14438888842E+02 -0.18023646669E+01  0.75224589229E+01  0.16380397367E+02  0.51100000000E-03 0. -1.
        -11    1    3    3    0    0 -0.32284651744E+01  0.69633085507E+01 -0.92333041615E+00  0.77306657329E+01  0.51100000000E-03 0.  1.
        -12    1    3    3    0    0 -0.39470212033E+01  0.18776826119E+02  0.18159062550E+02  0.26417791887E+02  0.00000000000E+00 0.  1.
</event>
<event>
 7    1  0.5290964E-013  0.5052886E+02  0.7816164E-02  0.1300439E+00
        -11   -1    0    0    0    0  0.00000000000E+00  0.00000000000E+00  0.45593999997E+02  0.45594000000E+02  0.51100000000E-03 0. -1.
         11   -1    0    0    0    0 -0.00000000000E+00 -0.00000000000E+00 -0.45593999997E+02  0.45594000000E+02  0.51100000000E-03 0.  1.
    9900012    2    1    2    0    0 -0.89837723831E+01 -0.45821054637E+01 -0.39388604008E+02  0.50528856104E+02  0.29999988613E+02 0.  0.
         12    1    1    2    0    0  0.89837723831E+01  0.45821054637E+01  0.39388604008E+02  0.40659143896E+02  0.00000000000E+00 0. -1.
         11    1    3    3    0    0 -0.10739848310E+02 -0.84319317511E+01 -0.20474047027E+02  0.24609518823E+02  0.51100000000E-03 0. -1.
        -11    1    3    3    0    0  0.71828915525E+01 -0.18955934011E+01 -0.15735090177E+02  0.17400582420E+02  0.51100000000E-03 0.  1.
         12    1    3    3    0    0 -0.54268156251E+01  0.57454196886E+01 -0.31794668034E+01  0.85187548609E+01  0.00000000000E+00 0. -1.
</event>
<event>
 7    1  0.5290964E-013  0.5052886E+02  0.7816164E-02  0.1300439E+00
        -11   -1    0    0    0    0  0.00000000000E+00  0.00000000000E+00  0.45593999997E+02  0.45594000000E+02  0.51100000000E-03 0.  1.
         11   -1    0    0    0    0 -0.00000000000E+00 -0.00000000000E+00 -0.45593999997E+02  0.45594000000E+02  0.51100000000E-03 0. -1.
    9900012    2    1    2    0    0 -0.32006784818E+02  0.13092513562E+02 -0.21384977146E+02  0.50528862856E+02  0.30000009137E+02 0.  0.
         12    1    1    2    0    0  0.32006784818E+02 -0.13092513562E+02  0.21384977146E+02  0.40659137144E+02  0.00000000000E+00 0. -1.
         11    1    3    3    0    0  0.34254783828E+01  0.44533302252E+01 -0.37153848480E+01  0.67357358229E+01  0.51100000000E-03 0. -1.
        -11    1    3    3    0    0 -0.41426460241E-03  0.84024903642E+00 -0.54442179833E+01  0.55086775478E+01  0.51100000000E-03 0.  1.
        -12    1    3    3    0    0 -0.35431848936E+02  0.77989342999E+01 -0.12225374315E+02  0.38284449485E+02  0.00000000000E+00 0.  1.
</event>
<event>
 7    1  0.5290964E-013  0.5052885E+02  0.7816164E-02  0.1300439E+00
        -11   -1    0    0    0    0  0.00000000000E+00  0.00000000000E+00  0.45593999997E+02  0.45594000000E+02  0.51100000000E-03 0. -1.
         11   -1    0    0    0    0 -0.00000000000E+00 -0.00000000000E+00 -0.45593999997E+02  0.45594000000E+02  0.51100000000E-03 0.  1.
    9900012    2    1    2    0    0 -0.38773610253E+02 -0.12238073264E+02  0.53581681901E-01  0.50528853917E+02  0.29999981965E+02 0.  0.
         12    1    1    2    0    0  0.38773610253E+02  0.12238073264E+02 -0.53581681901E-01  0.40659146083E+02  0.00000000000E+00 0. -1.
         11    1    3    3    0    0 -0.13197246904E+02 -0.30235352159E+01  0.13760509600E+01  0.13608916473E+02  0.51100000000E-03 0. -1.
        -11    1    3    3    0    0 -0.17780317530E+02  0.66457926746E+01 -0.27926904607E+01  0.19186072344E+02  0.51100000000E-03 0.  1.
         12    1    3    3    0    0 -0.77960458187E+01 -0.15860330723E+02  0.14702211827E+01  0.17733865100E+02  0.00000000000E+00 0. -1.
</event>
<event>
 7    1  0.5290964E-013  0.5052886E+02  0.7816164E-02  0.1300439E+00
        -11   -1    0    0    0    0  0.00000000000E+00  0.00000000000E+00  0.45593999997E+02  0.45594000000E+02  0.51100000000E-03 0. -1.
         11   -1    0    0    0    0 -0.00000000000E+00 -0.00000000000E+00 -0.45593999997E+02  0.45594000000E+02  0.51100000000E-03 0.  1.
    9900012    2    1    2    0    0 -0.10466415961E+02 -0.36177602335E+02 -0.15323202902E+02  0.50528864238E+02  0.30000013337E+02 0.  0.
         12    1    1    2    0    0  0.10466415961E+02  0.36177602335E+02  0.15323202902E+02  0.40659135762E+02  0.00000000000E+00 0. -1.
         11    1    3    3    0    0  0.31472397273E+00 -0.78060394131E+01 -0.34291686186E+01  0.85318520951E+01  0.51100000000E-03 0. -1.
        -11    1    3    3    0    0  0.33270151354E+01 -0.23958326586E+02 -0.21315493258E+01  0.24281967492E+02  0.51100000000E-03 0.  1.
        -12    1    3    3    0    0 -0.14108155069E+02 -0.44132363359E+01 -0.97624849580E+01  0.17715044651E+02  0.00000000000E+00 0.  1.
</event>
<event>
 7    1  0.5290964E-013  0.5052886E+02  0.7816164E-02  0.1300439E+00
        -11   -1    0    0    0    0  0.00000000000E+00  0.00000000000E+00  0.45593999997E+02  0.45594000000E+02  0.51100000000E-03 0.  1.
         11   -1    0    0    0    0 -0.00000000000E+00 -0.00000000000E+00 -0.45593999997E+02  0.45594000000E+02  0.51100000000E-03 0. -1.
    9900012    2    1    2    0    0  0.17151843336E+02  0.27419297881E+02  0.24640655449E+02  0.50528861702E+02  0.30000005631E+02 0.  0.
         12    1    1    2    0    0 -0.17151843336E+02 -0.27419297881E+02 -0.24640655449E+02  0.40659138298E+02  0.00000000000E+00 0. -1.
         11    1    3    3    0    0  0.20557303020E+02  0.26360103016E+02  0.98586809083E+01  0.34851848272E+02  0.51100000000E-03 0. -1.
        -11    1    3    3    0    0  0.24106666469E+00  0.14003213178E+01  0.26853444184E+01  0.30381059621E+01  0.51100000000E-03 0.  1.
         12    1    3    3    0    0 -0.36465263489E+01 -0.34112645229E+00  0.12096630122E+02  0.12638907468E+02  0.00000000000E+00 0. -1.
</event>
<event>
 7    1  0.5290964E-013  0.5052886E+02  0.7816164E-02  0.1300439E+00
        -11   -1    0    0    0    0  0.00000000000E+00  0.00000000000E+00  0.45593999997E+02  0.45594000000E+02  0.51100000000E-03 0. -1.
         11   -1    0    0    0    0 -0.00000000000E+00 -0.00000000000E+00 -0.45593999997E+02  0.45594000000E+02  0.51100000000E-03 0.  1.
    9900012    2    1    2    0    0 -0.26912456054E+02  0.29204766973E+02  0.87159039654E+01  0.50528859739E+02  0.29999999663E+02 0.  0.
         12    1    1    2    0    0  0.26912456054E+02 -0.29204766973E+02 -0.87159039654E+01  0.40659140261E+02  0.00000000000E+00 0. -1.
         11    1    3    3    0    0 -0.13508537063E+02  0.19320804625E+00  0.30566600760E+00  0.13513376148E+02  0.51100000000E-03 0. -1.
        -11    1    3    3    0    0  0.36892740811E+00  0.66686527000E+01 -0.42070684545E+01  0.78934442107E+01  0.51100000000E-03 0.  1.
         12    1    3    3    0    0 -0.13772846398E+02  0.22342906227E+02  0.12617306412E+02  0.29122039381E+02  0.00000000000E+00 0. -1.
</event>
<event>
 7    1  0.5290964E-013  0.5052885E+02  0.7816164E-02  0.1300439E+00
        -11   -1    0    0    0    0  0.00000000000E+00  0.00000000000E+00  0.45593999997E+02  0.45594000000E+02  0.51100000000E-03 0.  1.
         11   -1    0    0    0    0 -0.00000000000E+00 -0.00000000000E+00 -0.45593999997E+02  0.45594000000E+02  0.51100000000E-03 0. -1.
    9900012    2    1    2    0    0  0.18626344963E+01 -0.39290630449E+01  0.40425980176E+02  0.50528845842E+02  0.29999957420E+02 0.  0.
         12    1    1    2    0    0 -0.18626344963E+01  0.39290630449E+01 -0.40425980176E+02  0.40659154158E+02  0.00000000000E+00 0. -1.
         11    1    3    3    0    0 -0.30841489113E+01  0.42153306950E+01  0.80854075708E+01  0.96257365028E+01  0.51100000000E-03 0. -1.
        -11    1    3    3    0    0  0.89287190413E+01 -0.87737576828E+01  0.34232786151E+02  0.36449753024E+02  0.51100000000E-03 0.  1.
         12    1    3    3    0    0 -0.39819356338E+01  0.62936394286E+00 -0.18922135456E+01  0.44533563147E+01  0.00000000000E+00 0. -1.
</event>
<event>
 7    1  0.5290964E-013  0.5052886E+02  0.7816164E-02  0.1300439E+00
        -11   -1    0    0    0    0  0.00000000000E+00  0.00000000000E+00  0.45593999997E+02  0.45594000000E+02  0.51100000000E-03 0.  1.
         11   -1    0    0    0    0 -0.00000000000E+00 -0.00000000000E+00 -0.45593999997E+02  0.45594000000E+02  0.51100000000E-03 0. -1.
    9900012    2    1    2    0    0  0.19590775786E+02  0.33684345402E+02  0.11607399753E+02  0.50528863879E+02  0.30000012248E+02 0.  0.
         12    1    1    2    0    0 -0.19590775786E+02 -0.33684345402E+02 -0.11607399753E+02  0.40659136121E+02  0.00000000000E+00 0. -1.
         11    1    3    3    0    0 -0.47216348041E+01  0.52128581240E+01  0.29239487733E+01  0.76169023713E+01  0.51100000000E-03 0. -1.
        -11    1    3    3    0    0  0.10766078260E+01  0.14450779861E+02  0.58467338279E+01  0.15625889406E+02  0.51100000000E-03 0.  1.
         12    1    3    3    0    0  0.23235802764E+02  0.14020707416E+02  0.28367171522E+01  0.27286072102E+02  0.00000000000E+00 0. -1.
</event>
<event>
 7    1  0.5290964E-013  0.5052883E+02  0.7816164E-02  0.1300439E+00
        -11   -1    0    0    0    0  0.00000000000E+00  0.00000000000E+00  0.45593999997E+02  0.45594000000E+02  0.51100000000E-03 0.  1.
         11   -1    0    0    0    0 -0.00000000000E+00 -0.00000000000E+00 -0.45593999997E+02  0.45594000000E+02  0.51100000000E-03 0. -1.
    9900012    2    1    2    0    0  0.12265561055E+02  0.36784716508E+02  0.12231470060E+02  0.50528828631E+02  0.29999905108E+02 0.  0.
         12    1    1    2    0    0 -0.12265561055E+02 -0.36784716508E+02 -0.12231470060E+02  0.40659171369E+02  0.00000000000E+00 0. -1.
         11    1    3    3    0    0 -0.39408114760E+01  0.15285573819E+01  0.31370828882E+01  0.52638172524E+01  0.51100000000E-03 0. -1.
        -11    1    3    3    0    0 -0.35236101976E+00  0.16995368744E+02  0.11460097966E+02  0.20501233199E+02  0.51100000000E-03 0.  1.
        -12    1    3    3    0    0  0.16558733551E+02  0.18260790382E+02 -0.23657107944E+01  0.24763778180E+02  0.00000000000E+00 0.  1.
</event>
<event>
 7    1  0.5290964E-013  0.5052886E+02  0.7816164E-02  0.1300439E+00
        -11   -1    0    0    0    0  0.00000000000E+00  0.00000000000E+00  0.45593999997E+02  0.45594000000E+02  0.51100000000E-03 0. -1.
         11   -1    0    0    0    0 -0.00000000000E+00 -0.00000000000E+00 -0.45593999997E+02  0.45594000000E+02  0.51100000000E-03 0.  1.
    9900012    2    1    2    0    0  0.32567364688E+02  0.17845300460E+02 -0.16555288309E+02  0.50528861271E+02  0.30000004318E+02 0.  0.
         12    1    1    2    0    0 -0.32567364688E+02 -0.17845300460E+02  0.16555288309E+02  0.40659138729E+02  0.00000000000E+00 0. -1.
         11    1    3    3    0    0  0.19808814256E+02  0.22751605876E+02 -0.83987490945E+01  0.31313953420E+02  0.51100000000E-03 0. -1.
        -11    1    3    3    0    0  0.53380324761E+01 -0.14278252577E+01  0.22521995319E+01  0.59670494112E+01  0.51100000000E-03 0.  1.
        -12    1    3    3    0    0  0.74205179559E+01 -0.34784801581E+01 -0.10408738746E+02  0.13247858439E+02  0.00000000000E+00 0.  1.
</event>
<event>
 7    1  0.5290964E-013  0.5052886E+02  0.7816164E-02  0.1300439E+00
        -11   -1    0    0    0    0  0.00000000000E+00  0.00000000000E+00  0.45593999997E+02  0.45594000000E+02  0.51100000000E-03 0.  1.
         11   -1    0    0    0    0 -0.00000000000E+00 -0.00000000000E+00 -0.45593999997E+02  0.45594000000E+02  0.51100000000E-03 0. -1.
    9900012    2    1    2    0    0  0.38019945944E+02 -0.13208509710E+02  0.57606248116E+01  0.50528858142E+02  0.29999994809E+02 0.  0.
         12    1    1    2    0    0 -0.38019945944E+02  0.13208509710E+02 -0.57606248116E+01  0.40659141858E+02  0.00000000000E+00 0. -1.
         11    1    3    3    0    0  0.59685248556E+01  0.82794376919E+00 -0.73871906552E+00  0.60707895661E+01  0.51100000000E-03 0. -1.
        -11    1    3    3    0    0  0.30085097184E+02 -0.17337888605E+02 -0.23577091802E+01  0.34803365451E+02  0.51100000000E-03 0.  1.
        -12    1    3    3    0    0  0.19663239048E+01  0.33014351253E+01  0.88570530573E+01  0.96547031256E+01  0.00000000000E+00 0.  1.
</event>
<event>
 7    1  0.5290964E-013  0.5052886E+02  0.7816164E-02  0.1300439E+00
        -11   -1    0    0    0    0  0.00000000000E+00  0.00000000000E+00  0.45593999997E+02  0.45594000000E+02  0.51100000000E-03 0. -1.
         11   -1    0    0    0    0 -0.00000000000E+00 -0.00000000000E+00 -0.45593999997E+02  0.45594000000E+02  0.51100000000E-03 0.  1.
    9900012    2    1    2    0    0 -0.14581131600E+02 -0.12979309460E+02 -0.35666421866E+02  0.50528861771E+02  0.30000005838E+02 0.  0.
         12    1    1    2    0    0  0.14581131600E+02  0.12979309460E+02  0.35666421866E+02  0.40659138229E+02  0.00000000000E+00 0. -1.
         11    1    3    3    0    0 -0.14200108880E+02 -0.86911672470E+01 -0.37358402110E+01  0.17062707366E+02  0.51100000000E-03 0. -1.
        -11    1    3    3    0    0  0.25872541994E+01 -0.59683283655E+01 -0.18542495320E+02  0.19650418844E+02  0.51100000000E-03 0.  1.
        -12    1    3    3    0    0 -0.29682769198E+01  0.16801861525E+01 -0.13388086335E+02  0.13815735561E+02  0.00000000000E+00 0.  1.
</event>
<event>
 7    1  0.5290964E-013  0.5052886E+02  0.7816164E-02  0.1300439E+00
        -11   -1    0    0    0    0  0.00000000000E+00  0.00000000000E+00  0.45593999997E+02  0.45594000000E+02  0.51100000000E-03 0. -1.
         11   -1    0    0    0    0 -0.00000000000E+00 -0.00000000000E+00 -0.45593999997E+02  0.45594000000E+02  0.51100000000E-03 0.  1.
    9900012    2    1    2    0    0  0.19796918595E+02  0.33625834277E+02 -0.11425873738E+02  0.50528864405E+02  0.30000013845E+02 0.  0.
         12    1    1    2    0    0 -0.19796918595E+02 -0.33625834277E+02  0.11425873738E+02  0.40659135595E+02  0.00000000000E+00 0. -1.
         11    1    3    3    0    0  0.12072413443E+02  0.18033965423E+02 -0.11114737718E+02  0.24382462345E+02  0.51100000000E-03 0. -1.
        -11    1    3    3    0    0  0.45583050848E+01  0.18098330728E+02 -0.56060588780E+01  0.19487319385E+02  0.51100000000E-03 0.  1.
         12    1    3    3    0    0  0.31662000673E+01 -0.25064618742E+01  0.52949228585E+01  0.66590826748E+01  0.00000000000E+00 0. -1.
</event>
<event>
 7    1  0.5394312E-013  0.5052887E+02  0.7816164E-02  0.1300439E+00
        -11   -1    0    0    0    0  0.00000000000E+00  0.00000000000E+00  0.45593999997E+02  0.45594000000E+02  0.51100000000E-03 0. -1.
         11   -1    0    0    0    0 -0.00000000000E+00 -0.00000000000E+00 -0.45593999997E+02  0.45594000000E+02  0.51100000000E-03 0.  1.
    9900012    2    1    2    0    0 -0.28447379729E+02 -0.15619137133E+02 -0.24493963505E+02  0.50528866875E+02  0.30000021354E+02 0.  0.
         12    1    1    2    0    0  0.28447379729E+02  0.15619137133E+02  0.24493963505E+02  0.40659133125E+02  0.00000000000E+00 0. -1.
         11    1    3    3    0    0 -0.17477954489E+02 -0.93748345168E+01 -0.79203995856E+01  0.21356477828E+02  0.51100000000E-03 0. -1.
        -11    1    3    3    0    0 -0.12553673710E+02 -0.11351761647E+02 -0.16763259259E+02  0.23821504515E+02  0.51100000000E-03 0.  1.
         12    1    3    3    0    0  0.15842484695E+01  0.51074590304E+01  0.18969533951E+00  0.53508845327E+01  0.00000000000E+00 0. -1.
</event>
<event>
 7    1  0.5290964E-013  0.5052886E+02  0.7816164E-02  0.1300439E+00
        -11   -1    0    0    0    0  0.00000000000E+00  0.00000000000E+00  0.45593999997E+02  0.45594000000E+02  0.51100000000E-03 0.  1.
         11   -1    0    0    0    0 -0.00000000000E+00 -0.00000000000E+00 -0.45593999997E+02  0.45594000000E+02  0.51100000000E-03 0. -1.
    9900012    2    1    2    0    0 -0.29718175726E+01  0.94683479254E+01  0.39429482164E+02  0.50528863562E+02  0.30000011284E+02 0.  0.
         12    1    1    2    0    0  0.29718175726E+01 -0.94683479254E+01 -0.39429482164E+02  0.40659136438E+02  0.00000000000E+00 0. -1.
         11    1    3    3    0    0  0.24192327369E+01 -0.49712623928E+01 -0.13757686804E+01  0.56972692175E+01  0.51100000000E-03 0. -1.
        -11    1    3    3    0    0  0.37109898212E+00  0.42550073915E+01  0.29035302768E+01  0.51646191230E+01  0.51100000000E-03 0.  1.
         12    1    3    3    0    0 -0.57621492917E+01  0.10184602927E+02  0.37901720568E+02  0.39666975222E+02  0.00000000000E+00 0. -1.
</event>
<event>
 7    1  0.5290964E-013  0.5052887E+02  0.7816164E-02  0.1300439E+00
        -11   -1    0    0    0    0  0.00000000000E+00  0.00000000000E+00  0.45593999997E+02  0.45594000000E+02  0.51100000000E-03 0. -1.
         11   -1    0    0    0    0 -0.00000000000E+00 -0.00000000000E+00 -0.45593999997E+02  0.45594000000E+02  0.51100000000E-03 0.  1.
    9900012    2    1    2    0    0  0.21966794885E+02  0.19551456325E+02 -0.28077846238E+02  0.50528868537E+02  0.30000026406E+02 0.  0.
         12    1    1    2    0    0 -0.21966794885E+02 -0.19551456325E+02  0.28077846238E+02  0.40659131463E+02  0.00000000000E+00 0. -1.
         11    1    3    3    0    0 -0.44362017183E+01  0.73640896286E+01 -0.13221131765E+02  0.15770479611E+02  0.51100000000E-03 0. -1.
        -11    1    3    3    0    0  0.15199173167E+02  0.53021077164E+01 -0.14402795329E+02  0.21600178813E+02  0.51100000000E-03 0.  1.
        -12    1    3    3    0    0  0.11203823436E+02  0.68852589800E+01 -0.45391914405E+00  0.13158210114E+02  0.00000000000E+00 0.  1.
</event>
<event>
 7    1  0.5290964E-013  0.5052886E+02  0.7816164E-02  0.1300439E+00
        -11   -1    0    0    0    0  0.00000000000E+00  0.00000000000E+00  0.45593999997E+02  0.45594000000E+02  0.51100000000E-03 0.  1.
         11   -1    0    0    0    0 -0.00000000000E+00 -0.00000000000E+00 -0.45593999997E+02  0.45594000000E+02  0.51100000000E-03 0. -1.
    9900012    2    1    2    0    0 -0.83330418499E+01 -0.34572458910E+02  0.19709676947E+02  0.50528857524E+02  0.29999992929E+02 0.  0.
         12    1    1    2    0    0  0.83330418499E+01  0.34572458910E+02 -0.19709676947E+02  0.40659142476E+02  0.00000000000E+00 0. -1.
         11    1    3    3    0    0  0.37863160616E+01  0.22339816327E+01  0.37712547432E+01  0.57921693563E+01  0.51100000000E-03 0. -1.
        -11    1    3    3    0    0  0.99906757594E-01 -0.30182685725E+01  0.71296119061E+01  0.77428220132E+01  0.51100000000E-03 0.  1.
         12    1    3    3    0    0 -0.12219264669E+02 -0.33788171971E+02  0.88088102975E+01  0.36993866154E+02  0.00000000000E+00 0. -1.
</event>
<event>
 7    1  0.5290964E-013  0.5052886E+02  0.7816164E-02  0.1300439E+00
        -11   -1    0    0    0    0  0.00000000000E+00  0.00000000000E+00  0.45593999997E+02  0.45594000000E+02  0.51100000000E-03 0.  1.
         11   -1    0    0    0    0 -0.00000000000E+00 -0.00000000000E+00 -0.45593999997E+02  0.45594000000E+02  0.51100000000E-03 0. -1.
    9900012    2    1    2    0    0  0.35979698621E+02 -0.14541354412E+00  0.18936900062E+02  0.50528855371E+02  0.29999986387E+02 0.  0.
         12    1    1    2    0    0 -0.35979698621E+02  0.14541354412E+00 -0.18936900062E+02  0.40659144629E+02  0.00000000000E+00 0. -1.
         11    1    3    3    0    0  0.51386844004E+01  0.52313558499E+01  0.11028961046E+01  0.74154933399E+01  0.51100000000E-03 0. -1.
        -11    1    3    3    0    0  0.24708365034E+02  0.43893330685E+01  0.45192027771E+01  0.25498877258E+02  0.51100000000E-03 0.  1.
         12    1    3    3    0    0  0.61326491871E+01 -0.97661024625E+01  0.13314801180E+02  0.17614484773E+02  0.00000000000E+00 0. -1.
</event>
<event>
 7    1  0.5290964E-013  0.5052886E+02  0.7816164E-02  0.1300439E+00
        -11   -1    0    0    0    0  0.00000000000E+00  0.00000000000E+00  0.45593999997E+02  0.45594000000E+02  0.51100000000E-03 0. -1.
         11   -1    0    0    0    0 -0.00000000000E+00 -0.00000000000E+00 -0.45593999997E+02  0.45594000000E+02  0.51100000000E-03 0.  1.
    9900012    2    1    2    0    0 -0.40359215732E+02 -0.25091060426E+01 -0.42430566658E+01  0.50528862804E+02  0.30000008980E+02 0.  0.
         12    1    1    2    0    0  0.40359215732E+02  0.25091060426E+01  0.42430566658E+01  0.40659137196E+02  0.00000000000E+00 0. -1.
         11    1    3    3    0    0 -0.10572724259E+02  0.41165873313E+01  0.39427184045E+01  0.12011403673E+02  0.51100000000E-03 0. -1.
        -11    1    3    3    0    0 -0.23869428836E+02  0.23191139214E+01  0.15512173757E+01  0.24031941202E+02  0.51100000000E-03 0.  1.
        -12    1    3    3    0    0 -0.59170626375E+01 -0.89448072953E+01 -0.97369924460E+01  0.14485517930E+02  0.00000000000E+00 0.  1.
</event>
<event>
 7    1  0.5290964E-013  0.5052886E+02  0.7816164E-02  0.1300439E+00
        -11   -1    0    0    0    0  0.00000000000E+00  0.00000000000E+00  0.45593999997E+02  0.45594000000E+02  0.51100000000E-03 0. -1.
         11   -1    0    0    0    0 -0.00000000000E+00 -0.00000000000E+00 -0.45593999997E+02  0.45594000000E+02  0.51100000000E-03 0.  1.
    9900012    2    1    2    0    0  0.33959380664E+02  0.20190566667E+02  0.96055795280E+01  0.50528859878E+02  0.30000000085E+02 0.  0.
         12    1    1    2    0    0 -0.33959380664E+02 -0.20190566667E+02 -0.96055795280E+01  0.40659140122E+02  0.00000000000E+00 0. -1.
         11    1    3    3    0    0  0.14529260016E+02  0.14105642031E+02  0.64271182748E+00  0.20260345814E+02  0.51100000000E-03 0. -1.
        -11    1    3    3    0    0  0.61624753425E+01  0.24681993793E+01 -0.66956296848E+01  0.94286567262E+01  0.51100000000E-03 0.  1.
         12    1    3    3    0    0  0.13267645305E+02  0.36167252567E+01  0.15658497385E+02  0.20839857338E+02  0.00000000000E+00 0. -1.
</event>
<event>
 7    1  0.5290964E-013  0.5052887E+02  0.7816164E-02  0.1300439E+00
        -11   -1    0    0    0    0  0.00000000000E+00  0.00000000000E+00  0.45593999997E+02  0.45594000000E+02  0.51100000000E-03 0.  1.
         11   -1    0    0    0    0 -0.00000000000E+00 -0.00000000000E+00 -0.45593999997E+02  0.45594000000E+02  0.51100000000E-03 0. -1.
    9900012    2    1    2    0    0 -0.14777195980E+02  0.15958306418E+02  0.34353048641E+02  0.50528867991E+02  0.30000024747E+02 0.  0.
         12    1    1    2    0    0  0.14777195980E+02 -0.15958306418E+02 -0.34353048641E+02  0.40659132009E+02  0.00000000000E+00 0. -1.
         11    1    3    3    0    0  0.19308276884E+01  0.11144292802E+02  0.19454071806E+02  0.22502983529E+02  0.51100000000E-03 0. -1.
        -11    1    3    3    0    0 -0.19553517955E+01  0.36244680257E+01  0.12335727939E+02  0.13005012617E+02  0.51100000000E-03 0.  1.
         12    1    3    3    0    0 -0.14752671872E+02  0.11895455897E+01  0.25632488958E+01  0.15020871845E+02  0.00000000000E+00 0. -1.
</event>
<event>
 7    1  0.5290964E-013  0.5052873E+02  0.7816164E-02  0.1300439E+00
        -11   -1    0    0    0    0  0.00000000000E+00  0.00000000000E+00  0.45593999997E+02  0.45594000000E+02  0.51100000000E-03 0.  1.
         11   -1    0    0    0    0 -0.00000000000E+00 -0.00000000000E+00 -0.45593999997E+02  0.45594000000E+02  0.51100000000E-03 0. -1.
    9900012    2    1    2    0    0 -0.35943179178E+02  0.31659139120E+00  0.19004321453E+02  0.50528725617E+02  0.29999591981E+02 0.  0.
         12    1    1    2    0    0  0.35943179178E+02 -0.31659139120E+00 -0.19004321453E+02  0.40659274383E+02  0.00000000000E+00 0. -1.
         11    1    3    3    0    0 -0.15989525211E+02 -0.94929697993E+01  0.38905928268E+01  0.18997844743E+02  0.51100000000E-03 0. -1.
        -11    1    3    3    0    0 -0.46083405469E+01 -0.45775130268E+01  0.49653003709E+01  0.81758569056E+01  0.51100000000E-03 0.  1.
        -12    1    3    3    0    0 -0.15345313420E+02  0.14387074217E+02  0.10148428255E+02  0.23355023968E+02  0.00000000000E+00 0.  1.
</event>
<event>
 7    1  0.5290964E-013  0.5052888E+02  0.7816164E-02  0.1300439E+00
        -11   -1    0    0    0    0  0.00000000000E+00  0.00000000000E+00  0.45593999997E+02  0.45594000000E+02  0.51100000000E-03 0. -1.
         11   -1    0    0    0    0 -0.00000000000E+00 -0.00000000000E+00 -0.45593999997E+02  0.45594000000E+02  0.51100000000E-03 0.  1.
    9900012    2    1    2    0    0  0.15523158662E+02 -0.98559390537E+01 -0.36263703249E+02  0.50528878480E+02  0.30000056626E+02 0.  0.
         12    1    1    2    0    0 -0.15523158662E+02  0.98559390537E+01  0.36263703249E+02  0.40659121520E+02  0.00000000000E+00 0. -1.
         11    1    3    3    0    0  0.15741932588E+02 -0.44329341709E+01 -0.11647667868E+02  0.20078035611E+02  0.51100000000E-03 0. -1.
        -11    1    3    3    0    0 -0.26390524641E+00  0.61658511903E+01 -0.10584242429E+02  0.12252083698E+02  0.51100000000E-03 0.  1.
         12    1    3    3    0    0  0.45131320516E-01 -0.11588856073E+02 -0.14031792952E+02  0.18198759171E+02  0.00000000000E+00 0. -1.
</event>
<event>
 7    1  0.5290964E-013  0.5052886E+02  0.7816164E-02  0.1300439E+00
        -11   -1    0    0    0    0  0.00000000000E+00  0.00000000000E+00  0.45593999997E+02  0.45594000000E+02  0.51100000000E-03 0.  1.
         11   -1    0    0    0    0 -0.00000000000E+00 -0.00000000000E+00 -0.45593999997E+02  0.45594000000E+02  0.51100000000E-03 0. -1.
    9900012    2    1    2    0    0  0.15837007929E+02 -0.19628271984E+02  0.31891780749E+02  0.50528861291E+02  0.30000004381E+02 0.  0.
         12    1    1    2    0    0 -0.15837007929E+02  0.19628271984E+02 -0.31891780749E+02  0.40659138709E+02  0.00000000000E+00 0. -1.
         11    1    3    3    0    0 -0.56659087649E+01 -0.76353640614E+00  0.55519501470E+01  0.79692948666E+01  0.51100000000E-03 0. -1.
        -11    1    3    3    0    0 -0.14442566368E+00 -0.73223509619E+01  0.12240614096E+02  0.14264302159E+02  0.51100000000E-03 0.  1.
         12    1    3    3    0    0  0.21647342358E+02 -0.11542384616E+02  0.14099216506E+02  0.28295264265E+02  0.00000000000E+00 0. -1.
</event>
<event>
 7    1  0.5290964E-013  0.5052884E+02  0.7816164E-02  0.1300439E+00
        -11   -1    0    0    0    0  0.00000000000E+00  0.00000000000E+00  0.45593999997E+02  0.45594000000E+02  0.51100000000E-03 0.  1.
         11   -1    0    0    0    0 -0.00000000000E+00 -0.00000000000E+00 -0.45593999997E+02  0.45594000000E+02  0.51100000000E-03 0. -1.
    9900012    2    1    2    0    0 -0.29832761497E+02 -0.95803937172E+01  0.25911186164E+02  0.50528841490E+02  0.29999944192E+02 0.  0.
         12    1    1    2    0    0  0.29832761497E+02  0.95803937172E+01 -0.25911186164E+02  0.40659158510E+02  0.00000000000E+00 0. -1.
         11    1    3    3    0    0 -0.75328980929E+01 -0.11559168805E+01  0.41002752999E+01  0.86540716029E+01  0.51100000000E-03 0.  1.
        -11    1    3    3    0    0 -0.16171083090E+02 -0.17567566554E+02  0.10474382573E+02  0.26073665134E+02  0.51100000000E-03 0. -1.
         12    1    3    3    0    0 -0.61287803142E+01  0.91430897176E+01  0.11336528291E+02  0.15801104753E+02  0.00000000000E+00 0. -1.
</event>
<event>
 7    1  0.5290964E-013  0.5052886E+02  0.7816164E-02  0.1300439E+00
        -11   -1    0    0    0    0  0.00000000000E+00  0.00000000000E+00  0.45593999997E+02  0.45594000000E+02  0.51100000000E-03 0. -1.
         11   -1    0    0    0    0 -0.00000000000E+00 -0.00000000000E+00 -0.45593999997E+02  0.45594000000E+02  0.51100000000E-03 0.  1.
    9900012    2    1    2    0    0 -0.31958104644E+02 -0.24154616625E+02 -0.69569700278E+01  0.50528863404E+02  0.30000010802E+02 0.  0.
         12    1    1    2    0    0  0.31958104644E+02  0.24154616625E+02  0.69569700278E+01  0.40659136596E+02  0.00000000000E+00 0. -1.
         11    1    3    3    0    0  0.27551746439E+00 -0.98870730133E+01 -0.72663048391E+01  0.12273113253E+02  0.51100000000E-03 0. -1.
        -11    1    3    3    0    0 -0.15349900990E+02 -0.13629773453E+02  0.41162354564E+01  0.20936417540E+02  0.51100000000E-03 0.  1.
        -12    1    3    3    0    0 -0.16883721118E+02 -0.63777015881E+00 -0.38069006450E+01  0.17319332611E+02  0.00000000000E+00 0.  1.
</event>
<event>
 7    1  0.5290964E-013  0.5052887E+02  0.7816164E-02  0.1300439E+00
        -11   -1    0    0    0    0  0.00000000000E+00  0.00000000000E+00  0.45593999997E+02  0.45594000000E+02  0.51100000000E-03 0.  1.
         11   -1    0    0    0    0 -0.00000000000E+00 -0.00000000000E+00 -0.45593999997E+02  0.45594000000E+02  0.51100000000E-03 0. -1.
    9900012    2    1    2    0    0 -0.29517375414E+02  0.25808282631E+02  0.10762078769E+02  0.50528865195E+02  0.30000016246E+02 0.  0.
         12    1    1    2    0    0  0.29517375414E+02 -0.25808282631E+02 -0.10762078769E+02  0.40659134805E+02  0.00000000000E+00 0. -1.
         11    1    3    3    0    0 -0.11502228682E+02  0.20104273535E+02  0.59287237096E+01  0.23908844474E+02  0.51100000000E-03 0. -1.
        -11    1    3    3    0    0 -0.26772582042E+01 -0.37644518579E+01  0.70818572295E+01  0.84552653041E+01  0.51100000000E-03 0.  1.
         12    1    3    3    0    0 -0.15337888528E+02  0.94684609540E+01 -0.22485021699E+01  0.18164755417E+02  0.00000000000E+00 0. -1.
</event>
<event>
 7    1  0.5290964E-013  0.5052887E+02  0.7816164E-02  0.1300439E+00
        -11   -1    0    0    0    0  0.00000000000E+00  0.00000000000E+00  0.45593999997E+02  0.45594000000E+02  0.51100000000E-03 0.  1.
         11   -1    0    0    0    0 -0.00000000000E+00 -0.00000000000E+00 -0.45593999997E+02  0.45594000000E+02  0.51100000000E-03 0. -1.
    9900012    2    1    2    0    0  0.29699730923E+02  0.76549036587E+01  0.26692577452E+02  0.50528865012E+02  0.30000015691E+02 0.  0.
         12    1    1    2    0    0 -0.29699730923E+02 -0.76549036587E+01 -0.26692577452E+02  0.40659134988E+02  0.00000000000E+00 0. -1.
         11    1    3    3    0    0  0.84912984014E+00  0.98270646396E+00  0.22028151600E+01  0.25571719477E+01  0.51100000000E-03 0. -1.
        -11    1    3    3    0    0 -0.20300248547E+01  0.47411360814E+01 -0.35131726624E+01  0.62403328974E+01  0.51100000000E-03 0.  1.
         12    1    3    3    0    0  0.30880625937E+02  0.19310611134E+01  0.28002934955E+02  0.41731360167E+02  0.00000000000E+00 0. -1.
</event>
<event>
 7    1  0.5290964E-013  0.5052886E+02  0.7816164E-02  0.1300439E+00
        -11   -1    0    0    0    0  0.00000000000E+00  0.00000000000E+00  0.45593999997E+02  0.45594000000E+02  0.51100000000E-03 0. -1.
         11   -1    0    0    0    0 -0.00000000000E+00 -0.00000000000E+00 -0.45593999997E+02  0.45594000000E+02  0.51100000000E-03 0.  1.
    9900012    2    1    2    0    0 -0.16941663861E+02  0.32633803183E+02 -0.17354557168E+02  0.50528859096E+02  0.29999997708E+02 0.  0.
         12    1    1    2    0    0  0.16941663861E+02 -0.32633803183E+02  0.17354557168E+02  0.40659140904E+02  0.00000000000E+00 0. -1.
         11    1    3    3    0    0 -0.10282183959E+02  0.26932551855E+02 -0.15432344602E+02  0.32699280062E+02  0.51100000000E-03 0. -1.
        -11    1    3    3    0    0 -0.46046982516E+01  0.10917585721E+02 -0.27459396052E+01  0.12162939963E+02  0.51100000000E-03 0.  1.
         12    1    3    3    0    0 -0.20547816500E+01 -0.52163343926E+01  0.82372703978E+00  0.56666390710E+01  0.00000000000E+00 0. -1.
</event>
<event>
 7    1  0.5290964E-013  0.5052890E+02  0.7816164E-02  0.1300439E+00
        -11   -1    0    0    0    0  0.00000000000E+00  0.00000000000E+00  0.45593999997E+02  0.45594000000E+02  0.51100000000E-03 0.  1.
         11   -1    0    0    0    0 -0.00000000000E+00 -0.00000000000E+00 -0.45593999997E+02  0.45594000000E+02  0.51100000000E-03 0. -1.
    9900012    2    1    2    0    0  0.34707761185E+01 -0.21398007669E+02  0.34398271647E+02  0.50528903707E+02  0.30000133306E+02 0.  0.
         12    1    1    2    0    0 -0.34707761185E+01  0.21398007669E+02 -0.34398271647E+02  0.40659096293E+02  0.00000000000E+00 0. -1.
         11    1    3    3    0    0 -0.57224148409E+01  0.32824465689E+01 -0.52272470636E+00  0.66176830137E+01  0.51100000000E-03 0. -1.
        -11    1    3    3    0    0  0.77340184972E+00 -0.53788803914E+01  0.90142281892E+01  0.10525531568E+02  0.51100000000E-03 0.  1.
         12    1    3    3    0    0  0.84197891097E+01 -0.19301573846E+02  0.25906768165E+02  0.33385689125E+02  0.00000000000E+00 0. -1.
</event>
<event>
 7    1  0.5290964E-013  0.5052886E+02  0.7816164E-02  0.1300439E+00
        -11   -1    0    0    0    0  0.00000000000E+00  0.00000000000E+00  0.45593999997E+02  0.45594000000E+02  0.51100000000E-03 0.  1.
         11   -1    0    0    0    0 -0.00000000000E+00 -0.00000000000E+00 -0.45593999997E+02  0.45594000000E+02  0.51100000000E-03 0. -1.
    9900012    2    1    2    0    0  0.28098113687E+02  0.20847061686E+02  0.20713803799E+02  0.50528860295E+02  0.30000001353E+02 0.  0.
         12    1    1    2    0    0 -0.28098113687E+02 -0.20847061686E+02 -0.20713803799E+02  0.40659139705E+02  0.00000000000E+00 0. -1.
         11    1    3    3    0    0  0.12394531736E+02  0.11027821528E+02  0.57372989881E+01  0.17554311850E+02  0.51100000000E-03 0. -1.
        -11    1    3    3    0    0  0.78371116380E+01  0.13278935834E+02 -0.32769791157E+00  0.15422640562E+02  0.51100000000E-03 0.  1.
        -12    1    3    3    0    0  0.78664703134E+01 -0.34596956760E+01  0.15304202722E+02  0.17551907883E+02  0.00000000000E+00 0.  1.
</event>
<event>
 7    1  0.5290964E-013  0.5052885E+02  0.7816164E-02  0.1300439E+00
        -11   -1    0    0    0    0  0.00000000000E+00  0.00000000000E+00  0.45593999997E+02  0.45594000000E+02  0.51100000000E-03 0.  1.
         11   -1    0    0    0    0 -0.00000000000E+00 -0.00000000000E+00 -0.45593999997E+02  0.45594000000E+02  0.51100000000E-03 0. -1.
    9900012    2    1    2    0    0  0.76988416043E+01  0.38050567501E+02  0.12085046513E+02  0.50528853447E+02  0.29999980537E+02 0.  0.
         12    1    1    2    0    0 -0.76988416043E+01 -0.38050567501E+02 -0.12085046513E+02  0.40659146553E+02  0.00000000000E+00 0. -1.
         11    1    3    3    0    0 -0.74903970644E+01  0.65923614081E+01  0.32561416377E+00  0.99835515705E+01  0.51100000000E-03 0. -1.
        -11    1    3    3    0    0  0.17071197621E+01  0.46319905121E+01 -0.42554253581E+01  0.65175332164E+01  0.51100000000E-03 0.  1.
        -12    1    3    3    0    0  0.13482118907E+02  0.26826215581E+02  0.16014857707E+02  0.34027768660E+02  0.00000000000E+00 0.  1.
</event>
<event>
 7    1  0.5290964E-013  0.5052886E+02  0.7816164E-02  0.1300439E+00
        -11   -1    0    0    0    0  0.00000000000E+00  0.00000000000E+00  0.45593999997E+02  0.45594000000E+02  0.51100000000E-03 0.  1.
         11   -1    0    0    0    0 -0.00000000000E+00 -0.00000000000E+00 -0.45593999997E+02  0.45594000000E+02  0.51100000000E-03 0. -1.
    9900012    2    1    2    0    0 -0.23298988547E+02 -0.33228317498E+02  0.24902848102E+01  0.50528862411E+02  0.30000007784E+02 0.  0.
         12    1    1    2    0    0  0.23298988547E+02  0.33228317498E+02 -0.24902848102E+01  0.40659137589E+02  0.00000000000E+00 0. -1.
         11    1    3    3    0    0  0.44051905697E+01 -0.99207950202E+01  0.80096601311E+01  0.13490090195E+02  0.51100000000E-03 0. -1.
        -11    1    3    3    0    0 -0.23005607837E+01 -0.24308985277E+01  0.10498538376E+01  0.35077116348E+01  0.51100000000E-03 0.  1.
         12    1    3    3    0    0 -0.25403618333E+02 -0.20876623950E+02 -0.65692291584E+01  0.33531060581E+02  0.00000000000E+00 0. -1.
</event>
<event>
 7    1  0.5290964E-013  0.5052887E+02  0.7816164E-02  0.1300439E+00
        -11   -1    0    0    0    0  0.00000000000E+00  0.00000000000E+00  0.45593999997E+02  0.45594000000E+02  0.51100000000E-03 0.  1.
         11   -1    0    0    0    0 -0.00000000000E+00 -0.00000000000E+00 -0.45593999997E+02  0.45594000000E+02  0.51100000000E-03 0. -1.
    9900012    2    1    2    0    0 -0.13143259572E+02  0.38269048479E+02 -0.39874641050E+01  0.50528865557E+02  0.30000017347E+02 0.  0.
         12    1    1    2    0    0  0.13143259572E+02 -0.38269048479E+02  0.39874641050E+01  0.40659134443E+02  0.00000000000E+00 0. -1.
         11    1    3    3    0    0 -0.14031517875E+02  0.15270566216E+02 -0.32364236641E+01  0.20989238310E+02  0.51100000000E-03 0. -1.
        -11    1    3    3    0    0 -0.10173511433E+01  0.49255181623E+01  0.79371076057E+01  0.93964573070E+01  0.51100000000E-03 0.  1.
         12    1    3    3    0    0  0.19056094466E+01  0.18072964100E+02 -0.86881480466E+01  0.20143169940E+02  0.00000000000E+00 0. -1.
</event>
<event>
 7    1  0.5290964E-013  0.5052886E+02  0.7816164E-02  0.1300439E+00
        -11   -1    0    0    0    0  0.00000000000E+00  0.00000000000E+00  0.45593999997E+02  0.45594000000E+02  0.51100000000E-03 0.  1.
         11   -1    0    0    0    0 -0.00000000000E+00 -0.00000000000E+00 -0.45593999997E+02  0.45594000000E+02  0.51100000000E-03 0. -1.
    9900012    2    1    2    0    0  0.27367687445E+02 -0.30069502150E+02  0.14152458045E-01  0.50528862332E+02  0.30000007545E+02 0.  0.
         12    1    1    2    0    0 -0.27367687445E+02  0.30069502150E+02 -0.14152458045E-01  0.40659137668E+02  0.00000000000E+00 0. -1.
         11    1    3    3    0    0  0.19123275775E+01  0.45128272826E+01 -0.13592947998E+01  0.50862844455E+01  0.51100000000E-03 0. -1.
        -11    1    3    3    0    0  0.40327647605E+00  0.11590638495E+01  0.13107806712E+01  0.17956077391E+01  0.51100000000E-03 0.  1.
        -12    1    3    3    0    0  0.25052083391E+02 -0.35741393282E+02  0.62666586576E-01  0.43646970148E+02  0.00000000000E+00 0.  1.
</event>
<event>
 7    1  0.5290964E-013  0.5052884E+02  0.7816164E-02  0.1300439E+00
        -11   -1    0    0    0    0  0.00000000000E+00  0.00000000000E+00  0.45593999997E+02  0.45594000000E+02  0.51100000000E-03 0.  1.
         11   -1    0    0    0    0 -0.00000000000E+00 -0.00000000000E+00 -0.45593999997E+02  0.45594000000E+02  0.51100000000E-03 0. -1.
    9900012    2    1    2    0    0  0.79378870620E+01 -0.27482046483E+02  0.28894543688E+02  0.50528836398E+02  0.29999928715E+02 0.  0.
         12    1    1    2    0    0 -0.79378870620E+01  0.27482046483E+02 -0.28894543688E+02  0.40659163602E+02  0.00000000000E+00 0. -1.
         11    1    3    3    0    0 -0.11293813430E+01 -0.10181571607E+01  0.14051259633E+02  0.14133295573E+02  0.51100000000E-03 0. -1.
        -11    1    3    3    0    0 -0.27229489194E+00 -0.90131827814E+01 -0.32440807425E+01  0.95830928455E+01  0.51100000000E-03 0.  1.
        -12    1    3    3    0    0  0.93395632969E+01 -0.17450706541E+02  0.18087364797E+02  0.26812447980E+02  0.00000000000E+00 0.  1.
</event>
<event>
 7    1  0.5290964E-013  0.5052895E+02  0.7816164E-02  0.1300438E+00
        -11   -1    0    0    0    0  0.00000000000E+00  0.00000000000E+00  0.45593999997E+02  0.45594000000E+02  0.51100000000E-03 0. -1.
         11   -1    0    0    0    0 -0.00000000000E+00 -0.00000000000E+00 -0.45593999997E+02  0.45594000000E+02  0.51100000000E-03 0.  1.
    9900012    2    1    2    0    0  0.33660566567E+02  0.21587554539E+02  0.73554139864E+01  0.50528949747E+02  0.30000273249E+02 0.  0.
         12    1    1    2    0    0 -0.33660566567E+02 -0.21587554539E+02 -0.73554139864E+01  0.40659050253E+02  0.00000000000E+00 0. -1.
         11    1    3    3    0    0  0.18425389900E+02  0.20636726796E+02  0.74221986782E+01  0.28643647102E+02  0.51100000000E-03 0. -1.
        -11    1    3    3    0    0  0.35290427718E+01  0.45737962370E+01  0.58987016811E+01  0.82564179089E+01  0.51100000000E-03 0.  1.
        -12    1    3    3    0    0  0.11706133895E+02 -0.36229684941E+01 -0.59654863729E+01  0.13628884736E+02  0.00000000000E+00 0.  1.
</event>
<event>
 7    1  0.5290964E-013  0.5052886E+02  0.7816164E-02  0.1300439E+00
        -11   -1    0    0    0    0  0.00000000000E+00  0.00000000000E+00  0.45593999997E+02  0.45594000000E+02  0.51100000000E-03 0. -1.
         11   -1    0    0    0    0 -0.00000000000E+00 -0.00000000000E+00 -0.45593999997E+02  0.45594000000E+02  0.51100000000E-03 0.  1.
    9900012    2    1    2    0    0  0.20212469941E+02  0.34897637305E+02  0.51745923861E+01  0.50528862811E+02  0.30000009001E+02 0.  0.
         12    1    1    2    0    0 -0.20212469941E+02 -0.34897637305E+02 -0.51745923861E+01  0.40659137189E+02  0.00000000000E+00 0. -1.
         11    1    3    3    0    0  0.47181640344E+01  0.49297593067E+01  0.34612258443E+01  0.76513844031E+01  0.51100000000E-03 0. -1.
        -11    1    3    3    0    0  0.22872594331E+02  0.22681931265E+02 -0.74441831288E+00  0.32220796641E+02  0.51100000000E-03 0.  1.
         12    1    3    3    0    0 -0.73782884247E+01  0.72859467338E+01  0.24577848547E+01  0.10656681767E+02  0.00000000000E+00 0. -1.
</event>
<event>
 7    1  0.5290964E-013  0.5052887E+02  0.7816164E-02  0.1300439E+00
        -11   -1    0    0    0    0  0.00000000000E+00  0.00000000000E+00  0.45593999997E+02  0.45594000000E+02  0.51100000000E-03 0. -1.
         11   -1    0    0    0    0 -0.00000000000E+00 -0.00000000000E+00 -0.45593999997E+02  0.45594000000E+02  0.51100000000E-03 0.  1.
    9900012    2    1    2    0    0 -0.14108548786E+02  0.28351000219E+02 -0.25501662620E+02  0.50528866233E+02  0.30000019403E+02 0.  0.
         12    1    1    2    0    0  0.14108548786E+02 -0.28351000219E+02  0.25501662620E+02  0.40659133767E+02  0.00000000000E+00 0. -1.
         11    1    3    3    0    0  0.18776020194E+01  0.42088449328E+01  0.33820715126E+01  0.57164825714E+01  0.51100000000E-03 0. -1.
        -11    1    3    3    0    0 -0.97958308768E+01  0.48608237479E+00 -0.84548446958E+01  0.12949091773E+02  0.51100000000E-03 0.  1.
        -12    1    3    3    0    0 -0.61903199282E+01  0.23656072911E+02 -0.20428889437E+02  0.31863291889E+02  0.00000000000E+00 0.  1.
</event>
<event>
 7    1  0.5290964E-013  0.5052884E+02  0.7816164E-02  0.1300439E+00
        -11   -1    0    0    0    0  0.00000000000E+00  0.00000000000E+00  0.45593999997E+02  0.45594000000E+02  0.51100000000E-03 0.  1.
         11   -1    0    0    0    0 -0.00000000000E+00 -0.00000000000E+00 -0.45593999997E+02  0.45594000000E+02  0.51100000000E-03 0. -1.
    9900012    2    1    2    0    0 -0.91422228622E+01 -0.97555901117E+01  0.38398113683E+02  0.50528844675E+02  0.29999953874E+02 0.  0.
         12    1    1    2    0    0  0.91422228622E+01  0.97555901117E+01 -0.38398113683E+02  0.40659155325E+02  0.00000000000E+00 0. -1.
         11    1    3    3    0    0  0.29262048121E+01  0.43812770462E+00  0.29332490003E+02  0.29481343261E+02  0.51100000000E-03 0. -1.
        -11    1    3    3    0    0 -0.25682656874E+01 -0.89010437733E+00  0.71044191802E+01  0.76066448973E+01  0.51100000000E-03 0.  1.
         12    1    3    3    0    0 -0.95001619869E+01 -0.93036134390E+01  0.19612045007E+01  0.13440856516E+02  0.00000000000E+00 0. -1.
</event>
<event>
 7    1  0.5290964E-013  0.5052885E+02  0.7816164E-02  0.1300439E+00
        -11   -1    0    0    0    0  0.00000000000E+00  0.00000000000E+00  0.45593999997E+02  0.45594000000E+02  0.51100000000E-03 0. -1.
         11   -1    0    0    0    0 -0.00000000000E+00 -0.00000000000E+00 -0.45593999997E+02  0.45594000000E+02  0.51100000000E-03 0.  1.
    9900012    2    1    2    0    0  0.26003214031E+02  0.23412732170E+02 -0.20708536665E+02  0.50528847790E+02  0.29999963342E+02 0.  0.
         12    1    1    2    0    0 -0.26003214031E+02 -0.23412732170E+02  0.20708536665E+02  0.40659152210E+02  0.00000000000E+00 0. -1.
         11    1    3    3    0    0 -0.16249815611E+01 -0.20620097764E+01  0.42970711049E+00  0.26602815366E+01  0.51100000000E-03 0. -1.
        -11    1    3    3    0    0  0.57688608317E+01 -0.30201166581E+01 -0.61369595521E+01  0.89478004409E+01  0.51100000000E-03 0.  1.
        -12    1    3    3    0    0  0.21859334760E+02  0.28494858605E+02 -0.15001284224E+02  0.38920765813E+02  0.00000000000E+00 0.  1.
</event>
<event>
 7    1  0.5290964E-013  0.5052886E+02  0.7816164E-02  0.1300439E+00
        -11   -1    0    0    0    0  0.00000000000E+00  0.00000000000E+00  0.45593999997E+02  0.45594000000E+02  0.51100000000E-03 0.  1.
         11   -1    0    0    0    0 -0.00000000000E+00 -0.00000000000E+00 -0.45593999997E+02  0.45594000000E+02  0.51100000000E-03 0. -1.
    9900012    2    1    2    0    0  0.40653783827E+02 -0.25768497698E+00  0.60777895898E+00  0.50528856671E+02  0.29999990337E+02 0.  0.
         12    1    1    2    0    0 -0.40653783827E+02  0.25768497698E+00 -0.60777895898E+00  0.40659143329E+02  0.00000000000E+00 0. -1.
         11    1    3    3    0    0  0.21493690363E+02 -0.84097682270E+00 -0.11211316525E+02  0.24256536973E+02  0.51100000000E-03 0. -1.
        -11    1    3    3    0    0  0.59701782483E+00 -0.26102492841E-01 -0.26574860740E+01  0.27238473007E+01  0.51100000000E-03 0.  1.
        -12    1    3    3    0    0  0.18563075639E+02  0.60939433856E+00  0.14476581558E+02  0.23548472397E+02  0.00000000000E+00 0.  1.
</event>
<event>
 7    1  0.1030221E-012  0.5052886E+02  0.7816164E-02  0.1300439E+00
        -11   -1    0    0    0    0  0.00000000000E+00  0.00000000000E+00  0.45593999997E+02  0.45594000000E+02  0.51100000000E-03 0. -1.
         11   -1    0    0    0    0 -0.00000000000E+00 -0.00000000000E+00 -0.45593999997E+02  0.45594000000E+02  0.51100000000E-03 0.  1.
    9900012    2    1    2    0    0 -0.18328745279E+02 -0.56438551107E+01 -0.35852054256E+02  0.50528858366E+02  0.29999995490E+02 0.  0.
         12    1    1    2    0    0  0.18328745279E+02  0.56438551107E+01  0.35852054256E+02  0.40659141634E+02  0.00000000000E+00 0. -1.
         11    1    3    3    0    0 -0.23297372176E+01 -0.63163761233E+01 -0.21889255943E+02  0.22901174835E+02  0.51100000000E-03 0. -1.
        -11    1    3    3    0    0 -0.10201690778E+02 -0.17720964939E+01 -0.17556155900E+02  0.20382184156E+02  0.51100000000E-03 0.  1.
         12    1    3    3    0    0 -0.57973172833E+01  0.24446175064E+01  0.35933575875E+01  0.72454993746E+01  0.00000000000E+00 0. -1.
</event>
<event>
 7    1  0.5290964E-013  0.5052886E+02  0.7816164E-02  0.1300439E+00
        -11   -1    0    0    0    0  0.00000000000E+00  0.00000000000E+00  0.45593999997E+02  0.45594000000E+02  0.51100000000E-03 0.  1.
         11   -1    0    0    0    0 -0.00000000000E+00 -0.00000000000E+00 -0.45593999997E+02  0.45594000000E+02  0.51100000000E-03 0. -1.
    9900012    2    1    2    0    0 -0.17256129559E+02 -0.16248263991E+02  0.33036125301E+02  0.50528860007E+02  0.30000000479E+02 0.  0.
         12    1    1    2    0    0  0.17256129559E+02  0.16248263991E+02 -0.33036125301E+02  0.40659139993E+02  0.00000000000E+00 0. -1.
         11    1    3    3    0    0 -0.16894508054E+02 -0.81130146450E+01  0.15671350758E+02  0.24430240356E+02  0.51100000000E-03 0. -1.
        -11    1    3    3    0    0 -0.93165404921E+00  0.56224639781E+01  0.55506848438E+01  0.79555127395E+01  0.51100000000E-03 0.  1.
         12    1    3    3    0    0  0.57003254462E+00 -0.13757713324E+02  0.11814089699E+02  0.18143106912E+02  0.00000000000E+00 0. -1.
</event>
<event>
 7    1  0.5290964E-013  0.5052886E+02  0.7816164E-02  0.1300439E+00
        -11   -1    0    0    0    0  0.00000000000E+00  0.00000000000E+00  0.45593999997E+02  0.45594000000E+02  0.51100000000E-03 0.  1.
         11   -1    0    0    0    0 -0.00000000000E+00 -0.00000000000E+00 -0.45593999997E+02  0.45594000000E+02  0.51100000000E-03 0. -1.
    9900012    2    1    2    0    0  0.32833233525E+02 -0.21894708942E+02  0.97860103617E+01  0.50528862010E+02  0.30000006564E+02 0.  0.
         12    1    1    2    0    0 -0.32833233525E+02  0.21894708942E+02 -0.97860103617E+01  0.40659137990E+02  0.00000000000E+00 0. -1.
         11    1    3    3    0    0  0.33476034602E+01 -0.46324017249E+01 -0.14730784407E+01  0.59021652824E+01  0.51100000000E-03 0. -1.
        -11    1    3    3    0    0  0.33486977138E+00 -0.10185059438E+02 -0.40288748281E+01  0.10958074929E+02  0.51100000000E-03 0.  1.
         12    1    3    3    0    0  0.29150760293E+02 -0.70772477790E+01  0.15287963630E+02  0.33668621798E+02  0.00000000000E+00 0. -1.
</event>
<event>
 7    1  0.5290964E-013  0.5052886E+02  0.7816164E-02  0.1300439E+00
        -11   -1    0    0    0    0  0.00000000000E+00  0.00000000000E+00  0.45593999997E+02  0.45594000000E+02  0.51100000000E-03 0.  1.
         11   -1    0    0    0    0 -0.00000000000E+00 -0.00000000000E+00 -0.45593999997E+02  0.45594000000E+02  0.51100000000E-03 0. -1.
    9900012    2    1    2    0    0 -0.11503034067E+02 -0.12381903159E+02  0.36980187771E+02  0.50528860730E+02  0.30000002675E+02 0.  0.
         12    1    1    2    0    0  0.11503034067E+02  0.12381903159E+02 -0.36980187771E+02  0.40659139270E+02  0.00000000000E+00 0. -1.
         11    1    3    3    0    0  0.59220608574E+01  0.10127521369E+01  0.64717223885E+01  0.88306094141E+01  0.51100000000E-03 0. -1.
        -11    1    3    3    0    0 -0.50704680499E+00 -0.85945047506E+01  0.18495103620E+02  0.20400771224E+02  0.51100000000E-03 0.  1.
        -12    1    3    3    0    0 -0.16918048119E+02 -0.48001505456E+01  0.12013361763E+02  0.21297480092E+02  0.00000000000E+00 0.  1.
</event>
<event>
 7    1  0.5290964E-013  0.5052886E+02  0.7816164E-02  0.1300439E+00
        -11   -1    0    0    0    0  0.00000000000E+00  0.00000000000E+00  0.45593999997E+02  0.45594000000E+02  0.51100000000E-03 0.  1.
         11   -1    0    0    0    0 -0.00000000000E+00 -0.00000000000E+00 -0.45593999997E+02  0.45594000000E+02  0.51100000000E-03 0. -1.
    9900012    2    1    2    0    0 -0.14794794661E+02 -0.29456326873E+02  0.23803455468E+02  0.50528860387E+02  0.30000001631E+02 0.  0.
         12    1    1    2    0    0  0.14794794661E+02  0.29456326873E+02 -0.23803455468E+02  0.40659139613E+02  0.00000000000E+00 0. -1.
         11    1    3    3    0    0  0.63366288284E+01 -0.24377457189E+01 -0.22077818488E+01  0.71393115951E+01  0.51100000000E-03 0. -1.
        -11    1    3    3    0    0 -0.11139890369E+02 -0.15412236492E+02  0.11123076497E+02  0.22030819824E+02  0.51100000000E-03 0.  1.
        -12    1    3    3    0    0 -0.99915331206E+01 -0.11606344662E+02  0.14888160820E+02  0.21358728968E+02  0.00000000000E+00 0.  1.
</event>
<event>
 7    1  0.5290964E-013  0.5052886E+02  0.7816164E-02  0.1300439E+00
        -11   -1    0    0    0    0  0.00000000000E+00  0.00000000000E+00  0.45593999997E+02  0.45594000000E+02  0.51100000000E-03 0. -1.
         11   -1    0    0    0    0 -0.00000000000E+00 -0.00000000000E+00 -0.45593999997E+02  0.45594000000E+02  0.51100000000E-03 0.  1.
    9900012    2    1    2    0    0 -0.86783829819E+01 -0.37828684508E+02  0.12117846409E+02  0.50528857063E+02  0.29999991529E+02 0.  0.
         12    1    1    2    0    0  0.86783829819E+01  0.37828684508E+02 -0.12117846409E+02  0.40659142937E+02  0.00000000000E+00 0. -1.
         11    1    3    3    0    0  0.34526962122E+01 -0.20413255850E+01  0.32291942843E+01  0.51493511499E+01  0.51100000000E-03 0. -1.
        -11    1    3    3    0    0  0.14872342554E+01 -0.15384440433E+02  0.13378037769E+02  0.20441740825E+02  0.51100000000E-03 0.  1.
        -12    1    3    3    0    0 -0.13618313449E+02 -0.20402918490E+02 -0.44893856448E+01  0.24937765088E+02  0.00000000000E+00 0.  1.
</event>
<event>
 7    1  0.5290964E-013  0.5052885E+02  0.7816164E-02  0.1300439E+00
        -11   -1    0    0    0    0  0.00000000000E+00  0.00000000000E+00  0.45593999997E+02  0.45594000000E+02  0.51100000000E-03 0.  1.
         11   -1    0    0    0    0 -0.00000000000E+00 -0.00000000000E+00 -0.45593999997E+02  0.45594000000E+02  0.51100000000E-03 0. -1.
    9900012    2    1    2    0    0 -0.56064753316E+01  0.54404194174E+00  0.40267085295E+02  0.50528847212E+02  0.29999961587E+02 0.  0.
         12    1    1    2    0    0  0.56064753316E+01 -0.54404194174E+00 -0.40267085295E+02  0.40659152788E+02  0.00000000000E+00 0. -1.
         11    1    3    3    0    0  0.22044051991E+01 -0.54783406553E+01  0.13426523223E+00  0.59067458072E+01  0.51100000000E-03 0. -1.
        -11    1    3    3    0    0  0.34997425116E+01  0.68238275443E+01  0.21308101679E+02  0.22646147960E+02  0.51100000000E-03 0.  1.
        -12    1    3    3    0    0 -0.11310623042E+02 -0.80144494719E+00  0.18824718383E+02  0.21975953445E+02  0.00000000000E+00 0.  1.
</event>
<event>
 7    1  0.5290964E-013  0.5052886E+02  0.7816164E-02  0.1300439E+00
        -11   -1    0    0    0    0  0.00000000000E+00  0.00000000000E+00  0.45593999997E+02  0.45594000000E+02  0.51100000000E-03 0.  1.
         11   -1    0    0    0    0 -0.00000000000E+00 -0.00000000000E+00 -0.45593999997E+02  0.45594000000E+02  0.51100000000E-03 0. -1.
    9900012    2    1    2    0    0  0.89320203551E+01  0.23406034279E+02  0.32024089194E+02  0.50528859368E+02  0.29999998534E+02 0.  0.
         12    1    1    2    0    0 -0.89320203551E+01 -0.23406034279E+02 -0.32024089194E+02  0.40659140632E+02  0.00000000000E+00 0. -1.
         11    1    3    3    0    0  0.99326743023E+01 -0.29834192791E+00  0.14654657965E+02  0.17706101407E+02  0.51100000000E-03 0. -1.
        -11    1    3    3    0    0  0.40876692498E+01  0.53125559993E+01  0.10664889034E+02  0.12596513387E+02  0.51100000000E-03 0.  1.
        -12    1    3    3    0    0 -0.50883231970E+01  0.18391820208E+02  0.67045421941E+01  0.20226244573E+02  0.00000000000E+00 0.  1.
</event>
<event>
 7    1  0.5290964E-013  0.5052886E+02  0.7816164E-02  0.1300439E+00
        -11   -1    0    0    0    0  0.00000000000E+00  0.00000000000E+00  0.45593999997E+02  0.45594000000E+02  0.51100000000E-03 0.  1.
         11   -1    0    0    0    0 -0.00000000000E+00 -0.00000000000E+00 -0.45593999997E+02  0.45594000000E+02  0.51100000000E-03 0. -1.
    9900012    2    1    2    0    0 -0.34856625592E+02  0.15604288033E+02 -0.13953058068E+02  0.50528856107E+02  0.29999988622E+02 0.  0.
         12    1    1    2    0    0  0.34856625592E+02 -0.15604288033E+02  0.13953058068E+02  0.40659143893E+02  0.00000000000E+00 0. -1.
         11    1    3    3    0    0 -0.24449003344E+02  0.65358676769E+01 -0.18137036741E+02  0.31135565400E+02  0.51100000000E-03 0. -1.
        -11    1    3    3    0    0  0.21082275909E+01 -0.14388543307E+01  0.10170832840E+01  0.27476142429E+01  0.51100000000E-03 0.  1.
        -12    1    3    3    0    0 -0.12515849839E+02  0.10507274687E+02  0.31668953884E+01  0.16645676464E+02  0.00000000000E+00 0.  1.
</event>
<event>
 7    1  0.5290964E-013  0.5052885E+02  0.7816164E-02  0.1300439E+00
        -11   -1    0    0    0    0  0.00000000000E+00  0.00000000000E+00  0.45593999997E+02  0.45594000000E+02  0.51100000000E-03 0.  1.
         11   -1    0    0    0    0 -0.00000000000E+00 -0.00000000000E+00 -0.45593999997E+02  0.45594000000E+02  0.51100000000E-03 0. -1.
    9900012    2    1    2    0    0  0.36709604319E+02 -0.11310339236E+02 -0.13328441298E+02  0.50528853793E+02  0.29999981589E+02 0.  0.
         12    1    1    2    0    0 -0.36709604319E+02  0.11310339236E+02  0.13328441298E+02  0.40659146207E+02  0.00000000000E+00 0. -1.
         11    1    3    3    0    0  0.24497421722E+02 -0.73090710378E+01 -0.10842436092E+02  0.27768770429E+02  0.51100000000E-03 0. -1.
        -11    1    3    3    0    0  0.12125454581E+02 -0.73813673891E+01 -0.79980913386E+01  0.16293578449E+02  0.51100000000E-03 0.  1.
         12    1    3    3    0    0  0.86728014882E-01  0.33800991912E+01  0.55120861324E+01  0.64665049155E+01  0.00000000000E+00 0. -1.
</event>
<event>
 7    1  0.5290964E-013  0.5052888E+02  0.7816164E-02  0.1300439E+00
        -11   -1    0    0    0    0  0.00000000000E+00  0.00000000000E+00  0.45593999997E+02  0.45594000000E+02  0.51100000000E-03 0. -1.
         11   -1    0    0    0    0 -0.00000000000E+00 -0.00000000000E+00 -0.45593999997E+02  0.45594000000E+02  0.51100000000E-03 0.  1.
    9900012    2    1    2    0    0 -0.18818685854E+02  0.27858849983E+02 -0.22867132261E+02  0.50528878052E+02  0.30000055328E+02 0.  0.
         12    1    1    2    0    0  0.18818685854E+02 -0.27858849983E+02  0.22867132261E+02  0.40659121948E+02  0.00000000000E+00 0. -1.
         11    1    3    3    0    0 -0.27626869165E+01  0.15772820083E+02  0.10755810221E+01  0.16049023869E+02  0.51100000000E-03 0. -1.
        -11    1    3    3    0    0  0.45801630634E+00  0.72330436444E+01 -0.45830991198E+01  0.85750508513E+01  0.51100000000E-03 0.  1.
        -12    1    3    3    0    0 -0.16514015244E+02  0.48529862562E+01 -0.19359614164E+02  0.25904803332E+02  0.00000000000E+00 0.  1.
</event>
<event>
 7    1  0.5290964E-013  0.5052885E+02  0.7816164E-02  0.1300439E+00
        -11   -1    0    0    0    0  0.00000000000E+00  0.00000000000E+00  0.45593999997E+02  0.45594000000E+02  0.51100000000E-03 0.  1.
         11   -1    0    0    0    0 -0.00000000000E+00 -0.00000000000E+00 -0.45593999997E+02  0.45594000000E+02  0.51100000000E-03 0. -1.
    9900012    2    1    2    0    0  0.73242013248E+01  0.28963812730E+01  0.39889011674E+02  0.50528853404E+02  0.29999980408E+02 0.  0.
         12    1    1    2    0    0 -0.73242013248E+01 -0.28963812730E+01 -0.39889011674E+02  0.40659146596E+02  0.00000000000E+00 0. -1.
         11    1    3    3    0    0  0.32722693103E+01  0.44842574308E+01 -0.16113857169E+01  0.57803871267E+01  0.51100000000E-03 0. -1.
        -11    1    3    3    0    0 -0.43730654631E+01  0.45513595453E+01  0.15905041644E+02  0.17111660504E+02  0.51100000000E-03 0.  1.
         12    1    3    3    0    0  0.84249974775E+01 -0.61392357031E+01  0.25595355748E+02  0.27636805774E+02  0.00000000000E+00 0. -1.
</event>
<event>
 7    1  0.5290964E-013  0.5052885E+02  0.7816164E-02  0.1300439E+00
        -11   -1    0    0    0    0  0.00000000000E+00  0.00000000000E+00  0.45593999997E+02  0.45594000000E+02  0.51100000000E-03 0. -1.
         11   -1    0    0    0    0 -0.00000000000E+00 -0.00000000000E+00 -0.45593999997E+02  0.45594000000E+02  0.51100000000E-03 0.  1.
    9900012    2    1    2    0    0 -0.39359369109E+02  0.59615707705E+00  0.10180916743E+02  0.50528850899E+02  0.29999972792E+02 0.  0.
         12    1    1    2    0    0  0.39359369109E+02 -0.59615707705E+00 -0.10180916743E+02  0.40659149101E+02  0.00000000000E+00 0. -1.
         11    1    3    3    0    0 -0.63657295759E+01  0.46391561930E+01 -0.23126142420E+01  0.82092915717E+01  0.51100000000E-03 0. -1.
        -11    1    3    3    0    0 -0.13846626359E+02 -0.30771762200E+01 -0.62569267320E+01  0.15503135405E+02  0.51100000000E-03 0.  1.
         12    1    3    3    0    0 -0.19147013174E+02 -0.96582289591E+00  0.18750457717E+02  0.26816423922E+02  0.00000000000E+00 0. -1.
</event>
<event>
 7    1  0.5290964E-013  0.5052886E+02  0.7816164E-02  0.1300439E+00
        -11   -1    0    0    0    0  0.00000000000E+00  0.00000000000E+00  0.45593999997E+02  0.45594000000E+02  0.51100000000E-03 0.  1.
         11   -1    0    0    0    0 -0.00000000000E+00 -0.00000000000E+00 -0.45593999997E+02  0.45594000000E+02  0.51100000000E-03 0. -1.
    9900012    2    1    2    0    0  0.13503310070E+02  0.37515653839E+02  0.79625352528E+01  0.50528860395E+02  0.30000001655E+02 0.  0.
         12    1    1    2    0    0 -0.13503310070E+02 -0.37515653839E+02 -0.79625352528E+01  0.40659139605E+02  0.00000000000E+00 0. -1.
         11    1    3    3    0    0 -0.78471570244E+01  0.11274396025E+02  0.26402239377E+00  0.13738980572E+02  0.51100000000E-03 0. -1.
        -11    1    3    3    0    0 -0.68885967074E+00  0.17419680622E+01  0.29518682903E+01  0.34960702281E+01  0.51100000000E-03 0.  1.
         12    1    3    3    0    0  0.22039326765E+02  0.24499289752E+02  0.47466445687E+01  0.33293809594E+02  0.00000000000E+00 0. -1.
</event>
<event>
 7    1  0.5290964E-013  0.5052887E+02  0.7816164E-02  0.1300439E+00
        -11   -1    0    0    0    0  0.00000000000E+00  0.00000000000E+00  0.45593999997E+02  0.45594000000E+02  0.51100000000E-03 0. -1.
         11   -1    0    0    0    0 -0.00000000000E+00 -0.00000000000E+00 -0.45593999997E+02  0.45594000000E+02  0.51100000000E-03 0.  1.
    9900012    2    1    2    0    0  0.38942069302E+02  0.16226283684E+01 -0.11577859651E+02  0.50528874106E+02  0.30000043334E+02 0.  0.
         12    1    1    2    0    0 -0.38942069302E+02 -0.16226283684E+01  0.11577859651E+02  0.40659125894E+02  0.00000000000E+00 0. -1.
         11    1    3    3    0    0  0.86911132608E+01  0.44033733048E+01 -0.87278280266E+01  0.13080524779E+02  0.51100000000E-03 0. -1.
        -11    1    3    3    0    0  0.30672877348E+02  0.30436741019E+01  0.27569400706E+00  0.30824752461E+02  0.51100000000E-03 0.  1.
         12    1    3    3    0    0 -0.42192130686E+00 -0.58244190382E+01 -0.31257256318E+01  0.66235968663E+01  0.00000000000E+00 0. -1.
</event>
<event>
 7    1  0.5290964E-013  0.5052886E+02  0.7816164E-02  0.1300439E+00
        -11   -1    0    0    0    0  0.00000000000E+00  0.00000000000E+00  0.45593999997E+02  0.45594000000E+02  0.51100000000E-03 0.  1.
         11   -1    0    0    0    0 -0.00000000000E+00 -0.00000000000E+00 -0.45593999997E+02  0.45594000000E+02  0.51100000000E-03 0. -1.
    9900012    2    1    2    0    0 -0.38962550385E+01  0.22304317073E+02  0.33771320024E+02  0.50528863024E+02  0.30000009649E+02 0.  0.
         12    1    1    2    0    0  0.38962550385E+01 -0.22304317073E+02 -0.33771320024E+02  0.40659136976E+02  0.00000000000E+00 0. -1.
         11    1    3    3    0    0 -0.32759332793E+00  0.79648243472E+01 -0.44920854813E+00  0.79842052110E+01  0.51100000000E-03 0. -1.
        -11    1    3    3    0    0  0.20765756140E+01  0.99228332294E+01  0.30879919947E+01  0.10597663912E+02  0.51100000000E-03 0.  1.
        -12    1    3    3    0    0 -0.56452373246E+01  0.44166594966E+01  0.31132536578E+02  0.31946993901E+02  0.00000000000E+00 0.  1.
</event>
<event>
 7    1  0.5290964E-013  0.5052886E+02  0.7816164E-02  0.1300439E+00
        -11   -1    0    0    0    0  0.00000000000E+00  0.00000000000E+00  0.45593999997E+02  0.45594000000E+02  0.51100000000E-03 0.  1.
         11   -1    0    0    0    0 -0.00000000000E+00 -0.00000000000E+00 -0.45593999997E+02  0.45594000000E+02  0.51100000000E-03 0. -1.
    9900012    2    1    2    0    0  0.27516646836E+02 -0.55744969905E+01  0.29409608255E+02  0.50528856778E+02  0.29999990664E+02 0.  0.
         12    1    1    2    0    0 -0.27516646836E+02  0.55744969905E+01 -0.29409608255E+02  0.40659143222E+02  0.00000000000E+00 0. -1.
         11    1    3    3    0    0  0.68825001921E+01  0.44874335433E+01  0.51407742032E+01  0.96919259371E+01  0.51100000000E-03 0. -1.
        -11    1    3    3    0    0  0.10826578282E+00 -0.20889994945E+01  0.17749238737E+02  0.17872076443E+02  0.51100000000E-03 0.  1.
        -12    1    3    3    0    0  0.20525880861E+02 -0.79729310393E+01  0.65195953146E+01  0.22964854398E+02  0.00000000000E+00 0.  1.
</event>
<event>
 7    1  0.5290964E-013  0.5052886E+02  0.7816164E-02  0.1300439E+00
        -11   -1    0    0    0    0  0.00000000000E+00  0.00000000000E+00  0.45593999997E+02  0.45594000000E+02  0.51100000000E-03 0.  1.
         11   -1    0    0    0    0 -0.00000000000E+00 -0.00000000000E+00 -0.45593999997E+02  0.45594000000E+02  0.51100000000E-03 0. -1.
    9900012    2    1    2    0    0 -0.12701174593E+02 -0.14309895794E+02  0.35875793878E+02  0.50528861543E+02  0.30000005146E+02 0.  0.
         12    1    1    2    0    0  0.12701174593E+02  0.14309895794E+02 -0.35875793878E+02  0.40659138457E+02  0.00000000000E+00 0. -1.
         11    1    3    3    0    0  0.15922662481E+01 -0.61699431697E+01 -0.81744705741E+00  0.64243077818E+01  0.51100000000E-03 0. -1.
        -11    1    3    3    0    0 -0.84444779178E+01 -0.83084586145E+01  0.68319191288E+01  0.13675335868E+02  0.51100000000E-03 0.  1.
        -12    1    3    3    0    0 -0.58489629231E+01  0.16850599047E+00  0.29861321807E+02  0.30429217893E+02  0.00000000000E+00 0.  1.
</event>
<event>
 7    1  0.5290964E-013  0.5052885E+02  0.7816164E-02  0.1300439E+00
        -11   -1    0    0    0    0  0.00000000000E+00  0.00000000000E+00  0.45593999997E+02  0.45594000000E+02  0.51100000000E-03 0.  1.
         11   -1    0    0    0    0 -0.00000000000E+00 -0.00000000000E+00 -0.45593999997E+02  0.45594000000E+02  0.51100000000E-03 0. -1.
    9900012    2    1    2    0    0  0.22711259368E+02  0.84492699202E+01  0.32649274324E+02  0.50528848778E+02  0.29999966345E+02 0.  0.
         12    1    1    2    0    0 -0.22711259368E+02 -0.84492699202E+01 -0.32649274324E+02  0.40659151222E+02  0.00000000000E+00 0. -1.
         11    1    3    3    0    0  0.22144648024E+02  0.84888474807E+01  0.11055727086E+02  0.26166296438E+02  0.51100000000E-03 0. -1.
        -11    1    3    3    0    0 -0.73314296457E+00 -0.38987220021E+01  0.21801216700E+01  0.45266392184E+01  0.51100000000E-03 0.  1.
        -12    1    3    3    0    0  0.12997543089E+01  0.38591444416E+01  0.19413425567E+02  0.19835913121E+02  0.00000000000E+00 0.  1.
</event>
<event>
 7    1  0.5290964E-013  0.5052886E+02  0.7816164E-02  0.1300439E+00
        -11   -1    0    0    0    0  0.00000000000E+00  0.00000000000E+00  0.45593999997E+02  0.45594000000E+02  0.51100000000E-03 0.  1.
         11   -1    0    0    0    0 -0.00000000000E+00 -0.00000000000E+00 -0.45593999997E+02  0.45594000000E+02  0.51100000000E-03 0. -1.
    9900012    2    1    2    0    0  0.23453168695E+02  0.28088516247E+02  0.17724276537E+02  0.50528857786E+02  0.29999993727E+02 0.  0.
         12    1    1    2    0    0 -0.23453168695E+02 -0.28088516247E+02 -0.17724276537E+02  0.40659142214E+02  0.00000000000E+00 0. -1.
         11    1    3    3    0    0 -0.31488906337E+01  0.87195496933E+01  0.47685096841E+01  0.10425197549E+02  0.51100000000E-03 0.  1.
        -11    1    3    3    0    0  0.83634020618E+01  0.14384829077E+02 -0.89860925496E+00  0.16663652075E+02  0.51100000000E-03 0. -1.
        -12    1    3    3    0    0  0.18238657267E+02  0.49841374765E+01  0.13854376108E+02  0.23440008162E+02  0.00000000000E+00 0.  1.
</event>
<event>
 7    1  0.5290964E-013  0.5052886E+02  0.7816164E-02  0.1300439E+00
        -11   -1    0    0    0    0  0.00000000000E+00  0.00000000000E+00  0.45593999997E+02  0.45594000000E+02  0.51100000000E-03 0. -1.
         11   -1    0    0    0    0 -0.00000000000E+00 -0.00000000000E+00 -0.45593999997E+02  0.45594000000E+02  0.51100000000E-03 0.  1.
    9900012    2    1    2    0    0 -0.28908317042E+02 -0.26537558532E+02  0.10641111032E+02  0.50528855260E+02  0.29999986048E+02 0.  0.
         12    1    1    2    0    0  0.28908317042E+02  0.26537558532E+02 -0.10641111032E+02  0.40659144740E+02  0.00000000000E+00 0. -1.
         11    1    3    3    0    0 -0.21370239678E+01 -0.68969067977E+01  0.49280255536E+01  0.87418322412E+01  0.51100000000E-03 0. -1.
        -11    1    3    3    0    0 -0.20260798998E+02 -0.25157057075E+02  0.72787113677E+01  0.33111284121E+02  0.51100000000E-03 0.  1.
         12    1    3    3    0    0 -0.65104940756E+01  0.55164053409E+01 -0.15656258893E+01  0.86757388976E+01  0.00000000000E+00 0. -1.
</event>
<event>
 7    1  0.5290964E-013  0.5052887E+02  0.7816164E-02  0.1300439E+00
        -11   -1    0    0    0    0  0.00000000000E+00  0.00000000000E+00  0.45593999997E+02  0.45594000000E+02  0.51100000000E-03 0.  1.
         11   -1    0    0    0    0 -0.00000000000E+00 -0.00000000000E+00 -0.45593999997E+02  0.45594000000E+02  0.51100000000E-03 0. -1.
    9900012    2    1    2    0    0 -0.32692511684E+02 -0.23999996784E+02  0.28922195453E+01  0.50528866957E+02  0.30000021604E+02 0.  0.
         12    1    1    2    0    0  0.32692511684E+02  0.23999996784E+02 -0.28922195453E+01  0.40659133043E+02  0.00000000000E+00 0. -1.
         11    1    3    3    0    0 -0.15000923201E+02 -0.14290392512E+02  0.24501145003E+01  0.20862552010E+02  0.51100000000E-03 0. -1.
        -11    1    3    3    0    0 -0.11462188126E+02 -0.99259771250E+01  0.10066324554E+02  0.18199935956E+02  0.51100000000E-03 0.  1.
         12    1    3    3    0    0 -0.62294003567E+01  0.21637285271E+00 -0.96242195089E+01  0.11466378991E+02  0.00000000000E+00 0. -1.
</event>
<event>
 7    1  0.5290964E-013  0.5052889E+02  0.7816164E-02  0.1300439E+00
        -11   -1    0    0    0    0  0.00000000000E+00  0.00000000000E+00  0.45593999997E+02  0.45594000000E+02  0.51100000000E-03 0.  1.
         11   -1    0    0    0    0 -0.00000000000E+00 -0.00000000000E+00 -0.45593999997E+02  0.45594000000E+02  0.51100000000E-03 0. -1.
    9900012    2    1    2    0    0 -0.16953753780E+02 -0.33258003452E+02  0.16113308892E+02  0.50528889283E+02  0.30000089465E+02 0.  0.
         12    1    1    2    0    0  0.16953753780E+02  0.33258003452E+02 -0.16113308892E+02  0.40659110717E+02  0.00000000000E+00 0. -1.
         11    1    3    3    0    0 -0.30526059365E+01 -0.15366995580E+02 -0.43538999108E+01  0.16260977857E+02  0.51100000000E-03 0. -1.
        -11    1    3    3    0    0 -0.71399446347E-01 -0.53526492785E+01 -0.13834694075E+01  0.55290089566E+01  0.51100000000E-03 0.  1.
         12    1    3    3    0    0 -0.13829748397E+02 -0.12538358594E+02  0.21850678210E+02  0.28738902470E+02  0.00000000000E+00 0. -1.
</event>
<event>
 7    1  0.5290964E-013  0.5052886E+02  0.7816164E-02  0.1300439E+00
        -11   -1    0    0    0    0  0.00000000000E+00  0.00000000000E+00  0.45593999997E+02  0.45594000000E+02  0.51100000000E-03 0.  1.
         11   -1    0    0    0    0 -0.00000000000E+00 -0.00000000000E+00 -0.45593999997E+02  0.45594000000E+02  0.51100000000E-03 0. -1.
    9900012    2    1    2    0    0  0.80393377958E+01 -0.63014626218E+01  0.39355128194E+02  0.50528862054E+02  0.30000006700E+02 0.  0.
         12    1    1    2    0    0 -0.80393377958E+01  0.63014626218E+01 -0.39355128194E+02  0.40659137946E+02  0.00000000000E+00 0. -1.
         11    1    3    3    0    0 -0.27662254606E+01 -0.60209563431E+01  0.23127801930E+01  0.70180389758E+01  0.51100000000E-03 0. -1.
        -11    1    3    3    0    0 -0.51868267420E+01  0.36568132132E+01  0.97217362877E+01  0.11609806684E+02  0.51100000000E-03 0.  1.
        -12    1    3    3    0    0  0.15992389998E+02 -0.39373194919E+01  0.27320611713E+02  0.31901016395E+02  0.00000000000E+00 0.  1.
</event>
<event>
 7    1  0.5290964E-013  0.5052886E+02  0.7816164E-02  0.1300439E+00
        -11   -1    0    0    0    0  0.00000000000E+00  0.00000000000E+00  0.45593999997E+02  0.45594000000E+02  0.51100000000E-03 0.  1.
         11   -1    0    0    0    0 -0.00000000000E+00 -0.00000000000E+00 -0.45593999997E+02  0.45594000000E+02  0.51100000000E-03 0. -1.
    9900012    2    1    2    0    0  0.28415551321E+02 -0.99421230590E+01  0.27329042482E+02  0.50528856738E+02  0.29999990541E+02 0.  0.
         12    1    1    2    0    0 -0.28415551321E+02  0.99421230590E+01 -0.27329042482E+02  0.40659143262E+02  0.00000000000E+00 0. -1.
         11    1    3    3    0    0 -0.27655993342E+01 -0.15983100039E+01 -0.28345187584E+01  0.42705539920E+01  0.51100000000E-03 0. -1.
        -11    1    3    3    0    0  0.18138475370E+02 -0.53136614625E+01  0.83503433365E+01  0.20663192420E+02  0.51100000000E-03 0.  1.
        -12    1    3    3    0    0  0.13042675285E+02 -0.30301515926E+01  0.21813217904E+02  0.25595110326E+02  0.00000000000E+00 0.  1.
</event>
<event>
 7    1  0.5290964E-013  0.5052886E+02  0.7816164E-02  0.1300439E+00
        -11   -1    0    0    0    0  0.00000000000E+00  0.00000000000E+00  0.45593999997E+02  0.45594000000E+02  0.51100000000E-03 0. -1.
         11   -1    0    0    0    0 -0.00000000000E+00 -0.00000000000E+00 -0.45593999997E+02  0.45594000000E+02  0.51100000000E-03 0.  1.
    9900012    2    1    2    0    0  0.32178353500E+02 -0.18220481678E+02 -0.16903655592E+02  0.50528856392E+02  0.29999989489E+02 0.  0.
         12    1    1    2    0    0 -0.32178353500E+02  0.18220481678E+02  0.16903655592E+02  0.40659143608E+02  0.00000000000E+00 0. -1.
         11    1    3    3    0    0  0.78157241952E+01 -0.32384512993E+01 -0.10834496980E+02  0.13746251728E+02  0.51100000000E-03 0. -1.
        -11    1    3    3    0    0  0.27354539546E+02 -0.15216295116E+02 -0.15276660724E+01  0.31339116687E+02  0.51100000000E-03 0.  1.
         12    1    3    3    0    0 -0.29919102414E+01  0.23426473749E+00 -0.45414925400E+01  0.54434879765E+01  0.00000000000E+00 0. -1.
</event>
<event>
 7    1  0.5290964E-013  0.5052887E+02  0.7816164E-02  0.1300439E+00
        -11   -1    0    0    0    0  0.00000000000E+00  0.00000000000E+00  0.45593999997E+02  0.45594000000E+02  0.51100000000E-03 0.  1.
         11   -1    0    0    0    0 -0.00000000000E+00 -0.00000000000E+00 -0.45593999997E+02  0.45594000000E+02  0.51100000000E-03 0. -1.
    9900012    2    1    2    0    0 -0.16173839706E+02  0.64415361933E+01  0.36743416220E+02  0.50528866772E+02  0.30000021040E+02 0.  0.
         12    1    1    2    0    0  0.16173839706E+02 -0.64415361933E+01 -0.36743416220E+02  0.40659133228E+02  0.00000000000E+00 0. -1.
         11    1    3    3    0    0 -0.66045462867E+01  0.26965799955E+01 -0.25995502832E+00  0.71385679379E+01  0.51100000000E-03 0.  1.
        -11    1    3    3    0    0 -0.28930898245E+01 -0.21411902182E+01 -0.14795674619E+01  0.38915015635E+01  0.51100000000E-03 0. -1.
        -12    1    3    3    0    0 -0.66762035950E+01  0.58861464160E+01  0.38482938710E+02  0.39498797271E+02  0.00000000000E+00 0.  1.
</event>
<event>
 7    1  0.5290964E-013  0.5052885E+02  0.7816164E-02  0.1300439E+00
        -11   -1    0    0    0    0  0.00000000000E+00  0.00000000000E+00  0.45593999997E+02  0.45594000000E+02  0.51100000000E-03 0. -1.
         11   -1    0    0    0    0 -0.00000000000E+00 -0.00000000000E+00 -0.45593999997E+02  0.45594000000E+02  0.51100000000E-03 0.  1.
    9900012    2    1    2    0    0  0.34943113436E+02  0.17491673322E+02 -0.11233282296E+02  0.50528850435E+02  0.29999971383E+02 0.  0.
         12    1    1    2    0    0 -0.34943113436E+02 -0.17491673322E+02  0.11233282296E+02  0.40659149565E+02  0.00000000000E+00 0. -1.
         11    1    3    3    0    0  0.17225492115E+02 -0.27247492538E+01 -0.46925662771E+01  0.18059956136E+02  0.51100000000E-03 0. -1.
        -11    1    3    3    0    0  0.15884883289E+02  0.10199690679E+02  0.22566903857E+01  0.19011992500E+02  0.51100000000E-03 0.  1.
        -12    1    3    3    0    0  0.18327380314E+01  0.10016731898E+02 -0.87974064042E+01  0.13456901799E+02  0.00000000000E+00 0.  1.
</event>
<event>
 7    1  0.5290964E-013  0.5052888E+02  0.7816164E-02  0.1300439E+00
        -11   -1    0    0    0    0  0.00000000000E+00  0.00000000000E+00  0.45593999997E+02  0.45594000000E+02  0.51100000000E-03 0.  1.
         11   -1    0    0    0    0 -0.00000000000E+00 -0.00000000000E+00 -0.45593999997E+02  0.45594000000E+02  0.51100000000E-03 0. -1.
    9900012    2    1    2    0    0 -0.20587643713E+01 -0.11008002318E+02  0.39086435840E+02  0.50528879345E+02  0.30000059257E+02 0.  0.
         12    1    1    2    0    0  0.20587643713E+01  0.11008002318E+02 -0.39086435840E+02  0.40659120655E+02  0.00000000000E+00 0. -1.
         11    1    3    3    0    0  0.92081224664E+01  0.23059546409E+01  0.13738303861E+02  0.16698740653E+02  0.51100000000E-03 0.  1.
        -11    1    3    3    0    0 -0.60956389870E+01  0.17554680408E+01  0.89181728400E+01  0.10944052712E+02  0.51100000000E-03 0. -1.
        -12    1    3    3    0    0 -0.51712478508E+01 -0.15069424999E+02  0.16429959139E+02  0.22886085979E+02  0.00000000000E+00 0.  1.
</event>
<event>
 7    1  0.5290964E-013  0.5052885E+02  0.7816164E-02  0.1300439E+00
        -11   -1    0    0    0    0  0.00000000000E+00  0.00000000000E+00  0.45593999997E+02  0.45594000000E+02  0.51100000000E-03 0. -1.
         11   -1    0    0    0    0 -0.00000000000E+00 -0.00000000000E+00 -0.45593999997E+02  0.45594000000E+02  0.51100000000E-03 0.  1.
    9900012    2    1    2    0    0  0.29505789274E+00  0.32661417406E+01 -0.40526675928E+02  0.50528853394E+02  0.29999980375E+02 0.  0.
         12    1    1    2    0    0 -0.29505789274E+00 -0.32661417406E+01  0.40526675928E+02  0.40659146606E+02  0.00000000000E+00 0. -1.
         11    1    3    3    0    0 -0.12959241629E+01 -0.39897088622E+01 -0.25755724020E+01  0.49224759726E+01  0.51100000000E-03 0. -1.
        -11    1    3    3    0    0  0.11713609410E+02  0.11823564962E+01 -0.27203685589E+02  0.29641982427E+02  0.51100000000E-03 0.  1.
         12    1    3    3    0    0 -0.10122627355E+02  0.60734941067E+01 -0.10747417936E+02  0.15964394994E+02  0.00000000000E+00 0. -1.
</event>
<event>
 7    1  0.5290964E-013  0.5052885E+02  0.7816164E-02  0.1300439E+00
        -11   -1    0    0    0    0  0.00000000000E+00  0.00000000000E+00  0.45593999997E+02  0.45594000000E+02  0.51100000000E-03 0. -1.
         11   -1    0    0    0    0 -0.00000000000E+00 -0.00000000000E+00 -0.45593999997E+02  0.45594000000E+02  0.51100000000E-03 0.  1.
    9900012    2    1    2    0    0  0.35555985304E+01 -0.17135096963E+02 -0.36700310507E+02  0.50528848261E+02  0.29999964774E+02 0.  0.
         12    1    1    2    0    0 -0.35555985304E+01  0.17135096963E+02  0.36700310507E+02  0.40659151739E+02  0.00000000000E+00 0. -1.
         11    1    3    3    0    0  0.17877719626E+01  0.61521277643E+01 -0.33316804564E+01  0.72211425372E+01  0.51100000000E-03 0. -1.
        -11    1    3    3    0    0 -0.58498968317E+01 -0.14294783246E+02 -0.22393044690E+02  0.27203135329E+02  0.51100000000E-03 0.  1.
        -12    1    3    3    0    0  0.76177233995E+01 -0.89924414817E+01 -0.10975585360E+02  0.16104570395E+02  0.00000000000E+00 0.  1.
</event>
<event>
 7    1  0.5290964E-013  0.5052886E+02  0.7816164E-02  0.1300439E+00
        -11   -1    0    0    0    0  0.00000000000E+00  0.00000000000E+00  0.45593999997E+02  0.45594000000E+02  0.51100000000E-03 0. -1.
         11   -1    0    0    0    0 -0.00000000000E+00 -0.00000000000E+00 -0.45593999997E+02  0.45594000000E+02  0.51100000000E-03 0.  1.
    9900012    2    1    2    0    0  0.18523975478E+02  0.30869705506E+02 -0.18896801228E+02  0.50528862255E+02  0.30000007309E+02 0.  0.
         12    1    1    2    0    0 -0.18523975478E+02 -0.30869705506E+02  0.18896801228E+02  0.40659137745E+02  0.00000000000E+00 0. -1.
         11    1    3    3    0    0  0.11512283286E+01  0.64546192055E+01  0.39343104850E+01  0.76463216651E+01  0.51100000000E-03 0. -1.
        -11    1    3    3    0    0  0.40161531585E+01  0.18103889797E+02 -0.40383861250E+01  0.18978642594E+02  0.51100000000E-03 0.  1.
        -12    1    3    3    0    0  0.13356593991E+02  0.63111965037E+01 -0.18792725588E+02  0.23903897995E+02  0.00000000000E+00 0.  1.
</event>
<event>
 7    1  0.5290964E-013  0.5052886E+02  0.7816164E-02  0.1300439E+00
        -11   -1    0    0    0    0  0.00000000000E+00  0.00000000000E+00  0.45593999997E+02  0.45594000000E+02  0.51100000000E-03 0.  1.
         11   -1    0    0    0    0 -0.00000000000E+00 -0.00000000000E+00 -0.45593999997E+02  0.45594000000E+02  0.51100000000E-03 0. -1.
    9900012    2    1    2    0    0 -0.20009266417E+02  0.17962106476E+02  0.30498482113E+02  0.50528862985E+02  0.30000009528E+02 0.  0.
         12    1    1    2    0    0  0.20009266417E+02 -0.17962106476E+02 -0.30498482113E+02  0.40659137015E+02  0.00000000000E+00 0. -1.
         11    1    3    3    0    0 -0.73573489755E+01  0.72424397317E+01  0.20530341800E+01  0.10526085066E+02  0.51100000000E-03 0. -1.
        -11    1    3    3    0    0 -0.87260322885E+01  0.16126073013E+02  0.27783809638E+02  0.33288645941E+02  0.51100000000E-03 0.  1.
         12    1    3    3    0    0 -0.39258851532E+01 -0.54064062687E+01  0.66163829562E+00  0.67141319776E+01  0.00000000000E+00 0. -1.
</event>
<event>
 7    1  0.5526491E-013  0.5052886E+02  0.7816164E-02  0.1300439E+00
        -11   -1    0    0    0    0  0.00000000000E+00  0.00000000000E+00  0.45593999997E+02  0.45594000000E+02  0.51100000000E-03 0. -1.
         11   -1    0    0    0    0 -0.00000000000E+00 -0.00000000000E+00 -0.45593999997E+02  0.45594000000E+02  0.51100000000E-03 0.  1.
    9900012    2    1    2    0    0  0.25645018313E+02 -0.28412700609E+02  0.13719225943E+02  0.50528859814E+02  0.29999999892E+02 0.  0.
         12    1    1    2    0    0 -0.25645018313E+02  0.28412700609E+02 -0.13719225943E+02  0.40659140186E+02  0.00000000000E+00 0. -1.
         11    1    3    3    0    0  0.15960984718E+02 -0.15440006757E+02  0.10914002131E+02  0.24743934299E+02  0.51100000000E-03 0. -1.
        -11    1    3    3    0    0  0.52799435628E+01 -0.16728020784E+02  0.67339999160E+01  0.18789657754E+02  0.51100000000E-03 0.  1.
         12    1    3    3    0    0  0.44040900320E+01  0.37553269318E+01 -0.39287761044E+01  0.69952677613E+01  0.00000000000E+00 0. -1.
</event>
<event>
 7    1  0.5290964E-013  0.5052885E+02  0.7816164E-02  0.1300439E+00
        -11   -1    0    0    0    0  0.00000000000E+00  0.00000000000E+00  0.45593999997E+02  0.45594000000E+02  0.51100000000E-03 0.  1.
         11   -1    0    0    0    0 -0.00000000000E+00 -0.00000000000E+00 -0.45593999997E+02  0.45594000000E+02  0.51100000000E-03 0. -1.
    9900012    2    1    2    0    0  0.19060227862E+02 -0.21558795518E+02  0.28724422540E+02  0.50528850961E+02  0.29999972980E+02 0.  0.
         12    1    1    2    0    0 -0.19060227862E+02  0.21558795518E+02 -0.28724422540E+02  0.40659149039E+02  0.00000000000E+00 0. -1.
         11    1    3    3    0    0  0.86486654102E+01 -0.47153093199E+01  0.20049157613E+02  0.22338358861E+02  0.51100000000E-03 0. -1.
        -11    1    3    3    0    0  0.12506843222E+02 -0.91963447321E+01  0.11971288475E+02  0.19603714746E+02  0.51100000000E-03 0.  1.
         12    1    3    3    0    0 -0.20952807706E+01 -0.76471414659E+01 -0.32960235472E+01  0.85867773542E+01  0.00000000000E+00 0. -1.
</event>
<event>
 7    1  0.5290964E-013  0.5052891E+02  0.7816164E-02  0.1300439E+00
        -11   -1    0    0    0    0  0.00000000000E+00  0.00000000000E+00  0.45593999997E+02  0.45594000000E+02  0.51100000000E-03 0.  1.
         11   -1    0    0    0    0 -0.00000000000E+00 -0.00000000000E+00 -0.45593999997E+02  0.45594000000E+02  0.51100000000E-03 0. -1.
    9900012    2    1    2    0    0  0.12820587085E+01 -0.25215400912E+01  0.40560565538E+02  0.50528913491E+02  0.30000163048E+02 0.  0.
         12    1    1    2    0    0 -0.12820587085E+01  0.25215400912E+01 -0.40560565538E+02  0.40659086509E+02  0.00000000000E+00 0. -1.
         11    1    3    3    0    0  0.30159862321E+01  0.83148384022E+01  0.61939722625E+01  0.10798055531E+02  0.51100000000E-03 0.  1.
        -11    1    3    3    0    0  0.70143740626E+01 -0.25966848679E+01  0.17397759174E+02  0.18937429613E+02  0.51100000000E-03 0. -1.
        -12    1    3    3    0    0 -0.87483015862E+01 -0.82396936256E+01  0.16968834101E+02  0.20793428348E+02  0.00000000000E+00 0.  1.
</event>
<event>
 7    1  0.5290964E-013  0.5052887E+02  0.7816164E-02  0.1300439E+00
        -11   -1    0    0    0    0  0.00000000000E+00  0.00000000000E+00  0.45593999997E+02  0.45594000000E+02  0.51100000000E-03 0.  1.
         11   -1    0    0    0    0 -0.00000000000E+00 -0.00000000000E+00 -0.45593999997E+02  0.45594000000E+02  0.51100000000E-03 0. -1.
    9900012    2    1    2    0    0  0.81513613517E+01  0.25138124452E+02  0.30899754570E+02  0.50528870333E+02  0.30000031863E+02 0.  0.
         12    1    1    2    0    0 -0.81513613517E+01 -0.25138124452E+02 -0.30899754570E+02  0.40659129667E+02  0.00000000000E+00 0. -1.
         11    1    3    3    0    0 -0.41543112008E+01  0.27507900893E+01  0.10438610967E+02  0.11566751785E+02  0.51100000000E-03 0. -1.
        -11    1    3    3    0    0 -0.49216814026E+01  0.16174062324E+01  0.14153282133E+00  0.51825652480E+01  0.51100000000E-03 0.  1.
        -12    1    3    3    0    0  0.17227353955E+02  0.20769928130E+02  0.20319610781E+02  0.33779553299E+02  0.00000000000E+00 0.  1.
</event>
<event>
 7    1  0.5290964E-013  0.5052886E+02  0.7816164E-02  0.1300439E+00
        -11   -1    0    0    0    0  0.00000000000E+00  0.00000000000E+00  0.45593999997E+02  0.45594000000E+02  0.51100000000E-03 0. -1.
         11   -1    0    0    0    0 -0.00000000000E+00 -0.00000000000E+00 -0.45593999997E+02  0.45594000000E+02  0.51100000000E-03 0.  1.
    9900012    2    1    2    0    0 -0.34122187990E+02 -0.12468055089E+02 -0.18258954723E+02  0.50528861562E+02  0.30000005205E+02 0.  0.
         12    1    1    2    0    0  0.34122187990E+02  0.12468055089E+02  0.18258954723E+02  0.40659138438E+02  0.00000000000E+00 0. -1.
         11    1    3    3    0    0 -0.95524561068E+00 -0.75506510858E+01 -0.34476990728E+01  0.83553249580E+01  0.51100000000E-03 0. -1.
        -11    1    3    3    0    0 -0.22394645721E+02 -0.11926857654E+02 -0.14695224493E+02  0.29320977364E+02  0.51100000000E-03 0.  1.
        -12    1    3    3    0    0 -0.10772296659E+02  0.70094536507E+01 -0.11603115710E+00  0.12852559240E+02  0.00000000000E+00 0.  1.
</event>
<event>
 7    1  0.5290964E-013  0.5052886E+02  0.7816164E-02  0.1300439E+00
        -11   -1    0    0    0    0  0.00000000000E+00  0.00000000000E+00  0.45593999997E+02  0.45594000000E+02  0.51100000000E-03 0.  1.
         11   -1    0    0    0    0 -0.00000000000E+00 -0.00000000000E+00 -0.45593999997E+02  0.45594000000E+02  0.51100000000E-03 0. -1.
    9900012    2    1    2    0    0 -0.35046170195E+01  0.39569108617E+02  0.86699894211E+01  0.50528863097E+02  0.30000009869E+02 0.  0.
         12    1    1    2    0    0  0.35046170195E+01 -0.39569108617E+02 -0.86699894211E+01  0.40659136903E+02  0.00000000000E+00 0. -1.
         11    1    3    3    0    0  0.29794041584E+01  0.32695586989E+02  0.94639866967E+01  0.34167898708E+02  0.51100000000E-03 0. -1.
        -11    1    3    3    0    0  0.35075547434E+01  0.50095844907E+01 -0.99027489534E+00  0.61951207960E+01  0.51100000000E-03 0.  1.
        -12    1    3    3    0    0 -0.99915759213E+01  0.18639371372E+01  0.19627761971E+00  0.10165843592E+02  0.00000000000E+00 0.  1.
</event>
<event>
 7    1  0.5290964E-013  0.5052885E+02  0.7816164E-02  0.1300439E+00
        -11   -1    0    0    0    0  0.00000000000E+00  0.00000000000E+00  0.45593999997E+02  0.45594000000E+02  0.51100000000E-03 0. -1.
         11   -1    0    0    0    0 -0.00000000000E+00 -0.00000000000E+00 -0.45593999997E+02  0.45594000000E+02  0.51100000000E-03 0.  1.
    9900012    2    1    2    0    0 -0.16247825523E+02 -0.28564034469E+02 -0.23943070709E+02  0.50528849316E+02  0.29999967981E+02 0.  0.
         12    1    1    2    0    0  0.16247825523E+02  0.28564034469E+02  0.23943070709E+02  0.40659150684E+02  0.00000000000E+00 0. -1.
         11    1    3    3    0    0 -0.72748914908E+01 -0.85941743828E+01 -0.85705504824E+01  0.14150555302E+02  0.51100000000E-03 0. -1.
        -11    1    3    3    0    0 -0.96893359048E+01 -0.12762886026E+02 -0.21553007948E+02  0.26857152527E+02  0.51100000000E-03 0.  1.
         12    1    3    3    0    0  0.71640187307E+00 -0.72069740594E+01  0.61804877213E+01  0.95211414867E+01  0.00000000000E+00 0. -1.
</event>
<event>
 7    1  0.5290964E-013  0.5052885E+02  0.7816164E-02  0.1300439E+00
        -11   -1    0    0    0    0  0.00000000000E+00  0.00000000000E+00  0.45593999997E+02  0.45594000000E+02  0.51100000000E-03 0. -1.
         11   -1    0    0    0    0 -0.00000000000E+00 -0.00000000000E+00 -0.45593999997E+02  0.45594000000E+02  0.51100000000E-03 0.  1.
    9900012    2    1    2    0    0  0.31514473786E+02  0.24990601778E+02  0.59559951634E+01  0.50528854490E+02  0.29999983707E+02 0.  0.
         12    1    1    2    0    0 -0.31514473786E+02 -0.24990601778E+02 -0.59559951634E+01  0.40659145510E+02  0.00000000000E+00 0. -1.
         11    1    3    3    0    0  0.95226557738E+01  0.10710702339E+02 -0.37301850658E+01  0.14809267317E+02  0.51100000000E-03 0. -1.
        -11    1    3    3    0    0  0.22425226011E+02  0.16545673878E+02  0.22789665786E+01  0.27961469465E+02  0.51100000000E-03 0.  1.
         12    1    3    3    0    0 -0.43340799869E+00 -0.22657744386E+01  0.74072136506E+01  0.77581177076E+01  0.00000000000E+00 0. -1.
</event>
<event>
 7    1  0.5290964E-013  0.5052886E+02  0.7816164E-02  0.1300439E+00
        -11   -1    0    0    0    0  0.00000000000E+00  0.00000000000E+00  0.45593999997E+02  0.45594000000E+02  0.51100000000E-03 0. -1.
         11   -1    0    0    0    0 -0.00000000000E+00 -0.00000000000E+00 -0.45593999997E+02  0.45594000000E+02  0.51100000000E-03 0.  1.
    9900012    2    1    2    0    0 -0.31784977171E+01  0.27887043965E+02 -0.29417267339E+02  0.50528859742E+02  0.29999999670E+02 0.  0.
         12    1    1    2    0    0  0.31784977171E+01 -0.27887043965E+02  0.29417267339E+02  0.40659140258E+02  0.00000000000E+00 0. -1.
         11    1    3    3    0    0  0.18761650230E+01  0.48243112182E+01 -0.11069659154E+02  0.12220119801E+02  0.51100000000E-03 0. -1.
        -11    1    3    3    0    0  0.18227156855E+01  0.21461018487E+02 -0.21627389805E+02  0.30522804540E+02  0.51100000000E-03 0.  1.
         12    1    3    3    0    0 -0.68773784256E+01  0.16017142600E+01  0.32797816194E+01  0.77859353998E+01  0.00000000000E+00 0. -1.
</event>
<event>
 7    1  0.5290964E-013  0.5052886E+02  0.7816164E-02  0.1300439E+00
        -11   -1    0    0    0    0  0.00000000000E+00  0.00000000000E+00  0.45593999997E+02  0.45594000000E+02  0.51100000000E-03 0. -1.
         11   -1    0    0    0    0 -0.00000000000E+00 -0.00000000000E+00 -0.45593999997E+02  0.45594000000E+02  0.51100000000E-03 0.  1.
    9900012    2    1    2    0    0 -0.15784994187E+02 -0.33687132973E+02  0.16406610286E+02  0.50528857972E+02  0.29999994291E+02 0.  0.
         12    1    1    2    0    0  0.15784994187E+02  0.33687132973E+02 -0.16406610286E+02  0.40659142028E+02  0.00000000000E+00 0. -1.
         11    1    3    3    0    0 -0.69019891306E+01 -0.12063647668E+02  0.20346144606E+01  0.14046661713E+02  0.51100000000E-03 0. -1.
        -11    1    3    3    0    0 -0.14273902462E+02 -0.72926107167E+01  0.84456111260E+00  0.16051160279E+02  0.51100000000E-03 0.  1.
         12    1    3    3    0    0  0.53908974058E+01 -0.14330874588E+02  0.13527434713E+02  0.20431035980E+02  0.00000000000E+00 0. -1.
</event>
<event>
 7    1  0.5290964E-013  0.5052885E+02  0.7816164E-02  0.1300439E+00
        -11   -1    0    0    0    0  0.00000000000E+00  0.00000000000E+00  0.45593999997E+02  0.45594000000E+02  0.51100000000E-03 0. -1.
         11   -1    0    0    0    0 -0.00000000000E+00 -0.00000000000E+00 -0.45593999997E+02  0.45594000000E+02  0.51100000000E-03 0.  1.
    9900012    2    1    2    0    0 -0.85925056837E+01  0.30504268241E+02  0.25472037440E+02  0.50528853106E+02  0.29999979500E+02 0.  0.
         12    1    1    2    0    0  0.85925056837E+01 -0.30504268241E+02 -0.25472037440E+02  0.40659146894E+02  0.00000000000E+00 0. -1.
         11    1    3    3    0    0  0.57126070763E+01 -0.11947921399E+01  0.20518705086E+01  0.61864028895E+01  0.51100000000E-03 0. -1.
        -11    1    3    3    0    0 -0.22885566983E+00  0.66403163906E+00 -0.18097330939E+01  0.19412488423E+01  0.51100000000E-03 0.  1.
        -12    1    3    3    0    0 -0.14076257090E+02  0.31035028742E+02  0.25229900025E+02  0.42401201374E+02  0.00000000000E+00 0.  1.
</event>
<event>
 7    1  0.5290964E-013  0.5052889E+02  0.7816164E-02  0.1300439E+00
        -11   -1    0    0    0    0  0.00000000000E+00  0.00000000000E+00  0.45593999997E+02  0.45594000000E+02  0.51100000000E-03 0.  1.
         11   -1    0    0    0    0 -0.00000000000E+00 -0.00000000000E+00 -0.45593999997E+02  0.45594000000E+02  0.51100000000E-03 0. -1.
    9900012    2    1    2    0    0 -0.12204168282E+02 -0.21640435786E+02  0.32185608442E+02  0.50528885705E+02  0.30000078589E+02 0.  0.
         12    1    1    2    0    0  0.12204168282E+02  0.21640435786E+02 -0.32185608442E+02  0.40659114295E+02  0.00000000000E+00 0. -1.
         11    1    3    3    0    0 -0.71200182572E+01 -0.15361259412E+02  0.10634974666E+01  0.16964491676E+02  0.51100000000E-03 0. -1.
        -11    1    3    3    0    0 -0.12947154190E+01 -0.58981344870E+01  0.74598176372E+01  0.95975599964E+01  0.51100000000E-03 0.  1.
        -12    1    3    3    0    0 -0.37894346059E+01 -0.38104188765E+00  0.23662293338E+02  0.23966834033E+02  0.00000000000E+00 0.  1.
</event>
<event>
 7    1  0.5290964E-013  0.5052886E+02  0.7816164E-02  0.1300439E+00
        -11   -1    0    0    0    0  0.00000000000E+00  0.00000000000E+00  0.45593999997E+02  0.45594000000E+02  0.51100000000E-03 0.  1.
         11   -1    0    0    0    0 -0.00000000000E+00 -0.00000000000E+00 -0.45593999997E+02  0.45594000000E+02  0.51100000000E-03 0. -1.
    9900012    2    1    2    0    0 -0.44736698572E+00 -0.40318483086E+02 -0.52330835522E+01  0.50528863523E+02  0.30000011165E+02 0.  0.
         12    1    1    2    0    0  0.44736698572E+00  0.40318483086E+02  0.52330835522E+01  0.40659136477E+02  0.00000000000E+00 0. -1.
         11    1    3    3    0    0 -0.59459195840E+00 -0.42938078544E+01 -0.68608713726E+01  0.81155333614E+01  0.51100000000E-03 0. -1.
        -11    1    3    3    0    0 -0.10879815799E+02 -0.21146201519E+02 -0.39245576718E+00  0.23784159693E+02  0.51100000000E-03 0.  1.
        -12    1    3    3    0    0  0.11027040772E+02 -0.14878473713E+02  0.20202435876E+01  0.18629170469E+02  0.00000000000E+00 0.  1.
</event>
<event>
 7    1  0.5290964E-013  0.5052887E+02  0.7816164E-02  0.1300439E+00
        -11   -1    0    0    0    0  0.00000000000E+00  0.00000000000E+00  0.45593999997E+02  0.45594000000E+02  0.51100000000E-03 0.  1.
         11   -1    0    0    0    0 -0.00000000000E+00 -0.00000000000E+00 -0.45593999997E+02  0.45594000000E+02  0.51100000000E-03 0. -1.
    9900012    2    1    2    0    0 -0.29095283476E+02 -0.23771722823E+02  0.15541386932E+02  0.50528867763E+02  0.30000024052E+02 0.  0.
         12    1    1    2    0    0  0.29095283476E+02  0.23771722823E+02 -0.15541386932E+02  0.40659132237E+02  0.00000000000E+00 0. -1.
         11    1    3    3    0    0 -0.18226316997E+02 -0.11372811066E+02  0.72322976361E+01  0.22668162523E+02  0.51100000000E-03 0.  1.
        -11    1    3    3    0    0 -0.61178925012E+01  0.39548936791E+01 -0.24861505441E+01  0.76974500620E+01  0.51100000000E-03 0. -1.
        -12    1    3    3    0    0 -0.47510739781E+01 -0.16353805435E+02  0.10795239840E+02  0.20163255178E+02  0.00000000000E+00 0.  1.
</event>
<event>
 7    1  0.5290964E-013  0.5052886E+02  0.7816164E-02  0.1300439E+00
        -11   -1    0    0    0    0  0.00000000000E+00  0.00000000000E+00  0.45593999997E+02  0.45594000000E+02  0.51100000000E-03 0.  1.
         11   -1    0    0    0    0 -0.00000000000E+00 -0.00000000000E+00 -0.45593999997E+02  0.45594000000E+02  0.51100000000E-03 0. -1.
    9900012    2    1    2    0    0  0.19376453554E+01  0.29260909947E+01  0.40507396614E+02  0.50528860087E+02  0.30000000720E+02 0.  0.
         12    1    1    2    0    0 -0.19376453554E+01 -0.29260909947E+01 -0.40507396614E+02  0.40659139913E+02  0.00000000000E+00 0. -1.
         11    1    3    3    0    0  0.66195071791E+01  0.31223898138E+01  0.18018732381E+01  0.75375022966E+01  0.51100000000E-03 0. -1.
        -11    1    3    3    0    0  0.59768904305E+01  0.38510092705E+01  0.11906691810E+02  0.13868049673E+02  0.51100000000E-03 0.  1.
        -12    1    3    3    0    0 -0.10658752254E+02 -0.40473080896E+01  0.26798831566E+02  0.29123308117E+02  0.00000000000E+00 0.  1.
</event>
<event>
 7    1  0.5290964E-013  0.5052888E+02  0.7816164E-02  0.1300439E+00
        -11   -1    0    0    0    0  0.00000000000E+00  0.00000000000E+00  0.45593999997E+02  0.45594000000E+02  0.51100000000E-03 0.  1.
         11   -1    0    0    0    0 -0.00000000000E+00 -0.00000000000E+00 -0.45593999997E+02  0.45594000000E+02  0.51100000000E-03 0. -1.
    9900012    2    1    2    0    0  0.17241134401E+01  0.15940676663E+02  0.37364234451E+02  0.50528883486E+02  0.30000071842E+02 0.  0.
         12    1    1    2    0    0 -0.17241134401E+01 -0.15940676663E+02 -0.37364234451E+02  0.40659116514E+02  0.00000000000E+00 0. -1.
         11    1    3    3    0    0 -0.48057962645E+01  0.13672618660E+02  0.82557305591E+01  0.16679126659E+02  0.51100000000E-03 0. -1.
        -11    1    3    3    0    0 -0.43703255169E-01  0.78143810927E+01  0.86515440005E+01  0.11658287854E+02  0.51100000000E-03 0.  1.
        -12    1    3    3    0    0  0.65736129598E+01 -0.55463230902E+01  0.20456959891E+02  0.22191468973E+02  0.00000000000E+00 0.  1.
</event>
<event>
 7    1  0.5290964E-013  0.5052886E+02  0.7816164E-02  0.1300439E+00
        -11   -1    0    0    0    0  0.00000000000E+00  0.00000000000E+00  0.45593999997E+02  0.45594000000E+02  0.51100000000E-03 0.  1.
         11   -1    0    0    0    0 -0.00000000000E+00 -0.00000000000E+00 -0.45593999997E+02  0.45594000000E+02  0.51100000000E-03 0. -1.
    9900012    2    1    2    0    0 -0.15570939875E+02 -0.37085651226E+02  0.59469234082E+01  0.50528860886E+02  0.30000003150E+02 0.  0.
         12    1    1    2    0    0  0.15570939875E+02  0.37085651226E+02 -0.59469234082E+01  0.40659139114E+02  0.00000000000E+00 0. -1.
         11    1    3    3    0    0 -0.49822961114E+01 -0.11636348439E+02 -0.12222082130E+01  0.12716983633E+02  0.51100000000E-03 0. -1.
        -11    1    3    3    0    0 -0.10540812667E+02 -0.28756767683E+02  0.80372734655E+00  0.30638315835E+02  0.51100000000E-03 0.  1.
         12    1    3    3    0    0 -0.47831096718E-01  0.33074648963E+01  0.63654042746E+01  0.71735614191E+01  0.00000000000E+00 0. -1.
</event>
<event>
 7    1  0.5290964E-013  0.5052886E+02  0.7816164E-02  0.1300439E+00
        -11   -1    0    0    0    0  0.00000000000E+00  0.00000000000E+00  0.45593999997E+02  0.45594000000E+02  0.51100000000E-03 0.  1.
         11   -1    0    0    0    0 -0.00000000000E+00 -0.00000000000E+00 -0.45593999997E+02  0.45594000000E+02  0.51100000000E-03 0. -1.
    9900012    2    1    2    0    0  0.24470324933E+02 -0.25412571430E+02  0.20213111624E+02  0.50528862398E+02  0.30000007744E+02 0.  0.
         12    1    1    2    0    0 -0.24470324933E+02  0.25412571430E+02 -0.20213111624E+02  0.40659137602E+02  0.00000000000E+00 0. -1.
         11    1    3    3    0    0  0.59689647377E+01 -0.16304807132E+02 -0.52656829176E+00  0.17371026166E+02  0.51100000000E-03 0. -1.
        -11    1    3    3    0    0  0.12301811050E+02 -0.13497591621E+02  0.14181505180E+02  0.23122167375E+02  0.51100000000E-03 0.  1.
        -12    1    3    3    0    0  0.61995491449E+01  0.43898273225E+01  0.65581747364E+01  0.10035668856E+02  0.00000000000E+00 0.  1.
</event>
<event>
 7    1  0.5290964E-013  0.5052885E+02  0.7816164E-02  0.1300439E+00
        -11   -1    0    0    0    0  0.00000000000E+00  0.00000000000E+00  0.45593999997E+02  0.45594000000E+02  0.51100000000E-03 0. -1.
         11   -1    0    0    0    0 -0.00000000000E+00 -0.00000000000E+00 -0.45593999997E+02  0.45594000000E+02  0.51100000000E-03 0.  1.
    9900012    2    1    2    0    0 -0.11071843756E+02  0.20747789801E+02 -0.33167903537E+02  0.50528851819E+02  0.29999975589E+02 0.  0.
         12    1    1    2    0    0  0.11071843756E+02 -0.20747789801E+02  0.33167903537E+02  0.40659148181E+02  0.00000000000E+00 0. -1.
         11    1    3    3    0    0  0.27836641722E+01 -0.25956692161E+01 -0.13767464962E+01  0.40474332705E+01  0.51100000000E-03 0. -1.
        -11    1    3    3    0    0  0.49791606264E+01  0.87639596300E+01 -0.10011550664E+02  0.14206694756E+02  0.51100000000E-03 0.  1.
        -12    1    3    3    0    0 -0.18834668554E+02  0.14579499387E+02 -0.21779606377E+02  0.32274723792E+02  0.00000000000E+00 0.  1.
</event>
<event>
 7    1  0.5290964E-013  0.5052886E+02  0.7816164E-02  0.1300439E+00
        -11   -1    0    0    0    0  0.00000000000E+00  0.00000000000E+00  0.45593999997E+02  0.45594000000E+02  0.51100000000E-03 0.  1.
         11   -1    0    0    0    0 -0.00000000000E+00 -0.00000000000E+00 -0.45593999997E+02  0.45594000000E+02  0.51100000000E-03 0. -1.
    9900012    2    1    2    0    0 -0.27824324931E+02  0.29476556413E+02  0.31788901708E+01  0.50528858611E+02  0.29999996233E+02 0.  0.
         12    1    1    2    0    0  0.27824324931E+02 -0.29476556413E+02 -0.31788901708E+01  0.40659141389E+02  0.00000000000E+00 0. -1.
         11    1    3    3    0    0  0.14856151356E+01  0.35843899004E+01 -0.58707499242E+01  0.70370880499E+01  0.51100000000E-03 0. -1.
        -11    1    3    3    0    0 -0.19148142860E+01 -0.23733926048E+01  0.15500827496E+01  0.34208570561E+01  0.51100000000E-03 0.  1.
        -12    1    3    3    0    0 -0.27395125781E+02  0.28265559117E+02  0.74995573454E+01  0.40070913505E+02  0.00000000000E+00 0.  1.
</event>
<event>
 7    1  0.5290964E-013  0.5052881E+02  0.7816164E-02  0.1300439E+00
        -11   -1    0    0    0    0  0.00000000000E+00  0.00000000000E+00  0.45593999997E+02  0.45594000000E+02  0.51100000000E-03 0. -1.
         11   -1    0    0    0    0 -0.00000000000E+00 -0.00000000000E+00 -0.45593999997E+02  0.45594000000E+02  0.51100000000E-03 0.  1.
    9900012    2    1    2    0    0 -0.20001381344E+02  0.28965620864E+02 -0.20349617728E+02  0.50528814206E+02  0.29999861261E+02 0.  0.
         12    1    1    2    0    0  0.20001381344E+02 -0.28965620864E+02  0.20349617728E+02  0.40659185794E+02  0.00000000000E+00 0. -1.
         11    1    3    3    0    0 -0.68582266280E+01  0.16625192421E+01  0.17680844989E+01  0.72749821833E+01  0.51100000000E-03 0. -1.
        -11    1    3    3    0    0 -0.81622108225E+01  0.11995675669E+02  0.15915577356E+01  0.14596265843E+02  0.51100000000E-03 0.  1.
        -12    1    3    3    0    0 -0.49809438936E+01  0.15307425954E+02 -0.23709259963E+02  0.28657566180E+02  0.00000000000E+00 0.  1.
</event>
<event>
 7    1  0.5290964E-013  0.5052886E+02  0.7816164E-02  0.1300439E+00
        -11   -1    0    0    0    0  0.00000000000E+00  0.00000000000E+00  0.45593999997E+02  0.45594000000E+02  0.51100000000E-03 0.  1.
         11   -1    0    0    0    0 -0.00000000000E+00 -0.00000000000E+00 -0.45593999997E+02  0.45594000000E+02  0.51100000000E-03 0. -1.
    9900012    2    1    2    0    0 -0.15587784418E+02 -0.19798118986E+02  0.31909581264E+02  0.50528856934E+02  0.29999991136E+02 0.  0.
         12    1    1    2    0    0  0.15587784418E+02  0.19798118986E+02 -0.31909581264E+02  0.40659143066E+02  0.00000000000E+00 0. -1.
         11    1    3    3    0    0 -0.69498219819E+01 -0.68860793710E+00 -0.20096412211E+01  0.72672460100E+01  0.51100000000E-03 0. -1.
        -11    1    3    3    0    0 -0.28263437804E+01 -0.90412098433E+01  0.25534621387E+01  0.98108034203E+01  0.51100000000E-03 0.  1.
        -12    1    3    3    0    0 -0.58116186554E+01 -0.10068301206E+02  0.31365760346E+02  0.33450807504E+02  0.00000000000E+00 0.  1.
</event>
<event>
 7    1  0.5290964E-013  0.5052886E+02  0.7816164E-02  0.1300439E+00
        -11   -1    0    0    0    0  0.00000000000E+00  0.00000000000E+00  0.45593999997E+02  0.45594000000E+02  0.51100000000E-03 0. -1.
         11   -1    0    0    0    0 -0.00000000000E+00 -0.00000000000E+00 -0.45593999997E+02  0.45594000000E+02  0.51100000000E-03 0.  1.
    9900012    2    1    2    0    0 -0.34623089351E+02  0.15930134737E+02 -0.14164673138E+02  0.50528862355E+02  0.30000007613E+02 0.  0.
         12    1    1    2    0    0  0.34623089351E+02 -0.15930134737E+02  0.14164673138E+02  0.40659137645E+02  0.00000000000E+00 0. -1.
         11    1    3    3    0    0 -0.22157725399E+02  0.46318424921E+01  0.71398950629E-01  0.22636781083E+02  0.51100000000E-03 0. -1.
        -11    1    3    3    0    0 -0.10589482423E+02  0.15380545305E+02 -0.14097370329E+02  0.23397311006E+02  0.51100000000E-03 0.  1.
         12    1    3    3    0    0 -0.18758815300E+01 -0.40822530606E+01 -0.13870175956E+00  0.44947702659E+01  0.00000000000E+00 0. -1.
</event>
<event>
 7    1  0.5290964E-013  0.5052886E+02  0.7816164E-02  0.1300439E+00
        -11   -1    0    0    0    0  0.00000000000E+00  0.00000000000E+00  0.45593999997E+02  0.45594000000E+02  0.51100000000E-03 0.  1.
         11   -1    0    0    0    0 -0.00000000000E+00 -0.00000000000E+00 -0.45593999997E+02  0.45594000000E+02  0.51100000000E-03 0. -1.
    9900012    2    1    2    0    0 -0.32711084959E+02  0.14322621871E+02  0.19442554792E+02  0.50528861872E+02  0.30000006148E+02 0.  0.
         12    1    1    2    0    0  0.32711084959E+02 -0.14322621871E+02 -0.19442554792E+02  0.40659138128E+02  0.00000000000E+00 0. -1.
         11    1    3    3    0    0 -0.19861210193E+02  0.99728660434E+00  0.19864128725E+02  0.28107754467E+02  0.51100000000E-03 0. -1.
        -11    1    3    3    0    0 -0.83431495172E+01  0.17143991218E+01  0.37217894656E+01  0.92951076004E+01  0.51100000000E-03 0.  1.
         12    1    3    3    0    0 -0.45067252488E+01  0.11610936144E+02 -0.41433633994E+01  0.13125999805E+02  0.00000000000E+00 0. -1.
</event>
<event>
 7    1  0.5290964E-013  0.5052886E+02  0.7816164E-02  0.1300439E+00
        -11   -1    0    0    0    0  0.00000000000E+00  0.00000000000E+00  0.45593999997E+02  0.45594000000E+02  0.51100000000E-03 0. -1.
         11   -1    0    0    0    0 -0.00000000000E+00 -0.00000000000E+00 -0.45593999997E+02  0.45594000000E+02  0.51100000000E-03 0.  1.
    9900012    2    1    2    0    0  0.25069062024E+02  0.29815289297E+02 -0.11651447778E+02  0.50528861028E+02  0.30000003581E+02 0.  0.
         12    1    1    2    0    0 -0.25069062024E+02 -0.29815289297E+02  0.11651447778E+02  0.40659138972E+02  0.00000000000E+00 0. -1.
         11    1    3    3    0    0  0.50766014211E+01  0.74325441521E+01  0.57779249919E+01  0.10695747381E+02  0.51100000000E-03 0. -1.
        -11    1    3    3    0    0  0.20776650623E+02  0.14074077186E+02 -0.62128441742E+01  0.25852433014E+02  0.51100000000E-03 0.  1.
        -12    1    3    3    0    0 -0.78419001961E+00  0.83086679585E+01 -0.11216528596E+02  0.13980680633E+02  0.00000000000E+00 0.  1.
</event>
<event>
 7    1  0.5290964E-013  0.5052886E+02  0.7816164E-02  0.1300439E+00
        -11   -1    0    0    0    0  0.00000000000E+00  0.00000000000E+00  0.45593999997E+02  0.45594000000E+02  0.51100000000E-03 0.  1.
         11   -1    0    0    0    0 -0.00000000000E+00 -0.00000000000E+00 -0.45593999997E+02  0.45594000000E+02  0.51100000000E-03 0. -1.
    9900012    2    1    2    0    0  0.27798391569E+02 -0.72839786209E+01  0.28763849734E+02  0.50528856258E+02  0.29999989081E+02 0.  0.
         12    1    1    2    0    0 -0.27798391569E+02  0.72839786209E+01 -0.28763849734E+02  0.40659143742E+02  0.00000000000E+00 0. -1.
         11    1    3    3    0    0  0.15654557170E+02 -0.93338474021E+01  0.81662102389E+00  0.18244252182E+02  0.51100000000E-03 0. -1.
        -11    1    3    3    0    0  0.40716946754E+01 -0.73920291498E+00  0.13547457694E+01  0.43543604398E+01  0.51100000000E-03 0.  1.
         12    1    3    3    0    0  0.80721397238E+01  0.27890716962E+01  0.26592482940E+02  0.27930243636E+02  0.00000000000E+00 0. -1.
</event>
<event>
 7    1  0.5290964E-013  0.5052886E+02  0.7816164E-02  0.1300439E+00
        -11   -1    0    0    0    0  0.00000000000E+00  0.00000000000E+00  0.45593999997E+02  0.45594000000E+02  0.51100000000E-03 0.  1.
         11   -1    0    0    0    0 -0.00000000000E+00 -0.00000000000E+00 -0.45593999997E+02  0.45594000000E+02  0.51100000000E-03 0. -1.
    9900012    2    1    2    0    0 -0.16795198304E+02 -0.18130407675E+02  0.32285833791E+02  0.50528862870E+02  0.30000009181E+02 0.  0.
         12    1    1    2    0    0  0.16795198304E+02  0.18130407675E+02 -0.32285833791E+02  0.40659137130E+02  0.00000000000E+00 0. -1.
         11    1    3    3    0    0 -0.33485925512E+01  0.18803101039E+01 -0.29496308681E+01  0.48424126921E+01  0.51100000000E-03 0. -1.
        -11    1    3    3    0    0 -0.19108301946E+00 -0.10421305691E+02  0.23016721933E+02  0.25266768963E+02  0.51100000000E-03 0.  1.
        -12    1    3    3    0    0 -0.13255522733E+02 -0.95894120887E+01  0.12218742726E+02  0.20419681215E+02  0.00000000000E+00 0.  1.
</event>
<event>
 7    1  0.5290964E-013  0.5052886E+02  0.7816164E-02  0.1300439E+00
        -11   -1    0    0    0    0  0.00000000000E+00  0.00000000000E+00  0.45593999997E+02  0.45594000000E+02  0.51100000000E-03 0. -1.
         11   -1    0    0    0    0 -0.00000000000E+00 -0.00000000000E+00 -0.45593999997E+02  0.45594000000E+02  0.51100000000E-03 0.  1.
    9900012    2    1    2    0    0 -0.32360060982E+02  0.14558168540E+02 -0.19850737365E+02  0.50528860905E+02  0.30000003206E+02 0.  0.
         12    1    1    2    0    0  0.32360060982E+02 -0.14558168540E+02  0.19850737365E+02  0.40659139095E+02  0.00000000000E+00 0. -1.
         11    1    3    3    0    0 -0.91407662452E+01 -0.85808768086E+01 -0.74298702762E+01  0.14573538587E+02  0.51100000000E-03 0. -1.
        -11    1    3    3    0    0 -0.41510972293E+01  0.70061736260E+01 -0.19391811085E+00  0.81458996790E+01  0.51100000000E-03 0.  1.
        -12    1    3    3    0    0 -0.19068197508E+02  0.16132871722E+02 -0.12226948978E+02  0.27809422639E+02  0.00000000000E+00 0.  1.
</event>
<event>
 7    1  0.5290964E-013  0.5052890E+02  0.7816164E-02  0.1300439E+00
        -11   -1    0    0    0    0  0.00000000000E+00  0.00000000000E+00  0.45593999997E+02  0.45594000000E+02  0.51100000000E-03 0.  1.
         11   -1    0    0    0    0 -0.00000000000E+00 -0.00000000000E+00 -0.45593999997E+02  0.45594000000E+02  0.51100000000E-03 0. -1.
    9900012    2    1    2    0    0 -0.26657158663E+02 -0.27141158192E+02  0.14349778081E+02  0.50528896383E+02  0.30000111044E+02 0.  0.
         12    1    1    2    0    0  0.26657158663E+02  0.27141158192E+02 -0.14349778081E+02  0.40659103617E+02  0.00000000000E+00 0. -1.
         11    1    3    3    0    0 -0.10284227250E+02  0.25166058173E+01  0.69813314176E+01  0.12682177399E+02  0.51100000000E-03 0. -1.
        -11    1    3    3    0    0 -0.26652007831E+01 -0.20959265682E+01  0.61708830511E+01  0.70410227443E+01  0.51100000000E-03 0.  1.
        -12    1    3    3    0    0 -0.13707730630E+02 -0.27561837441E+02  0.11975636121E+01  0.30805696239E+02  0.00000000000E+00 0.  1.
</event>
<event>
 7    1  0.5290964E-013  0.5052885E+02  0.7816164E-02  0.1300439E+00
        -11   -1    0    0    0    0  0.00000000000E+00  0.00000000000E+00  0.45593999997E+02  0.45594000000E+02  0.51100000000E-03 0. -1.
         11   -1    0    0    0    0 -0.00000000000E+00 -0.00000000000E+00 -0.45593999997E+02  0.45594000000E+02  0.51100000000E-03 0.  1.
    9900012    2    1    2    0    0 -0.22036651535E+02 -0.20163701683E+02  0.27585825446E+02  0.50528847993E+02  0.29999963959E+02 0.  0.
         12    1    1    2    0    0  0.22036651535E+02  0.20163701683E+02 -0.27585825446E+02  0.40659152007E+02  0.00000000000E+00 0. -1.
         11    1    3    3    0    0  0.68520478273E+01 -0.68540980211E+01  0.62242957718E+01  0.11518293156E+02  0.51100000000E-03 0. -1.
        -11    1    3    3    0    0 -0.11380950824E+02 -0.40415565127E+01  0.12262255879E+02  0.17211134193E+02  0.51100000000E-03 0.  1.
        -12    1    3    3    0    0 -0.17507748538E+02 -0.92680471490E+01  0.90992737955E+01  0.21799420644E+02  0.00000000000E+00 0.  1.
</event>
<event>
 7    1  0.5290964E-013  0.5052887E+02  0.7816164E-02  0.1300439E+00
        -11   -1    0    0    0    0  0.00000000000E+00  0.00000000000E+00  0.45593999997E+02  0.45594000000E+02  0.51100000000E-03 0.  1.
         11   -1    0    0    0    0 -0.00000000000E+00 -0.00000000000E+00 -0.45593999997E+02  0.45594000000E+02  0.51100000000E-03 0. -1.
    9900012    2    1    2    0    0 -0.89099317737E+01 -0.25991877728E+02  0.29969994836E+02  0.50528865940E+02  0.30000018512E+02 0.  0.
         12    1    1    2    0    0  0.89099317737E+01  0.25991877728E+02 -0.29969994836E+02  0.40659134060E+02  0.00000000000E+00 0. -1.
         11    1    3    3    0    0 -0.49317851145E+01 -0.12070889318E+02  0.33161259430E+01  0.13454574125E+02  0.51100000000E-03 0. -1.
        -11    1    3    3    0    0  0.92468641283E+00 -0.16457063540E+02  0.94351295809E+01  0.18992410479E+02  0.51100000000E-03 0.  1.
         12    1    3    3    0    0 -0.49028330720E+01  0.25360751298E+01  0.17218739312E+02  0.18081881337E+02  0.00000000000E+00 0. -1.
</event>
<event>
 7    1  0.5290964E-013  0.5052888E+02  0.7816164E-02  0.1300439E+00
        -11   -1    0    0    0    0  0.00000000000E+00  0.00000000000E+00  0.45593999997E+02  0.45594000000E+02  0.51100000000E-03 0.  1.
         11   -1    0    0    0    0 -0.00000000000E+00 -0.00000000000E+00 -0.45593999997E+02  0.45594000000E+02  0.51100000000E-03 0. -1.
    9900012    2    1    2    0    0  0.23654107626E+02  0.97076891867E+01  0.31613413719E+02  0.50528880925E+02  0.30000064061E+02 0.  0.
         12    1    1    2    0    0 -0.23654107626E+02 -0.97076891867E+01 -0.31613413719E+02  0.40659119075E+02  0.00000000000E+00 0. -1.
         11    1    3    3    0    0  0.20072395786E+02  0.17632413592E+02  0.26540251286E+02  0.37658837213E+02  0.51100000000E-03 0. -1.
        -11    1    3    3    0    0 -0.49361237773E+00 -0.10779223973E+01 -0.19279596724E+01  0.22633158493E+01  0.51100000000E-03 0.  1.
        -12    1    3    3    0    0  0.40753242174E+01 -0.68468020081E+01  0.70011221057E+01  0.10606727863E+02  0.00000000000E+00 0.  1.
</event>
<event>
 7    1  0.5290964E-013  0.5052886E+02  0.7816164E-02  0.1300439E+00
        -11   -1    0    0    0    0  0.00000000000E+00  0.00000000000E+00  0.45593999997E+02  0.45594000000E+02  0.51100000000E-03 0. -1.
         11   -1    0    0    0    0 -0.00000000000E+00 -0.00000000000E+00 -0.45593999997E+02  0.45594000000E+02  0.51100000000E-03 0.  1.
    9900012    2    1    2    0    0 -0.14131527486E+02  0.21654907033E+02 -0.31377233488E+02  0.50528857743E+02  0.29999993596E+02 0.  0.
         12    1    1    2    0    0  0.14131527486E+02 -0.21654907033E+02  0.31377233488E+02  0.40659142257E+02  0.00000000000E+00 0. -1.
         11    1    3    3    0    0 -0.11057349138E+02  0.10105132068E+01 -0.34537735570E+01  0.11628183819E+02  0.51100000000E-03 0. -1.
        -11    1    3    3    0    0 -0.40532071117E+01 -0.19181837202E+01 -0.51342465416E+01  0.68167737593E+01  0.51100000000E-03 0.  1.
        -12    1    3    3    0    0  0.97902876330E+00  0.22562577546E+02 -0.22789213390E+02  0.32083900164E+02  0.00000000000E+00 0.  1.
</event>
<event>
 7    1  0.5290964E-013  0.5052886E+02  0.7816164E-02  0.1300439E+00
        -11   -1    0    0    0    0  0.00000000000E+00  0.00000000000E+00  0.45593999997E+02  0.45594000000E+02  0.51100000000E-03 0. -1.
         11   -1    0    0    0    0 -0.00000000000E+00 -0.00000000000E+00 -0.45593999997E+02  0.45594000000E+02  0.51100000000E-03 0.  1.
    9900012    2    1    2    0    0  0.90099166178E+01 -0.31356104077E+02  0.24264820195E+02  0.50528863764E+02  0.30000011897E+02 0.  0.
         12    1    1    2    0    0 -0.90099166178E+01  0.31356104077E+02 -0.24264820195E+02  0.40659136236E+02  0.00000000000E+00 0. -1.
         11    1    3    3    0    0  0.44925861356E+01 -0.37560354214E+01  0.88182772107E+01  0.10585515835E+02  0.51100000000E-03 0. -1.
        -11    1    3    3    0    0  0.43718856271E+00 -0.20340152302E+01 -0.59836142882E+01  0.63349816106E+01  0.51100000000E-03 0.  1.
         12    1    3    3    0    0  0.40801419195E+01 -0.25566053426E+02  0.21430157272E+02  0.33608366318E+02  0.00000000000E+00 0. -1.
</event>
<event>
 7    1  0.5290964E-013  0.5052894E+02  0.7816164E-02  0.1300439E+00
        -11   -1    0    0    0    0  0.00000000000E+00  0.00000000000E+00  0.45593999997E+02  0.45594000000E+02  0.51100000000E-03 0.  1.
         11   -1    0    0    0    0 -0.00000000000E+00 -0.00000000000E+00 -0.45593999997E+02  0.45594000000E+02  0.51100000000E-03 0. -1.
    9900012    2    1    2    0    0 -0.17887491994E+02 -0.18232228076E+01  0.36467415924E+02  0.50528942763E+02  0.30000252020E+02 0.  0.
         12    1    1    2    0    0  0.17887491994E+02  0.18232228076E+01 -0.36467415924E+02  0.40659057237E+02  0.00000000000E+00 0. -1.
         11    1    3    3    0    0 -0.59720481809E+01  0.63422995661E+01 -0.25529482233E+00  0.87152337300E+01  0.51100000000E-03 0. -1.
        -11    1    3    3    0    0 -0.84047579498E+01  0.31875302110E+00  0.78087553192E+01  0.11476855823E+02  0.51100000000E-03 0.  1.
         12    1    3    3    0    0 -0.35106858630E+01 -0.84842753947E+01  0.28913955428E+02  0.30336853210E+02  0.00000000000E+00 0. -1.
</event>
<event>
 7    1  0.5290964E-013  0.5052886E+02  0.7816164E-02  0.1300439E+00
        -11   -1    0    0    0    0  0.00000000000E+00  0.00000000000E+00  0.45593999997E+02  0.45594000000E+02  0.51100000000E-03 0.  1.
         11   -1    0    0    0    0 -0.00000000000E+00 -0.00000000000E+00 -0.45593999997E+02  0.45594000000E+02  0.51100000000E-03 0. -1.
    9900012    2    1    2    0    0  0.37484076848E+02 -0.52505821092E+00  0.15742733470E+02  0.50528863753E+02  0.30000011863E+02 0.  0.
         12    1    1    2    0    0 -0.37484076848E+02  0.52505821092E+00 -0.15742733470E+02  0.40659136247E+02  0.00000000000E+00 0. -1.
         11    1    3    3    0    0  0.14233793541E+02 -0.16581957864E+00  0.13145183568E+02  0.19375867103E+02  0.51100000000E-03 0. -1.
        -11    1    3    3    0    0  0.63690101133E+01  0.61107754974E+01  0.83812103675E+01  0.12171711239E+02  0.51100000000E-03 0.  1.
         12    1    3    3    0    0  0.16881273194E+02 -0.64700141297E+01 -0.57836604654E+01  0.18981285411E+02  0.00000000000E+00 0. -1.
</event>
<event>
 7    1  0.5290964E-013  0.5052887E+02  0.7816164E-02  0.1300439E+00
        -11   -1    0    0    0    0  0.00000000000E+00  0.00000000000E+00  0.45593999997E+02  0.45594000000E+02  0.51100000000E-03 0.  1.
         11   -1    0    0    0    0 -0.00000000000E+00 -0.00000000000E+00 -0.45593999997E+02  0.45594000000E+02  0.51100000000E-03 0. -1.
    9900012    2    1    2    0    0 -0.32085394240E+02 -0.78663160834E+01  0.23702606482E+02  0.50528868107E+02  0.30000025098E+02 0.  0.
         12    1    1    2    0    0  0.32085394240E+02  0.78663160834E+01 -0.23702606482E+02  0.40659131893E+02  0.00000000000E+00 0. -1.
         11    1    3    3    0    0 -0.17452040569E+02  0.26021692158E-01  0.19350287238E+02  0.26057782208E+02  0.51100000000E-03 0. -1.
        -11    1    3    3    0    0 -0.67948600812E+01  0.31873880976E+01  0.74228613741E+01  0.10555966921E+02  0.51100000000E-03 0.  1.
         12    1    3    3    0    0 -0.78384935903E+01 -0.11079725873E+02 -0.30705421301E+01  0.13915118978E+02  0.00000000000E+00 0. -1.
</event>
<event>
 7    1  0.5290964E-013  0.5052886E+02  0.7816164E-02  0.1300439E+00
        -11   -1    0    0    0    0  0.00000000000E+00  0.00000000000E+00  0.45593999997E+02  0.45594000000E+02  0.51100000000E-03 0. -1.
         11   -1    0    0    0    0 -0.00000000000E+00 -0.00000000000E+00 -0.45593999997E+02  0.45594000000E+02  0.51100000000E-03 0.  1.
    9900012    2    1    2    0    0 -0.24818660336E-01 -0.10517420943E+02 -0.39275296016E+02  0.50528860358E+02  0.30000001544E+02 0.  0.
         12    1    1    2    0    0  0.24818660336E-01  0.10517420943E+02  0.39275296016E+02  0.40659139642E+02  0.00000000000E+00 0. -1.
         11    1    3    3    0    0 -0.11856986191E+01  0.74526019300E+01 -0.16995674427E+02  0.18595701284E+02  0.51100000000E-03 0. -1.
        -11    1    3    3    0    0 -0.50789923645E+00  0.96324991496E+00 -0.82192802257E+01  0.82911024431E+01  0.51100000000E-03 0.  1.
         12    1    3    3    0    0  0.16687791952E+01 -0.18933272788E+02 -0.14060341363E+02  0.23642056631E+02  0.00000000000E+00 0. -1.
</event>
<event>
 7    1  0.5290964E-013  0.5052888E+02  0.7816164E-02  0.1300439E+00
        -11   -1    0    0    0    0  0.00000000000E+00  0.00000000000E+00  0.45593999997E+02  0.45594000000E+02  0.51100000000E-03 0. -1.
         11   -1    0    0    0    0 -0.00000000000E+00 -0.00000000000E+00 -0.45593999997E+02  0.45594000000E+02  0.51100000000E-03 0.  1.
    9900012    2    1    2    0    0  0.40355711204E+02 -0.22322359410E+00 -0.49528697521E+01  0.50528878338E+02  0.30000056195E+02 0.  0.
         12    1    1    2    0    0 -0.40355711204E+02  0.22322359410E+00  0.49528697521E+01  0.40659121662E+02  0.00000000000E+00 0. -1.
         11    1    3    3    0    0 -0.22678398169E+01 -0.26885889100E+01  0.11006796937E+01  0.36855262597E+01  0.51100000000E-03 0. -1.
        -11    1    3    3    0    0  0.30848298277E+01  0.53641886873E+01  0.17653253906E+01  0.64348325024E+01  0.51100000000E-03 0.  1.
        -12    1    3    3    0    0  0.39538721194E+02 -0.28988233714E+01 -0.78188748364E+01  0.40408519575E+02  0.00000000000E+00 0.  1.
</event>
<event>
 7    1  0.5290964E-013  0.5052887E+02  0.7816164E-02  0.1300439E+00
        -11   -1    0    0    0    0  0.00000000000E+00  0.00000000000E+00  0.45593999997E+02  0.45594000000E+02  0.51100000000E-03 0.  1.
         11   -1    0    0    0    0 -0.00000000000E+00 -0.00000000000E+00 -0.45593999997E+02  0.45594000000E+02  0.51100000000E-03 0. -1.
    9900012    2    1    2    0    0  0.27041676146E+02  0.26357129917E+02  0.15073635580E+02  0.50528867743E+02  0.30000023992E+02 0.  0.
         12    1    1    2    0    0 -0.27041676146E+02 -0.26357129917E+02 -0.15073635580E+02  0.40659132257E+02  0.00000000000E+00 0. -1.
         11    1    3    3    0    0  0.87612764321E+01  0.12930923600E+02 -0.10877276507E+01  0.15657327409E+02  0.51100000000E-03 0. -1.
        -11    1    3    3    0    0  0.84200545422E+01  0.23590621185E+01 -0.41884904619E+01  0.96956663094E+01  0.51100000000E-03 0.  1.
        -12    1    3    3    0    0  0.98603451720E+01  0.11067144198E+02  0.20349853693E+02  0.25175874025E+02  0.00000000000E+00 0.  1.
</event>
<event>
 7    1  0.5290964E-013  0.5052886E+02  0.7816164E-02  0.1300439E+00
        -11   -1    0    0    0    0  0.00000000000E+00  0.00000000000E+00  0.45593999997E+02  0.45594000000E+02  0.51100000000E-03 0. -1.
         11   -1    0    0    0    0 -0.00000000000E+00 -0.00000000000E+00 -0.45593999997E+02  0.45594000000E+02  0.51100000000E-03 0.  1.
    9900012    2    1    2    0    0  0.32257382175E+02  0.24749682560E+02  0.28287129755E+00  0.50528861940E+02  0.30000006353E+02 0.  0.
         12    1    1    2    0    0 -0.32257382175E+02 -0.24749682560E+02 -0.28287129755E+00  0.40659138060E+02  0.00000000000E+00 0. -1.
         11    1    3    3    0    0  0.17731731504E+02  0.21359459875E+01 -0.78043224498E+01  0.19490613550E+02  0.51100000000E-03 0. -1.
        -11    1    3    3    0    0  0.26965047656E+01  0.14058236581E+01  0.59231764552E+01  0.66581902713E+01  0.51100000000E-03 0.  1.
        -12    1    3    3    0    0  0.11829145906E+02  0.21207912915E+02  0.21640172922E+01  0.24380058119E+02  0.00000000000E+00 0.  1.
</event>
<event>
 7    1  0.5290964E-013  0.5052886E+02  0.7816164E-02  0.1300439E+00
        -11   -1    0    0    0    0  0.00000000000E+00  0.00000000000E+00  0.45593999997E+02  0.45594000000E+02  0.51100000000E-03 0.  1.
         11   -1    0    0    0    0 -0.00000000000E+00 -0.00000000000E+00 -0.45593999997E+02  0.45594000000E+02  0.51100000000E-03 0. -1.
    9900012    2    1    2    0    0 -0.21119486335E+02 -0.31969836188E+02  0.13603781961E+02  0.50528855732E+02  0.29999987484E+02 0.  0.
         12    1    1    2    0    0  0.21119486335E+02  0.31969836188E+02 -0.13603781961E+02  0.40659144268E+02  0.00000000000E+00 0. -1.
         11    1    3    3    0    0 -0.49669601373E+01  0.22762412079E+01  0.19123240630E+01  0.57886916160E+01  0.51100000000E-03 0. -1.
        -11    1    3    3    0    0  0.19959122222E+01 -0.92995011936E+01 -0.37720403613E+01  0.10231943940E+02  0.51100000000E-03 0.  1.
        -12    1    3    3    0    0 -0.18148438420E+02 -0.24946576202E+02  0.15463498260E+02  0.34508220176E+02  0.00000000000E+00 0.  1.
</event>
<event>
 7    1  0.5290964E-013  0.5052887E+02  0.7816164E-02  0.1300439E+00
        -11   -1    0    0    0    0  0.00000000000E+00  0.00000000000E+00  0.45593999997E+02  0.45594000000E+02  0.51100000000E-03 0.  1.
         11   -1    0    0    0    0 -0.00000000000E+00 -0.00000000000E+00 -0.45593999997E+02  0.45594000000E+02  0.51100000000E-03 0. -1.
    9900012    2    1    2    0    0 -0.20655969031E+02 -0.35011837823E+02  0.81681818952E+00  0.50528867738E+02  0.30000023977E+02 0.  0.
         12    1    1    2    0    0  0.20655969031E+02  0.35011837823E+02 -0.81681818952E+00  0.40659132262E+02  0.00000000000E+00 0. -1.
         11    1    3    3    0    0 -0.15848452866E+02 -0.96341815163E+01 -0.10554316774E+01  0.18576997821E+02  0.51100000000E-03 0. -1.
        -11    1    3    3    0    0 -0.93721648448E+01 -0.10829602065E+02  0.68993914612E+01  0.15897149353E+02  0.51100000000E-03 0.  1.
         12    1    3    3    0    0  0.45646486804E+01 -0.14548054241E+02 -0.50271415943E+01  0.16054720564E+02  0.00000000000E+00 0. -1.
</event>
<event>
 7    1  0.5290964E-013  0.5052884E+02  0.7816164E-02  0.1300439E+00
        -11   -1    0    0    0    0  0.00000000000E+00  0.00000000000E+00  0.45593999997E+02  0.45594000000E+02  0.51100000000E-03 0. -1.
         11   -1    0    0    0    0 -0.00000000000E+00 -0.00000000000E+00 -0.45593999997E+02  0.45594000000E+02  0.51100000000E-03 0.  1.
    9900012    2    1    2    0    0  0.32596005207E+02 -0.17978125690E+02  0.16354039420E+02  0.50528841571E+02  0.29999944440E+02 0.  0.
         12    1    1    2    0    0 -0.32596005207E+02  0.17978125690E+02 -0.16354039420E+02  0.40659158429E+02  0.00000000000E+00 0. -1.
         11    1    3    3    0    0  0.34431693602E+02 -0.65723193988E+01  0.10468065911E+02  0.36583019432E+02  0.51100000000E-03 0. -1.
        -11    1    3    3    0    0  0.16874102715E+01 -0.52368438529E+01  0.20442147622E+01  0.58694719711E+01  0.51100000000E-03 0.  1.
         12    1    3    3    0    0 -0.35230986659E+01 -0.61689624381E+01  0.38417587468E+01  0.80763501683E+01  0.00000000000E+00 0. -1.
</event>
<event>
 7    1  0.5290964E-013  0.5052886E+02  0.7816164E-02  0.1300439E+00
        -11   -1    0    0    0    0  0.00000000000E+00  0.00000000000E+00  0.45593999997E+02  0.45594000000E+02  0.51100000000E-03 0.  1.
         11   -1    0    0    0    0 -0.00000000000E+00 -0.00000000000E+00 -0.45593999997E+02  0.45594000000E+02  0.51100000000E-03 0. -1.
    9900012    2    1    2    0    0  0.18785217163E+02  0.87563660855E+01  0.34980099197E+02  0.50528859937E+02  0.30000000264E+02 0.  0.
         12    1    1    2    0    0 -0.18785217163E+02 -0.87563660855E+01 -0.34980099197E+02  0.40659140063E+02  0.00000000000E+00 0. -1.
         11    1    3    3    0    0  0.12722848063E+01  0.43416202966E+01  0.15633396242E+02  0.16274871851E+02  0.51100000000E-03 0. -1.
        -11    1    3    3    0    0 -0.33169970960E+01  0.56231602031E+01  0.85606250108E+01  0.10765997457E+02  0.51100000000E-03 0.  1.
         12    1    3    3    0    0  0.20829929453E+02 -0.12084144142E+01  0.10786077944E+02  0.23487990629E+02  0.00000000000E+00 0. -1.
</event>
<event>
 7    1  0.5290964E-013  0.5052886E+02  0.7816164E-02  0.1300439E+00
        -11   -1    0    0    0    0  0.00000000000E+00  0.00000000000E+00  0.45593999997E+02  0.45594000000E+02  0.51100000000E-03 0.  1.
         11   -1    0    0    0    0 -0.00000000000E+00 -0.00000000000E+00 -0.45593999997E+02  0.45594000000E+02  0.51100000000E-03 0. -1.
    9900012    2    1    2    0    0 -0.16222116239E+02  0.29974875255E+02  0.22170147172E+02  0.50528860468E+02  0.30000001879E+02 0.  0.
         12    1    1    2    0    0  0.16222116239E+02 -0.29974875255E+02 -0.22170147172E+02  0.40659139532E+02  0.00000000000E+00 0. -1.
         11    1    3    3    0    0  0.17931778661E+01  0.35300084768E+00  0.34977662667E+00  0.18607633937E+01  0.51100000000E-03 0. -1.
        -11    1    3    3    0    0  0.52620645521E+01  0.20959937547E+00  0.59335417407E+01  0.79334842975E+01  0.51100000000E-03 0.  1.
        -12    1    3    3    0    0 -0.23277358658E+02  0.29412275032E+02  0.15886828805E+02  0.40734612777E+02  0.00000000000E+00 0.  1.
</event>
<event>
 7    1  0.5290964E-013  0.5052885E+02  0.7816164E-02  0.1300439E+00
        -11   -1    0    0    0    0  0.00000000000E+00  0.00000000000E+00  0.45593999997E+02  0.45594000000E+02  0.51100000000E-03 0. -1.
         11   -1    0    0    0    0 -0.00000000000E+00 -0.00000000000E+00 -0.45593999997E+02  0.45594000000E+02  0.51100000000E-03 0.  1.
    9900012    2    1    2    0    0 -0.20288667297E+02 -0.12122578085E+02 -0.33084431645E+02  0.50528849278E+02  0.29999967867E+02 0.  0.
         12    1    1    2    0    0  0.20288667297E+02  0.12122578085E+02  0.33084431645E+02  0.40659150722E+02  0.00000000000E+00 0. -1.
         11    1    3    3    0    0 -0.10392805138E+02 -0.11230079451E+02 -0.19266065706E+02  0.24602974844E+02  0.51100000000E-03 0. -1.
        -11    1    3    3    0    0 -0.97749540550E+01 -0.37408131532E+01 -0.18025526838E+02  0.20843776718E+02  0.51100000000E-03 0.  1.
         12    1    3    3    0    0 -0.12090810419E+00  0.28483145196E+01  0.42071608988E+01  0.50820977165E+01  0.00000000000E+00 0. -1.
</event>
<event>
 7    1  0.5290964E-013  0.5052887E+02  0.7816164E-02  0.1300439E+00
        -11   -1    0    0    0    0  0.00000000000E+00  0.00000000000E+00  0.45593999997E+02  0.45594000000E+02  0.51100000000E-03 0.  1.
         11   -1    0    0    0    0 -0.00000000000E+00 -0.00000000000E+00 -0.45593999997E+02  0.45594000000E+02  0.51100000000E-03 0. -1.
    9900012    2    1    2    0    0 -0.25156422046E+01 -0.20402895712E+02  0.35079319122E+02  0.50528865243E+02  0.30000016393E+02 0.  0.
         12    1    1    2    0    0  0.25156422046E+01  0.20402895712E+02 -0.35079319122E+02  0.40659134757E+02  0.00000000000E+00 0. -1.
         11    1    3    3    0    0  0.12697230432E+01  0.94248323696E-01  0.47763575550E+01  0.49431438486E+01  0.51100000000E-03 0. -1.
        -11    1    3    3    0    0 -0.10495065763E+00 -0.17454120508E+01  0.25921439828E+02  0.25980348744E+02  0.51100000000E-03 0.  1.
         12    1    3    3    0    0 -0.36804145902E+01 -0.18751731985E+02  0.43815217388E+01  0.19605372650E+02  0.00000000000E+00 0. -1.
</event>
<event>
 7    1  0.5290964E-013  0.5052887E+02  0.7816164E-02  0.1300439E+00
        -11   -1    0    0    0    0  0.00000000000E+00  0.00000000000E+00  0.45593999997E+02  0.45594000000E+02  0.51100000000E-03 0.  1.
         11   -1    0    0    0    0 -0.00000000000E+00 -0.00000000000E+00 -0.45593999997E+02  0.45594000000E+02  0.51100000000E-03 0. -1.
    9900012    2    1    2    0    0  0.19682444600E+01  0.32159843298E+02  0.24799912898E+02  0.50528865885E+02  0.30000018344E+02 0.  0.
         12    1    1    2    0    0 -0.19682444600E+01 -0.32159843298E+02 -0.24799912898E+02  0.40659134115E+02  0.00000000000E+00 0. -1.
         11    1    3    3    0    0 -0.10460183785E+01  0.79208403933E+01  0.10353811517E+01  0.80564186444E+01  0.51100000000E-03 0. -1.
        -11    1    3    3    0    0  0.91321072297E+01  0.26921768214E+02  0.20416830694E+02  0.35000342314E+02  0.51100000000E-03 0.  1.
        -12    1    3    3    0    0 -0.61178443912E+01 -0.26827653090E+01  0.33477010523E+01  0.74721049266E+01  0.00000000000E+00 0.  1.
</event>
<event>
 7    1  0.5290964E-013  0.5052886E+02  0.7816164E-02  0.1300439E+00
        -11   -1    0    0    0    0  0.00000000000E+00  0.00000000000E+00  0.45593999997E+02  0.45594000000E+02  0.51100000000E-03 0.  1.
         11   -1    0    0    0    0 -0.00000000000E+00 -0.00000000000E+00 -0.45593999997E+02  0.45594000000E+02  0.51100000000E-03 0. -1.
    9900012    2    1    2    0    0  0.33045413686E+02 -0.18865996824E+02  0.14326224274E+02  0.50528857070E+02  0.29999991550E+02 0.  0.
         12    1    1    2    0    0 -0.33045413686E+02  0.18865996824E+02 -0.14326224274E+02  0.40659142930E+02  0.00000000000E+00 0. -1.
         11    1    3    3    0    0  0.71416410369E+01 -0.59706317453E+01  0.10252604723E+02  0.13848010110E+02  0.51100000000E-03 0. -1.
        -11    1    3    3    0    0  0.21740676869E+02 -0.19006472702E+02  0.47106341337E+01  0.29259068842E+02  0.51100000000E-03 0.  1.
         12    1    3    3    0    0  0.41630957803E+01  0.61111076231E+01 -0.63701458278E+00  0.74217781182E+01  0.00000000000E+00 0. -1.
</event>
<event>
 7    1  0.5290964E-013  0.5052886E+02  0.7816164E-02  0.1300439E+00
        -11   -1    0    0    0    0  0.00000000000E+00  0.00000000000E+00  0.45593999997E+02  0.45594000000E+02  0.51100000000E-03 0.  1.
         11   -1    0    0    0    0 -0.00000000000E+00 -0.00000000000E+00 -0.45593999997E+02  0.45594000000E+02  0.51100000000E-03 0. -1.
    9900012    2    1    2    0    0  0.62905682912E+01 -0.39605715776E+02 -0.67068420067E+01  0.50528859560E+02  0.29999999120E+02 0.  0.
         12    1    1    2    0    0 -0.62905682912E+01  0.39605715776E+02  0.67068420067E+01  0.40659140440E+02  0.00000000000E+00 0. -1.
         11    1    3    3    0    0  0.11511859543E+02 -0.19343442217E+02 -0.55186052790E+01  0.23176424906E+02  0.51100000000E-03 0. -1.
        -11    1    3    3    0    0 -0.96770306049E+01 -0.12170021490E+02 -0.63212281408E+01  0.16784286397E+02  0.51100000000E-03 0.  1.
         12    1    3    3    0    0  0.44557393528E+01 -0.80922520694E+01  0.51329914132E+01  0.10568148257E+02  0.00000000000E+00 0. -1.
</event>
<event>
 7    1  0.5290964E-013  0.5052886E+02  0.7816164E-02  0.1300439E+00
        -11   -1    0    0    0    0  0.00000000000E+00  0.00000000000E+00  0.45593999997E+02  0.45594000000E+02  0.51100000000E-03 0.  1.
         11   -1    0    0    0    0 -0.00000000000E+00 -0.00000000000E+00 -0.45593999997E+02  0.45594000000E+02  0.51100000000E-03 0. -1.
    9900012    2    1    2    0    0  0.35727529520E+02  0.12965457181E+02  0.14443209002E+02  0.50528859185E+02  0.29999997980E+02 0.  0.
         12    1    1    2    0    0 -0.35727529520E+02 -0.12965457181E+02 -0.14443209002E+02  0.40659140815E+02  0.00000000000E+00 0. -1.
         11    1    3    3    0    0  0.13335260297E+02  0.22626993056E+01 -0.28454562355E+01  0.13821924496E+02  0.51100000000E-03 0. -1.
        -11    1    3    3    0    0  0.23765511584E+02  0.14838102086E+02  0.15198222406E+02  0.31874045538E+02  0.51100000000E-03 0.  1.
         12    1    3    3    0    0 -0.13732423611E+01 -0.41353442102E+01  0.20904428318E+01  0.48328891516E+01  0.00000000000E+00 0. -1.
</event>
<event>
 7    1  0.5290964E-013  0.5052886E+02  0.7816164E-02  0.1300439E+00
        -11   -1    0    0    0    0  0.00000000000E+00  0.00000000000E+00  0.45593999997E+02  0.45594000000E+02  0.51100000000E-03 0.  1.
         11   -1    0    0    0    0 -0.00000000000E+00 -0.00000000000E+00 -0.45593999997E+02  0.45594000000E+02  0.51100000000E-03 0. -1.
    9900012    2    1    2    0    0 -0.33922698288E+02  0.48506347798E+01  0.21883506329E+02  0.50528856303E+02  0.29999989219E+02 0.  0.
         12    1    1    2    0    0  0.33922698288E+02 -0.48506347798E+01 -0.21883506329E+02  0.40659143697E+02  0.00000000000E+00 0. -1.
         11    1    3    3    0    0 -0.11844156474E+02  0.97657604462E+01  0.33736943439E+01  0.15717376800E+02  0.51100000000E-03 0. -1.
        -11    1    3    3    0    0 -0.12609174001E+02  0.28030231484E+01  0.34589446042E+00  0.12921604041E+02  0.51100000000E-03 0.  1.
        -12    1    3    3    0    0 -0.94693678135E+01 -0.77181488149E+01  0.18163917525E+02  0.21889875463E+02  0.00000000000E+00 0.  1.
</event>
<event>
 7    1  0.5290964E-013  0.5052886E+02  0.7816164E-02  0.1300439E+00
        -11   -1    0    0    0    0  0.00000000000E+00  0.00000000000E+00  0.45593999997E+02  0.45594000000E+02  0.51100000000E-03 0.  1.
         11   -1    0    0    0    0 -0.00000000000E+00 -0.00000000000E+00 -0.45593999997E+02  0.45594000000E+02  0.51100000000E-03 0. -1.
    9900012    2    1    2    0    0 -0.87542067230E+01 -0.36413380705E+02  0.15830193230E+02  0.50528862683E+02  0.30000008611E+02 0.  0.
         12    1    1    2    0    0  0.87542067230E+01  0.36413380705E+02 -0.15830193230E+02  0.40659137317E+02  0.00000000000E+00 0. -1.
         11    1    3    3    0    0 -0.15301635921E+02 -0.18669511469E+02  0.79734840088E+01  0.25421785300E+02  0.51100000000E-03 0. -1.
        -11    1    3    3    0    0 -0.46431305299E+01 -0.41180585634E+01  0.17649418480E+01  0.64522931921E+01  0.51100000000E-03 0.  1.
         12    1    3    3    0    0  0.11190559727E+02 -0.13625810672E+02  0.60917673728E+01  0.18654784191E+02  0.00000000000E+00 0. -1.
</event>
<event>
 7    1  0.5290964E-013  0.5052886E+02  0.7816164E-02  0.1300439E+00
        -11   -1    0    0    0    0  0.00000000000E+00  0.00000000000E+00  0.45593999997E+02  0.45594000000E+02  0.51100000000E-03 0. -1.
         11   -1    0    0    0    0 -0.00000000000E+00 -0.00000000000E+00 -0.45593999997E+02  0.45594000000E+02  0.51100000000E-03 0.  1.
    9900012    2    1    2    0    0  0.29306391100E+02  0.77268219790E+01 -0.27103458085E+02  0.50528858624E+02  0.29999996275E+02 0.  0.
         12    1    1    2    0    0 -0.29306391100E+02 -0.77268219790E+01  0.27103458085E+02  0.40659141376E+02  0.00000000000E+00 0. -1.
         11    1    3    3    0    0  0.23760739082E+01  0.10772514641E+02 -0.62508910269E+01  0.12679370560E+02  0.51100000000E-03 0. -1.
        -11    1    3    3    0    0  0.15064213261E+02  0.53054468151E+01 -0.15850043780E+02  0.22501159418E+02  0.51100000000E-03 0.  1.
         12    1    3    3    0    0  0.11866103931E+02 -0.83511394773E+01 -0.50025232785E+01  0.15348328646E+02  0.00000000000E+00 0. -1.
</event>
<event>
 7    1  0.5290964E-013  0.5052881E+02  0.7816164E-02  0.1300439E+00
        -11   -1    0    0    0    0  0.00000000000E+00  0.00000000000E+00  0.45593999997E+02  0.45594000000E+02  0.51100000000E-03 0.  1.
         11   -1    0    0    0    0 -0.00000000000E+00 -0.00000000000E+00 -0.45593999997E+02  0.45594000000E+02  0.51100000000E-03 0. -1.
    9900012    2    1    2    0    0  0.12202297265E+02 -0.10148313203E+02  0.37433746514E+02  0.50528810417E+02  0.29999849744E+02 0.  0.
         12    1    1    2    0    0 -0.12202297265E+02  0.10148313203E+02 -0.37433746514E+02  0.40659189583E+02  0.00000000000E+00 0. -1.
         11    1    3    3    0    0  0.19175817045E+00 -0.14169831250E+02  0.73695117867E+01  0.15972807927E+02  0.51100000000E-03 0. -1.
        -11    1    3    3    0    0  0.80139410055E+00 -0.34485515023E+01  0.70646088675E+01  0.79021160887E+01  0.51100000000E-03 0.  1.
        -12    1    3    3    0    0  0.11209144994E+02  0.74700695494E+01  0.22999625860E+02  0.26653886401E+02  0.00000000000E+00 0.  1.
</event>
<event>
 7    1  0.5290964E-013  0.5052887E+02  0.7816164E-02  0.1300439E+00
        -11   -1    0    0    0    0  0.00000000000E+00  0.00000000000E+00  0.45593999997E+02  0.45594000000E+02  0.51100000000E-03 0.  1.
         11   -1    0    0    0    0 -0.00000000000E+00 -0.00000000000E+00 -0.45593999997E+02  0.45594000000E+02  0.51100000000E-03 0. -1.
    9900012    2    1    2    0    0 -0.44401883545E+01 -0.17367144204E+02  0.36494274421E+02  0.50528867742E+02  0.30000023989E+02 0.  0.
         12    1    1    2    0    0  0.44401883545E+01  0.17367144204E+02 -0.36494274421E+02  0.40659132258E+02  0.00000000000E+00 0. -1.
         11    1    3    3    0    0  0.50788109387E+01 -0.82847649963E+01  0.85342121463E+00  0.97549976743E+01  0.51100000000E-03 0. -1.
        -11    1    3    3    0    0 -0.21244967516E+01  0.41289876091E+01  0.75800840562E+01  0.88893025420E+01  0.51100000000E-03 0.  1.
        -12    1    3    3    0    0 -0.73945025417E+01 -0.13211366817E+02  0.28060769150E+02  0.31884567526E+02  0.00000000000E+00 0.  1.
</event>
<event>
 7    1  0.5290964E-013  0.5052886E+02  0.7816164E-02  0.1300439E+00
        -11   -1    0    0    0    0  0.00000000000E+00  0.00000000000E+00  0.45593999997E+02  0.45594000000E+02  0.51100000000E-03 0. -1.
         11   -1    0    0    0    0 -0.00000000000E+00 -0.00000000000E+00 -0.45593999997E+02  0.45594000000E+02  0.51100000000E-03 0.  1.
    9900012    2    1    2    0    0  0.86359123341E+00  0.68402254090E+00 -0.40644211129E+02  0.50528861114E+02  0.30000003843E+02 0.  0.
         12    1    1    2    0    0 -0.86359123341E+00 -0.68402254090E+00  0.40644211129E+02  0.40659138886E+02  0.00000000000E+00 0. -1.
         11    1    3    3    0    0 -0.50004677772E+00 -0.54352157544E+01 -0.29320716697E+02  0.29824420279E+02  0.51100000000E-03 0.  1.
        -11    1    3    3    0    0  0.17851284786E+01  0.20625787083E+01 -0.14980301566E+02  0.15226632913E+02  0.51100000000E-03 0. -1.
         12    1    3    3    0    0 -0.42149046742E+00  0.40566595870E+01  0.36568071341E+01  0.54778079224E+01  0.00000000000E+00 0. -1.
</event>
<event>
 7    1  0.5290964E-013  0.5052889E+02  0.7816164E-02  0.1300439E+00
        -11   -1    0    0    0    0  0.00000000000E+00  0.00000000000E+00  0.45593999997E+02  0.45594000000E+02  0.51100000000E-03 0.  1.
         11   -1    0    0    0    0 -0.00000000000E+00 -0.00000000000E+00 -0.45593999997E+02  0.45594000000E+02  0.51100000000E-03 0. -1.
    9900012    2    1    2    0    0 -0.26780716670E+01  0.53122648118E+01  0.40221520821E+02  0.50528893241E+02  0.30000101495E+02 0.  0.
         12    1    1    2    0    0  0.26780716670E+01 -0.53122648118E+01 -0.40221520821E+02  0.40659106759E+02  0.00000000000E+00 0. -1.
         11    1    3    3    0    0  0.29574447414E+01  0.10136037990E+02  0.17648039340E+02  0.20565481720E+02  0.51100000000E-03 0. -1.
        -11    1    3    3    0    0  0.50876521586E+01 -0.56818536754E+00  0.15747136419E+02  0.16558361778E+02  0.51100000000E-03 0.  1.
        -12    1    3    3    0    0 -0.10723168567E+02 -0.42555878112E+01  0.68263450615E+01  0.13405049744E+02  0.00000000000E+00 0.  1.
</event>
<event>
 7    1  0.5290964E-013  0.5052887E+02  0.7816164E-02  0.1300439E+00
        -11   -1    0    0    0    0  0.00000000000E+00  0.00000000000E+00  0.45593999997E+02  0.45594000000E+02  0.51100000000E-03 0.  1.
         11   -1    0    0    0    0 -0.00000000000E+00 -0.00000000000E+00 -0.45593999997E+02  0.45594000000E+02  0.51100000000E-03 0. -1.
    9900012    2    1    2    0    0 -0.28976932531E+02  0.25437748313E+02  0.12900526020E+02  0.50528865359E+02  0.30000016745E+02 0.  0.
         12    1    1    2    0    0  0.28976932531E+02 -0.25437748313E+02 -0.12900526020E+02  0.40659134641E+02  0.00000000000E+00 0. -1.
         11    1    3    3    0    0 -0.14427346545E+02  0.10551434084E+02 -0.13535299600E+01  0.17925209432E+02  0.51100000000E-03 0. -1.
        -11    1    3    3    0    0 -0.10809641769E+02  0.12874071907E+02 -0.93072522334E+00  0.16836161449E+02  0.51100000000E-03 0.  1.
         12    1    3    3    0    0 -0.37399442178E+01  0.20122423218E+01  0.15184781204E+02  0.15767494478E+02  0.00000000000E+00 0. -1.
</event>
<event>
 7    1  0.5290964E-013  0.5052886E+02  0.7816164E-02  0.1300439E+00
        -11   -1    0    0    0    0  0.00000000000E+00  0.00000000000E+00  0.45593999997E+02  0.45594000000E+02  0.51100000000E-03 0. -1.
         11   -1    0    0    0    0 -0.00000000000E+00 -0.00000000000E+00 -0.45593999997E+02  0.45594000000E+02  0.51100000000E-03 0.  1.
    9900012    2    1    2    0    0  0.35793499039E+02 -0.11095020677E+02 -0.15776306954E+02  0.50528856891E+02  0.29999991004E+02 0.  0.
         12    1    1    2    0    0 -0.35793499039E+02  0.11095020677E+02  0.15776306954E+02  0.40659143109E+02  0.00000000000E+00 0. -1.
         11    1    3    3    0    0  0.12083854214E+00  0.86754584788E+00 -0.14825674462E+00  0.88837946559E+00  0.51100000000E-03 0. -1.
        -11    1    3    3    0    0  0.18503897595E+02  0.47109199488E+01 -0.17142002754E+02  0.25659993212E+02  0.51100000000E-03 0.  1.
         12    1    3    3    0    0  0.17168762902E+02 -0.16673486474E+02  0.15139525445E+01  0.23980484213E+02  0.00000000000E+00 0. -1.
</event>
<event>
 7    1  0.5290964E-013  0.5052886E+02  0.7816164E-02  0.1300439E+00
        -11   -1    0    0    0    0  0.00000000000E+00  0.00000000000E+00  0.45593999997E+02  0.45594000000E+02  0.51100000000E-03 0. -1.
         11   -1    0    0    0    0 -0.00000000000E+00 -0.00000000000E+00 -0.45593999997E+02  0.45594000000E+02  0.51100000000E-03 0.  1.
    9900012    2    1    2    0    0 -0.40534133897E+02  0.29910026582E+01  0.10971030328E+01  0.50528859050E+02  0.29999997569E+02 0.  0.
         12    1    1    2    0    0  0.40534133897E+02 -0.29910026582E+01 -0.10971030328E+01  0.40659140950E+02  0.00000000000E+00 0. -1.
         11    1    3    3    0    0 -0.83351796337E+00  0.27894613802E+01  0.62676111964E+00  0.29780323620E+01  0.51100000000E-03 0. -1.
        -11    1    3    3    0    0 -0.35267184423E+02  0.97516445127E+01  0.30280053166E+01  0.36715632696E+02  0.51100000000E-03 0.  1.
         12    1    3    3    0    0 -0.44334315112E+01 -0.95501032347E+01 -0.25576634034E+01  0.10835193992E+02  0.00000000000E+00 0. -1.
</event>
<event>
 7    1  0.5290964E-013  0.5052886E+02  0.7816164E-02  0.1300439E+00
        -11   -1    0    0    0    0  0.00000000000E+00  0.00000000000E+00  0.45593999997E+02  0.45594000000E+02  0.51100000000E-03 0.  1.
         11   -1    0    0    0    0 -0.00000000000E+00 -0.00000000000E+00 -0.45593999997E+02  0.45594000000E+02  0.51100000000E-03 0. -1.
    9900012    2    1    2    0    0  0.30414733980E+01 -0.39041446721E+02  0.10939859737E+02  0.50528860147E+02  0.30000000904E+02 0.  0.
         12    1    1    2    0    0 -0.30414733980E+01  0.39041446721E+02 -0.10939859737E+02  0.40659139853E+02  0.00000000000E+00 0. -1.
         11    1    3    3    0    0 -0.42280759316E+01  0.15640038399E+01  0.18405343703E+01  0.48693224502E+01  0.51100000000E-03 0. -1.
        -11    1    3    3    0    0  0.38006988825E+01  0.17868208826E+00  0.10066179800E+01  0.39357997031E+01  0.51100000000E-03 0.  1.
        -12    1    3    3    0    0  0.34688504471E+01 -0.40784132649E+02  0.80927073866E+01  0.41723737994E+02  0.00000000000E+00 0.  1.
</event>
<event>
 7    1  0.5290964E-013  0.5052886E+02  0.7816164E-02  0.1300439E+00
        -11   -1    0    0    0    0  0.00000000000E+00  0.00000000000E+00  0.45593999997E+02  0.45594000000E+02  0.51100000000E-03 0. -1.
         11   -1    0    0    0    0 -0.00000000000E+00 -0.00000000000E+00 -0.45593999997E+02  0.45594000000E+02  0.51100000000E-03 0.  1.
    9900012    2    1    2    0    0 -0.34295856845E+02  0.20214003184E+02 -0.82676258363E+01  0.50528863777E+02  0.30000011936E+02 0.  0.
         12    1    1    2    0    0  0.34295856845E+02 -0.20214003184E+02  0.82676258363E+01  0.40659136223E+02  0.00000000000E+00 0. -1.
         11    1    3    3    0    0 -0.49546470266E+01  0.22101524693E+01  0.29732909752E+01  0.61865790692E+01  0.51100000000E-03 0. -1.
        -11    1    3    3    0    0 -0.16415874355E+02 -0.27876561905E+00  0.44389771487E+01  0.17007738224E+02  0.51100000000E-03 0.  1.
        -12    1    3    3    0    0 -0.12925335463E+02  0.18282616334E+02 -0.15679893960E+02  0.27334546484E+02  0.00000000000E+00 0.  1.
</event>
<event>
 7    1  0.5290964E-013  0.5052886E+02  0.7816164E-02  0.1300439E+00
        -11   -1    0    0    0    0  0.00000000000E+00  0.00000000000E+00  0.45593999997E+02  0.45594000000E+02  0.51100000000E-03 0. -1.
         11   -1    0    0    0    0 -0.00000000000E+00 -0.00000000000E+00 -0.45593999997E+02  0.45594000000E+02  0.51100000000E-03 0.  1.
    9900012    2    1    2    0    0  0.36920220118E+02  0.16747913356E+02 -0.30936072615E+01  0.50528860053E+02  0.30000000617E+02 0.  0.
         12    1    1    2    0    0 -0.36920220118E+02 -0.16747913356E+02  0.30936072615E+01  0.40659139947E+02  0.00000000000E+00 0. -1.
         11    1    3    3    0    0  0.27503557492E+01  0.72248886962E+01 -0.22438899425E+01  0.80497525275E+01  0.51100000000E-03 0. -1.
        -11    1    3    3    0    0  0.69356002451E+01  0.13153418220E+02  0.12589861282E+01  0.14923136667E+02  0.51100000000E-03 0.  1.
         12    1    3    3    0    0  0.27234264124E+02 -0.36303935603E+01 -0.21087034472E+01  0.27555970859E+02  0.00000000000E+00 0. -1.
</event>
<event>
 7    1  0.5290964E-013  0.5052883E+02  0.7816164E-02  0.1300439E+00
        -11   -1    0    0    0    0  0.00000000000E+00  0.00000000000E+00  0.45593999997E+02  0.45594000000E+02  0.51100000000E-03 0.  1.
         11   -1    0    0    0    0 -0.00000000000E+00 -0.00000000000E+00 -0.45593999997E+02  0.45594000000E+02  0.51100000000E-03 0. -1.
    9900012    2    1    2    0    0  0.23520234738E+02 -0.24227168056E+02  0.22649744703E+02  0.50528830687E+02  0.29999911355E+02 0.  0.
         12    1    1    2    0    0 -0.23520234738E+02  0.24227168056E+02 -0.22649744703E+02  0.40659169313E+02  0.00000000000E+00 0. -1.
         11    1    3    3    0    0  0.11700251760E+02 -0.42885984155E+01  0.12123590754E+01  0.12520294821E+02  0.51100000000E-03 0. -1.
        -11    1    3    3    0    0  0.14321408768E+02 -0.13603149365E+02  0.52372320248E+01  0.20434701400E+02  0.51100000000E-03 0.  1.
         12    1    3    3    0    0 -0.25014257910E+01 -0.63354202755E+01  0.16200153603E+02  0.17573834465E+02  0.00000000000E+00 0. -1.
</event>
<event>
 7    1  0.5290964E-013  0.5052885E+02  0.7816164E-02  0.1300439E+00
        -11   -1    0    0    0    0  0.00000000000E+00  0.00000000000E+00  0.45593999997E+02  0.45594000000E+02  0.51100000000E-03 0. -1.
         11   -1    0    0    0    0 -0.00000000000E+00 -0.00000000000E+00 -0.45593999997E+02  0.45594000000E+02  0.51100000000E-03 0.  1.
    9900012    2    1    2    0    0 -0.13702062008E+02 -0.15773787337E+02 -0.34879900012E+02  0.50528852259E+02  0.29999976926E+02 0.  0.
         12    1    1    2    0    0  0.13702062008E+02  0.15773787337E+02  0.34879900012E+02  0.40659147741E+02  0.00000000000E+00 0. -1.
         11    1    3    3    0    0 -0.23121851071E+01 -0.16702432712E+00 -0.17517184597E+02  0.17669913796E+02  0.51100000000E-03 0. -1.
        -11    1    3    3    0    0 -0.79255965852E+01  0.24039565300E+01 -0.11159348638E+01  0.83569970152E+01  0.51100000000E-03 0.  1.
         12    1    3    3    0    0 -0.34642803154E+01 -0.18010719540E+02 -0.16246780551E+02  0.24501941448E+02  0.00000000000E+00 0. -1.
</event>
<event>
 7    1  0.5290964E-013  0.5052885E+02  0.7816164E-02  0.1300439E+00
        -11   -1    0    0    0    0  0.00000000000E+00  0.00000000000E+00  0.45593999997E+02  0.45594000000E+02  0.51100000000E-03 0.  1.
         11   -1    0    0    0    0 -0.00000000000E+00 -0.00000000000E+00 -0.45593999997E+02  0.45594000000E+02  0.51100000000E-03 0. -1.
    9900012    2    1    2    0    0  0.93037271569E+01 -0.17859683792E+02  0.35321937100E+02  0.50528845008E+02  0.29999954886E+02 0.  0.
         12    1    1    2    0    0 -0.93037271569E+01  0.17859683792E+02 -0.35321937100E+02  0.40659154992E+02  0.00000000000E+00 0. -1.
         11    1    3    3    0    0 -0.93331758948E+01 -0.49852334280E+01  0.10637598439E+02  0.15003973654E+02  0.51100000000E-03 0. -1.
        -11    1    3    3    0    0 -0.66608389231E-02 -0.39887618134E+01  0.81319898619E+01  0.90575672532E+01  0.51100000000E-03 0.  1.
         12    1    3    3    0    0  0.18643563891E+02 -0.88856885507E+01  0.16552348800E+02  0.26467304101E+02  0.00000000000E+00 0. -1.
</event>
<event>
 7    1  0.5290964E-013  0.5052886E+02  0.7816164E-02  0.1300439E+00
        -11   -1    0    0    0    0  0.00000000000E+00  0.00000000000E+00  0.45593999997E+02  0.45594000000E+02  0.51100000000E-03 0.  1.
         11   -1    0    0    0    0 -0.00000000000E+00 -0.00000000000E+00 -0.45593999997E+02  0.45594000000E+02  0.51100000000E-03 0. -1.
    9900012    2    1    2    0    0 -0.21683780404E+02  0.33665516435E+02 -0.70435917386E+01  0.50528861863E+02  0.30000006120E+02 0.  0.
         12    1    1    2    0    0  0.21683780404E+02 -0.33665516435E+02  0.70435917386E+01  0.40659138137E+02  0.00000000000E+00 0. -1.
         11    1    3    3    0    0 -0.11393622571E+02  0.87640293173E+01  0.26604243242E+01  0.14618505499E+02  0.51100000000E-03 0. -1.
        -11    1    3    3    0    0 -0.11003781644E+02  0.24163700772E+02 -0.40444228622E+00  0.26554306982E+02  0.51100000000E-03 0.  1.
         12    1    3    3    0    0  0.71362381039E+00  0.73778634550E+00 -0.92995737766E+01  0.93560493832E+01  0.00000000000E+00 0. -1.
</event>
<event>
 7    1  0.5290964E-013  0.5052886E+02  0.7816164E-02  0.1300439E+00
        -11   -1    0    0    0    0  0.00000000000E+00  0.00000000000E+00  0.45593999997E+02  0.45594000000E+02  0.51100000000E-03 0.  1.
         11   -1    0    0    0    0 -0.00000000000E+00 -0.00000000000E+00 -0.45593999997E+02  0.45594000000E+02  0.51100000000E-03 0. -1.
    9900012    2    1    2    0    0 -0.20234260925E+02  0.19498823842E+02  0.29385980877E+02  0.50528864268E+02  0.30000013428E+02 0.  0.
         12    1    1    2    0    0  0.20234260925E+02 -0.19498823842E+02 -0.29385980877E+02  0.40659135732E+02  0.00000000000E+00 0. -1.
         11    1    3    3    0    0 -0.19763368985E+00  0.81285877936E+01  0.13904250747E+02  0.16107178142E+02  0.51100000000E-03 0. -1.
        -11    1    3    3    0    0  0.29259127279E+01  0.49839485826E+01  0.71043803423E+01  0.91582164789E+01  0.51100000000E-03 0.  1.
         12    1    3    3    0    0 -0.22962539963E+02  0.63862874659E+01  0.83773497880E+01  0.25263469647E+02  0.00000000000E+00 0. -1.
</event>
<event>
 7    1  0.5290964E-013  0.5052888E+02  0.7816164E-02  0.1300439E+00
        -11   -1    0    0    0    0  0.00000000000E+00  0.00000000000E+00  0.45593999997E+02  0.45594000000E+02  0.51100000000E-03 0.  1.
         11   -1    0    0    0    0 -0.00000000000E+00 -0.00000000000E+00 -0.45593999997E+02  0.45594000000E+02  0.51100000000E-03 0. -1.
    9900012    2    1    2    0    0  0.29214446572E+02  0.39332558901E+01  0.28003748347E+02  0.50528876647E+02  0.30000051056E+02 0.  0.
         12    1    1    2    0    0 -0.29214446572E+02 -0.39332558901E+01 -0.28003748347E+02  0.40659123353E+02  0.00000000000E+00 0. -1.
         11    1    3    3    0    0  0.53419694271E+01 -0.31879264039E+01  0.21517352110E+02  0.22398570361E+02  0.51100000000E-03 0. -1.
        -11    1    3    3    0    0  0.43458613709E+01  0.24709722005E+01  0.63183472341E+01  0.80569055289E+01  0.51100000000E-03 0.  1.
        -12    1    3    3    0    0  0.19526615774E+02  0.46502100935E+01  0.16804900253E+00  0.20073400757E+02  0.00000000000E+00 0.  1.
</event>
<event>
 7    1  0.5290964E-013  0.5052887E+02  0.7816164E-02  0.1300439E+00
        -11   -1    0    0    0    0  0.00000000000E+00  0.00000000000E+00  0.45593999997E+02  0.45594000000E+02  0.51100000000E-03 0.  1.
         11   -1    0    0    0    0 -0.00000000000E+00 -0.00000000000E+00 -0.45593999997E+02  0.45594000000E+02  0.51100000000E-03 0. -1.
    9900012    2    1    2    0    0  0.11934890063E+02 -0.38101897046E+02  0.76791269468E+01  0.50528866340E+02  0.30000019728E+02 0.  0.
         12    1    1    2    0    0 -0.11934890063E+02  0.38101897046E+02 -0.76791269468E+01  0.40659133660E+02  0.00000000000E+00 0. -1.
         11    1    3    3    0    0  0.35913707157E+01  0.60037171899E+00 -0.18960207735E+01  0.41052752470E+01  0.51100000000E-03 0. -1.
        -11    1    3    3    0    0  0.53267422599E+01 -0.64779448985E+00 -0.31040954053E+01  0.61991313384E+01  0.51100000000E-03 0.  1.
        -12    1    3    3    0    0  0.30167770873E+01 -0.38054474275E+02  0.12679243126E+02  0.40224459755E+02  0.00000000000E+00 0.  1.
</event>
<event>
 7    1  0.5290964E-013  0.5052886E+02  0.7816164E-02  0.1300439E+00
        -11   -1    0    0    0    0  0.00000000000E+00  0.00000000000E+00  0.45593999997E+02  0.45594000000E+02  0.51100000000E-03 0.  1.
         11   -1    0    0    0    0 -0.00000000000E+00 -0.00000000000E+00 -0.45593999997E+02  0.45594000000E+02  0.51100000000E-03 0. -1.
    9900012    2    1    2    0    0 -0.17991872927E+02  0.11580565808E+02  0.34573811904E+02  0.50528862461E+02  0.30000007937E+02 0.  0.
         12    1    1    2    0    0  0.17991872927E+02 -0.11580565808E+02 -0.34573811904E+02  0.40659137539E+02  0.00000000000E+00 0. -1.
         11    1    3    3    0    0 -0.40866821067E+01  0.91597935140E+01  0.16549132633E+02  0.19351397341E+02  0.51100000000E-03 0. -1.
        -11    1    3    3    0    0 -0.13939793127E+02  0.10063532215E+02  0.15443644859E+02  0.23110575065E+02  0.51100000000E-03 0.  1.
         12    1    3    3    0    0  0.34602306456E-01 -0.76427599211E+01  0.25810344118E+01  0.80668900554E+01  0.00000000000E+00 0. -1.
</event>
<event>
 7    1  0.5290964E-013  0.5052886E+02  0.7816164E-02  0.1300439E+00
        -11   -1    0    0    0    0  0.00000000000E+00  0.00000000000E+00  0.45593999997E+02  0.45594000000E+02  0.51100000000E-03 0.  1.
         11   -1    0    0    0    0 -0.00000000000E+00 -0.00000000000E+00 -0.45593999997E+02  0.45594000000E+02  0.51100000000E-03 0. -1.
    9900012    2    1    2    0    0 -0.11041877659E+02 -0.17815060564E+02  0.34840577347E+02  0.50528864802E+02  0.30000015053E+02 0.  0.
         12    1    1    2    0    0  0.11041877659E+02  0.17815060564E+02 -0.34840577347E+02  0.40659135198E+02  0.00000000000E+00 0. -1.
         11    1    3    3    0    0 -0.14242065944E+01 -0.54237962659E+01  0.12615869855E+02  0.13806016906E+02  0.51100000000E-03 0.  1.
        -11    1    3    3    0    0  0.59317402434E+00 -0.10185470962E+02 -0.19502096472E+01  0.10387443962E+02  0.51100000000E-03 0. -1.
         12    1    3    3    0    0 -0.10210845089E+02 -0.22057933367E+01  0.24174917139E+02  0.26335403934E+02  0.00000000000E+00 0. -1.
</event>
<event>
 7    1  0.5290964E-013  0.5052886E+02  0.7816164E-02  0.1300439E+00
        -11   -1    0    0    0    0  0.00000000000E+00  0.00000000000E+00  0.45593999997E+02  0.45594000000E+02  0.51100000000E-03 0. -1.
         11   -1    0    0    0    0 -0.00000000000E+00 -0.00000000000E+00 -0.45593999997E+02  0.45594000000E+02  0.51100000000E-03 0.  1.
    9900012    2    1    2    0    0  0.16479640464E+02 -0.26132045607E+02 -0.26433001111E+02  0.50528857053E+02  0.29999991499E+02 0.  0.
         12    1    1    2    0    0 -0.16479640464E+02  0.26132045607E+02  0.26433001111E+02  0.40659142947E+02  0.00000000000E+00 0. -1.
         11    1    3    3    0    0  0.99926130415E+01 -0.15927899645E+02 -0.79188152930E+01  0.20402400310E+02  0.51100000000E-03 0.  1.
        -11    1    3    3    0    0  0.28834319576E+01  0.60115443989E+01 -0.82202547987E+01  0.10584206873E+02  0.51100000000E-03 0. -1.
         12    1    3    3    0    0  0.36035954644E+01 -0.16215690361E+02 -0.10293931020E+02  0.19542249870E+02  0.00000000000E+00 0. -1.
</event>
<event>
 7    1  0.5290964E-013  0.5052885E+02  0.7816164E-02  0.1300439E+00
        -11   -1    0    0    0    0  0.00000000000E+00  0.00000000000E+00  0.45593999997E+02  0.45594000000E+02  0.51100000000E-03 0. -1.
         11   -1    0    0    0    0 -0.00000000000E+00 -0.00000000000E+00 -0.45593999997E+02  0.45594000000E+02  0.51100000000E-03 0.  1.
    9900012    2    1    2    0    0 -0.15849066219E+02  0.17719290698E+02 -0.32984847934E+02  0.50528851508E+02  0.29999974644E+02 0.  0.
         12    1    1    2    0    0  0.15849066219E+02 -0.17719290698E+02  0.32984847934E+02  0.40659148492E+02  0.00000000000E+00 0. -1.
         11    1    3    3    0    0  0.15167872243E+01  0.62228758498E+01 -0.26719259229E+01  0.69400299513E+01  0.51100000000E-03 0.  1.
        -11    1    3    3    0    0 -0.65391740622E+00  0.13418722377E+02 -0.79688978226E+01  0.15620276917E+02  0.51100000000E-03 0. -1.
        -12    1    3    3    0    0 -0.16711936037E+02 -0.19223075281E+01 -0.22344024188E+02  0.27968544640E+02  0.00000000000E+00 0.  1.
</event>
<event>
 7    1  0.5290964E-013  0.5052886E+02  0.7816164E-02  0.1300439E+00
        -11   -1    0    0    0    0  0.00000000000E+00  0.00000000000E+00  0.45593999997E+02  0.45594000000E+02  0.51100000000E-03 0.  1.
         11   -1    0    0    0    0 -0.00000000000E+00 -0.00000000000E+00 -0.45593999997E+02  0.45594000000E+02  0.51100000000E-03 0. -1.
    9900012    2    1    2    0    0  0.34736624717E+02 -0.92746114948E+01  0.18987213086E+02  0.50528858643E+02  0.29999996333E+02 0.  0.
         12    1    1    2    0    0 -0.34736624717E+02  0.92746114948E+01 -0.18987213086E+02  0.40659141357E+02  0.00000000000E+00 0. -1.
         11    1    3    3    0    0  0.68106268598E+01 -0.60113439296E+01  0.15573034584E+02  0.18028874077E+02  0.51100000000E-03 0. -1.
        -11    1    3    3    0    0  0.36885349360E+01 -0.20307147260E+01  0.67980659880E+01  0.79964238076E+01  0.51100000000E-03 0.  1.
         12    1    3    3    0    0  0.24237462921E+02 -0.12325528392E+01 -0.33838874864E+01  0.24503560759E+02  0.00000000000E+00 0. -1.
</event>
<event>
 7    1  0.5290964E-013  0.5052887E+02  0.7816164E-02  0.1300439E+00
        -11   -1    0    0    0    0  0.00000000000E+00  0.00000000000E+00  0.45593999997E+02  0.45594000000E+02  0.51100000000E-03 0. -1.
         11   -1    0    0    0    0 -0.00000000000E+00 -0.00000000000E+00 -0.45593999997E+02  0.45594000000E+02  0.51100000000E-03 0.  1.
    9900012    2    1    2    0    0 -0.22558275466E+02 -0.11046818920E+01 -0.33809294157E+02  0.50528874512E+02  0.30000044567E+02 0.  0.
         12    1    1    2    0    0  0.22558275466E+02  0.11046818920E+01  0.33809294157E+02  0.40659125488E+02  0.00000000000E+00 0. -1.
         11    1    3    3    0    0 -0.12625098637E+02  0.33831458805E+01 -0.25889604573E+01  0.13324470276E+02  0.51100000000E-03 0. -1.
        -11    1    3    3    0    0 -0.28372008781E+01  0.64457076857E+01 -0.13241340357E+02  0.14997664855E+02  0.51100000000E-03 0.  1.
         12    1    3    3    0    0 -0.70959759512E+01 -0.10933535458E+02 -0.17978993343E+02  0.22206739381E+02  0.00000000000E+00 0. -1.
</event>
<event>
 7    1  0.5290964E-013  0.5052886E+02  0.7816164E-02  0.1300439E+00
        -11   -1    0    0    0    0  0.00000000000E+00  0.00000000000E+00  0.45593999997E+02  0.45594000000E+02  0.51100000000E-03 0.  1.
         11   -1    0    0    0    0 -0.00000000000E+00 -0.00000000000E+00 -0.45593999997E+02  0.45594000000E+02  0.51100000000E-03 0. -1.
    9900012    2    1    2    0    0 -0.31266313384E+02 -0.36541443757E+01  0.25733837293E+02  0.50528861967E+02  0.30000006435E+02 0.  0.
         12    1    1    2    0    0  0.31266313384E+02  0.36541443757E+01 -0.25733837293E+02  0.40659138033E+02  0.00000000000E+00 0. -1.
         11    1    3    3    0    0 -0.93570966284E+01 -0.80383578716E+01  0.79466315892E+01  0.14673765994E+02  0.51100000000E-03 0. -1.
        -11    1    3    3    0    0  0.59918164705E+00 -0.44757466036E+01 -0.16667496146E+01  0.48134583040E+01  0.51100000000E-03 0.  1.
        -12    1    3    3    0    0 -0.22508398403E+02  0.88599600995E+01  0.19453955318E+02  0.31041637669E+02  0.00000000000E+00 0.  1.
</event>
<event>
 7    1  0.5290964E-013  0.5052884E+02  0.7816164E-02  0.1300439E+00
        -11   -1    0    0    0    0  0.00000000000E+00  0.00000000000E+00  0.45593999997E+02  0.45594000000E+02  0.51100000000E-03 0.  1.
         11   -1    0    0    0    0 -0.00000000000E+00 -0.00000000000E+00 -0.45593999997E+02  0.45594000000E+02  0.51100000000E-03 0. -1.
    9900012    2    1    2    0    0 -0.44676044446E+01 -0.20262575719E+02  0.34966206755E+02  0.50528842617E+02  0.29999947620E+02 0.  0.
         12    1    1    2    0    0  0.44676044446E+01  0.20262575719E+02 -0.34966206755E+02  0.40659157383E+02  0.00000000000E+00 0. -1.
         11    1    3    3    0    0  0.73813556267E+01 -0.10796496932E+02  0.27472801788E+02  0.30427020807E+02  0.51100000000E-03 0. -1.
        -11    1    3    3    0    0  0.33828840059E+00 -0.54195953197E+01  0.41439676409E+01  0.68307335287E+01  0.51100000000E-03 0.  1.
        -12    1    3    3    0    0 -0.12187248472E+02 -0.40464834678E+01  0.33494373263E+01  0.13271088281E+02  0.00000000000E+00 0.  1.
</event>
<event>
 7    1  0.5290964E-013  0.5052884E+02  0.7816164E-02  0.1300439E+00
        -11   -1    0    0    0    0  0.00000000000E+00  0.00000000000E+00  0.45593999997E+02  0.45594000000E+02  0.51100000000E-03 0.  1.
         11   -1    0    0    0    0 -0.00000000000E+00 -0.00000000000E+00 -0.45593999997E+02  0.45594000000E+02  0.51100000000E-03 0. -1.
    9900012    2    1    2    0    0 -0.37868626315E+01  0.83077723271E+01  0.39620798167E+02  0.50528842889E+02  0.29999948444E+02 0.  0.
         12    1    1    2    0    0  0.37868626315E+01 -0.83077723271E+01 -0.39620798167E+02  0.40659157111E+02  0.00000000000E+00 0. -1.
         11    1    3    3    0    0  0.30815982991E+01 -0.26410729261E+01  0.18835669139E+02  0.19267951278E+02  0.51100000000E-03 0. -1.
        -11    1    3    3    0    0  0.34178863173E+01  0.41952326837E+01  0.17792150600E+02  0.18596842404E+02  0.51100000000E-03 0.  1.
         12    1    3    3    0    0 -0.10286347248E+02  0.67536125695E+01  0.29929784279E+01  0.12664049207E+02  0.00000000000E+00 0. -1.
</event>
<event>
 7    1  0.5290964E-013  0.5052887E+02  0.7816164E-02  0.1300439E+00
        -11   -1    0    0    0    0  0.00000000000E+00  0.00000000000E+00  0.45593999997E+02  0.45594000000E+02  0.51100000000E-03 0.  1.
         11   -1    0    0    0    0 -0.00000000000E+00 -0.00000000000E+00 -0.45593999997E+02  0.45594000000E+02  0.51100000000E-03 0. -1.
    9900012    2    1    2    0    0 -0.36913659429E+02  0.15181781605E+02 -0.77498390027E+01  0.50528871263E+02  0.30000034690E+02 0.  0.
         12    1    1    2    0    0  0.36913659429E+02 -0.15181781605E+02  0.77498390027E+01  0.40659128737E+02  0.00000000000E+00 0. -1.
         11    1    3    3    0    0 -0.27847803524E+01  0.11778833481E+02 -0.22021567062E+01  0.12302252404E+02  0.51100000000E-03 0. -1.
        -11    1    3    3    0    0 -0.63988085186E+01  0.26775536629E+01  0.49986563356E+01  0.85498894436E+01  0.51100000000E-03 0.  1.
        -12    1    3    3    0    0 -0.27730070558E+02  0.72539446088E+00 -0.10546338632E+02  0.29676729416E+02  0.00000000000E+00 0.  1.
</event>
<event>
 7    1  0.5290964E-013  0.5052886E+02  0.7816164E-02  0.1300439E+00
        -11   -1    0    0    0    0  0.00000000000E+00  0.00000000000E+00  0.45593999997E+02  0.45594000000E+02  0.51100000000E-03 0.  1.
         11   -1    0    0    0    0 -0.00000000000E+00 -0.00000000000E+00 -0.45593999997E+02  0.45594000000E+02  0.51100000000E-03 0. -1.
    9900012    2    1    2    0    0 -0.20370296665E+02  0.64639172044E+01  0.34589513037E+02  0.50528860511E+02  0.30000002009E+02 0.  0.
         12    1    1    2    0    0  0.20370296665E+02 -0.64639172044E+01 -0.34589513037E+02  0.40659139489E+02  0.00000000000E+00 0. -1.
         11    1    3    3    0    0  0.10526204016E+01  0.50015484617E+01 -0.16376602180E+01  0.53670688439E+01  0.51100000000E-03 0. -1.
        -11    1    3    3    0    0  0.14663089137E+01  0.10723467492E+01 -0.50000990604E+00  0.18841442482E+01  0.51100000000E-03 0.  1.
        -12    1    3    3    0    0 -0.22889225980E+02  0.39002199353E+00  0.36727183161E+02  0.43277647419E+02  0.00000000000E+00 0.  1.
</event>
<event>
 7    1  0.5290964E-013  0.5052885E+02  0.7816164E-02  0.1300439E+00
        -11   -1    0    0    0    0  0.00000000000E+00  0.00000000000E+00  0.45593999997E+02  0.45594000000E+02  0.51100000000E-03 0.  1.
         11   -1    0    0    0    0 -0.00000000000E+00 -0.00000000000E+00 -0.45593999997E+02  0.45594000000E+02  0.51100000000E-03 0. -1.
    9900012    2    1    2    0    0  0.32786343752E+02  0.18939708049E+02  0.14815843947E+02  0.50528854541E+02  0.29999983864E+02 0.  0.
         12    1    1    2    0    0 -0.32786343752E+02 -0.18939708049E+02 -0.14815843947E+02  0.40659145459E+02  0.00000000000E+00 0. -1.
         11    1    3    3    0    0  0.75322140787E+01  0.36890658937E+01 -0.60849297946E+01  0.10361941274E+02  0.51100000000E-03 0. -1.
        -11    1    3    3    0    0  0.22027600295E+02  0.46623155826E+01  0.10016713078E+02  0.24643191808E+02  0.51100000000E-03 0.  1.
        -12    1    3    3    0    0  0.32265293786E+01  0.10588326573E+02  0.10884060663E+02  0.15523721460E+02  0.00000000000E+00 0.  1.
</event>
<event>
 7    1  0.5290964E-013  0.5052886E+02  0.7816164E-02  0.1300439E+00
        -11   -1    0    0    0    0  0.00000000000E+00  0.00000000000E+00  0.45593999997E+02  0.45594000000E+02  0.51100000000E-03 0. -1.
         11   -1    0    0    0    0 -0.00000000000E+00 -0.00000000000E+00 -0.45593999997E+02  0.45594000000E+02  0.51100000000E-03 0.  1.
    9900012    2    1    2    0    0  0.33516021927E+00  0.36454106301E+02  0.18004212229E+02  0.50528857651E+02  0.29999993317E+02 0.  0.
         12    1    1    2    0    0 -0.33516021927E+00 -0.36454106301E+02 -0.18004212229E+02  0.40659142349E+02  0.00000000000E+00 0. -1.
         11    1    3    3    0    0  0.72388896852E+01  0.27730731803E+01  0.10368322903E+02  0.12945793866E+02  0.51100000000E-03 0.  1.
        -11    1    3    3    0    0  0.74924040922E+00  0.32313651109E+01  0.51004247091E+01  0.60841937958E+01  0.51100000000E-03 0. -1.
        -12    1    3    3    0    0 -0.76529698751E+01  0.30449668009E+02  0.25354646163E+01  0.31498869990E+02  0.00000000000E+00 0.  1.
</event>
<event>
 7    1  0.5290964E-013  0.5052887E+02  0.7816164E-02  0.1300439E+00
        -11   -1    0    0    0    0  0.00000000000E+00  0.00000000000E+00  0.45593999997E+02  0.45594000000E+02  0.51100000000E-03 0. -1.
         11   -1    0    0    0    0 -0.00000000000E+00 -0.00000000000E+00 -0.45593999997E+02  0.45594000000E+02  0.51100000000E-03 0.  1.
    9900012    2    1    2    0    0  0.25402977486E+02  0.13897232138E+02 -0.28543309977E+02  0.50528869775E+02  0.30000030168E+02 0.  0.
         12    1    1    2    0    0 -0.25402977486E+02 -0.13897232138E+02  0.28543309977E+02  0.40659130225E+02  0.00000000000E+00 0. -1.
         11    1    3    3    0    0  0.58559386761E+01 -0.19625596966E+01 -0.89404765410E+01  0.10866267960E+02  0.51100000000E-03 0. -1.
        -11    1    3    3    0    0  0.77081850123E+01 -0.58457988977E+01 -0.43090897209E+01  0.10590454920E+02  0.51100000000E-03 0.  1.
        -12    1    3    3    0    0  0.11838853797E+02  0.21705590732E+02 -0.15293743715E+02  0.29072146895E+02  0.00000000000E+00 0.  1.
</event>
<event>
 7    1  0.5290964E-013  0.5052880E+02  0.7816164E-02  0.1300439E+00
        -11   -1    0    0    0    0  0.00000000000E+00  0.00000000000E+00  0.45593999997E+02  0.45594000000E+02  0.51100000000E-03 0.  1.
         11   -1    0    0    0    0 -0.00000000000E+00 -0.00000000000E+00 -0.45593999997E+02  0.45594000000E+02  0.51100000000E-03 0. -1.
    9900012    2    1    2    0    0  0.26892704157E+01  0.16113332900E+02  0.37233034511E+02  0.50528800163E+02  0.29999818574E+02 0.  0.
         12    1    1    2    0    0 -0.26892704157E+01 -0.16113332900E+02 -0.37233034511E+02  0.40659199837E+02  0.00000000000E+00 0. -1.
         11    1    3    3    0    0 -0.80444114315E+01 -0.87650548347E+00  0.16479126726E+02  0.18358715506E+02  0.51100000000E-03 0. -1.
        -11    1    3    3    0    0  0.21773424944E+01  0.15043387426E+02  0.16446638743E+02  0.22395005063E+02  0.51100000000E-03 0.  1.
         12    1    3    3    0    0  0.85563393528E+01  0.19464509577E+01  0.43072690422E+01  0.97750795932E+01  0.00000000000E+00 0. -1.
</event>
<event>
 7    1  0.5290964E-013  0.5052885E+02  0.7816164E-02  0.1300439E+00
        -11   -1    0    0    0    0  0.00000000000E+00  0.00000000000E+00  0.45593999997E+02  0.45594000000E+02  0.51100000000E-03 0. -1.
         11   -1    0    0    0    0 -0.00000000000E+00 -0.00000000000E+00 -0.45593999997E+02  0.45594000000E+02  0.51100000000E-03 0.  1.
    9900012    2    1    2    0    0 -0.31520715174E+01  0.39525851271E+02  0.89965337213E+01  0.50528854749E+02  0.29999984496E+02 0.  0.
         12    1    1    2    0    0  0.31520715174E+01 -0.39525851271E+02 -0.89965337213E+01  0.40659145251E+02  0.00000000000E+00 0. -1.
         11    1    3    3    0    0  0.36518376693E+00  0.16368540526E+02 -0.70118553660E+01  0.17810912219E+02  0.51100000000E-03 0.  1.
        -11    1    3    3    0    0 -0.65683773804E+01  0.17728375396E+01  0.25403023318E+01  0.72622083797E+01  0.51100000000E-03 0. -1.
        -12    1    3    3    0    0  0.30511220960E+01  0.21384473205E+02  0.13468086755E+02  0.25455734151E+02  0.00000000000E+00 0.  1.
</event>
<event>
 7    1  0.5290964E-013  0.5052886E+02  0.7816164E-02  0.1300439E+00
        -11   -1    0    0    0    0  0.00000000000E+00  0.00000000000E+00  0.45593999997E+02  0.45594000000E+02  0.51100000000E-03 0.  1.
         11   -1    0    0    0    0 -0.00000000000E+00 -0.00000000000E+00 -0.45593999997E+02  0.45594000000E+02  0.51100000000E-03 0. -1.
    9900012    2    1    2    0    0 -0.71433060888E+01 -0.25624340796E+02  0.30749500810E+02  0.50528862488E+02  0.30000008020E+02 0.  0.
         12    1    1    2    0    0  0.71433060888E+01  0.25624340796E+02 -0.30749500810E+02  0.40659137512E+02  0.00000000000E+00 0. -1.
         11    1    3    3    0    0 -0.46369841715E+00 -0.14204598884E+02  0.15413365953E+02  0.20965626533E+02  0.51100000000E-03 0. -1.
        -11    1    3    3    0    0 -0.71983603902E+01 -0.11631111004E+02  0.20349098129E+02  0.24519072789E+02  0.51100000000E-03 0.  1.
         12    1    3    3    0    0  0.51875271851E+00  0.21136909177E+00 -0.50129632723E+01  0.50441631661E+01  0.00000000000E+00 0. -1.
</event>
<event>
 7    1  0.5290964E-013  0.5052887E+02  0.7816164E-02  0.1300439E+00
        -11   -1    0    0    0    0  0.00000000000E+00  0.00000000000E+00  0.45593999997E+02  0.45594000000E+02  0.51100000000E-03 0. -1.
         11   -1    0    0    0    0 -0.00000000000E+00 -0.00000000000E+00 -0.45593999997E+02  0.45594000000E+02  0.51100000000E-03 0.  1.
    9900012    2    1    2    0    0 -0.77575514618E+00  0.23498943138E+02 -0.33171711189E+02  0.50528873744E+02  0.30000042234E+02 0.  0.
         12    1    1    2    0    0  0.77575514618E+00 -0.23498943138E+02  0.33171711189E+02  0.40659126256E+02  0.00000000000E+00 0. -1.
         11    1    3    3    0    0 -0.62356018025E+01 -0.31857717211E+01 -0.36840996500E+01  0.79122981359E+01  0.51100000000E-03 0. -1.
        -11    1    3    3    0    0 -0.12746262732E+01  0.21473040439E+02 -0.16606776562E+02  0.27175377935E+02  0.51100000000E-03 0.  1.
        -12    1    3    3    0    0  0.67344729296E+01  0.52116744194E+01 -0.12880834977E+02  0.15441197674E+02  0.00000000000E+00 0.  1.
</event>
<event>
 7    1  0.5290964E-013  0.5052886E+02  0.7816164E-02  0.1300439E+00
        -11   -1    0    0    0    0  0.00000000000E+00  0.00000000000E+00  0.45593999997E+02  0.45594000000E+02  0.51100000000E-03 0.  1.
         11   -1    0    0    0    0 -0.00000000000E+00 -0.00000000000E+00 -0.45593999997E+02  0.45594000000E+02  0.51100000000E-03 0. -1.
    9900012    2    1    2    0    0 -0.13798279105E+02 -0.10516381652E+02  0.36771987844E+02  0.50528857371E+02  0.29999992466E+02 0.  0.
         12    1    1    2    0    0  0.13798279105E+02  0.10516381652E+02 -0.36771987844E+02  0.40659142629E+02  0.00000000000E+00 0. -1.
         11    1    3    3    0    0  0.37021531856E+01 -0.66822843841E+01  0.32834210150E+01  0.83150295624E+01  0.51100000000E-03 0. -1.
        -11    1    3    3    0    0  0.37240584618E+01 -0.23502443298E+01  0.63990284640E+01  0.77678713545E+01  0.51100000000E-03 0.  1.
        -12    1    3    3    0    0 -0.21224490753E+02 -0.14838529378E+01  0.27089538365E+02  0.34445956455E+02  0.00000000000E+00 0.  1.
</event>
<event>
 7    1  0.5290964E-013  0.5052877E+02  0.7816164E-02  0.1300439E+00
        -11   -1    0    0    0    0  0.00000000000E+00  0.00000000000E+00  0.45593999997E+02  0.45594000000E+02  0.51100000000E-03 0. -1.
         11   -1    0    0    0    0 -0.00000000000E+00 -0.00000000000E+00 -0.45593999997E+02  0.45594000000E+02  0.51100000000E-03 0.  1.
    9900012    2    1    2    0    0 -0.18423914698E+02  0.28445642881E+02 -0.22462800038E+02  0.50528774512E+02  0.29999740607E+02 0.  0.
         12    1    1    2    0    0  0.18423914698E+02 -0.28445642881E+02  0.22462800038E+02  0.40659225488E+02  0.00000000000E+00 0. -1.
         11    1    3    3    0    0 -0.68898607125E+01  0.13176035883E+02 -0.60481690770E+01  0.16051742948E+02  0.51100000000E-03 0. -1.
        -11    1    3    3    0    0 -0.98513919463E+01  0.11358830273E+02  0.23652460079E+01  0.15220622109E+02  0.51100000000E-03 0.  1.
        -12    1    3    3    0    0 -0.16826620389E+01  0.39107767245E+01 -0.18779876969E+02  0.19256409455E+02  0.00000000000E+00 0.  1.
</event>
<event>
 7    1  0.5290964E-013  0.5052886E+02  0.7816164E-02  0.1300439E+00
        -11   -1    0    0    0    0  0.00000000000E+00  0.00000000000E+00  0.45593999997E+02  0.45594000000E+02  0.51100000000E-03 0.  1.
         11   -1    0    0    0    0 -0.00000000000E+00 -0.00000000000E+00 -0.45593999997E+02  0.45594000000E+02  0.51100000000E-03 0. -1.
    9900012    2    1    2    0    0  0.31866687601E+02  0.15390347568E+02  0.20020424323E+02  0.50528856293E+02  0.29999989187E+02 0.  0.
         12    1    1    2    0    0 -0.31866687601E+02 -0.15390347568E+02 -0.20020424323E+02  0.40659143707E+02  0.00000000000E+00 0. -1.
         11    1    3    3    0    0  0.83236324336E+01  0.21307329459E+01 -0.44351546902E+01  0.96692025092E+01  0.51100000000E-03 0. -1.
        -11    1    3    3    0    0  0.70063915063E+01  0.23905142162E+01 -0.21432950360E+01  0.77069964337E+01  0.51100000000E-03 0.  1.
        -12    1    3    3    0    0  0.16536663661E+02  0.10869100406E+02  0.26598874049E+02  0.33152657350E+02  0.00000000000E+00 0.  1.
</event>
<event>
 7    1  0.5290964E-013  0.5052886E+02  0.7816164E-02  0.1300439E+00
        -11   -1    0    0    0    0  0.00000000000E+00  0.00000000000E+00  0.45593999997E+02  0.45594000000E+02  0.51100000000E-03 0.  1.
         11   -1    0    0    0    0 -0.00000000000E+00 -0.00000000000E+00 -0.45593999997E+02  0.45594000000E+02  0.51100000000E-03 0. -1.
    9900012    2    1    2    0    0 -0.33227010252E+01 -0.40491029889E+02 -0.16130064218E+01  0.50528860397E+02  0.30000001662E+02 0.  0.
         12    1    1    2    0    0  0.33227010252E+01  0.40491029889E+02  0.16130064218E+01  0.40659139603E+02  0.00000000000E+00 0. -1.
         11    1    3    3    0    0 -0.40837503692E+01 -0.97636081623E+01  0.33069814755E+01  0.11087884747E+02  0.51100000000E-03 0. -1.
        -11    1    3    3    0    0 -0.10036879558E+02 -0.20861675530E+02  0.20455611387E+01  0.23240756825E+02  0.51100000000E-03 0.  1.
         12    1    3    3    0    0  0.10797928902E+02 -0.98657461967E+01 -0.69655490360E+01  0.16200218825E+02  0.00000000000E+00 0. -1.
</event>
<event>
 7    1  0.5290964E-013  0.5052884E+02  0.7816164E-02  0.1300439E+00
        -11   -1    0    0    0    0  0.00000000000E+00  0.00000000000E+00  0.45593999997E+02  0.45594000000E+02  0.51100000000E-03 0. -1.
         11   -1    0    0    0    0 -0.00000000000E+00 -0.00000000000E+00 -0.45593999997E+02  0.45594000000E+02  0.51100000000E-03 0.  1.
    9900012    2    1    2    0    0 -0.25602304081E+02 -0.29386535794E+02  0.11581043175E+02  0.50528843329E+02  0.29999949782E+02 0.  0.
         12    1    1    2    0    0  0.25602304081E+02  0.29386535794E+02 -0.11581043175E+02  0.40659156671E+02  0.00000000000E+00 0. -1.
         11    1    3    3    0    0 -0.26699281802E+01 -0.14196539502E+02  0.43032003161E+01  0.15072749701E+02  0.51100000000E-03 0. -1.
        -11    1    3    3    0    0 -0.13793845101E+02 -0.19377773399E+02  0.14352700770E+01  0.23829147383E+02  0.51100000000E-03 0.  1.
        -12    1    3    3    0    0 -0.91385307996E+01  0.41877771070E+01  0.58425727818E+01  0.11626946245E+02  0.00000000000E+00 0.  1.
</event>
<event>
 7    1  0.5290964E-013  0.5052888E+02  0.7816164E-02  0.1300439E+00
        -11   -1    0    0    0    0  0.00000000000E+00  0.00000000000E+00  0.45593999997E+02  0.45594000000E+02  0.51100000000E-03 0. -1.
         11   -1    0    0    0    0 -0.00000000000E+00 -0.00000000000E+00 -0.45593999997E+02  0.45594000000E+02  0.51100000000E-03 0.  1.
    9900012    2    1    2    0    0  0.26012592970E+02  0.21498236817E+02  0.22678955832E+02  0.50528877815E+02  0.30000054605E+02 0.  0.
         12    1    1    2    0    0 -0.26012592970E+02 -0.21498236817E+02 -0.22678955832E+02  0.40659122185E+02  0.00000000000E+00 0. -1.
         11    1    3    3    0    0  0.13492730190E+02  0.92304612712E+01  0.12643600113E+02  0.20666780285E+02  0.51100000000E-03 0. -1.
        -11    1    3    3    0    0  0.18209082360E+02  0.60901630736E+01  0.42535461033E+01  0.19666047426E+02  0.51100000000E-03 0.  1.
        -12    1    3    3    0    0 -0.56892195799E+01  0.61776124726E+01  0.57818096157E+01  0.10196050104E+02  0.00000000000E+00 0.  1.
</event>
<event>
 7    1  0.5290964E-013  0.5052886E+02  0.7816164E-02  0.1300439E+00
        -11   -1    0    0    0    0  0.00000000000E+00  0.00000000000E+00  0.45593999997E+02  0.45594000000E+02  0.51100000000E-03 0.  1.
         11   -1    0    0    0    0 -0.00000000000E+00 -0.00000000000E+00 -0.45593999997E+02  0.45594000000E+02  0.51100000000E-03 0. -1.
    9900012    2    1    2    0    0  0.35121003361E+02 -0.20252069444E+02 -0.30877645093E+01  0.50528862239E+02  0.30000007260E+02 0.  0.
         12    1    1    2    0    0 -0.35121003361E+02  0.20252069444E+02  0.30877645093E+01  0.40659137761E+02  0.00000000000E+00 0. -1.
         11    1    3    3    0    0  0.51171293587E+01 -0.10575133920E+02 -0.59912672358E+01  0.13187636394E+02  0.51100000000E-03 0. -1.
        -11    1    3    3    0    0  0.30430439630E+02 -0.13407221197E+02  0.38331593246E+01  0.33473248229E+02  0.51100000000E-03 0.  1.
         12    1    3    3    0    0 -0.42656562818E+00  0.37302856739E+01 -0.92965659810E+00  0.38679776156E+01  0.00000000000E+00 0. -1.
</event>
<event>
 7    1  0.5290964E-013  0.5052886E+02  0.7816164E-02  0.1300439E+00
        -11   -1    0    0    0    0  0.00000000000E+00  0.00000000000E+00  0.45593999997E+02  0.45594000000E+02  0.51100000000E-03 0.  1.
         11   -1    0    0    0    0 -0.00000000000E+00 -0.00000000000E+00 -0.45593999997E+02  0.45594000000E+02  0.51100000000E-03 0. -1.
    9900012    2    1    2    0    0 -0.12472056823E+02 -0.35707130178E+02  0.14920269945E+02  0.50528858319E+02  0.29999995348E+02 0.  0.
         12    1    1    2    0    0  0.12472056823E+02  0.35707130178E+02 -0.14920269945E+02  0.40659141681E+02  0.00000000000E+00 0. -1.
         11    1    3    3    0    0  0.22949188741E+01 -0.14161221053E+02 -0.40829601845E+00  0.14351778296E+02  0.51100000000E-03 0. -1.
        -11    1    3    3    0    0 -0.14912731618E+02 -0.20098513831E+02  0.19520822399E+02  0.31739601918E+02  0.51100000000E-03 0.  1.
         12    1    3    3    0    0  0.14575592023E+00 -0.14473952945E+01 -0.41922564349E+01  0.44374781061E+01  0.00000000000E+00 0. -1.
</event>
<event>
 7    1  0.5290964E-013  0.5052886E+02  0.7816164E-02  0.1300439E+00
        -11   -1    0    0    0    0  0.00000000000E+00  0.00000000000E+00  0.45593999997E+02  0.45594000000E+02  0.51100000000E-03 0.  1.
         11   -1    0    0    0    0 -0.00000000000E+00 -0.00000000000E+00 -0.45593999997E+02  0.45594000000E+02  0.51100000000E-03 0. -1.
    9900012    2    1    2    0    0  0.32724855397E+02 -0.94886829736E+00  0.24111177216E+02  0.50528863530E+02  0.30000011185E+02 0.  0.
         12    1    1    2    0    0 -0.32724855397E+02  0.94886829736E+00 -0.24111177216E+02  0.40659136470E+02  0.00000000000E+00 0. -1.
         11    1    3    3    0    0  0.13691158152E+02  0.33575101092E+01  0.19904510243E+01  0.14236663275E+02  0.51100000000E-03 0. -1.
        -11    1    3    3    0    0  0.12783450148E+02 -0.10687605142E+01 -0.25995823330E+00  0.12830682961E+02  0.51100000000E-03 0.  1.
        -12    1    3    3    0    0  0.62502470975E+01 -0.32376178924E+01  0.22380684425E+02  0.23461517293E+02  0.00000000000E+00 0.  1.
</event>
<event>
 7    1  0.5290964E-013  0.5052887E+02  0.7816164E-02  0.1300439E+00
        -11   -1    0    0    0    0  0.00000000000E+00  0.00000000000E+00  0.45593999997E+02  0.45594000000E+02  0.51100000000E-03 0. -1.
         11   -1    0    0    0    0 -0.00000000000E+00 -0.00000000000E+00 -0.45593999997E+02  0.45594000000E+02  0.51100000000E-03 0.  1.
    9900012    2    1    2    0    0  0.40059147398E+02  0.68133819515E+01 -0.14168576417E+01  0.50528868806E+02  0.30000027223E+02 0.  0.
         12    1    1    2    0    0 -0.40059147398E+02 -0.68133819515E+01  0.14168576417E+01  0.40659131194E+02  0.00000000000E+00 0. -1.
         11    1    3    3    0    0 -0.13213639951E+01  0.23146237998E+01 -0.13993604035E+01  0.30102650950E+01  0.51100000000E-03 0. -1.
        -11    1    3    3    0    0  0.35075290538E+00  0.39544086047E+01 -0.47756862743E+01  0.62102781472E+01  0.51100000000E-03 0.  1.
        -12    1    3    3    0    0  0.41029758488E+02  0.54434954702E+00  0.47581890361E+01  0.41308325564E+02  0.00000000000E+00 0.  1.
</event>
<event>
 7    1  0.5290964E-013  0.5052886E+02  0.7816164E-02  0.1300439E+00
        -11   -1    0    0    0    0  0.00000000000E+00  0.00000000000E+00  0.45593999997E+02  0.45594000000E+02  0.51100000000E-03 0. -1.
         11   -1    0    0    0    0 -0.00000000000E+00 -0.00000000000E+00 -0.45593999997E+02  0.45594000000E+02  0.51100000000E-03 0.  1.
    9900012    2    1    2    0    0 -0.25680480497E+01  0.29226981391E+02  0.28148790515E+02  0.50528859337E+02  0.29999998440E+02 0.  0.
         12    1    1    2    0    0  0.25680480497E+01 -0.29226981391E+02 -0.28148790515E+02  0.40659140663E+02  0.00000000000E+00 0. -1.
         11    1    3    3    0    0  0.52000047751E+01  0.13932155119E+01  0.10175161981E+02  0.11511516873E+02  0.51100000000E-03 0. -1.
        -11    1    3    3    0    0  0.31186852913E+01  0.62977362105E+01  0.12396438770E+02  0.14249890307E+02  0.51100000000E-03 0.  1.
        -12    1    3    3    0    0 -0.10886738116E+02  0.21536029669E+02  0.55771897647E+01  0.24767452157E+02  0.00000000000E+00 0.  1.
</event>
<event>
 7    1  0.5290964E-013  0.5052887E+02  0.7816164E-02  0.1300439E+00
        -11   -1    0    0    0    0  0.00000000000E+00  0.00000000000E+00  0.45593999997E+02  0.45594000000E+02  0.51100000000E-03 0. -1.
         11   -1    0    0    0    0 -0.00000000000E+00 -0.00000000000E+00 -0.45593999997E+02  0.45594000000E+02  0.51100000000E-03 0.  1.
    9900012    2    1    2    0    0  0.49400602752E+01  0.91064120580E+00 -0.40347636275E+02  0.50528865529E+02  0.30000017263E+02 0.  0.
         12    1    1    2    0    0 -0.49400602752E+01 -0.91064120580E+00  0.40347636275E+02  0.40659134471E+02  0.00000000000E+00 0. -1.
         11    1    3    3    0    0 -0.69439482724E+01 -0.10774394770E+01 -0.87426446502E+01  0.11216645184E+02  0.51100000000E-03 0. -1.
        -11    1    3    3    0    0  0.24621848944E+01 -0.42577512180E+01 -0.26423277884E+02  0.26877135530E+02  0.51100000000E-03 0.  1.
         12    1    3    3    0    0  0.94218236532E+01  0.62458319008E+01 -0.51817137402E+01  0.12435084816E+02  0.00000000000E+00 0. -1.
</event>
<event>
 7    1  0.5290964E-013  0.5052888E+02  0.7816164E-02  0.1300439E+00
        -11   -1    0    0    0    0  0.00000000000E+00  0.00000000000E+00  0.45593999997E+02  0.45594000000E+02  0.51100000000E-03 0.  1.
         11   -1    0    0    0    0 -0.00000000000E+00 -0.00000000000E+00 -0.45593999997E+02  0.45594000000E+02  0.51100000000E-03 0. -1.
    9900012    2    1    2    0    0  0.31431333330E+02  0.23158425817E+02  0.11354394457E+02  0.50528884482E+02  0.30000074871E+02 0.  0.
         12    1    1    2    0    0 -0.31431333330E+02 -0.23158425817E+02 -0.11354394457E+02  0.40659115518E+02  0.00000000000E+00 0. -1.
         11    1    3    3    0    0  0.24410846263E+02  0.16741216072E+02  0.12325177192E+02  0.32063495192E+02  0.51100000000E-03 0. -1.
        -11    1    3    3    0    0 -0.69611181933E+00  0.35337466804E+01  0.64439277012E+01  0.73821502115E+01  0.51100000000E-03 0.  1.
         12    1    3    3    0    0  0.77165988866E+01  0.28834630651E+01 -0.74147104361E+01  0.11083239079E+02  0.00000000000E+00 0. -1.
</event>
<event>
 7    1  0.5290964E-013  0.5052886E+02  0.7816164E-02  0.1300439E+00
        -11   -1    0    0    0    0  0.00000000000E+00  0.00000000000E+00  0.45593999997E+02  0.45594000000E+02  0.51100000000E-03 0.  1.
         11   -1    0    0    0    0 -0.00000000000E+00 -0.00000000000E+00 -0.45593999997E+02  0.45594000000E+02  0.51100000000E-03 0. -1.
    9900012    2    1    2    0    0 -0.27412711593E+02  0.30012734860E+02  0.97189066831E+00  0.50528861025E+02  0.30000003572E+02 0.  0.
         12    1    1    2    0    0  0.27412711593E+02 -0.30012734860E+02 -0.97189066831E+00  0.40659138975E+02  0.00000000000E+00 0. -1.
         11    1    3    3    0    0  0.36846114665E+00 -0.19830818301E+01 -0.12159668253E+00  0.20206838386E+01  0.51100000000E-03 0. -1.
        -11    1    3    3    0    0 -0.37024559987E+01 -0.35136771739E+01  0.22751674099E+01  0.55884250651E+01  0.51100000000E-03 0.  1.
        -12    1    3    3    0    0 -0.24078716741E+02  0.35509493864E+02 -0.11816800590E+01  0.42919752121E+02  0.00000000000E+00 0.  1.
</event>
<event>
 7    1  0.5290964E-013  0.5052887E+02  0.7816164E-02  0.1300439E+00
        -11   -1    0    0    0    0  0.00000000000E+00  0.00000000000E+00  0.45593999997E+02  0.45594000000E+02  0.51100000000E-03 0.  1.
         11   -1    0    0    0    0 -0.00000000000E+00 -0.00000000000E+00 -0.45593999997E+02  0.45594000000E+02  0.51100000000E-03 0. -1.
    9900012    2    1    2    0    0 -0.82782763478E+01 -0.32877652869E+02  0.22443140670E+02  0.50528874572E+02  0.30000044748E+02 0.  0.
         12    1    1    2    0    0  0.82782763478E+01  0.32877652869E+02 -0.22443140670E+02  0.40659125428E+02  0.00000000000E+00 0. -1.
         11    1    3    3    0    0 -0.41464385499E+00 -0.17123870741E+02  0.11871653190E+02  0.20840706044E+02  0.51100000000E-03 0.  1.
        -11    1    3    3    0    0 -0.10710465736E+02 -0.19631905842E+02  0.62476563123E+01  0.23219797866E+02  0.51100000000E-03 0. -1.
        -12    1    3    3    0    0  0.28468332436E+01  0.38781237135E+01  0.43238311680E+01  0.64683706622E+01  0.00000000000E+00 0.  1.
</event>
<event>
 7    1  0.5290964E-013  0.5052886E+02  0.7816164E-02  0.1300439E+00
        -11   -1    0    0    0    0  0.00000000000E+00  0.00000000000E+00  0.45593999997E+02  0.45594000000E+02  0.51100000000E-03 0. -1.
         11   -1    0    0    0    0 -0.00000000000E+00 -0.00000000000E+00 -0.45593999997E+02  0.45594000000E+02  0.51100000000E-03 0.  1.
    9900012    2    1    2    0    0 -0.17297063559E+02 -0.29491568845E+02  0.22005108666E+02  0.50528857755E+02  0.29999993631E+02 0.  0.
         12    1    1    2    0    0  0.17297063559E+02  0.29491568845E+02 -0.22005108666E+02  0.40659142245E+02  0.00000000000E+00 0. -1.
         11    1    3    3    0    0 -0.76862141968E+01 -0.81476917673E+01  0.11829961234E+02  0.16291431886E+02  0.51100000000E-03 0. -1.
        -11    1    3    3    0    0 -0.30381487193E+01 -0.24578509600E+02  0.49920220530E+01  0.25263684732E+02  0.51100000000E-03 0.  1.
         12    1    3    3    0    0 -0.65727006429E+01  0.32346325223E+01  0.51831253787E+01  0.89737411366E+01  0.00000000000E+00 0. -1.
</event>
<event>
 7    1  0.5290964E-013  0.5052885E+02  0.7816164E-02  0.1300439E+00
        -11   -1    0    0    0    0  0.00000000000E+00  0.00000000000E+00  0.45593999997E+02  0.45594000000E+02  0.51100000000E-03 0.  1.
         11   -1    0    0    0    0 -0.00000000000E+00 -0.00000000000E+00 -0.45593999997E+02  0.45594000000E+02  0.51100000000E-03 0. -1.
    9900012    2    1    2    0    0 -0.92099672284E+01 -0.61269108710E+01  0.39125489560E+02  0.50528850150E+02  0.29999970517E+02 0.  0.
         12    1    1    2    0    0  0.92099672284E+01  0.61269108710E+01 -0.39125489560E+02  0.40659149850E+02  0.00000000000E+00 0. -1.
         11    1    3    3    0    0 -0.10511815353E+02 -0.63989212532E+01  0.31912420870E+02  0.34203027078E+02  0.51100000000E-03 0.  1.
        -11    1    3    3    0    0  0.48769732090E+01 -0.53621365025E+01  0.62757088757E+01  0.95875908186E+01  0.51100000000E-03 0. -1.
         12    1    3    3    0    0 -0.35751250847E+01  0.56341468847E+01  0.93735981443E+00  0.67382322542E+01  0.00000000000E+00 0. -1.
</event>
<event>
 7    1  0.5290964E-013  0.5052886E+02  0.7816164E-02  0.1300439E+00
        -11   -1    0    0    0    0  0.00000000000E+00  0.00000000000E+00  0.45593999997E+02  0.45594000000E+02  0.51100000000E-03 0. -1.
         11   -1    0    0    0    0 -0.00000000000E+00 -0.00000000000E+00 -0.45593999997E+02  0.45594000000E+02  0.51100000000E-03 0.  1.
    9900012    2    1    2    0    0 -0.96500850642E+01  0.31231759203E+02 -0.24178895783E+02  0.50528856797E+02  0.29999990722E+02 0.  0.
         12    1    1    2    0    0  0.96500850642E+01 -0.31231759203E+02  0.24178895783E+02  0.40659143203E+02  0.00000000000E+00 0. -1.
         11    1    3    3    0    0 -0.78384629955E+01  0.77617784610E+01  0.24582934395E+01  0.11301765964E+02  0.51100000000E-03 0. -1.
        -11    1    3    3    0    0  0.30663515065E+01 -0.14045223696E+01 -0.40970273358E+01  0.53066776706E+01  0.51100000000E-03 0.  1.
        -12    1    3    3    0    0 -0.48779735752E+01  0.24874503112E+02 -0.22540161886E+02  0.33920413163E+02  0.00000000000E+00 0.  1.
</event>
<event>
 7    1  0.5290964E-013  0.5052886E+02  0.7816164E-02  0.1300439E+00
        -11   -1    0    0    0    0  0.00000000000E+00  0.00000000000E+00  0.45593999997E+02  0.45594000000E+02  0.51100000000E-03 0.  1.
         11   -1    0    0    0    0 -0.00000000000E+00 -0.00000000000E+00 -0.45593999997E+02  0.45594000000E+02  0.51100000000E-03 0. -1.
    9900012    2    1    2    0    0 -0.20998342724E+01 -0.29907357966E+02  0.27464635443E+02  0.50528861243E+02  0.30000004234E+02 0.  0.
         12    1    1    2    0    0  0.20998342724E+01  0.29907357966E+02 -0.27464635443E+02  0.40659138757E+02  0.00000000000E+00 0. -1.
         11    1    3    3    0    0 -0.17770076285E+01 -0.84591167942E+01  0.12761834420E+02  0.15413592413E+02  0.51100000000E-03 0. -1.
        -11    1    3    3    0    0  0.48903703240E+01 -0.17480239594E+02  0.19765478359E+02  0.26835585203E+02  0.51100000000E-03 0.  1.
         12    1    3    3    0    0 -0.52131969678E+01 -0.39680015777E+01 -0.50626773363E+01  0.82796836266E+01  0.00000000000E+00 0. -1.
</event>
<event>
 7    1  0.5290964E-013  0.5052886E+02  0.7816164E-02  0.1300439E+00
        -11   -1    0    0    0    0  0.00000000000E+00  0.00000000000E+00  0.45593999997E+02  0.45594000000E+02  0.51100000000E-03 0. -1.
         11   -1    0    0    0    0 -0.00000000000E+00 -0.00000000000E+00 -0.45593999997E+02  0.45594000000E+02  0.51100000000E-03 0.  1.
    9900012    2    1    2    0    0 -0.14916411465E+02  0.36465359529E+02  0.10047067396E+02  0.50528864006E+02  0.30000012632E+02 0.  0.
         12    1    1    2    0    0  0.14916411465E+02 -0.36465359529E+02 -0.10047067396E+02  0.40659135994E+02  0.00000000000E+00 0. -1.
         11    1    3    3    0    0 -0.14465047937E+02  0.14920715624E+02  0.73961296533E+01  0.22058288706E+02  0.51100000000E-03 0. -1.
        -11    1    3    3    0    0 -0.65575305378E+01  0.19450872107E+02 -0.18370723528E+01  0.20608553263E+02  0.51100000000E-03 0.  1.
         12    1    3    3    0    0  0.61061670097E+01  0.20937717974E+01  0.44880100953E+01  0.78620220367E+01  0.00000000000E+00 0. -1.
</event>
<event>
 7    1  0.5290964E-013  0.5052886E+02  0.7816164E-02  0.1300439E+00
        -11   -1    0    0    0    0  0.00000000000E+00  0.00000000000E+00  0.45593999997E+02  0.45594000000E+02  0.51100000000E-03 0.  1.
         11   -1    0    0    0    0 -0.00000000000E+00 -0.00000000000E+00 -0.45593999997E+02  0.45594000000E+02  0.51100000000E-03 0. -1.
    9900012    2    1    2    0    0 -0.42953706372E+01 -0.27742829754E+02  0.29411741675E+02  0.50528863757E+02  0.30000011877E+02 0.  0.
         12    1    1    2    0    0  0.42953706372E+01  0.27742829754E+02 -0.29411741675E+02  0.40659136243E+02  0.00000000000E+00 0. -1.
         11    1    3    3    0    0 -0.43438219314E+00  0.29624880391E+01  0.24696817445E+01  0.38812821918E+01  0.51100000000E-03 0. -1.
        -11    1    3    3    0    0  0.46096241982E+01  0.25283008328E+00  0.83880659202E+01  0.95745604830E+01  0.51100000000E-03 0.  1.
         12    1    3    3    0    0 -0.84706126423E+01 -0.30958147876E+02  0.18553994010E+02  0.37073021083E+02  0.00000000000E+00 0. -1.
</event>
<event>
 7    1  0.5290964E-013  0.5052885E+02  0.7816164E-02  0.1300439E+00
        -11   -1    0    0    0    0  0.00000000000E+00  0.00000000000E+00  0.45593999997E+02  0.45594000000E+02  0.51100000000E-03 0. -1.
         11   -1    0    0    0    0 -0.00000000000E+00 -0.00000000000E+00 -0.45593999997E+02  0.45594000000E+02  0.51100000000E-03 0.  1.
    9900012    2    1    2    0    0 -0.33155312018E+02  0.23027912480E+02 -0.48587077527E+01  0.50528849625E+02  0.29999968919E+02 0.  0.
         12    1    1    2    0    0  0.33155312018E+02 -0.23027912480E+02  0.48587077527E+01  0.40659150375E+02  0.00000000000E+00 0. -1.
         11    1    3    3    0    0 -0.49560331738E+01  0.35592824204E+01 -0.76086793141E+01  0.97530896301E+01  0.51100000000E-03 0.  1.
        -11    1    3    3    0    0 -0.52817282474E+01 -0.16999157727E+01 -0.61990558367E+01  0.83195348693E+01  0.51100000000E-03 0. -1.
         12    1    3    3    0    0 -0.22917550597E+02  0.21168545832E+02  0.89490273981E+01  0.32456225125E+02  0.00000000000E+00 0. -1.
</event>
<event>
 7    1  0.5290964E-013  0.5052886E+02  0.7816164E-02  0.1300439E+00
        -11   -1    0    0    0    0  0.00000000000E+00  0.00000000000E+00  0.45593999997E+02  0.45594000000E+02  0.51100000000E-03 0.  1.
         11   -1    0    0    0    0 -0.00000000000E+00 -0.00000000000E+00 -0.45593999997E+02  0.45594000000E+02  0.51100000000E-03 0. -1.
    9900012    2    1    2    0    0  0.90147637339E+01  0.25667087499E+02  0.30217545899E+02  0.50528862945E+02  0.30000009407E+02 0.  0.
         12    1    1    2    0    0 -0.90147637339E+01 -0.25667087499E+02 -0.30217545899E+02  0.40659137055E+02  0.00000000000E+00 0. -1.
         11    1    3    3    0    0  0.11337612846E+02  0.12422109713E+02  0.18817854781E+02  0.25238104794E+02  0.51100000000E-03 0. -1.
        -11    1    3    3    0    0  0.23585386068E+01  0.54078141167E+01  0.14496376728E+02  0.15650945542E+02  0.51100000000E-03 0.  1.
        -12    1    3    3    0    0 -0.46813877194E+01  0.78371636695E+01 -0.30966856093E+01  0.96398126083E+01  0.00000000000E+00 0.  1.
</event>
<event>
 7    1  0.5290964E-013  0.5052886E+02  0.7816164E-02  0.1300439E+00
        -11   -1    0    0    0    0  0.00000000000E+00  0.00000000000E+00  0.45593999997E+02  0.45594000000E+02  0.51100000000E-03 0. -1.
         11   -1    0    0    0    0 -0.00000000000E+00 -0.00000000000E+00 -0.45593999997E+02  0.45594000000E+02  0.51100000000E-03 0.  1.
    9900012    2    1    2    0    0 -0.12149790498E+02 -0.31040336800E+02 -0.23281868935E+02  0.50528864016E+02  0.30000012664E+02 0.  0.
         12    1    1    2    0    0  0.12149790498E+02  0.31040336800E+02  0.23281868935E+02  0.40659135984E+02  0.00000000000E+00 0. -1.
         11    1    3    3    0    0 -0.12911449548E+02 -0.24326694004E+02 -0.20387038782E+02  0.34265506288E+02  0.51100000000E-03 0.  1.
        -11    1    3    3    0    0  0.12084186506E+00 -0.43189173638E+01 -0.88304903491E+01  0.98308295692E+01  0.51100000000E-03 0. -1.
        -12    1    3    3    0    0  0.64081718406E+00 -0.23947254325E+01  0.59356601962E+01  0.64325281597E+01  0.00000000000E+00 0.  1.
</event>
<event>
 7    1  0.5290964E-013  0.5052887E+02  0.7816164E-02  0.1300439E+00
        -11   -1    0    0    0    0  0.00000000000E+00  0.00000000000E+00  0.45593999997E+02  0.45594000000E+02  0.51100000000E-03 0. -1.
         11   -1    0    0    0    0 -0.00000000000E+00 -0.00000000000E+00 -0.45593999997E+02  0.45594000000E+02  0.51100000000E-03 0.  1.
    9900012    2    1    2    0    0 -0.28851667987E+02 -0.24664405909E+02  0.14574389696E+02  0.50528874339E+02  0.30000044042E+02 0.  0.
         12    1    1    2    0    0  0.28851667987E+02  0.24664405909E+02 -0.14574389696E+02  0.40659125661E+02  0.00000000000E+00 0. -1.
         11    1    3    3    0    0 -0.23468839958E+02 -0.10763842535E+02  0.16968540781E+02  0.30896247857E+02  0.51100000000E-03 0. -1.
        -11    1    3    3    0    0 -0.42017622454E+01 -0.81388848743E+01  0.47994213026E+01  0.10340730055E+02  0.51100000000E-03 0.  1.
         12    1    3    3    0    0 -0.11810657836E+01 -0.57616784999E+01 -0.71935723884E+01  0.92918964280E+01  0.00000000000E+00 0. -1.
</event>
<event>
 7    1  0.5290964E-013  0.5052885E+02  0.7816164E-02  0.1300439E+00
        -11   -1    0    0    0    0  0.00000000000E+00  0.00000000000E+00  0.45593999997E+02  0.45594000000E+02  0.51100000000E-03 0.  1.
         11   -1    0    0    0    0 -0.00000000000E+00 -0.00000000000E+00 -0.45593999997E+02  0.45594000000E+02  0.51100000000E-03 0. -1.
    9900012    2    1    2    0    0  0.15090462676E+02 -0.32299323280E+02  0.19549882491E+02  0.50528852769E+02  0.29999978478E+02 0.  0.
         12    1    1    2    0    0 -0.15090462676E+02  0.32299323280E+02 -0.19549882491E+02  0.40659147231E+02  0.00000000000E+00 0. -1.
         11    1    3    3    0    0  0.88890521673E+01 -0.36817708256E+01 -0.19864180773E+01  0.98242832759E+01  0.51100000000E-03 0. -1.
        -11    1    3    3    0    0  0.11377182310E+02 -0.98130280642E+01  0.88351891157E+01  0.17429755135E+02  0.51100000000E-03 0.  1.
        -12    1    3    3    0    0 -0.51757718013E+01 -0.18804524390E+02  0.12701111452E+02  0.23274814358E+02  0.00000000000E+00 0.  1.
</event>
<event>
 7    1  0.5290964E-013  0.5052884E+02  0.7816164E-02  0.1300439E+00
        -11   -1    0    0    0    0  0.00000000000E+00  0.00000000000E+00  0.45593999997E+02  0.45594000000E+02  0.51100000000E-03 0.  1.
         11   -1    0    0    0    0 -0.00000000000E+00 -0.00000000000E+00 -0.45593999997E+02  0.45594000000E+02  0.51100000000E-03 0. -1.
    9900012    2    1    2    0    0 -0.24321514780E+02  0.12357140810E+02  0.30148501535E+02  0.50528841683E+02  0.29999944781E+02 0.  0.
         12    1    1    2    0    0  0.24321514780E+02 -0.12357140810E+02 -0.30148501535E+02  0.40659158317E+02  0.00000000000E+00 0. -1.
         11    1    3    3    0    0  0.22208448645E+01  0.11356633834E+01  0.10238034238E+01  0.26963043122E+01  0.51100000000E-03 0. -1.
        -11    1    3    3    0    0 -0.99699355051E+01  0.51053541668E+01 -0.26203342943E+01  0.11503495435E+02  0.51100000000E-03 0.  1.
        -12    1    3    3    0    0 -0.16572424140E+02  0.61161232602E+01  0.31745032405E+02  0.36329041936E+02  0.00000000000E+00 0.  1.
</event>
<event>
 7    1  0.5290964E-013  0.5052886E+02  0.7816164E-02  0.1300439E+00
        -11   -1    0    0    0    0  0.00000000000E+00  0.00000000000E+00  0.45593999997E+02  0.45594000000E+02  0.51100000000E-03 0.  1.
         11   -1    0    0    0    0 -0.00000000000E+00 -0.00000000000E+00 -0.45593999997E+02  0.45594000000E+02  0.51100000000E-03 0. -1.
    9900012    2    1    2    0    0 -0.16232371278E+02 -0.17227174616E+02  0.33059040424E+02  0.50528861097E+02  0.30000003791E+02 0.  0.
         12    1    1    2    0    0  0.16232371278E+02  0.17227174616E+02 -0.33059040424E+02  0.40659138903E+02  0.00000000000E+00 0. -1.
         11    1    3    3    0    0  0.35092258525E+01 -0.11331998528E+02  0.68644763454E+01  0.13705834250E+02  0.51100000000E-03 0. -1.
        -11    1    3    3    0    0 -0.18482283754E+02 -0.44873290722E+01  0.11967538679E+02  0.22471157452E+02  0.51100000000E-03 0.  1.
        -12    1    3    3    0    0 -0.12593133761E+01 -0.14078470158E+01  0.14227025400E+02  0.14351869395E+02  0.00000000000E+00 0.  1.
</event>
<event>
 7    1  0.5290964E-013  0.5052884E+02  0.7816164E-02  0.1300439E+00
        -11   -1    0    0    0    0  0.00000000000E+00  0.00000000000E+00  0.45593999997E+02  0.45594000000E+02  0.51100000000E-03 0.  1.
         11   -1    0    0    0    0 -0.00000000000E+00 -0.00000000000E+00 -0.45593999997E+02  0.45594000000E+02  0.51100000000E-03 0. -1.
    9900012    2    1    2    0    0 -0.15355880966E+02  0.36335797511E+02  0.98526278592E+01  0.50528836989E+02  0.29999930512E+02 0.  0.
         12    1    1    2    0    0  0.15355880966E+02 -0.36335797511E+02 -0.98526278592E+01  0.40659163011E+02  0.00000000000E+00 0. -1.
         11    1    3    3    0    0 -0.56891444290E+01  0.18938301065E+01 -0.61539104500E+01  0.85920644140E+01  0.51100000000E-03 0. -1.
        -11    1    3    3    0    0 -0.22033060943E+01 -0.10374060504E+01  0.16514041415E+01  0.29424318103E+01  0.51100000000E-03 0.  1.
         12    1    3    3    0    0 -0.74634304431E+01  0.35479373455E+02  0.14355134168E+02  0.38994340765E+02  0.00000000000E+00 0. -1.
</event>
<event>
 7    1  0.5290964E-013  0.5052886E+02  0.7816164E-02  0.1300439E+00
        -11   -1    0    0    0    0  0.00000000000E+00  0.00000000000E+00  0.45593999997E+02  0.45594000000E+02  0.51100000000E-03 0.  1.
         11   -1    0    0    0    0 -0.00000000000E+00 -0.00000000000E+00 -0.45593999997E+02  0.45594000000E+02  0.51100000000E-03 0. -1.
    9900012    2    1    2    0    0  0.16881940220E+01  0.90931222863E+01  0.39593313366E+02  0.50528864062E+02  0.30000012802E+02 0.  0.
         12    1    1    2    0    0 -0.16881940220E+01 -0.90931222863E+01 -0.39593313366E+02  0.40659135938E+02  0.00000000000E+00 0. -1.
         11    1    3    3    0    0  0.53860926091E+01 -0.23282427968E+01  0.19086212389E+01  0.61703762777E+01  0.51100000000E-03 0. -1.
        -11    1    3    3    0    0  0.62722499844E+01  0.96270358593E+01  0.28322741811E+02  0.30564663310E+02  0.51100000000E-03 0.  1.
         12    1    3    3    0    0 -0.99701485715E+01  0.17943292238E+01  0.93619503160E+01  0.13793824474E+02  0.00000000000E+00 0. -1.
</event>
<event>
 7    1  0.5290964E-013  0.5052884E+02  0.7816164E-02  0.1300439E+00
        -11   -1    0    0    0    0  0.00000000000E+00  0.00000000000E+00  0.45593999997E+02  0.45594000000E+02  0.51100000000E-03 0.  1.
         11   -1    0    0    0    0 -0.00000000000E+00 -0.00000000000E+00 -0.45593999997E+02  0.45594000000E+02  0.51100000000E-03 0. -1.
    9900012    2    1    2    0    0 -0.30512766275E+02  0.26866341470E+02 -0.58169199985E+00  0.50528836515E+02  0.29999929070E+02 0.  0.
         12    1    1    2    0    0  0.30512766275E+02 -0.26866341470E+02  0.58169199985E+00  0.40659163485E+02  0.00000000000E+00 0. -1.
         11    1    3    3    0    0 -0.18190317672E+02  0.12601904907E+02 -0.42286320433E+00  0.22133108184E+02  0.51100000000E-03 0. -1.
        -11    1    3    3    0    0 -0.13571676034E+02  0.16288020796E+02  0.57997164935E+01  0.21980143846E+02  0.51100000000E-03 0.  1.
        -12    1    3    3    0    0  0.12492274311E+01 -0.20235842338E+01 -0.59585452890E+01  0.64155844852E+01  0.00000000000E+00 0.  1.
</event>
<event>
 7    1  0.5290964E-013  0.5052887E+02  0.7816164E-02  0.1300439E+00
        -11   -1    0    0    0    0  0.00000000000E+00  0.00000000000E+00  0.45593999997E+02  0.45594000000E+02  0.51100000000E-03 0.  1.
         11   -1    0    0    0    0 -0.00000000000E+00 -0.00000000000E+00 -0.45593999997E+02  0.45594000000E+02  0.51100000000E-03 0. -1.
    9900012    2    1    2    0    0 -0.24796947736E+02 -0.16751408382E+02 -0.27525747886E+02  0.50528866998E+02  0.30000021726E+02 0.  0.
         12    1    1    2    0    0  0.24796947736E+02  0.16751408382E+02  0.27525747886E+02  0.40659133002E+02  0.00000000000E+00 0. -1.
         11    1    3    3    0    0 -0.45179409948E+01 -0.59897048005E+01 -0.18545288797E+01  0.77283654194E+01  0.51100000000E-03 0. -1.
        -11    1    3    3    0    0 -0.18436926548E+02 -0.17376500279E+02 -0.13208680257E+02  0.28571528781E+02  0.51100000000E-03 0.  1.
         12    1    3    3    0    0 -0.18420801938E+01  0.66147966978E+01 -0.12462538750E+02  0.14228972798E+02  0.00000000000E+00 0. -1.
</event>
<event>
 7    1  0.5290964E-013  0.5052887E+02  0.7816164E-02  0.1300439E+00
        -11   -1    0    0    0    0  0.00000000000E+00  0.00000000000E+00  0.45593999997E+02  0.45594000000E+02  0.51100000000E-03 0.  1.
         11   -1    0    0    0    0 -0.00000000000E+00 -0.00000000000E+00 -0.45593999997E+02  0.45594000000E+02  0.51100000000E-03 0. -1.
    9900012    2    1    2    0    0  0.20496875240E+02 -0.13219078783E+02  0.32531502156E+02  0.50528873460E+02  0.30000041370E+02 0.  0.
         12    1    1    2    0    0 -0.20496875240E+02  0.13219078783E+02 -0.32531502156E+02  0.40659126540E+02  0.00000000000E+00 0. -1.
         11    1    3    3    0    0  0.64123745686E+00 -0.10013799717E+02  0.49977395094E+01  0.11210029915E+02  0.51100000000E-03 0. -1.
        -11    1    3    3    0    0  0.79324732474E+01 -0.80668910430E+01  0.31497822580E+01  0.11743934241E+02  0.51100000000E-03 0.  1.
         12    1    3    3    0    0  0.11923164535E+02  0.48616119767E+01  0.24383980388E+02  0.27574909304E+02  0.00000000000E+00 0. -1.
</event>
<event>
 7    1  0.5290964E-013  0.5052885E+02  0.7816164E-02  0.1300439E+00
        -11   -1    0    0    0    0  0.00000000000E+00  0.00000000000E+00  0.45593999997E+02  0.45594000000E+02  0.51100000000E-03 0.  1.
         11   -1    0    0    0    0 -0.00000000000E+00 -0.00000000000E+00 -0.45593999997E+02  0.45594000000E+02  0.51100000000E-03 0. -1.
    9900012    2    1    2    0    0  0.35207694991E+02  0.12854294332E+02 -0.15759187593E+02  0.50528847734E+02  0.29999963174E+02 0.  0.
         12    1    1    2    0    0 -0.35207694991E+02 -0.12854294332E+02  0.15759187593E+02  0.40659152266E+02  0.00000000000E+00 0. -1.
         11    1    3    3    0    0  0.49525609239E+01  0.14659490043E+01  0.12628751410E+00  0.51665089747E+01  0.51100000000E-03 0. -1.
        -11    1    3    3    0    0  0.28622506467E+02  0.15943442754E+02 -0.46019502859E+01  0.33085029696E+02  0.51100000000E-03 0.  1.
         12    1    3    3    0    0  0.16326276003E+01 -0.45550974268E+01 -0.11283524821E+02  0.12277309063E+02  0.00000000000E+00 0. -1.
</event>
<event>
 7    1  0.5290964E-013  0.5052886E+02  0.7816164E-02  0.1300439E+00
        -11   -1    0    0    0    0  0.00000000000E+00  0.00000000000E+00  0.45593999997E+02  0.45594000000E+02  0.51100000000E-03 0.  1.
         11   -1    0    0    0    0 -0.00000000000E+00 -0.00000000000E+00 -0.45593999997E+02  0.45594000000E+02  0.51100000000E-03 0. -1.
    9900012    2    1    2    0    0 -0.33409321259E+02  0.22456337742E+02 -0.57179973262E+01  0.50528863939E+02  0.30000012429E+02 0.  0.
         12    1    1    2    0    0  0.33409321259E+02 -0.22456337742E+02  0.57179973262E+01  0.40659136061E+02  0.00000000000E+00 0. -1.
         11    1    3    3    0    0 -0.11067530925E+02 -0.54934310842E+01 -0.67004953076E+00  0.12374045114E+02  0.51100000000E-03 0. -1.
        -11    1    3    3    0    0 -0.36861866587E+01  0.66406538293E+00  0.21609864537E+01  0.43242129492E+01  0.51100000000E-03 0.  1.
        -12    1    3    3    0    0 -0.18655603675E+02  0.27285703444E+02 -0.72089342491E+01  0.33830605876E+02  0.00000000000E+00 0.  1.
</event>
<event>
 7    1  0.5290964E-013  0.5052885E+02  0.7816164E-02  0.1300439E+00
        -11   -1    0    0    0    0  0.00000000000E+00  0.00000000000E+00  0.45593999997E+02  0.45594000000E+02  0.51100000000E-03 0. -1.
         11   -1    0    0    0    0 -0.00000000000E+00 -0.00000000000E+00 -0.45593999997E+02  0.45594000000E+02  0.51100000000E-03 0.  1.
    9900012    2    1    2    0    0  0.93792293803E+01 -0.10682323520E+02 -0.38093100530E+02  0.50528852351E+02  0.29999977206E+02 0.  0.
         12    1    1    2    0    0 -0.93792293803E+01  0.10682323520E+02  0.38093100530E+02  0.40659147649E+02  0.00000000000E+00 0. -1.
         11    1    3    3    0    0  0.36922285772E+01 -0.49916598901E+01 -0.69238328084E+01  0.92999291043E+01  0.51100000000E-03 0. -1.
        -11    1    3    3    0    0  0.71855576382E+01 -0.13185071517E+02 -0.83882028998E+01  0.17200008652E+02  0.51100000000E-03 0.  1.
         12    1    3    3    0    0 -0.14985568351E+01  0.74944078875E+01 -0.22781064822E+02  0.24028914594E+02  0.00000000000E+00 0. -1.
</event>
<event>
 7    1  0.5290964E-013  0.5052886E+02  0.7816164E-02  0.1300439E+00
        -11   -1    0    0    0    0  0.00000000000E+00  0.00000000000E+00  0.45593999997E+02  0.45594000000E+02  0.51100000000E-03 0. -1.
         11   -1    0    0    0    0 -0.00000000000E+00 -0.00000000000E+00 -0.45593999997E+02  0.45594000000E+02  0.51100000000E-03 0.  1.
    9900012    2    1    2    0    0 -0.10912860556E+02 -0.37542260291E+02 -0.11164853791E+02  0.50528858427E+02  0.29999995675E+02 0.  0.
         12    1    1    2    0    0  0.10912860556E+02  0.37542260291E+02  0.11164853791E+02  0.40659141573E+02  0.00000000000E+00 0. -1.
         11    1    3    3    0    0  0.80400080054E+00 -0.12968753387E+01 -0.76550011068E+01  0.78055970392E+01  0.51100000000E-03 0. -1.
        -11    1    3    3    0    0 -0.69711142474E+01 -0.19900326642E+01  0.24059210944E+01  0.76383977658E+01  0.51100000000E-03 0.  1.
        -12    1    3    3    0    0 -0.47457471093E+01 -0.34255352288E+02 -0.59157737791E+01  0.35084863622E+02  0.00000000000E+00 0.  1.
</event>
<event>
 7    1  0.5290964E-013  0.5052886E+02  0.7816164E-02  0.1300439E+00
        -11   -1    0    0    0    0  0.00000000000E+00  0.00000000000E+00  0.45593999997E+02  0.45594000000E+02  0.51100000000E-03 0.  1.
         11   -1    0    0    0    0 -0.00000000000E+00 -0.00000000000E+00 -0.45593999997E+02  0.45594000000E+02  0.51100000000E-03 0. -1.
    9900012    2    1    2    0    0 -0.37957620002E+01  0.39978729037E+02 -0.63607432941E+01  0.50528860316E+02  0.30000001416E+02 0.  0.
         12    1    1    2    0    0  0.37957620002E+01 -0.39978729037E+02  0.63607432941E+01  0.40659139684E+02  0.00000000000E+00 0. -1.
         11    1    3    3    0    0 -0.14430250414E+01 -0.26485807279E+01 -0.56699183312E+01  0.64222484603E+01  0.51100000000E-03 0. -1.
        -11    1    3    3    0    0  0.11537509503E+00  0.20576809937E+02 -0.57163909892E+01  0.21356393535E+02  0.51100000000E-03 0.  1.
        -12    1    3    3    0    0 -0.24681120538E+01  0.22050499828E+02  0.50255660263E+01  0.22750218321E+02  0.00000000000E+00 0.  1.
</event>
<event>
 7    1  0.5290964E-013  0.5052885E+02  0.7816164E-02  0.1300439E+00
        -11   -1    0    0    0    0  0.00000000000E+00  0.00000000000E+00  0.45593999997E+02  0.45594000000E+02  0.51100000000E-03 0.  1.
         11   -1    0    0    0    0 -0.00000000000E+00 -0.00000000000E+00 -0.45593999997E+02  0.45594000000E+02  0.51100000000E-03 0. -1.
    9900012    2    1    2    0    0  0.25946939066E+02  0.20146176154E+01  0.31238822792E+02  0.50528851208E+02  0.29999973732E+02 0.  0.
         12    1    1    2    0    0 -0.25946939066E+02 -0.20146176154E+01 -0.31238822792E+02  0.40659148792E+02  0.00000000000E+00 0. -1.
         11    1    3    3    0    0  0.18298743612E+01  0.74422095015E+01  0.70463856302E+01  0.10410882439E+02  0.51100000000E-03 0. -1.
        -11    1    3    3    0    0  0.57734156677E+00  0.35737273632E+01  0.11186866432E+02  0.11758011371E+02  0.51100000000E-03 0.  1.
         12    1    3    3    0    0  0.23539723138E+02 -0.90013192493E+01  0.13005570730E+02  0.28359957399E+02  0.00000000000E+00 0. -1.
</event>
<event>
 7    1  0.5290964E-013  0.5052887E+02  0.7816164E-02  0.1300439E+00
        -11   -1    0    0    0    0  0.00000000000E+00  0.00000000000E+00  0.45593999997E+02  0.45594000000E+02  0.51100000000E-03 0.  1.
         11   -1    0    0    0    0 -0.00000000000E+00 -0.00000000000E+00 -0.45593999997E+02  0.45594000000E+02  0.51100000000E-03 0. -1.
    9900012    2    1    2    0    0 -0.17144446856E+02  0.41930286230E+01  0.36628558236E+02  0.50528870330E+02  0.30000031857E+02 0.  0.
         12    1    1    2    0    0  0.17144446856E+02 -0.41930286230E+01 -0.36628558236E+02  0.40659129670E+02  0.00000000000E+00 0. -1.
         11    1    3    3    0    0 -0.59223807880E+00 -0.61054346549E+01  0.14100669886E+02  0.15377124886E+02  0.51100000000E-03 0. -1.
        -11    1    3    3    0    0 -0.37223531344E+01 -0.54489373589E+01  0.66666251411E+01  0.93803369998E+01  0.51100000000E-03 0.  1.
         12    1    3    3    0    0 -0.12829855643E+02  0.15747400637E+02  0.15861263209E+02  0.25771408444E+02  0.00000000000E+00 0. -1.
</event>
<event>
 7    1  0.5290964E-013  0.5052886E+02  0.7816164E-02  0.1300439E+00
        -11   -1    0    0    0    0  0.00000000000E+00  0.00000000000E+00  0.45593999997E+02  0.45594000000E+02  0.51100000000E-03 0.  1.
         11   -1    0    0    0    0 -0.00000000000E+00 -0.00000000000E+00 -0.45593999997E+02  0.45594000000E+02  0.51100000000E-03 0. -1.
    9900012    2    1    2    0    0 -0.34771032693E+02  0.11099979090E+02  0.17914565282E+02  0.50528857122E+02  0.29999991709E+02 0.  0.
         12    1    1    2    0    0  0.34771032693E+02 -0.11099979090E+02 -0.17914565282E+02  0.40659142878E+02  0.00000000000E+00 0. -1.
         11    1    3    3    0    0 -0.61321887697E+01  0.23134715288E+01 -0.79414715430E+01  0.10296740268E+02  0.51100000000E-03 0. -1.
        -11    1    3    3    0    0 -0.12374949032E+02  0.69469537858E+01  0.94006762164E+01  0.17022697907E+02  0.51100000000E-03 0.  1.
        -12    1    3    3    0    0 -0.16263894891E+02  0.18395537750E+01  0.16455360608E+02  0.23209418947E+02  0.00000000000E+00 0.  1.
</event>
<event>
 7    1  0.5290964E-013  0.5052885E+02  0.7816164E-02  0.1300439E+00
        -11   -1    0    0    0    0  0.00000000000E+00  0.00000000000E+00  0.45593999997E+02  0.45594000000E+02  0.51100000000E-03 0. -1.
         11   -1    0    0    0    0 -0.00000000000E+00 -0.00000000000E+00 -0.45593999997E+02  0.45594000000E+02  0.51100000000E-03 0.  1.
    9900012    2    1    2    0    0  0.31122844430E+02  0.70460995307E+01 -0.25196973207E+02  0.50528850688E+02  0.29999972150E+02 0.  0.
         12    1    1    2    0    0 -0.31122844430E+02 -0.70460995307E+01  0.25196973207E+02  0.40659149312E+02  0.00000000000E+00 0. -1.
         11    1    3    3    0    0  0.99093749649E+01  0.65588704091E+01 -0.70930246634E+01  0.13839273549E+02  0.51100000000E-03 0. -1.
        -11    1    3    3    0    0  0.11931914237E+02  0.42051547291E+01 -0.22464219601E+02  0.25781680826E+02  0.51100000000E-03 0.  1.
         12    1    3    3    0    0  0.92815552281E+01 -0.37179256075E+01  0.43602710572E+01  0.10907896313E+02  0.00000000000E+00 0. -1.
</event>
<event>
 7    1  0.5290964E-013  0.5052887E+02  0.7816164E-02  0.1300439E+00
        -11   -1    0    0    0    0  0.00000000000E+00  0.00000000000E+00  0.45593999997E+02  0.45594000000E+02  0.51100000000E-03 0.  1.
         11   -1    0    0    0    0 -0.00000000000E+00 -0.00000000000E+00 -0.45593999997E+02  0.45594000000E+02  0.51100000000E-03 0. -1.
    9900012    2    1    2    0    0  0.29227805119E+02  0.51432273362E+01  0.27792936428E+02  0.50528871937E+02  0.30000036741E+02 0.  0.
         12    1    1    2    0    0 -0.29227805119E+02 -0.51432273362E+01 -0.27792936428E+02  0.40659128063E+02  0.00000000000E+00 0. -1.
         11    1    3    3    0    0 -0.14395305387E+01  0.13834078075E+01 -0.13465268504E+01  0.24081528510E+01  0.51100000000E-03 0. -1.
        -11    1    3    3    0    0  0.14192081050E+02 -0.76593013365E+01  0.21018252322E+02  0.26492394992E+02  0.51100000000E-03 0.  1.
         12    1    3    3    0    0  0.16475254608E+02  0.11419120865E+02  0.81212109566E+01  0.21628324095E+02  0.00000000000E+00 0. -1.
</event>
<event>
 7    1  0.5290964E-013  0.5052885E+02  0.7816164E-02  0.1300439E+00
        -11   -1    0    0    0    0  0.00000000000E+00  0.00000000000E+00  0.45593999997E+02  0.45594000000E+02  0.51100000000E-03 0. -1.
         11   -1    0    0    0    0 -0.00000000000E+00 -0.00000000000E+00 -0.45593999997E+02  0.45594000000E+02  0.51100000000E-03 0.  1.
    9900012    2    1    2    0    0 -0.25000346790E+02  0.11437573102E+02 -0.29955487391E+02  0.50528847981E+02  0.29999963924E+02 0.  0.
         12    1    1    2    0    0  0.25000346790E+02 -0.11437573102E+02  0.29955487391E+02  0.40659152019E+02  0.00000000000E+00 0. -1.
         11    1    3    3    0    0 -0.13870118295E+02  0.12529965240E+02 -0.15888192269E+02  0.24531915218E+02  0.51100000000E-03 0.  1.
        -11    1    3    3    0    0 -0.41439211935E+01  0.88030730973E+01 -0.57248259841E+01  0.11288924290E+02  0.51100000000E-03 0. -1.
         12    1    3    3    0    0 -0.69863073010E+01 -0.98954652355E+01 -0.83424691375E+01  0.14708008473E+02  0.00000000000E+00 0. -1.
</event>
<event>
 7    1  0.5290964E-013  0.5052888E+02  0.7816164E-02  0.1300439E+00
        -11   -1    0    0    0    0  0.00000000000E+00  0.00000000000E+00  0.45593999997E+02  0.45594000000E+02  0.51100000000E-03 0.  1.
         11   -1    0    0    0    0 -0.00000000000E+00 -0.00000000000E+00 -0.45593999997E+02  0.45594000000E+02  0.51100000000E-03 0. -1.
    9900012    2    1    2    0    0 -0.21167861198E+01 -0.32873028366E+02  0.23833739332E+02  0.50528881613E+02  0.30000066151E+02 0.  0.
         12    1    1    2    0    0  0.21167861198E+01  0.32873028366E+02 -0.23833739332E+02  0.40659118387E+02  0.00000000000E+00 0. -1.
         11    1    3    3    0    0  0.30879254911E+01 -0.82953729699E+00  0.30787910488E+01  0.44387352420E+01  0.51100000000E-03 0. -1.
        -11    1    3    3    0    0 -0.14893505997E+02 -0.13095792044E+02  0.11017391554E+02  0.22686983208E+02  0.51100000000E-03 0.  1.
         12    1    3    3    0    0  0.96887943859E+01 -0.18947699025E+02  0.97375567296E+01  0.23403163163E+02  0.00000000000E+00 0. -1.
</event>
<event>
 7    1  0.5290964E-013  0.5052887E+02  0.7816164E-02  0.1300439E+00
        -11   -1    0    0    0    0  0.00000000000E+00  0.00000000000E+00  0.45593999997E+02  0.45594000000E+02  0.51100000000E-03 0.  1.
         11   -1    0    0    0    0 -0.00000000000E+00 -0.00000000000E+00 -0.45593999997E+02  0.45594000000E+02  0.51100000000E-03 0. -1.
    9900012    2    1    2    0    0 -0.32115542716E+02  0.31121448351E+01  0.24740079412E+02  0.50528867462E+02  0.30000023137E+02 0.  0.
         12    1    1    2    0    0  0.32115542716E+02 -0.31121448351E+01 -0.24740079412E+02  0.40659132538E+02  0.00000000000E+00 0. -1.
         11    1    3    3    0    0 -0.23024008026E+02  0.52434903489E+01  0.51948565346E-01  0.23613594295E+02  0.51100000000E-03 0. -1.
        -11    1    3    3    0    0 -0.18056277650E+01 -0.20307962996E+01  0.11810214083E+02  0.12118811087E+02  0.51100000000E-03 0.  1.
        -12    1    3    3    0    0 -0.72859069254E+01 -0.10054921423E+00  0.12877916764E+02  0.14796462079E+02  0.00000000000E+00 0.  1.
</event>
<event>
 7    1  0.5290964E-013  0.5052885E+02  0.7816164E-02  0.1300439E+00
        -11   -1    0    0    0    0  0.00000000000E+00  0.00000000000E+00  0.45593999997E+02  0.45594000000E+02  0.51100000000E-03 0.  1.
         11   -1    0    0    0    0 -0.00000000000E+00 -0.00000000000E+00 -0.45593999997E+02  0.45594000000E+02  0.51100000000E-03 0. -1.
    9900012    2    1    2    0    0  0.22048877201E+01 -0.36235577173E+02  0.18310861212E+02  0.50528853166E+02  0.29999979684E+02 0.  0.
         12    1    1    2    0    0 -0.22048877201E+01  0.36235577173E+02 -0.18310861212E+02  0.40659146834E+02  0.00000000000E+00 0. -1.
         11    1    3    3    0    0  0.69786149504E+00 -0.52975048600E+01 -0.51204240895E+01  0.74006291304E+01  0.51100000000E-03 0. -1.
        -11    1    3    3    0    0  0.23958537812E+01 -0.65348977262E+01 -0.26055782274E+01  0.74319608309E+01  0.51100000000E-03 0.  1.
        -12    1    3    3    0    0 -0.88882755609E+00 -0.24403174587E+02  0.26036863529E+02  0.35696263205E+02  0.00000000000E+00 0.  1.
</event>
<event>
 7    1  0.5290964E-013  0.5052886E+02  0.7816164E-02  0.1300439E+00
        -11   -1    0    0    0    0  0.00000000000E+00  0.00000000000E+00  0.45593999997E+02  0.45594000000E+02  0.51100000000E-03 0.  1.
         11   -1    0    0    0    0 -0.00000000000E+00 -0.00000000000E+00 -0.45593999997E+02  0.45594000000E+02  0.51100000000E-03 0. -1.
    9900012    2    1    2    0    0 -0.10865479347E+02 -0.48037398368E+01  0.38884848334E+02  0.50528856037E+02  0.29999988409E+02 0.  0.
         12    1    1    2    0    0  0.10865479347E+02  0.48037398368E+01 -0.38884848334E+02  0.40659143963E+02  0.00000000000E+00 0. -1.
         11    1    3    3    0    0  0.41143422240E+01 -0.37001487414E+01  0.11045576921E+02  0.12354095775E+02  0.51100000000E-03 0. -1.
        -11    1    3    3    0    0 -0.30642700897E+01  0.96138878603E+01  0.11075264656E+02  0.14982592514E+02  0.51100000000E-03 0.  1.
         12    1    3    3    0    0 -0.11915551482E+02 -0.10717478956E+02  0.16764006757E+02  0.23192167748E+02  0.00000000000E+00 0. -1.
</event>
<event>
 7    1  0.5290964E-013  0.5052885E+02  0.7816164E-02  0.1300439E+00
        -11   -1    0    0    0    0  0.00000000000E+00  0.00000000000E+00  0.45593999997E+02  0.45594000000E+02  0.51100000000E-03 0.  1.
         11   -1    0    0    0    0 -0.00000000000E+00 -0.00000000000E+00 -0.45593999997E+02  0.45594000000E+02  0.51100000000E-03 0. -1.
    9900012    2    1    2    0    0 -0.30558740061E+02  0.59013981147E+00  0.26813839138E+02  0.50528845699E+02  0.29999956987E+02 0.  0.
         12    1    1    2    0    0  0.30558740061E+02 -0.59013981147E+00 -0.26813839138E+02  0.40659154301E+02  0.00000000000E+00 0. -1.
         11    1    3    3    0    0  0.41578926511E+00 -0.12917653479E+00 -0.14865680554E+00  0.46007216507E+00  0.51100000000E-03 0. -1.
        -11    1    3    3    0    0 -0.17896797682E+02  0.52467876195E+01  0.30531207484E+02  0.35776791056E+02  0.51100000000E-03 0.  1.
        -12    1    3    3    0    0 -0.13077731644E+02 -0.45274712732E+01 -0.35687115403E+01  0.14291982478E+02  0.00000000000E+00 0.  1.
</event>
<event>
 7    1  0.5290964E-013  0.5052886E+02  0.7816164E-02  0.1300439E+00
        -11   -1    0    0    0    0  0.00000000000E+00  0.00000000000E+00  0.45593999997E+02  0.45594000000E+02  0.51100000000E-03 0. -1.
         11   -1    0    0    0    0 -0.00000000000E+00 -0.00000000000E+00 -0.45593999997E+02  0.45594000000E+02  0.51100000000E-03 0.  1.
    9900012    2    1    2    0    0  0.17175629714E+02 -0.19100754010E+02 -0.31517053320E+02  0.50528859456E+02  0.29999998801E+02 0.  0.
         12    1    1    2    0    0 -0.17175629714E+02  0.19100754010E+02  0.31517053320E+02  0.40659140544E+02  0.00000000000E+00 0. -1.
         11    1    3    3    0    0  0.55001629357E+01 -0.89157355998E+01 -0.12290961926E+02  0.16149609250E+02  0.51100000000E-03 0. -1.
        -11    1    3    3    0    0  0.12290127118E+02 -0.91754337176E+01 -0.24538240780E+02  0.28937191801E+02  0.51100000000E-03 0.  1.
         12    1    3    3    0    0 -0.61466033979E+00 -0.10095846928E+01  0.53121493856E+01  0.54420584047E+01  0.00000000000E+00 0. -1.
</event>
<event>
 7    1  0.5290964E-013  0.5052887E+02  0.7816164E-02  0.1300439E+00
        -11   -1    0    0    0    0  0.00000000000E+00  0.00000000000E+00  0.45593999997E+02  0.45594000000E+02  0.51100000000E-03 0. -1.
         11   -1    0    0    0    0 -0.00000000000E+00 -0.00000000000E+00 -0.45593999997E+02  0.45594000000E+02  0.51100000000E-03 0.  1.
    9900012    2    1    2    0    0  0.82277646322E+01 -0.76705713889E+01 -0.39072130698E+02  0.50528866050E+02  0.30000018845E+02 0.  0.
         12    1    1    2    0    0 -0.82277646322E+01  0.76705713889E+01  0.39072130698E+02  0.40659133950E+02  0.00000000000E+00 0. -1.
         11    1    3    3    0    0  0.37044935597E+01  0.15792124250E+01 -0.46588673243E+01  0.61581027454E+01  0.51100000000E-03 0. -1.
        -11    1    3    3    0    0  0.27868778827E+01  0.78047707107E+01 -0.21088627406E+02  0.22658582045E+02  0.51100000000E-03 0.  1.
         12    1    3    3    0    0  0.17363931898E+01 -0.17054554525E+02 -0.13324635968E+02  0.21712181259E+02  0.00000000000E+00 0. -1.
</event>
<event>
 7    1  0.5290964E-013  0.5052885E+02  0.7816164E-02  0.1300439E+00
        -11   -1    0    0    0    0  0.00000000000E+00  0.00000000000E+00  0.45593999997E+02  0.45594000000E+02  0.51100000000E-03 0. -1.
         11   -1    0    0    0    0 -0.00000000000E+00 -0.00000000000E+00 -0.45593999997E+02  0.45594000000E+02  0.51100000000E-03 0.  1.
    9900012    2    1    2    0    0 -0.40305835602E+02 -0.41560606145E+01  0.33664495889E+01  0.50528853351E+02  0.29999980246E+02 0.  0.
         12    1    1    2    0    0  0.40305835602E+02  0.41560606145E+01 -0.33664495889E+01  0.40659146649E+02  0.00000000000E+00 0. -1.
         11    1    3    3    0    0 -0.34088826320E+01 -0.35801467344E+00  0.32822324346E-01  0.34277883352E+01  0.51100000000E-03 0. -1.
        -11    1    3    3    0    0 -0.29828998293E+02  0.57330918352E+01  0.11734056584E+02  0.32562640639E+02  0.51100000000E-03 0.  1.
         12    1    3    3    0    0 -0.70679546763E+01 -0.95311377763E+01 -0.84004293196E+01  0.14538424377E+02  0.00000000000E+00 0. -1.
</event>
<event>
 7    1  0.5290964E-013  0.5052886E+02  0.7816164E-02  0.1300439E+00
        -11   -1    0    0    0    0  0.00000000000E+00  0.00000000000E+00  0.45593999997E+02  0.45594000000E+02  0.51100000000E-03 0. -1.
         11   -1    0    0    0    0 -0.00000000000E+00 -0.00000000000E+00 -0.45593999997E+02  0.45594000000E+02  0.51100000000E-03 0.  1.
    9900012    2    1    2    0    0 -0.17826896618E+02  0.24112284999E+02 -0.27458425181E+02  0.50528860261E+02  0.30000001250E+02 0.  0.
         12    1    1    2    0    0  0.17826896618E+02 -0.24112284999E+02  0.27458425181E+02  0.40659139739E+02  0.00000000000E+00 0. -1.
         11    1    3    3    0    0 -0.11477617887E+02  0.23739387234E+01 -0.28151161050E+01  0.12053886360E+02  0.51100000000E-03 0. -1.
        -11    1    3    3    0    0 -0.12564100826E+02  0.17712060391E+02 -0.15354749555E+02  0.26595902824E+02  0.51100000000E-03 0.  1.
         12    1    3    3    0    0  0.62148220951E+01  0.40262858851E+01 -0.92885595204E+01  0.11879071078E+02  0.00000000000E+00 0. -1.
</event>
<event>
 7    1  0.5290964E-013  0.5052887E+02  0.7816164E-02  0.1300439E+00
        -11   -1    0    0    0    0  0.00000000000E+00  0.00000000000E+00  0.45593999997E+02  0.45594000000E+02  0.51100000000E-03 0.  1.
         11   -1    0    0    0    0 -0.00000000000E+00 -0.00000000000E+00 -0.45593999997E+02  0.45594000000E+02  0.51100000000E-03 0. -1.
    9900012    2    1    2    0    0 -0.12197731986E+02 -0.14596161180E+02  0.35935112425E+02  0.50528869515E+02  0.30000029377E+02 0.  0.
         12    1    1    2    0    0  0.12197731986E+02  0.14596161180E+02 -0.35935112425E+02  0.40659130485E+02  0.00000000000E+00 0. -1.
         11    1    3    3    0    0 -0.16432869199E+01 -0.10800938974E+02  0.12284447991E+02  0.16439839942E+02  0.51100000000E-03 0. -1.
        -11    1    3    3    0    0 -0.10055357851E+02 -0.86820870125E+01  0.25569943834E+02  0.28815115553E+02  0.51100000000E-03 0.  1.
         12    1    3    3    0    0 -0.49908721498E+00  0.48868648059E+01 -0.19192793991E+01  0.52739140201E+01  0.00000000000E+00 0. -1.
</event>
<event>
 7    1  0.5290964E-013  0.5052887E+02  0.7816164E-02  0.1300439E+00
        -11   -1    0    0    0    0  0.00000000000E+00  0.00000000000E+00  0.45593999997E+02  0.45594000000E+02  0.51100000000E-03 0. -1.
         11   -1    0    0    0    0 -0.00000000000E+00 -0.00000000000E+00 -0.45593999997E+02  0.45594000000E+02  0.51100000000E-03 0.  1.
    9900012    2    1    2    0    0  0.39940419689E+02 -0.70382285027E+01 -0.28967727873E+01  0.50528867225E+02  0.30000022418E+02 0.  0.
         12    1    1    2    0    0 -0.39940419689E+02  0.70382285027E+01  0.28967727873E+01  0.40659132775E+02  0.00000000000E+00 0. -1.
         11    1    3    3    0    0 -0.25548832394E+01  0.21935624156E+00  0.12249166582E+00  0.25672066526E+01  0.51100000000E-03 0. -1.
        -11    1    3    3    0    0  0.73396620084E+01  0.58264025662E+01  0.32727669014E+01  0.99261578021E+01  0.51100000000E-03 0.  1.
        -12    1    3    3    0    0  0.35155640920E+02 -0.13083987310E+02 -0.62920313546E+01  0.38035502771E+02  0.00000000000E+00 0.  1.
</event>
<event>
 7    1  0.5290964E-013  0.5052886E+02  0.7816164E-02  0.1300439E+00
        -11   -1    0    0    0    0  0.00000000000E+00  0.00000000000E+00  0.45593999997E+02  0.45594000000E+02  0.51100000000E-03 0. -1.
         11   -1    0    0    0    0 -0.00000000000E+00 -0.00000000000E+00 -0.45593999997E+02  0.45594000000E+02  0.51100000000E-03 0.  1.
    9900012    2    1    2    0    0 -0.20416896520E+02  0.87467876488E+01  0.34055977073E+02  0.50528861641E+02  0.30000005443E+02 0.  0.
         12    1    1    2    0    0  0.20416896520E+02 -0.87467876488E+01 -0.34055977073E+02  0.40659138359E+02  0.00000000000E+00 0. -1.
         11    1    3    3    0    0 -0.46977305701E+01  0.17803533541E+01  0.46979388090E+01  0.68781509062E+01  0.51100000000E-03 0.  1.
        -11    1    3    3    0    0 -0.19975151232E+02  0.13780330387E+02  0.22260512043E+02  0.32930754152E+02  0.51100000000E-03 0. -1.
         12    1    3    3    0    0  0.42559852814E+01 -0.68138960926E+01  0.70975262215E+01  0.10719956583E+02  0.00000000000E+00 0. -1.
</event>
<event>
 7    1  0.5290964E-013  0.5052886E+02  0.7816164E-02  0.1300439E+00
        -11   -1    0    0    0    0  0.00000000000E+00  0.00000000000E+00  0.45593999997E+02  0.45594000000E+02  0.51100000000E-03 0.  1.
         11   -1    0    0    0    0 -0.00000000000E+00 -0.00000000000E+00 -0.45593999997E+02  0.45594000000E+02  0.51100000000E-03 0. -1.
    9900012    2    1    2    0    0 -0.31088620333E+01 -0.66689036495E+01  0.39987831737E+02  0.50528856059E+02  0.29999988476E+02 0.  0.
         12    1    1    2    0    0  0.31088620333E+01  0.66689036495E+01 -0.39987831737E+02  0.40659143941E+02  0.00000000000E+00 0. -1.
         11    1    3    3    0    0 -0.57849249861E+01 -0.39117985205E+01  0.95212041997E+01  0.11807660837E+02  0.51100000000E-03 0. -1.
        -11    1    3    3    0    0  0.16910571292E+01 -0.13099326272E+02  0.13965998631E+02  0.19222412467E+02  0.51100000000E-03 0.  1.
        -12    1    3    3    0    0  0.98500582353E+00  0.10342221143E+02  0.16500628906E+02  0.19498782755E+02  0.00000000000E+00 0.  1.
</event>
<event>
 7    1  0.5290964E-013  0.5052886E+02  0.7816164E-02  0.1300439E+00
        -11   -1    0    0    0    0  0.00000000000E+00  0.00000000000E+00  0.45593999997E+02  0.45594000000E+02  0.51100000000E-03 0. -1.
         11   -1    0    0    0    0 -0.00000000000E+00 -0.00000000000E+00 -0.45593999997E+02  0.45594000000E+02  0.51100000000E-03 0.  1.
    9900012    2    1    2    0    0 -0.18753659533E+02 -0.21266393033E+02 -0.29141147986E+02  0.50528859275E+02  0.29999998254E+02 0.  0.
         12    1    1    2    0    0  0.18753659533E+02  0.21266393033E+02  0.29141147986E+02  0.40659140725E+02  0.00000000000E+00 0. -1.
         11    1    3    3    0    0 -0.25299582994E+00 -0.41988929073E+01 -0.98103368973E+01  0.10674147218E+02  0.51100000000E-03 0. -1.
        -11    1    3    3    0    0 -0.54723283425E+00 -0.16219294713E+02 -0.13018738970E+02  0.20805108733E+02  0.51100000000E-03 0.  1.
         12    1    3    3    0    0 -0.17953430869E+02 -0.84820541296E+00 -0.63120721187E+01  0.19049603324E+02  0.00000000000E+00 0. -1.
</event>
<event>
 7    1  0.5290964E-013  0.5052886E+02  0.7816164E-02  0.1300439E+00
        -11   -1    0    0    0    0  0.00000000000E+00  0.00000000000E+00  0.45593999997E+02  0.45594000000E+02  0.51100000000E-03 0. -1.
         11   -1    0    0    0    0 -0.00000000000E+00 -0.00000000000E+00 -0.45593999997E+02  0.45594000000E+02  0.51100000000E-03 0.  1.
    9900012    2    1    2    0    0 -0.33572512391E+02  0.18380720254E+01 -0.22862049709E+02  0.50528863095E+02  0.30000009863E+02 0.  0.
         12    1    1    2    0    0  0.33572512391E+02 -0.18380720254E+01  0.22862049709E+02  0.40659136905E+02  0.00000000000E+00 0. -1.
         11    1    3    3    0    0  0.25000820563E-01  0.75922598937E+01 -0.45058888849E+00  0.76056601253E+01  0.51100000000E-03 0. -1.
        -11    1    3    3    0    0 -0.87340094554E+01 -0.77160533296E+01 -0.66119153138E+01  0.13399172532E+02  0.51100000000E-03 0.  1.
        -12    1    3    3    0    0 -0.24863503756E+02  0.19618654613E+01 -0.15799545506E+02  0.29524030438E+02  0.00000000000E+00 0.  1.
</event>
<event>
 7    1  0.5290964E-013  0.5052886E+02  0.7816164E-02  0.1300439E+00
        -11   -1    0    0    0    0  0.00000000000E+00  0.00000000000E+00  0.45593999997E+02  0.45594000000E+02  0.51100000000E-03 0.  1.
         11   -1    0    0    0    0 -0.00000000000E+00 -0.00000000000E+00 -0.45593999997E+02  0.45594000000E+02  0.51100000000E-03 0. -1.
    9900012    2    1    2    0    0 -0.16255954920E+02  0.34093395193E+02  0.15051577161E+02  0.50528860300E+02  0.30000001366E+02 0.  0.
         12    1    1    2    0    0  0.16255954920E+02 -0.34093395193E+02 -0.15051577161E+02  0.40659139700E+02  0.00000000000E+00 0. -1.
         11    1    3    3    0    0 -0.13756189046E+01 -0.27154881692E+01 -0.28728063949E+01  0.41855967569E+01  0.51100000000E-03 0. -1.
        -11    1    3    3    0    0 -0.65242762767E+01  0.17838857383E+02  0.84569282710E-01  0.18994687833E+02  0.51100000000E-03 0.  1.
         12    1    3    3    0    0 -0.83560597388E+01  0.18970025979E+02  0.17839814274E+02  0.27348575709E+02  0.00000000000E+00 0. -1.
</event>
<event>
 7    1  0.5290964E-013  0.5052886E+02  0.7816164E-02  0.1300439E+00
        -11   -1    0    0    0    0  0.00000000000E+00  0.00000000000E+00  0.45593999997E+02  0.45594000000E+02  0.51100000000E-03 0. -1.
         11   -1    0    0    0    0 -0.00000000000E+00 -0.00000000000E+00 -0.45593999997E+02  0.45594000000E+02  0.51100000000E-03 0.  1.
    9900012    2    1    2    0    0  0.14030728746E+02 -0.36633812813E+02  0.10689616406E+02  0.50528862167E+02  0.30000007044E+02 0.  0.
         12    1    1    2    0    0 -0.14030728746E+02  0.36633812813E+02 -0.10689616406E+02  0.40659137833E+02  0.00000000000E+00 0. -1.
         11    1    3    3    0    0  0.26211071239E+01 -0.23023226978E+02 -0.19538840982E+01  0.23254179116E+02  0.51100000000E-03 0. -1.
        -11    1    3    3    0    0  0.73418200757E+01 -0.91188434877E+01 -0.15808069692E+01  0.11813322120E+02  0.51100000000E-03 0.  1.
         12    1    3    3    0    0  0.40678015465E+01 -0.44917423475E+01  0.14224307474E+02  0.15461360931E+02  0.00000000000E+00 0. -1.
</event>
<event>
 7    1  0.5290964E-013  0.5052886E+02  0.7816164E-02  0.1300439E+00
        -11   -1    0    0    0    0  0.00000000000E+00  0.00000000000E+00  0.45593999997E+02  0.45594000000E+02  0.51100000000E-03 0. -1.
         11   -1    0    0    0    0 -0.00000000000E+00 -0.00000000000E+00 -0.45593999997E+02  0.45594000000E+02  0.51100000000E-03 0.  1.
    9900012    2    1    2    0    0 -0.13767560605E+01  0.31561998488E+02 -0.25595117771E+02  0.50528864993E+02  0.30000015633E+02 0.  0.
         12    1    1    2    0    0  0.13767560605E+01 -0.31561998488E+02  0.25595117771E+02  0.40659135007E+02  0.00000000000E+00 0. -1.
         11    1    3    3    0    0 -0.76389820870E+01  0.25985373033E+02 -0.17033255011E+02  0.31995709642E+02  0.51100000000E-03 0. -1.
        -11    1    3    3    0    0 -0.29400503605E+01  0.57552181035E+01 -0.83630402276E+00  0.65165816361E+01  0.51100000000E-03 0.  1.
         12    1    3    3    0    0  0.92022763870E+01 -0.17859264846E+00 -0.77255587374E+01  0.12016573715E+02  0.00000000000E+00 0. -1.
</event>
<event>
 7    1  0.5290964E-013  0.5052884E+02  0.7816164E-02  0.1300439E+00
        -11   -1    0    0    0    0  0.00000000000E+00  0.00000000000E+00  0.45593999997E+02  0.45594000000E+02  0.51100000000E-03 0.  1.
         11   -1    0    0    0    0 -0.00000000000E+00 -0.00000000000E+00 -0.45593999997E+02  0.45594000000E+02  0.51100000000E-03 0. -1.
    9900012    2    1    2    0    0  0.13143511996E+02  0.18027042399E+02  0.33991776519E+02  0.50528843145E+02  0.29999949224E+02 0.  0.
         12    1    1    2    0    0 -0.13143511996E+02 -0.18027042399E+02 -0.33991776519E+02  0.40659156855E+02  0.00000000000E+00 0. -1.
         11    1    3    3    0    0 -0.32016018710E+01  0.11685854898E+02  0.10049622131E+01  0.12158100532E+02  0.51100000000E-03 0. -1.
        -11    1    3    3    0    0  0.85743946114E+00  0.48411409299E-01  0.95178719236E+01  0.95565387201E+01  0.51100000000E-03 0.  1.
        -12    1    3    3    0    0  0.15487674406E+02  0.62927760911E+01  0.23468942382E+02  0.28814203893E+02  0.00000000000E+00 0.  1.
</event>
<event>
 7    1  0.5290964E-013  0.5052886E+02  0.7816164E-02  0.1300439E+00
        -11   -1    0    0    0    0  0.00000000000E+00  0.00000000000E+00  0.45593999997E+02  0.45594000000E+02  0.51100000000E-03 0. -1.
         11   -1    0    0    0    0 -0.00000000000E+00 -0.00000000000E+00 -0.45593999997E+02  0.45594000000E+02  0.51100000000E-03 0.  1.
    9900012    2    1    2    0    0  0.94414555115E+01  0.34566372291E+02 -0.19214333728E+02  0.50528858394E+02  0.29999995574E+02 0.  0.
         12    1    1    2    0    0 -0.94414555115E+01 -0.34566372291E+02  0.19214333728E+02  0.40659141606E+02  0.00000000000E+00 0. -1.
         11    1    3    3    0    0  0.20076596536E+01  0.44720812669E+01  0.38811242962E+01  0.62524662499E+01  0.51100000000E-03 0. -1.
        -11    1    3    3    0    0  0.80651001835E+01  0.12938330598E+02 -0.22398090978E+02  0.27094662193E+02  0.51100000000E-03 0.  1.
         12    1    3    3    0    0 -0.63130432558E+00  0.17155960426E+02 -0.69736704561E+00  0.17181729950E+02  0.00000000000E+00 0. -1.
</event>
<event>
 7    1  0.5290964E-013  0.5052886E+02  0.7816164E-02  0.1300439E+00
        -11   -1    0    0    0    0  0.00000000000E+00  0.00000000000E+00  0.45593999997E+02  0.45594000000E+02  0.51100000000E-03 0.  1.
         11   -1    0    0    0    0 -0.00000000000E+00 -0.00000000000E+00 -0.45593999997E+02  0.45594000000E+02  0.51100000000E-03 0. -1.
    9900012    2    1    2    0    0 -0.37089776007E+02  0.65905343065E+01  0.15299628640E+02  0.50528864948E+02  0.30000015495E+02 0.  0.
         12    1    1    2    0    0  0.37089776007E+02 -0.65905343065E+01 -0.15299628640E+02  0.40659135052E+02  0.00000000000E+00 0. -1.
         11    1    3    3    0    0 -0.15064944405E+02  0.75604249622E+01  0.87248918849E+01  0.18979892365E+02  0.51100000000E-03 0. -1.
        -11    1    3    3    0    0  0.43890212761E+01  0.36638181276E+00  0.11249875500E+01  0.45456947372E+01  0.51100000000E-03 0.  1.
         12    1    3    3    0    0 -0.26413852879E+02 -0.13362724684E+01  0.54497492050E+01  0.27003277845E+02  0.00000000000E+00 0. -1.
</event>
<event>
 7    1  0.5290964E-013  0.5052886E+02  0.7816164E-02  0.1300439E+00
        -11   -1    0    0    0    0  0.00000000000E+00  0.00000000000E+00  0.45593999997E+02  0.45594000000E+02  0.51100000000E-03 0.  1.
         11   -1    0    0    0    0 -0.00000000000E+00 -0.00000000000E+00 -0.45593999997E+02  0.45594000000E+02  0.51100000000E-03 0. -1.
    9900012    2    1    2    0    0  0.32047489365E+02  0.21213900388E+01  0.24932388867E+02  0.50528857302E+02  0.29999992254E+02 0.  0.
         12    1    1    2    0    0 -0.32047489365E+02 -0.21213900388E+01 -0.24932388867E+02  0.40659142698E+02  0.00000000000E+00 0. -1.
         11    1    3    3    0    0  0.17782904365E+02  0.37754388505E+01  0.12728460301E+02  0.22192325883E+02  0.51100000000E-03 0. -1.
        -11    1    3    3    0    0  0.15054967568E+02  0.64311454435E+01  0.41321176365E+01  0.16884492193E+02  0.51100000000E-03 0.  1.
         12    1    3    3    0    0 -0.79038256806E+00 -0.80851942552E+01  0.80718109296E+01  0.11452039226E+02  0.00000000000E+00 0. -1.
</event>
<event>
 7    1  0.5831261E-013  0.5052886E+02  0.7816164E-02  0.1300439E+00
        -11   -1    0    0    0    0  0.00000000000E+00  0.00000000000E+00  0.45593999997E+02  0.45594000000E+02  0.51100000000E-03 0. -1.
         11   -1    0    0    0    0 -0.00000000000E+00 -0.00000000000E+00 -0.45593999997E+02  0.45594000000E+02  0.51100000000E-03 0.  1.
    9900012    2    1    2    0    0  0.21462139527E+02  0.30284614749E+02 -0.16594708672E+02  0.50528859828E+02  0.29999999933E+02 0.  0.
         12    1    1    2    0    0 -0.21462139527E+02 -0.30284614749E+02  0.16594708672E+02  0.40659140172E+02  0.00000000000E+00 0. -1.
         11    1    3    3    0    0  0.73636754023E+01  0.98811021718E+01  0.17350652288E+01  0.12444691526E+02  0.51100000000E-03 0. -1.
        -11    1    3    3    0    0  0.42150896882E+01  0.21010280321E+02 -0.59659214016E+01  0.22243899808E+02  0.51100000000E-03 0.  1.
         12    1    3    3    0    0  0.98833744370E+01 -0.60676774308E+00 -0.12363852499E+02  0.15840268494E+02  0.00000000000E+00 0. -1.
</event>
<event>
 7    1  0.5290964E-013  0.5052886E+02  0.7816164E-02  0.1300439E+00
        -11   -1    0    0    0    0  0.00000000000E+00  0.00000000000E+00  0.45593999997E+02  0.45594000000E+02  0.51100000000E-03 0.  1.
         11   -1    0    0    0    0 -0.00000000000E+00 -0.00000000000E+00 -0.45593999997E+02  0.45594000000E+02  0.51100000000E-03 0. -1.
    9900012    2    1    2    0    0  0.67886247900E+01 -0.58489323761E+01  0.39659427713E+02  0.50528860277E+02  0.30000001298E+02 0.  0.
         12    1    1    2    0    0 -0.67886247900E+01  0.58489323761E+01 -0.39659427713E+02  0.40659139723E+02  0.00000000000E+00 0. -1.
         11    1    3    3    0    0  0.79247626198E+01 -0.10298652202E+01  0.13537728768E+02  0.15720451183E+02  0.51100000000E-03 0. -1.
        -11    1    3    3    0    0  0.10548430003E+02 -0.38915579788E+01  0.13833813785E+02  0.17826609412E+02  0.51100000000E-03 0.  1.
         12    1    3    3    0    0 -0.11684567833E+02 -0.92750917708E+00  0.12287885160E+02  0.16981799682E+02  0.00000000000E+00 0. -1.
</event>
<event>
 7    1  0.5290964E-013  0.5052884E+02  0.7816164E-02  0.1300439E+00
        -11   -1    0    0    0    0  0.00000000000E+00  0.00000000000E+00  0.45593999997E+02  0.45594000000E+02  0.51100000000E-03 0. -1.
         11   -1    0    0    0    0 -0.00000000000E+00 -0.00000000000E+00 -0.45593999997E+02  0.45594000000E+02  0.51100000000E-03 0.  1.
    9900012    2    1    2    0    0  0.13770601065E+02 -0.30889065870E+02 -0.22569963880E+02  0.50528842193E+02  0.29999946330E+02 0.  0.
         12    1    1    2    0    0 -0.13770601065E+02  0.30889065870E+02  0.22569963880E+02  0.40659157807E+02  0.00000000000E+00 0. -1.
         11    1    3    3    0    0  0.16734474748E+02 -0.30282939945E+02 -0.27671946800E+02  0.44303902049E+02  0.51100000000E-03 0.  1.
        -11    1    3    3    0    0 -0.81062148659E+00  0.55055971499E+00  0.75173160379E+00  0.12350400235E+01  0.51100000000E-03 0. -1.
        -12    1    3    3    0    0 -0.21532521965E+01 -0.11566856404E+01  0.43502513168E+01  0.49899001204E+01  0.00000000000E+00 0.  1.
</event>
<event>
 7    1  0.5290964E-013  0.5052885E+02  0.7816164E-02  0.1300439E+00
        -11   -1    0    0    0    0  0.00000000000E+00  0.00000000000E+00  0.45593999997E+02  0.45594000000E+02  0.51100000000E-03 0.  1.
         11   -1    0    0    0    0 -0.00000000000E+00 -0.00000000000E+00 -0.45593999997E+02  0.45594000000E+02  0.51100000000E-03 0. -1.
    9900012    2    1    2    0    0  0.39498750379E+02 -0.84338611007E+01  0.46781750832E+01  0.50528848303E+02  0.29999964903E+02 0.  0.
         12    1    1    2    0    0 -0.39498750379E+02  0.84338611007E+01 -0.46781750832E+01  0.40659151697E+02  0.00000000000E+00 0. -1.
         11    1    3    3    0    0  0.43861674752E+01 -0.55587017186E+01 -0.63508826393E+01  0.95116423649E+01  0.51100000000E-03 0.  1.
        -11    1    3    3    0    0 -0.37577880521E+00 -0.35827962043E+01 -0.62772449213E+00  0.36567303224E+01  0.51100000000E-03 0. -1.
        -12    1    3    3    0    0  0.35488361709E+02  0.70763682222E+00  0.11656782215E+02  0.37360475616E+02  0.00000000000E+00 0.  1.
</event>
<event>
 7    1  0.5290964E-013  0.5052884E+02  0.7816164E-02  0.1300439E+00
        -11   -1    0    0    0    0  0.00000000000E+00  0.00000000000E+00  0.45593999997E+02  0.45594000000E+02  0.51100000000E-03 0.  1.
         11   -1    0    0    0    0 -0.00000000000E+00 -0.00000000000E+00 -0.45593999997E+02  0.45594000000E+02  0.51100000000E-03 0. -1.
    9900012    2    1    2    0    0 -0.19581337875E+02  0.40630761281E+01  0.35400983951E+02  0.50528843033E+02  0.29999948882E+02 0.  0.
         12    1    1    2    0    0  0.19581337875E+02 -0.40630761281E+01 -0.35400983951E+02  0.40659156967E+02  0.00000000000E+00 0. -1.
         11    1    3    3    0    0 -0.65297017158E+01 -0.82979109436E+01  0.11363627894E+02  0.15512071741E+02  0.51100000000E-03 0. -1.
        -11    1    3    3    0    0 -0.40015687241E+01 -0.35503530411E+01  0.11917415964E+02  0.13063015061E+02  0.51100000000E-03 0.  1.
        -12    1    3    3    0    0 -0.90500674347E+01  0.15911340113E+02  0.12119940093E+02  0.21953756230E+02  0.00000000000E+00 0.  1.
</event>
<event>
 7    1  0.5290964E-013  0.5052887E+02  0.7816164E-02  0.1300439E+00
        -11   -1    0    0    0    0  0.00000000000E+00  0.00000000000E+00  0.45593999997E+02  0.45594000000E+02  0.51100000000E-03 0.  1.
         11   -1    0    0    0    0 -0.00000000000E+00 -0.00000000000E+00 -0.45593999997E+02  0.45594000000E+02  0.51100000000E-03 0. -1.
    9900012    2    1    2    0    0 -0.28796557560E+02  0.18270712437E+02  0.22138303395E+02  0.50528866494E+02  0.30000020194E+02 0.  0.
         12    1    1    2    0    0  0.28796557560E+02 -0.18270712437E+02 -0.22138303395E+02  0.40659133506E+02  0.00000000000E+00 0. -1.
         11    1    3    3    0    0 -0.18881984180E+02  0.38304849084E+01  0.19992154889E+02  0.27764873466E+02  0.51100000000E-03 0.  1.
        -11    1    3    3    0    0 -0.12166787705E+02  0.77304670069E+01 -0.20128603910E+01  0.14554808498E+02  0.51100000000E-03 0. -1.
        -12    1    3    3    0    0  0.22522143252E+01  0.67097605218E+01  0.41590088968E+01  0.82091845290E+01  0.00000000000E+00 0.  1.
</event>
<event>
 7    1  0.5290964E-013  0.5052886E+02  0.7816164E-02  0.1300439E+00
        -11   -1    0    0    0    0  0.00000000000E+00  0.00000000000E+00  0.45593999997E+02  0.45594000000E+02  0.51100000000E-03 0. -1.
         11   -1    0    0    0    0 -0.00000000000E+00 -0.00000000000E+00 -0.45593999997E+02  0.45594000000E+02  0.51100000000E-03 0.  1.
    9900012    2    1    2    0    0 -0.26048435796E+02  0.50870178776E+01 -0.30802063261E+02  0.50528857615E+02  0.29999993208E+02 0.  0.
         12    1    1    2    0    0  0.26048435796E+02 -0.50870178776E+01  0.30802063261E+02  0.40659142385E+02  0.00000000000E+00 0. -1.
         11    1    3    3    0    0 -0.56320346755E+01  0.12243364624E+02 -0.88868757123E+01  0.16142996998E+02  0.51100000000E-03 0. -1.
        -11    1    3    3    0    0  0.23604236911E+01  0.49461699972E-01 -0.77245430444E+00  0.24840958868E+01  0.51100000000E-03 0.  1.
        -12    1    3    3    0    0 -0.22776824811E+02 -0.72058084463E+01 -0.21142733245E+02  0.31901764730E+02  0.00000000000E+00 0.  1.
</event>
<event>
 7    1  0.5290964E-013  0.5052886E+02  0.7816164E-02  0.1300439E+00
        -11   -1    0    0    0    0  0.00000000000E+00  0.00000000000E+00  0.45593999997E+02  0.45594000000E+02  0.51100000000E-03 0.  1.
         11   -1    0    0    0    0 -0.00000000000E+00 -0.00000000000E+00 -0.45593999997E+02  0.45594000000E+02  0.51100000000E-03 0. -1.
    9900012    2    1    2    0    0  0.30071084505E+02  0.87571056199E+01  0.25926986284E+02  0.50528860315E+02  0.30000001413E+02 0.  0.
         12    1    1    2    0    0 -0.30071084505E+02 -0.87571056199E+01 -0.25926986284E+02  0.40659139685E+02  0.00000000000E+00 0. -1.
         11    1    3    3    0    0  0.17453318320E+01 -0.43402853848E+01 -0.28207450725E+00  0.46865580882E+01  0.51100000000E-03 0. -1.
        -11    1    3    3    0    0 -0.14638204223E+01  0.66039468479E+01  0.24692216905E+01  0.72008291340E+01  0.51100000000E-03 0.  1.
        -12    1    3    3    0    0  0.29789573096E+02  0.64934441568E+01  0.23739839101E+02  0.38641473093E+02  0.00000000000E+00 0.  1.
</event>
<event>
 7    1  0.5290964E-013  0.5052886E+02  0.7816164E-02  0.1300439E+00
        -11   -1    0    0    0    0  0.00000000000E+00  0.00000000000E+00  0.45593999997E+02  0.45594000000E+02  0.51100000000E-03 0. -1.
         11   -1    0    0    0    0 -0.00000000000E+00 -0.00000000000E+00 -0.45593999997E+02  0.45594000000E+02  0.51100000000E-03 0.  1.
    9900012    2    1    2    0    0 -0.34711661696E+01 -0.27012578512E+02 -0.30190013808E+02  0.50528864173E+02  0.30000013140E+02 0.  0.
         12    1    1    2    0    0  0.34711661696E+01  0.27012578512E+02  0.30190013808E+02  0.40659135827E+02  0.00000000000E+00 0. -1.
         11    1    3    3    0    0  0.78340459930E+00 -0.17127961819E+02 -0.34889770931E+01  0.17497250077E+02  0.51100000000E-03 0. -1.
        -11    1    3    3    0    0  0.11625928047E+01  0.39072114927E+01 -0.29290149998E+01  0.50196666033E+01  0.51100000000E-03 0.  1.
         12    1    3    3    0    0 -0.54171635736E+01 -0.13791828186E+02 -0.23772021715E+02  0.28011947493E+02  0.00000000000E+00 0. -1.
</event>
<event>
 7    1  0.5290964E-013  0.5052885E+02  0.7816164E-02  0.1300439E+00
        -11   -1    0    0    0    0  0.00000000000E+00  0.00000000000E+00  0.45593999997E+02  0.45594000000E+02  0.51100000000E-03 0.  1.
         11   -1    0    0    0    0 -0.00000000000E+00 -0.00000000000E+00 -0.45593999997E+02  0.45594000000E+02  0.51100000000E-03 0. -1.
    9900012    2    1    2    0    0 -0.25609180775E+01 -0.40574007987E+02 -0.59832960736E+00  0.50528850675E+02  0.29999972110E+02 0.  0.
         12    1    1    2    0    0  0.25609180775E+01  0.40574007987E+02  0.59832960736E+00  0.40659149325E+02  0.00000000000E+00 0. -1.
         11    1    3    3    0    0  0.49706156048E+00 -0.13446656629E+02  0.51089667989E+01  0.14393095105E+02  0.51100000000E-03 0. -1.
        -11    1    3    3    0    0 -0.41644693976E+01 -0.20990369004E+02  0.65532872250E+01  0.22380437217E+02  0.51100000000E-03 0.  1.
         12    1    3    3    0    0  0.11064897596E+01 -0.61369823539E+01 -0.12260583631E+02  0.13755318353E+02  0.00000000000E+00 0. -1.
</event>
<event>
 7    1  0.5290964E-013  0.5052885E+02  0.7816164E-02  0.1300439E+00
        -11   -1    0    0    0    0  0.00000000000E+00  0.00000000000E+00  0.45593999997E+02  0.45594000000E+02  0.51100000000E-03 0.  1.
         11   -1    0    0    0    0 -0.00000000000E+00 -0.00000000000E+00 -0.45593999997E+02  0.45594000000E+02  0.51100000000E-03 0. -1.
    9900012    2    1    2    0    0 -0.34836631241E+02  0.20046053311E+02  0.61425933174E+01  0.50528848727E+02  0.29999966190E+02 0.  0.
         12    1    1    2    0    0  0.34836631241E+02 -0.20046053311E+02 -0.61425933174E+01  0.40659151273E+02  0.00000000000E+00 0. -1.
         11    1    3    3    0    0 -0.11025483291E+01  0.75008677200E+01  0.65528964720E+01  0.10020932182E+02  0.51100000000E-03 0. -1.
        -11    1    3    3    0    0 -0.12860069011E+02  0.11574978317E+02 -0.68994896448E+01  0.18626981925E+02  0.51100000000E-03 0.  1.
         12    1    3    3    0    0 -0.20874013901E+02  0.97020727338E+00  0.64891864902E+01  0.21880934619E+02  0.00000000000E+00 0. -1.
</event>
<event>
 7    1  0.5290964E-013  0.5052886E+02  0.7816164E-02  0.1300439E+00
        -11   -1    0    0    0    0  0.00000000000E+00  0.00000000000E+00  0.45593999997E+02  0.45594000000E+02  0.51100000000E-03 0. -1.
         11   -1    0    0    0    0 -0.00000000000E+00 -0.00000000000E+00 -0.45593999997E+02  0.45594000000E+02  0.51100000000E-03 0.  1.
    9900012    2    1    2    0    0  0.33454959366E+02 -0.88038401595E+01 -0.21364072872E+02  0.50528861821E+02  0.30000005992E+02 0.  0.
         12    1    1    2    0    0 -0.33454959366E+02  0.88038401595E+01  0.21364072872E+02  0.40659138179E+02  0.00000000000E+00 0. -1.
         11    1    3    3    0    0  0.10454300180E+02 -0.33712151367E+01  0.42032804125E+01  0.11761167044E+02  0.51100000000E-03 0. -1.
        -11    1    3    3    0    0  0.93080157454E+01  0.61899149784E+01 -0.10089288433E+02  0.15058152141E+02  0.51100000000E-03 0.  1.
        -12    1    3    3    0    0  0.13692643440E+02 -0.11622540001E+02 -0.15478064851E+02  0.23709542636E+02  0.00000000000E+00 0.  1.
</event>
<event>
 7    1  0.5290964E-013  0.5052885E+02  0.7816164E-02  0.1300439E+00
        -11   -1    0    0    0    0  0.00000000000E+00  0.00000000000E+00  0.45593999997E+02  0.45594000000E+02  0.51100000000E-03 0. -1.
         11   -1    0    0    0    0 -0.00000000000E+00 -0.00000000000E+00 -0.45593999997E+02  0.45594000000E+02  0.51100000000E-03 0.  1.
    9900012    2    1    2    0    0  0.40564265566E+02 -0.26897500490E+01  0.68695802848E+00  0.50528852105E+02  0.29999976457E+02 0.  0.
         12    1    1    2    0    0 -0.40564265566E+02  0.26897500490E+01 -0.68695802848E+00  0.40659147895E+02  0.00000000000E+00 0. -1.
         11    1    3    3    0    0  0.21393561690E+02  0.73953498828E+01 -0.32519303654E+01  0.22868116079E+02  0.51100000000E-03 0. -1.
        -11    1    3    3    0    0  0.78817996633E+01 -0.11019490834E+01 -0.61485840209E+01  0.10056945035E+02  0.51100000000E-03 0.  1.
         12    1    3    3    0    0  0.11288904213E+02 -0.89831508485E+01  0.10087472415E+02  0.17603790990E+02  0.00000000000E+00 0. -1.
</event>
<event>
 7    1  0.5290964E-013  0.5052886E+02  0.7816164E-02  0.1300439E+00
        -11   -1    0    0    0    0  0.00000000000E+00  0.00000000000E+00  0.45593999997E+02  0.45594000000E+02  0.51100000000E-03 0. -1.
         11   -1    0    0    0    0 -0.00000000000E+00 -0.00000000000E+00 -0.45593999997E+02  0.45594000000E+02  0.51100000000E-03 0.  1.
    9900012    2    1    2    0    0 -0.37063864878E+02  0.98463720371E+01 -0.13508670718E+02  0.50528864415E+02  0.30000013874E+02 0.  0.
         12    1    1    2    0    0  0.37063864878E+02 -0.98463720371E+01  0.13508670718E+02  0.40659135585E+02  0.00000000000E+00 0. -1.
         11    1    3    3    0    0 -0.36214739317E+01  0.79438818623E+00 -0.74853293065E+00  0.37823838829E+01  0.51100000000E-03 0. -1.
        -11    1    3    3    0    0 -0.17427773197E+02 -0.51265258113E+01 -0.17069567200E+02  0.24927468185E+02  0.51100000000E-03 0.  1.
         12    1    3    3    0    0 -0.16014617750E+02  0.14178509662E+02  0.43094294122E+01  0.21819012346E+02  0.00000000000E+00 0. -1.
</event>
<event>
 7    1  0.5290964E-013  0.5052886E+02  0.7816164E-02  0.1300439E+00
        -11   -1    0    0    0    0  0.00000000000E+00  0.00000000000E+00  0.45593999997E+02  0.45594000000E+02  0.51100000000E-03 0.  1.
         11   -1    0    0    0    0 -0.00000000000E+00 -0.00000000000E+00 -0.45593999997E+02  0.45594000000E+02  0.51100000000E-03 0. -1.
    9900012    2    1    2    0    0 -0.12429853307E+02  0.14928060584E+02  0.35718588709E+02  0.50528858034E+02  0.29999994481E+02 0.  0.
         12    1    1    2    0    0  0.12429853307E+02 -0.14928060584E+02 -0.35718588709E+02  0.40659141966E+02  0.00000000000E+00 0. -1.
         11    1    3    3    0    0 -0.10877837406E+02  0.29269259166E+00  0.10195651934E+02  0.14911885669E+02  0.51100000000E-03 0. -1.
        -11    1    3    3    0    0 -0.80872909349E+01  0.16209645629E+02  0.18290310730E+02  0.25742811675E+02  0.51100000000E-03 0.  1.
         12    1    3    3    0    0  0.65352750338E+01 -0.15742776359E+01  0.72326260445E+01  0.98741606905E+01  0.00000000000E+00 0. -1.
</event>
<event>
 7    1  0.5290964E-013  0.5052886E+02  0.7816164E-02  0.1300439E+00
        -11   -1    0    0    0    0  0.00000000000E+00  0.00000000000E+00  0.45593999997E+02  0.45594000000E+02  0.51100000000E-03 0. -1.
         11   -1    0    0    0    0 -0.00000000000E+00 -0.00000000000E+00 -0.45593999997E+02  0.45594000000E+02  0.51100000000E-03 0.  1.
    9900012    2    1    2    0    0  0.22824734539E+02  0.15096202734E+02 -0.30071614444E+02  0.50528857867E+02  0.29999993971E+02 0.  0.
         12    1    1    2    0    0 -0.22824734539E+02 -0.15096202734E+02  0.30071614444E+02  0.40659142133E+02  0.00000000000E+00 0. -1.
         11    1    3    3    0    0  0.72886369842E+01 -0.50260822632E+01 -0.10583847620E+02  0.13798679745E+02  0.51100000000E-03 0. -1.
        -11    1    3    3    0    0  0.15902545849E+02  0.14631086215E+02 -0.21859412973E+02  0.30737494759E+02  0.51100000000E-03 0.  1.
        -12    1    3    3    0    0 -0.36644829467E+00  0.54911987824E+01  0.23716461489E+01  0.59926833620E+01  0.00000000000E+00 0.  1.
</event>
<event>
 7    1  0.5290964E-013  0.5052886E+02  0.7816164E-02  0.1300439E+00
        -11   -1    0    0    0    0  0.00000000000E+00  0.00000000000E+00  0.45593999997E+02  0.45594000000E+02  0.51100000000E-03 0.  1.
         11   -1    0    0    0    0 -0.00000000000E+00 -0.00000000000E+00 -0.45593999997E+02  0.45594000000E+02  0.51100000000E-03 0. -1.
    9900012    2    1    2    0    0 -0.68063056436E+01  0.13308391778E+00  0.40085181254E+02  0.50528864937E+02  0.30000015464E+02 0.  0.
         12    1    1    2    0    0  0.68063056436E+01 -0.13308391778E+00 -0.40085181254E+02  0.40659135063E+02  0.00000000000E+00 0. -1.
         11    1    3    3    0    0  0.16496826286E+01 -0.80342701193E+00  0.13457364738E+01  0.22755119549E+01  0.51100000000E-03 0. -1.
        -11    1    3    3    0    0 -0.52573851230E+01 -0.11043861760E+02  0.31737778223E+02  0.34013137869E+02  0.51100000000E-03 0.  1.
         12    1    3    3    0    0 -0.31986031493E+01  0.11980372690E+02  0.70016665580E+01  0.14240215114E+02  0.00000000000E+00 0. -1.
</event>
<event>
 7    1  0.5290964E-013  0.5052887E+02  0.7816164E-02  0.1300439E+00
        -11   -1    0    0    0    0  0.00000000000E+00  0.00000000000E+00  0.45593999997E+02  0.45594000000E+02  0.51100000000E-03 0. -1.
         11   -1    0    0    0    0 -0.00000000000E+00 -0.00000000000E+00 -0.45593999997E+02  0.45594000000E+02  0.51100000000E-03 0.  1.
    9900012    2    1    2    0    0  0.30987540929E+02 -0.15021413177E+02  0.21616997132E+02  0.50528866811E+02  0.30000021158E+02 0.  0.
         12    1    1    2    0    0 -0.30987540929E+02  0.15021413177E+02 -0.21616997132E+02  0.40659133189E+02  0.00000000000E+00 0. -1.
         11    1    3    3    0    0 -0.49508668701E+01 -0.17704472818E+01  0.66375184633E+01  0.84677162184E+01  0.51100000000E-03 0. -1.
        -11    1    3    3    0    0  0.16045829584E+02 -0.39437657150E+01  0.10701590956E+02  0.19686187653E+02  0.51100000000E-03 0.  1.
        -12    1    3    3    0    0  0.19892578215E+02 -0.93072001806E+01  0.42778877122E+01  0.22374962939E+02  0.00000000000E+00 0.  1.
</event>
<event>
 7    1  0.5290964E-013  0.5052884E+02  0.7816164E-02  0.1300439E+00
        -11   -1    0    0    0    0  0.00000000000E+00  0.00000000000E+00  0.45593999997E+02  0.45594000000E+02  0.51100000000E-03 0.  1.
         11   -1    0    0    0    0 -0.00000000000E+00 -0.00000000000E+00 -0.45593999997E+02  0.45594000000E+02  0.51100000000E-03 0. -1.
    9900012    2    1    2    0    0  0.12996349882E+02  0.22631833370E+02  0.31177907956E+02  0.50528844371E+02  0.29999952951E+02 0.  0.
         12    1    1    2    0    0 -0.12996349882E+02 -0.22631833370E+02 -0.31177907956E+02  0.40659155629E+02  0.00000000000E+00 0. -1.
         11    1    3    3    0    0  0.15318339565E+02  0.43735219005E+01  0.65160114842E+01  0.17211555037E+02  0.51100000000E-03 0. -1.
        -11    1    3    3    0    0  0.39587446933E+01  0.68046815254E+01  0.15428025615E+02  0.17320488586E+02  0.51100000000E-03 0.  1.
         12    1    3    3    0    0 -0.62807343768E+01  0.11453629944E+02  0.92338708567E+01  0.15996800749E+02  0.00000000000E+00 0. -1.
</event>
<event>
 7    1  0.5290964E-013  0.5052885E+02  0.7816164E-02  0.1300439E+00
        -11   -1    0    0    0    0  0.00000000000E+00  0.00000000000E+00  0.45593999997E+02  0.45594000000E+02  0.51100000000E-03 0.  1.
         11   -1    0    0    0    0 -0.00000000000E+00 -0.00000000000E+00 -0.45593999997E+02  0.45594000000E+02  0.51100000000E-03 0. -1.
    9900012    2    1    2    0    0  0.46954521396E+01 -0.21995578392E+02  0.33872017771E+02  0.50528851860E+02  0.29999975712E+02 0.  0.
         12    1    1    2    0    0 -0.46954521396E+01  0.21995578392E+02 -0.33872017771E+02  0.40659148140E+02  0.00000000000E+00 0. -1.
         11    1    3    3    0    0 -0.45031160437E+01  0.20764821231E+01  0.29120618962E+01  0.57506466470E+01  0.51100000000E-03 0. -1.
        -11    1    3    3    0    0 -0.34581335107E+01 -0.43948907108E+01  0.16144415199E+02  0.17085546351E+02  0.51100000000E-03 0.  1.
        -12    1    3    3    0    0  0.12656701694E+02 -0.19677169805E+02  0.14815540676E+02  0.27692658861E+02  0.00000000000E+00 0.  1.
</event>
<event>
 7    1  0.5290964E-013  0.5052887E+02  0.7816164E-02  0.1300439E+00
        -11   -1    0    0    0    0  0.00000000000E+00  0.00000000000E+00  0.45593999997E+02  0.45594000000E+02  0.51100000000E-03 0.  1.
         11   -1    0    0    0    0 -0.00000000000E+00 -0.00000000000E+00 -0.45593999997E+02  0.45594000000E+02  0.51100000000E-03 0. -1.
    9900012    2    1    2    0    0 -0.18411269520E+02 -0.15313367862E+02  0.32858654215E+02  0.50528865264E+02  0.30000016458E+02 0.  0.
         12    1    1    2    0    0  0.18411269520E+02  0.15313367862E+02 -0.32858654215E+02  0.40659134736E+02  0.00000000000E+00 0. -1.
         11    1    3    3    0    0 -0.35084987506E+00 -0.75911494722E+01  0.11753887356E+02  0.13996517930E+02  0.51100000000E-03 0. -1.
        -11    1    3    3    0    0 -0.59911906998E+01 -0.11593855607E+02  0.14303179975E+01  0.13128505767E+02  0.51100000000E-03 0.  1.
        -12    1    3    3    0    0 -0.12069228945E+02  0.38716372172E+01  0.19674448862E+02  0.23403841567E+02  0.00000000000E+00 0.  1.
</event>
<event>
 7    1  0.5290964E-013  0.5052885E+02  0.7816164E-02  0.1300439E+00
        -11   -1    0    0    0    0  0.00000000000E+00  0.00000000000E+00  0.45593999997E+02  0.45594000000E+02  0.51100000000E-03 0.  1.
         11   -1    0    0    0    0 -0.00000000000E+00 -0.00000000000E+00 -0.45593999997E+02  0.45594000000E+02  0.51100000000E-03 0. -1.
    9900012    2    1    2    0    0  0.21786556855E+02  0.15409172501E+01  0.34294866298E+02  0.50528851706E+02  0.29999975247E+02 0.  0.
         12    1    1    2    0    0 -0.21786556855E+02 -0.15409172501E+01 -0.34294866298E+02  0.40659148294E+02  0.00000000000E+00 0. -1.
         11    1    3    3    0    0 -0.25652946107E+01  0.52214910699E+01  0.37767405969E+01  0.69360273378E+01  0.51100000000E-03 0.  1.
        -11    1    3    3    0    0 -0.23245678649E+01 -0.23997170279E+01  0.79635079536E+01  0.86359548841E+01  0.51100000000E-03 0. -1.
        -12    1    3    3    0    0  0.26676419331E+02 -0.12808567919E+01  0.22554617747E+02  0.34956869485E+02  0.00000000000E+00 0.  1.
</event>
<event>
 7    1  0.5290964E-013  0.5052886E+02  0.7816164E-02  0.1300439E+00
        -11   -1    0    0    0    0  0.00000000000E+00  0.00000000000E+00  0.45593999997E+02  0.45594000000E+02  0.51100000000E-03 0. -1.
         11   -1    0    0    0    0 -0.00000000000E+00 -0.00000000000E+00 -0.45593999997E+02  0.45594000000E+02  0.51100000000E-03 0.  1.
    9900012    2    1    2    0    0 -0.16467701675E+02  0.33891619873E+02 -0.15275412080E+02  0.50528864369E+02  0.30000013735E+02 0.  0.
         12    1    1    2    0    0  0.16467701675E+02 -0.33891619873E+02  0.15275412080E+02  0.40659135631E+02  0.00000000000E+00 0. -1.
         11    1    3    3    0    0 -0.25090544620E+01  0.53664033000E+01  0.23384560168E+01  0.63688315628E+01  0.51100000000E-03 0. -1.
        -11    1    3    3    0    0 -0.70311752019E+00  0.22325674509E+02 -0.14910480285E+01  0.22386454409E+02  0.51100000000E-03 0.  1.
        -12    1    3    3    0    0 -0.13255529693E+02  0.61995420639E+01 -0.16122820068E+02  0.21773578397E+02  0.00000000000E+00 0.  1.
</event>
<event>
 7    1  0.5290964E-013  0.5052886E+02  0.7816164E-02  0.1300439E+00
        -11   -1    0    0    0    0  0.00000000000E+00  0.00000000000E+00  0.45593999997E+02  0.45594000000E+02  0.51100000000E-03 0.  1.
         11   -1    0    0    0    0 -0.00000000000E+00 -0.00000000000E+00 -0.45593999997E+02  0.45594000000E+02  0.51100000000E-03 0. -1.
    9900012    2    1    2    0    0  0.22017498989E+02 -0.11538730442E+01  0.34162314122E+02  0.50528863377E+02  0.30000010721E+02 0.  0.
         12    1    1    2    0    0 -0.22017498989E+02  0.11538730442E+01 -0.34162314122E+02  0.40659136623E+02  0.00000000000E+00 0. -1.
         11    1    3    3    0    0  0.27228248116E+01  0.22624155122E+01  0.31211216390E+01  0.47195020342E+01  0.51100000000E-03 0. -1.
        -11    1    3    3    0    0  0.12139384166E+02  0.11669632381E+02  0.17768317109E+02  0.24479747976E+02  0.51100000000E-03 0.  1.
         12    1    3    3    0    0  0.71552900121E+01 -0.15085920937E+02  0.13272875374E+02  0.21329613367E+02  0.00000000000E+00 0. -1.
</event>
<event>
 7    1  0.5290964E-013  0.5052889E+02  0.7816164E-02  0.1300439E+00
        -11   -1    0    0    0    0  0.00000000000E+00  0.00000000000E+00  0.45593999997E+02  0.45594000000E+02  0.51100000000E-03 0.  1.
         11   -1    0    0    0    0 -0.00000000000E+00 -0.00000000000E+00 -0.45593999997E+02  0.45594000000E+02  0.51100000000E-03 0. -1.
    9900012    2    1    2    0    0 -0.26274910639E+02  0.49844998160E+01  0.30625924611E+02  0.50528887543E+02  0.30000084176E+02 0.  0.
         12    1    1    2    0    0  0.26274910639E+02 -0.49844998160E+01 -0.30625924611E+02  0.40659112457E+02  0.00000000000E+00 0. -1.
         11    1    3    3    0    0  0.49863363670E+01 -0.11372094798E+01  0.12018100116E+02  0.13061069115E+02  0.51100000000E-03 0.  1.
        -11    1    3    3    0    0 -0.37784811092E+01 -0.13634707411E+01  0.27381671292E+01  0.48614330648E+01  0.51100000000E-03 0. -1.
         12    1    3    3    0    0 -0.27482765897E+02  0.74851800369E+01  0.15869657365E+02  0.32606385363E+02  0.00000000000E+00 0. -1.
</event>
<event>
 7    1  0.5290964E-013  0.5052886E+02  0.7816164E-02  0.1300439E+00
        -11   -1    0    0    0    0  0.00000000000E+00  0.00000000000E+00  0.45593999997E+02  0.45594000000E+02  0.51100000000E-03 0.  1.
         11   -1    0    0    0    0 -0.00000000000E+00 -0.00000000000E+00 -0.45593999997E+02  0.45594000000E+02  0.51100000000E-03 0. -1.
    9900012    2    1    2    0    0  0.98653310117E+01  0.37368971910E+02  0.12625399903E+02  0.50528861540E+02  0.30000005137E+02 0.  0.
         12    1    1    2    0    0 -0.98653310117E+01 -0.37368971910E+02 -0.12625399903E+02  0.40659138460E+02  0.00000000000E+00 0. -1.
         11    1    3    3    0    0 -0.33687060325E+00  0.15145104088E+02  0.79087143606E+01  0.17089043938E+02  0.51100000000E-03 0.  1.
        -11    1    3    3    0    0 -0.26770097331E+01  0.17690041043E+02  0.76765177339E+01  0.19468766216E+02  0.51100000000E-03 0. -1.
        -12    1    3    3    0    0  0.12879211348E+02  0.45338267795E+01 -0.29598321911E+01  0.13971051385E+02  0.00000000000E+00 0.  1.
</event>
<event>
 7    1  0.5290964E-013  0.5052887E+02  0.7816164E-02  0.1300439E+00
        -11   -1    0    0    0    0  0.00000000000E+00  0.00000000000E+00  0.45593999997E+02  0.45594000000E+02  0.51100000000E-03 0. -1.
         11   -1    0    0    0    0 -0.00000000000E+00 -0.00000000000E+00 -0.45593999997E+02  0.45594000000E+02  0.51100000000E-03 0.  1.
    9900012    2    1    2    0    0  0.11124453589E+02  0.39031507161E+02 -0.24398125677E+01  0.50528871821E+02  0.30000036388E+02 0.  0.
         12    1    1    2    0    0 -0.11124453589E+02 -0.39031507161E+02  0.24398125677E+01  0.40659128179E+02  0.00000000000E+00 0. -1.
         11    1    3    3    0    0  0.59903044066E+01  0.16072002355E+02  0.45332972775E+01  0.17741020012E+02  0.51100000000E-03 0. -1.
        -11    1    3    3    0    0  0.65672363373E+01  0.22959027332E+02  0.17537321297E+01  0.23944124661E+02  0.51100000000E-03 0.  1.
         12    1    3    3    0    0 -0.14330871549E+01  0.47747346165E-03 -0.87268419749E+01  0.88437271484E+01  0.00000000000E+00 0. -1.
</event>
<event>
 7    1  0.5290964E-013  0.5052885E+02  0.7816164E-02  0.1300439E+00
        -11   -1    0    0    0    0  0.00000000000E+00  0.00000000000E+00  0.45593999997E+02  0.45594000000E+02  0.51100000000E-03 0.  1.
         11   -1    0    0    0    0 -0.00000000000E+00 -0.00000000000E+00 -0.45593999997E+02  0.45594000000E+02  0.51100000000E-03 0. -1.
    9900012    2    1    2    0    0 -0.11020469243E+02 -0.14521909638E+02  0.36343218070E+02  0.50528854639E+02  0.29999984160E+02 0.  0.
         12    1    1    2    0    0  0.11020469243E+02  0.14521909638E+02 -0.36343218070E+02  0.40659145361E+02  0.00000000000E+00 0. -1.
         11    1    3    3    0    0 -0.50755822855E+01 -0.35402621833E+01  0.15111064423E+01  0.63701204702E+01  0.51100000000E-03 0. -1.
        -11    1    3    3    0    0 -0.73423254594E+01 -0.64337697222E+01  0.37468489212E+02  0.38719385585E+02  0.51100000000E-03 0.  1.
         12    1    3    3    0    0  0.13974385018E+01 -0.45478777324E+01 -0.26363775852E+01  0.54393485830E+01  0.00000000000E+00 0. -1.
</event>
<event>
 7    1  0.5290964E-013  0.5052883E+02  0.7816164E-02  0.1300439E+00
        -11   -1    0    0    0    0  0.00000000000E+00  0.00000000000E+00  0.45593999997E+02  0.45594000000E+02  0.51100000000E-03 0.  1.
         11   -1    0    0    0    0 -0.00000000000E+00 -0.00000000000E+00 -0.45593999997E+02  0.45594000000E+02  0.51100000000E-03 0. -1.
    9900012    2    1    2    0    0  0.27454675383E+02  0.18419779899E+01  0.29933526342E+02  0.50528830277E+02  0.29999910109E+02 0.  0.
         12    1    1    2    0    0 -0.27454675383E+02 -0.18419779899E+01 -0.29933526342E+02  0.40659169723E+02  0.00000000000E+00 0. -1.
         11    1    3    3    0    0  0.11317043089E+00  0.46803362643E+01  0.88147242487E+01  0.99808676444E+01  0.51100000000E-03 0.  1.
        -11    1    3    3    0    0  0.12233232066E+01  0.36719712622E+01 -0.26072392786E+01  0.46666464978E+01  0.51100000000E-03 0. -1.
        -12    1    3    3    0    0  0.26118181745E+02 -0.65103295367E+01  0.23726041372E+02  0.35881316135E+02  0.00000000000E+00 0.  1.
</event>
<event>
 7    1  0.5290964E-013  0.5052886E+02  0.7816164E-02  0.1300439E+00
        -11   -1    0    0    0    0  0.00000000000E+00  0.00000000000E+00  0.45593999997E+02  0.45594000000E+02  0.51100000000E-03 0.  1.
         11   -1    0    0    0    0 -0.00000000000E+00 -0.00000000000E+00 -0.45593999997E+02  0.45594000000E+02  0.51100000000E-03 0. -1.
    9900012    2    1    2    0    0  0.27693258817E+02  0.88447466762E+00  0.29756792209E+02  0.50528861275E+02  0.30000004331E+02 0.  0.
         12    1    1    2    0    0 -0.27693258817E+02 -0.88447466762E+00 -0.29756792209E+02  0.40659138725E+02  0.00000000000E+00 0. -1.
         11    1    3    3    0    0  0.59779144273E+01  0.54167559335E+01  0.12087452655E+01  0.81570687824E+01  0.51100000000E-03 0. -1.
        -11    1    3    3    0    0  0.15519165471E+01 -0.87177729106E+01  0.25674901380E+01  0.92195452903E+01  0.51100000000E-03 0.  1.
        -12    1    3    3    0    0  0.20163427842E+02  0.41854916447E+01  0.25980556805E+02  0.33152247202E+02  0.00000000000E+00 0.  1.
</event>
<event>
 7    1  0.5290964E-013  0.5052885E+02  0.7816164E-02  0.1300439E+00
        -11   -1    0    0    0    0  0.00000000000E+00  0.00000000000E+00  0.45593999997E+02  0.45594000000E+02  0.51100000000E-03 0. -1.
         11   -1    0    0    0    0 -0.00000000000E+00 -0.00000000000E+00 -0.45593999997E+02  0.45594000000E+02  0.51100000000E-03 0.  1.
    9900012    2    1    2    0    0 -0.39586075376E+02  0.92773909684E+01  0.19726233401E+00  0.50528852698E+02  0.29999978261E+02 0.  0.
         12    1    1    2    0    0  0.39586075376E+02 -0.92773909684E+01 -0.19726233401E+00  0.40659147302E+02  0.00000000000E+00 0. -1.
         11    1    3    3    0    0 -0.17722738296E+02  0.16584690466E+01 -0.98839600764E+00  0.17827588149E+02  0.51100000000E-03 0. -1.
        -11    1    3    3    0    0 -0.24617082653E+02  0.17713996057E+01 -0.32043688430E+01  0.24887880481E+02  0.51100000000E-03 0.  1.
         12    1    3    3    0    0  0.27537455722E+01  0.58475223161E+01  0.43900271846E+01  0.78133840681E+01  0.00000000000E+00 0. -1.
</event>
<event>
 7    1  0.5290964E-013  0.5052887E+02  0.7816164E-02  0.1300439E+00
        -11   -1    0    0    0    0  0.00000000000E+00  0.00000000000E+00  0.45593999997E+02  0.45594000000E+02  0.51100000000E-03 0.  1.
         11   -1    0    0    0    0 -0.00000000000E+00 -0.00000000000E+00 -0.45593999997E+02  0.45594000000E+02  0.51100000000E-03 0. -1.
    9900012    2    1    2    0    0 -0.54214258913E-01  0.33752015405E+02 -0.22670767078E+02  0.50528866180E+02  0.30000019241E+02 0.  0.
         12    1    1    2    0    0  0.54214258913E-01 -0.33752015405E+02  0.22670767078E+02  0.40659133820E+02  0.00000000000E+00 0. -1.
         11    1    3    3    0    0 -0.83066724857E+01  0.48816852945E+01 -0.99570270996E+01  0.13855469968E+02  0.51100000000E-03 0. -1.
        -11    1    3    3    0    0  0.73985032800E+01  0.86580302995E+01 -0.11834139264E+02  0.16423951773E+02  0.51100000000E-03 0.  1.
        -12    1    3    3    0    0  0.85395494682E+00  0.20212299811E+02 -0.87960071401E+00  0.20249444440E+02  0.00000000000E+00 0.  1.
</event>
<event>
 7    1  0.5290964E-013  0.5052886E+02  0.7816164E-02  0.1300439E+00
        -11   -1    0    0    0    0  0.00000000000E+00  0.00000000000E+00  0.45593999997E+02  0.45594000000E+02  0.51100000000E-03 0.  1.
         11   -1    0    0    0    0 -0.00000000000E+00 -0.00000000000E+00 -0.45593999997E+02  0.45594000000E+02  0.51100000000E-03 0. -1.
    9900012    2    1    2    0    0  0.35421809955E+02 -0.68051437579E+01  0.18765696998E+02  0.50528856061E+02  0.29999988482E+02 0.  0.
         12    1    1    2    0    0 -0.35421809955E+02  0.68051437579E+01 -0.18765696998E+02  0.40659143939E+02  0.00000000000E+00 0. -1.
         11    1    3    3    0    0  0.95656142177E+01 -0.50058275750E+01  0.23251222386E+00  0.10798766007E+02  0.51100000000E-03 0. -1.
        -11    1    3    3    0    0  0.79022850074E+01 -0.12061257737E+02  0.66462592300E+01  0.15877430792E+02  0.51100000000E-03 0.  1.
        -12    1    3    3    0    0  0.17953910730E+02  0.10261941554E+02  0.11886925544E+02  0.23852659262E+02  0.00000000000E+00 0.  1.
</event>
<event>
 7    1  0.5290964E-013  0.5052886E+02  0.7816164E-02  0.1300439E+00
        -11   -1    0    0    0    0  0.00000000000E+00  0.00000000000E+00  0.45593999997E+02  0.45594000000E+02  0.51100000000E-03 0. -1.
         11   -1    0    0    0    0 -0.00000000000E+00 -0.00000000000E+00 -0.45593999997E+02  0.45594000000E+02  0.51100000000E-03 0.  1.
    9900012    2    1    2    0    0 -0.20998394116E+02  0.17645111604E+02 -0.30014713914E+02  0.50528861171E+02  0.30000004016E+02 0.  0.
         12    1    1    2    0    0  0.20998394116E+02 -0.17645111604E+02  0.30014713914E+02  0.40659138829E+02  0.00000000000E+00 0. -1.
         11    1    3    3    0    0  0.14136368374E+01  0.10095967818E+02 -0.81537366871E+01  0.13054131817E+02  0.51100000000E-03 0. -1.
        -11    1    3    3    0    0 -0.15430239253E+02  0.12805705915E+02 -0.91296178439E+01  0.22032437669E+02  0.51100000000E-03 0.  1.
        -12    1    3    3    0    0 -0.69817917004E+01 -0.52565621281E+01 -0.12731359383E+02  0.15442291685E+02  0.00000000000E+00 0.  1.
</event>
<event>
 7    1  0.5290964E-013  0.5052886E+02  0.7816164E-02  0.1300439E+00
        -11   -1    0    0    0    0  0.00000000000E+00  0.00000000000E+00  0.45593999997E+02  0.45594000000E+02  0.51100000000E-03 0.  1.
         11   -1    0    0    0    0 -0.00000000000E+00 -0.00000000000E+00 -0.45593999997E+02  0.45594000000E+02  0.51100000000E-03 0. -1.
    9900012    2    1    2    0    0  0.14160779139E+02 -0.57358393670E+01  0.37679410687E+02  0.50528861928E+02  0.30000006315E+02 0.  0.
         12    1    1    2    0    0 -0.14160779139E+02  0.57358393670E+01 -0.37679410687E+02  0.40659138072E+02  0.00000000000E+00 0. -1.
         11    1    3    3    0    0  0.41441620012E+01 -0.12365599476E+01 -0.25816687888E+01  0.50366827568E+01  0.51100000000E-03 0. -1.
        -11    1    3    3    0    0  0.60294575464E+01  0.26407267413E+01  0.35340142035E+02  0.35947926718E+02  0.51100000000E-03 0.  1.
         12    1    3    3    0    0  0.39871595914E+01 -0.71400061607E+01  0.49209374408E+01  0.95442524526E+01  0.00000000000E+00 0. -1.
</event>
<event>
 7    1  0.5290964E-013  0.5052886E+02  0.7816164E-02  0.1300439E+00
        -11   -1    0    0    0    0  0.00000000000E+00  0.00000000000E+00  0.45593999997E+02  0.45594000000E+02  0.51100000000E-03 0.  1.
         11   -1    0    0    0    0 -0.00000000000E+00 -0.00000000000E+00 -0.45593999997E+02  0.45594000000E+02  0.51100000000E-03 0. -1.
    9900012    2    1    2    0    0 -0.11665665540E+01 -0.12973545445E+02  0.38516128701E+02  0.50528856760E+02  0.29999990607E+02 0.  0.
         12    1    1    2    0    0  0.11665665540E+01  0.12973545445E+02 -0.38516128701E+02  0.40659143240E+02  0.00000000000E+00 0. -1.
         11    1    3    3    0    0 -0.65645785815E+01  0.41348304259E+01  0.73578982276E+01  0.10692482462E+02  0.51100000000E-03 0. -1.
        -11    1    3    3    0    0 -0.42058577185E+01 -0.10014094543E+01  0.13128818412E+02  0.13822370752E+02  0.51100000000E-03 0.  1.
        -12    1    3    3    0    0  0.96038697460E+01 -0.16106966417E+02  0.18029412061E+02  0.26014003546E+02  0.00000000000E+00 0.  1.
</event>
<event>
 7    1  0.5290964E-013  0.5052885E+02  0.7816164E-02  0.1300439E+00
        -11   -1    0    0    0    0  0.00000000000E+00  0.00000000000E+00  0.45593999997E+02  0.45594000000E+02  0.51100000000E-03 0.  1.
         11   -1    0    0    0    0 -0.00000000000E+00 -0.00000000000E+00 -0.45593999997E+02  0.45594000000E+02  0.51100000000E-03 0. -1.
    9900012    2    1    2    0    0 -0.39653756924E+02 -0.45322894307E-01  0.89857856025E+01  0.50528845616E+02  0.29999956735E+02 0.  0.
         12    1    1    2    0    0  0.39653756924E+02  0.45322894307E-01 -0.89857856025E+01  0.40659154384E+02  0.00000000000E+00 0. -1.
         11    1    3    3    0    0 -0.98727905540E+01 -0.80917751949E+01  0.25856010807E+01  0.13024367637E+02  0.51100000000E-03 0.  1.
        -11    1    3    3    0    0 -0.17149922822E+02 -0.31579222071E+01 -0.37045732942E+01  0.17827399951E+02  0.51100000000E-03 0. -1.
        -12    1    3    3    0    0 -0.12631043548E+02  0.11204374508E+02  0.10104757816E+02  0.19677078028E+02  0.00000000000E+00 0.  1.
</event>
<event>
 7    1  0.5290964E-013  0.5052885E+02  0.7816164E-02  0.1300439E+00
        -11   -1    0    0    0    0  0.00000000000E+00  0.00000000000E+00  0.45593999997E+02  0.45594000000E+02  0.51100000000E-03 0.  1.
         11   -1    0    0    0    0 -0.00000000000E+00 -0.00000000000E+00 -0.45593999997E+02  0.45594000000E+02  0.51100000000E-03 0. -1.
    9900012    2    1    2    0    0  0.44302514401E+01 -0.19696093968E+02  0.35293103518E+02  0.50528850952E+02  0.29999972953E+02 0.  0.
         12    1    1    2    0    0 -0.44302514401E+01  0.19696093968E+02 -0.35293103518E+02  0.40659149048E+02  0.00000000000E+00 0. -1.
         11    1    3    3    0    0  0.33968977481E+01  0.54506169789E+00  0.26658611988E+00  0.34506629777E+01  0.51100000000E-03 0. -1.
        -11    1    3    3    0    0  0.11435637171E+02 -0.53954841648E+01  0.97184990472E+01  0.15947861013E+02  0.51100000000E-03 0.  1.
         12    1    3    3    0    0 -0.10402283479E+02 -0.14845671501E+02  0.25308018351E+02  0.31130326961E+02  0.00000000000E+00 0. -1.
</event>
<event>
 7    1  0.5290964E-013  0.5052886E+02  0.7816164E-02  0.1300439E+00
        -11   -1    0    0    0    0  0.00000000000E+00  0.00000000000E+00  0.45593999997E+02  0.45594000000E+02  0.51100000000E-03 0. -1.
         11   -1    0    0    0    0 -0.00000000000E+00 -0.00000000000E+00 -0.45593999997E+02  0.45594000000E+02  0.51100000000E-03 0.  1.
    9900012    2    1    2    0    0  0.32608138228E+01  0.27950671841E+02 -0.29347793052E+02  0.50528856869E+02  0.29999990938E+02 0.  0.
         12    1    1    2    0    0 -0.32608138228E+01 -0.27950671841E+02  0.29347793052E+02  0.40659143131E+02  0.00000000000E+00 0. -1.
         11    1    3    3    0    0 -0.68342531136E+01  0.12304060047E+01  0.10995813509E+01  0.70306467672E+01  0.51100000000E-03 0.  1.
        -11    1    3    3    0    0 -0.20636182471E+00  0.69119432841E+01 -0.17399438226E+01  0.71305644891E+01  0.51100000000E-03 0. -1.
        -12    1    3    3    0    0  0.10301428761E+02  0.19808322552E+02 -0.28707430581E+02  0.36367645612E+02  0.00000000000E+00 0.  1.
</event>
<event>
 7    1  0.5290964E-013  0.5052885E+02  0.7816164E-02  0.1300439E+00
        -11   -1    0    0    0    0  0.00000000000E+00  0.00000000000E+00  0.45593999997E+02  0.45594000000E+02  0.51100000000E-03 0. -1.
         11   -1    0    0    0    0 -0.00000000000E+00 -0.00000000000E+00 -0.45593999997E+02  0.45594000000E+02  0.51100000000E-03 0.  1.
    9900012    2    1    2    0    0 -0.27531612562E+02  0.25580044570E+02 -0.15518967878E+02  0.50528846855E+02  0.29999960500E+02 0.  0.
         12    1    1    2    0    0  0.27531612562E+02 -0.25580044570E+02  0.15518967878E+02  0.40659153145E+02  0.00000000000E+00 0. -1.
         11    1    3    3    0    0 -0.12071801169E+01  0.91947287036E+01 -0.44468378327E+01  0.10284682141E+02  0.51100000000E-03 0. -1.
        -11    1    3    3    0    0 -0.16060191536E+02  0.21047847803E+02 -0.35995412600E+01  0.26718876227E+02  0.51100000000E-03 0.  1.
         12    1    3    3    0    0 -0.10264240909E+02 -0.46625319358E+01 -0.74725887854E+01  0.13525288487E+02  0.00000000000E+00 0. -1.
</event>
<event>
 7    1  0.5290964E-013  0.5052885E+02  0.7816164E-02  0.1300439E+00
        -11   -1    0    0    0    0  0.00000000000E+00  0.00000000000E+00  0.45593999997E+02  0.45594000000E+02  0.51100000000E-03 0. -1.
         11   -1    0    0    0    0 -0.00000000000E+00 -0.00000000000E+00 -0.45593999997E+02  0.45594000000E+02  0.51100000000E-03 0.  1.
    9900012    2    1    2    0    0  0.27229261455E+02 -0.30177197270E+02  0.10345945945E+01  0.50528852193E+02  0.29999976725E+02 0.  0.
         12    1    1    2    0    0 -0.27229261455E+02  0.30177197270E+02 -0.10345945945E+01  0.40659147807E+02  0.00000000000E+00 0. -1.
         11    1    3    3    0    0  0.20447655955E+02 -0.24620220517E+02  0.58967504252E+01  0.32542795796E+02  0.51100000000E-03 0. -1.
        -11    1    3    3    0    0  0.99385165934E+01 -0.83967594136E+01 -0.30153540521E+01  0.13355599614E+02  0.51100000000E-03 0.  1.
         12    1    3    3    0    0 -0.31569110932E+01  0.28397826610E+01 -0.18468017786E+01  0.46304567833E+01  0.00000000000E+00 0. -1.
</event>
<event>
 7    1  0.5290964E-013  0.5052885E+02  0.7816164E-02  0.1300439E+00
        -11   -1    0    0    0    0  0.00000000000E+00  0.00000000000E+00  0.45593999997E+02  0.45594000000E+02  0.51100000000E-03 0.  1.
         11   -1    0    0    0    0 -0.00000000000E+00 -0.00000000000E+00 -0.45593999997E+02  0.45594000000E+02  0.51100000000E-03 0. -1.
    9900012    2    1    2    0    0 -0.12754656513E+00  0.33717532086E+02  0.22721750591E+02  0.50528853575E+02  0.29999980928E+02 0.  0.
         12    1    1    2    0    0  0.12754656513E+00 -0.33717532086E+02 -0.22721750591E+02  0.40659146425E+02  0.00000000000E+00 0. -1.
         11    1    3    3    0    0  0.11993944244E+01  0.20256924670E+02  0.85640193794E+01  0.22025530011E+02  0.51100000000E-03 0. -1.
        -11    1    3    3    0    0  0.24176829300E+01  0.17733403871E+02  0.66606760823E+01  0.19096685831E+02  0.51100000000E-03 0.  1.
         12    1    3    3    0    0 -0.37446239196E+01 -0.42727964550E+01  0.74970551290E+01  0.94066377337E+01  0.00000000000E+00 0. -1.
</event>
<event>
 7    1  0.5290964E-013  0.5052885E+02  0.7816164E-02  0.1300439E+00
        -11   -1    0    0    0    0  0.00000000000E+00  0.00000000000E+00  0.45593999997E+02  0.45594000000E+02  0.51100000000E-03 0. -1.
         11   -1    0    0    0    0 -0.00000000000E+00 -0.00000000000E+00 -0.45593999997E+02  0.45594000000E+02  0.51100000000E-03 0.  1.
    9900012    2    1    2    0    0 -0.34522244618E+02  0.12022690784E+02 -0.17799890025E+02  0.50528849099E+02  0.29999967320E+02 0.  0.
         12    1    1    2    0    0  0.34522244618E+02 -0.12022690784E+02  0.17799890025E+02  0.40659150901E+02  0.00000000000E+00 0. -1.
         11    1    3    3    0    0 -0.91900045171E+01  0.11453346444E+02 -0.13568434784E+01  0.14747079449E+02  0.51100000000E-03 0.  1.
        -11    1    3    3    0    0 -0.10495497015E+01  0.60729323803E+01 -0.65393803203E+01  0.89858531874E+01  0.51100000000E-03 0. -1.
        -12    1    3    3    0    0 -0.24282690399E+02 -0.55035880402E+01 -0.99036662263E+01  0.26795916462E+02  0.00000000000E+00 0.  1.
</event>
<event>
 7    1  0.5290964E-013  0.5052884E+02  0.7816164E-02  0.1300439E+00
        -11   -1    0    0    0    0  0.00000000000E+00  0.00000000000E+00  0.45593999997E+02  0.45594000000E+02  0.51100000000E-03 0.  1.
         11   -1    0    0    0    0 -0.00000000000E+00 -0.00000000000E+00 -0.45593999997E+02  0.45594000000E+02  0.51100000000E-03 0. -1.
    9900012    2    1    2    0    0  0.37204085382E+02  0.86204148576E+01  0.13953930206E+02  0.50528835109E+02  0.29999924798E+02 0.  0.
         12    1    1    2    0    0 -0.37204085382E+02 -0.86204148576E+01 -0.13953930206E+02  0.40659164891E+02  0.00000000000E+00 0. -1.
         11    1    3    3    0    0  0.19319581278E+01  0.75631335005E+01  0.62590505745E+01  0.10005456757E+02  0.51100000000E-03 0. -1.
        -11    1    3    3    0    0  0.15781262768E+01 -0.31051821845E+01  0.54899617216E+01  0.65017166126E+01  0.51100000000E-03 0.  1.
        -12    1    3    3    0    0  0.33694000977E+02  0.41624635417E+01  0.22049179104E+01  0.34021661740E+02  0.00000000000E+00 0.  1.
</event>
<event>
 7    1  0.5290964E-013  0.5052886E+02  0.7816164E-02  0.1300439E+00
        -11   -1    0    0    0    0  0.00000000000E+00  0.00000000000E+00  0.45593999997E+02  0.45594000000E+02  0.51100000000E-03 0. -1.
         11   -1    0    0    0    0 -0.00000000000E+00 -0.00000000000E+00 -0.45593999997E+02  0.45594000000E+02  0.51100000000E-03 0.  1.
    9900012    2    1    2    0    0  0.24416501184E+02 -0.87731630150E+00 -0.32499698475E+02  0.50528860623E+02  0.30000002349E+02 0.  0.
         12    1    1    2    0    0 -0.24416501184E+02  0.87731630150E+00  0.32499698475E+02  0.40659139377E+02  0.00000000000E+00 0. -1.
         11    1    3    3    0    0  0.96592691400E+01 -0.11684023122E+02 -0.20672928776E+02  0.25635675554E+02  0.51100000000E-03 0.  1.
        -11    1    3    3    0    0 -0.13282174572E+01 -0.50526582196E+00 -0.30377334826E+01  0.33536964885E+01  0.51100000000E-03 0. -1.
        -12    1    3    3    0    0  0.16085449501E+02  0.11311972643E+02 -0.87890362159E+01  0.21539488581E+02  0.00000000000E+00 0.  1.
</event>
<event>
 7    1  0.5290964E-013  0.5052886E+02  0.7816164E-02  0.1300439E+00
        -11   -1    0    0    0    0  0.00000000000E+00  0.00000000000E+00  0.45593999997E+02  0.45594000000E+02  0.51100000000E-03 0.  1.
         11   -1    0    0    0    0 -0.00000000000E+00 -0.00000000000E+00 -0.45593999997E+02  0.45594000000E+02  0.51100000000E-03 0. -1.
    9900012    2    1    2    0    0  0.44223182329E+00  0.33521850316E+02  0.23005562567E+02  0.50528856790E+02  0.29999990698E+02 0.  0.
         12    1    1    2    0    0 -0.44223182329E+00 -0.33521850316E+02 -0.23005562567E+02  0.40659143210E+02  0.00000000000E+00 0. -1.
         11    1    3    3    0    0  0.35765010529E+01 -0.28729426507E+01 -0.21070598585E+01  0.50482532389E+01  0.51100000000E-03 0. -1.
        -11    1    3    3    0    0 -0.10421429170E+01  0.19066200682E+02  0.70285702490E+01  0.20347158777E+02  0.51100000000E-03 0.  1.
        -12    1    3    3    0    0 -0.20921263126E+01  0.17328592284E+02  0.18084052176E+02  0.25133444773E+02  0.00000000000E+00 0.  1.
</event>
<event>
 7    1  0.5290964E-013  0.5052885E+02  0.7816164E-02  0.1300439E+00
        -11   -1    0    0    0    0  0.00000000000E+00  0.00000000000E+00  0.45593999997E+02  0.45594000000E+02  0.51100000000E-03 0.  1.
         11   -1    0    0    0    0 -0.00000000000E+00 -0.00000000000E+00 -0.45593999997E+02  0.45594000000E+02  0.51100000000E-03 0. -1.
    9900012    2    1    2    0    0  0.57560530332E+01 -0.35422784989E+01  0.40093474755E+02  0.50528848491E+02  0.29999965474E+02 0.  0.
         12    1    1    2    0    0 -0.57560530332E+01  0.35422784989E+01 -0.40093474755E+02  0.40659151509E+02  0.00000000000E+00 0. -1.
         11    1    3    3    0    0  0.63579913234E+01 -0.80218150675E+01  0.25212806200E+02  0.27211379373E+02  0.51100000000E-03 0.  1.
        -11    1    3    3    0    0 -0.45299291385E+01 -0.55063204072E+01  0.48067904968E+01  0.85991312101E+01  0.51100000000E-03 0. -1.
         12    1    3    3    0    0  0.39279908482E+01  0.99858569758E+01  0.10073878058E+02  0.14718337908E+02  0.00000000000E+00 0. -1.
</event>
<event>
 7    1  0.5290964E-013  0.5052885E+02  0.7816164E-02  0.1300439E+00
        -11   -1    0    0    0    0  0.00000000000E+00  0.00000000000E+00  0.45593999997E+02  0.45594000000E+02  0.51100000000E-03 0.  1.
         11   -1    0    0    0    0 -0.00000000000E+00 -0.00000000000E+00 -0.45593999997E+02  0.45594000000E+02  0.51100000000E-03 0. -1.
    9900012    2    1    2    0    0  0.26311737690E+02  0.19196677414E+02  0.24338164396E+02  0.50528853302E+02  0.29999980098E+02 0.  0.
         12    1    1    2    0    0 -0.26311737690E+02 -0.19196677414E+02 -0.24338164396E+02  0.40659146698E+02  0.00000000000E+00 0. -1.
         11    1    3    3    0    0  0.49633118940E+01  0.77759151404E+00 -0.41498637354E+01  0.65161708697E+01  0.51100000000E-03 0. -1.
        -11    1    3    3    0    0  0.78964956648E+01 -0.30721974985E+00  0.74266940077E+00  0.79372908388E+01  0.51100000000E-03 0.  1.
        -12    1    3    3    0    0  0.13451930131E+02  0.18726305650E+02  0.27745358731E+02  0.36075391594E+02  0.00000000000E+00 0.  1.
</event>
<event>
 7    1  0.5290964E-013  0.5052885E+02  0.7816164E-02  0.1300439E+00
        -11   -1    0    0    0    0  0.00000000000E+00  0.00000000000E+00  0.45593999997E+02  0.45594000000E+02  0.51100000000E-03 0.  1.
         11   -1    0    0    0    0 -0.00000000000E+00 -0.00000000000E+00 -0.45593999997E+02  0.45594000000E+02  0.51100000000E-03 0. -1.
    9900012    2    1    2    0    0 -0.13940403825E+02  0.31669751920E+02  0.21350839472E+02  0.50528851071E+02  0.29999973316E+02 0.  0.
         12    1    1    2    0    0  0.13940403825E+02 -0.31669751920E+02 -0.21350839472E+02  0.40659148929E+02  0.00000000000E+00 0. -1.
         11    1    3    3    0    0  0.41474460982E+01  0.20184265590E+02  0.18081854269E+02  0.27414582627E+02  0.51100000000E-03 0. -1.
        -11    1    3    3    0    0 -0.97059782165E+01  0.29823756014E+01  0.45095428034E+01  0.11110200445E+02  0.51100000000E-03 0.  1.
        -12    1    3    3    0    0 -0.83818717071E+01  0.85031107280E+01 -0.12405576004E+01  0.12004067999E+02  0.00000000000E+00 0.  1.
</event>
<event>
 7    1  0.5290964E-013  0.5052885E+02  0.7816164E-02  0.1300439E+00
        -11   -1    0    0    0    0  0.00000000000E+00  0.00000000000E+00  0.45593999997E+02  0.45594000000E+02  0.51100000000E-03 0.  1.
         11   -1    0    0    0    0 -0.00000000000E+00 -0.00000000000E+00 -0.45593999997E+02  0.45594000000E+02  0.51100000000E-03 0. -1.
    9900012    2    1    2    0    0 -0.22837339558E+02  0.15852233892E+02  0.29670339059E+02  0.50528850755E+02  0.29999972355E+02 0.  0.
         12    1    1    2    0    0  0.22837339558E+02 -0.15852233892E+02 -0.29670339059E+02  0.40659149245E+02  0.00000000000E+00 0. -1.
         11    1    3    3    0    0 -0.54218125376E+00  0.12107279626E+02  0.13599285973E+02  0.18215947949E+02  0.51100000000E-03 0. -1.
        -11    1    3    3    0    0 -0.39523180281E+01  0.76481642735E+01  0.19230588768E+01  0.88211898435E+01  0.51100000000E-03 0.  1.
        -12    1    3    3    0    0 -0.18342840276E+02 -0.39032100079E+01  0.14147994209E+02  0.23491712962E+02  0.00000000000E+00 0.  1.
</event>
<event>
 7    1  0.5290964E-013  0.5052885E+02  0.7816164E-02  0.1300439E+00
        -11   -1    0    0    0    0  0.00000000000E+00  0.00000000000E+00  0.45593999997E+02  0.45594000000E+02  0.51100000000E-03 0.  1.
         11   -1    0    0    0    0 -0.00000000000E+00 -0.00000000000E+00 -0.45593999997E+02  0.45594000000E+02  0.51100000000E-03 0. -1.
    9900012    2    1    2    0    0 -0.26042055017E+01  0.93955197386E+01  0.39472887424E+02  0.50528849504E+02  0.29999968552E+02 0.  0.
         12    1    1    2    0    0  0.26042055017E+01 -0.93955197386E+01 -0.39472887424E+02  0.40659150496E+02  0.00000000000E+00 0. -1.
         11    1    3    3    0    0 -0.90552261705E+01  0.62764557460E+01  0.85763429075E+01  0.13962258974E+02  0.51100000000E-03 0.  1.
        -11    1    3    3    0    0  0.70083540634E+01  0.60110879421E+01  0.49940263789E+01  0.10497166506E+02  0.51100000000E-03 0. -1.
         12    1    3    3    0    0 -0.55733339464E+00 -0.28920239494E+01  0.25902518138E+02  0.26069424024E+02  0.00000000000E+00 0. -1.
</event>
<event>
 7    1  0.5290964E-013  0.5052887E+02  0.7816164E-02  0.1300439E+00
        -11   -1    0    0    0    0  0.00000000000E+00  0.00000000000E+00  0.45593999997E+02  0.45594000000E+02  0.51100000000E-03 0. -1.
         11   -1    0    0    0    0 -0.00000000000E+00 -0.00000000000E+00 -0.45593999997E+02  0.45594000000E+02  0.51100000000E-03 0.  1.
    9900012    2    1    2    0    0 -0.64794633470E+01  0.29632586542E+02 -0.27075660649E+02  0.50528867816E+02  0.30000024213E+02 0.  0.
         12    1    1    2    0    0  0.64794633470E+01 -0.29632586542E+02  0.27075660649E+02  0.40659132184E+02  0.00000000000E+00 0. -1.
         11    1    3    3    0    0 -0.12195086978E+02  0.11688694319E+02 -0.66829068034E+01  0.18166093826E+02  0.51100000000E-03 0. -1.
        -11    1    3    3    0    0 -0.20627383887E+01  0.13742675814E+02 -0.53029376998E+01  0.14874043723E+02  0.51100000000E-03 0.  1.
         12    1    3    3    0    0  0.77783620198E+01  0.42012164090E+01 -0.15089816146E+02  0.17488730266E+02  0.00000000000E+00 0. -1.
</event>
<event>
 7    1  0.5290964E-013  0.5052887E+02  0.7816164E-02  0.1300439E+00
        -11   -1    0    0    0    0  0.00000000000E+00  0.00000000000E+00  0.45593999997E+02  0.45594000000E+02  0.51100000000E-03 0.  1.
         11   -1    0    0    0    0 -0.00000000000E+00 -0.00000000000E+00 -0.45593999997E+02  0.45594000000E+02  0.51100000000E-03 0. -1.
    9900012    2    1    2    0    0  0.30363469535E+02 -0.91101810438E+01  0.25460350314E+02  0.50528866722E+02  0.30000020887E+02 0.  0.
         12    1    1    2    0    0 -0.30363469535E+02  0.91101810438E+01 -0.25460350314E+02  0.40659133278E+02  0.00000000000E+00 0. -1.
         11    1    3    3    0    0  0.57754390529E+01 -0.20311026673E+01  0.13573025605E+02  0.14889865635E+02  0.51100000000E-03 0. -1.
        -11    1    3    3    0    0  0.20576675247E+02  0.67194970338E+00  0.15919914324E+02  0.26024887185E+02  0.51100000000E-03 0.  1.
         12    1    3    3    0    0  0.40113552346E+01 -0.77510280798E+01 -0.40325896152E+01  0.96141139018E+01  0.00000000000E+00 0. -1.
</event>
<event>
 7    1  0.5290964E-013  0.5052886E+02  0.7816164E-02  0.1300439E+00
        -11   -1    0    0    0    0  0.00000000000E+00  0.00000000000E+00  0.45593999997E+02  0.45594000000E+02  0.51100000000E-03 0.  1.
         11   -1    0    0    0    0 -0.00000000000E+00 -0.00000000000E+00 -0.45593999997E+02  0.45594000000E+02  0.51100000000E-03 0. -1.
    9900012    2    1    2    0    0  0.30217807854E+02  0.23892493642E+02  0.13007627150E+02  0.50528861691E+02  0.30000005597E+02 0.  0.
         12    1    1    2    0    0 -0.30217807854E+02 -0.23892493642E+02 -0.13007627150E+02  0.40659138309E+02  0.00000000000E+00 0. -1.
         11    1    3    3    0    0  0.12250650441E+02  0.25491412784E+01  0.47987360074E+01  0.13401657548E+02  0.51100000000E-03 0.  1.
        -11    1    3    3    0    0  0.14041622341E+02  0.65417006699E-01  0.63489214349E+01  0.15410393927E+02  0.51100000000E-03 0. -1.
         12    1    3    3    0    0  0.39255350716E+01  0.21277935357E+02  0.18599697077E+01  0.21716810216E+02  0.00000000000E+00 0. -1.
</event>
<event>
 7    1  0.5290964E-013  0.5052886E+02  0.7816164E-02  0.1300439E+00
        -11   -1    0    0    0    0  0.00000000000E+00  0.00000000000E+00  0.45593999997E+02  0.45594000000E+02  0.51100000000E-03 0.  1.
         11   -1    0    0    0    0 -0.00000000000E+00 -0.00000000000E+00 -0.45593999997E+02  0.45594000000E+02  0.51100000000E-03 0. -1.
    9900012    2    1    2    0    0 -0.14832289367E+02 -0.28221201158E+02  0.25233558999E+02  0.50528862006E+02  0.30000006553E+02 0.  0.
         12    1    1    2    0    0  0.14832289367E+02  0.28221201158E+02 -0.25233558999E+02  0.40659137994E+02  0.00000000000E+00 0. -1.
         11    1    3    3    0    0 -0.21848186583E+01 -0.17830597694E+01 -0.49720188803E+01  0.57160919095E+01  0.51100000000E-03 0. -1.
        -11    1    3    3    0    0 -0.69718529477E+01 -0.14416412434E+01  0.40485018210E+01  0.81899591120E+01  0.51100000000E-03 0.  1.
        -12    1    3    3    0    0 -0.56756177614E+01 -0.24996500145E+02  0.26157076058E+02  0.36622810984E+02  0.00000000000E+00 0.  1.
</event>
<event>
 7    1  0.5290964E-013  0.5052886E+02  0.7816164E-02  0.1300439E+00
        -11   -1    0    0    0    0  0.00000000000E+00  0.00000000000E+00  0.45593999997E+02  0.45594000000E+02  0.51100000000E-03 0. -1.
         11   -1    0    0    0    0 -0.00000000000E+00 -0.00000000000E+00 -0.45593999997E+02  0.45594000000E+02  0.51100000000E-03 0.  1.
    9900012    2    1    2    0    0  0.28864887821E+02  0.27997655962E+02 -0.60095687393E+01  0.50528863207E+02  0.30000010204E+02 0.  0.
         12    1    1    2    0    0 -0.28864887821E+02 -0.27997655962E+02  0.60095687393E+01  0.40659136793E+02  0.00000000000E+00 0. -1.
         11    1    3    3    0    0  0.75613489961E+01 -0.32211339969E+01 -0.30025683067E+01  0.87501496881E+01  0.51100000000E-03 0.  1.
        -11    1    3    3    0    0  0.14346144450E+02  0.61228837610E+01 -0.18912045934E+01  0.15712358869E+02  0.51100000000E-03 0. -1.
         12    1    3    3    0    0  0.69573943745E+01  0.25095906198E+02 -0.11157958393E+01  0.26066354650E+02  0.00000000000E+00 0. -1.
</event>
<event>
 7    1  0.5290964E-013  0.5052886E+02  0.7816164E-02  0.1300439E+00
        -11   -1    0    0    0    0  0.00000000000E+00  0.00000000000E+00  0.45593999997E+02  0.45594000000E+02  0.51100000000E-03 0.  1.
         11   -1    0    0    0    0 -0.00000000000E+00 -0.00000000000E+00 -0.45593999997E+02  0.45594000000E+02  0.51100000000E-03 0. -1.
    9900012    2    1    2    0    0  0.31422573875E+02  0.25693800697E+02  0.23697795440E+01  0.50528863287E+02  0.30000010447E+02 0.  0.
         12    1    1    2    0    0 -0.31422573875E+02 -0.25693800697E+02 -0.23697795440E+01  0.40659136713E+02  0.00000000000E+00 0. -1.
         11    1    3    3    0    0  0.19877177859E+02  0.74733430033E+01 -0.61703267971E-01  0.21235744932E+02  0.51100000000E-03 0. -1.
        -11    1    3    3    0    0  0.14499226213E+02  0.45359605895E+01  0.13171076998E+01  0.15249172837E+02  0.51100000000E-03 0.  1.
        -12    1    3    3    0    0 -0.29538301969E+01  0.13684497104E+02  0.11143751121E+01  0.14043945518E+02  0.00000000000E+00 0.  1.
</event>
<event>
 7    1  0.5290964E-013  0.5052888E+02  0.7816164E-02  0.1300439E+00
        -11   -1    0    0    0    0  0.00000000000E+00  0.00000000000E+00  0.45593999997E+02  0.45594000000E+02  0.51100000000E-03 0. -1.
         11   -1    0    0    0    0 -0.00000000000E+00 -0.00000000000E+00 -0.45593999997E+02  0.45594000000E+02  0.51100000000E-03 0.  1.
    9900012    2    1    2    0    0 -0.26718309866E+02 -0.28524482521E+02  0.11209351867E+02  0.50528883501E+02  0.30000071890E+02 0.  0.
         12    1    1    2    0    0  0.26718309866E+02  0.28524482521E+02 -0.11209351867E+02  0.40659116499E+02  0.00000000000E+00 0. -1.
         11    1    3    3    0    0 -0.29701523858E+01 -0.97012500714E+01  0.28230541251E+00  0.10149667716E+02  0.51100000000E-03 0. -1.
        -11    1    3    3    0    0 -0.92583991495E+01 -0.22063000325E+02  0.53415657810E+01  0.24515836992E+02  0.51100000000E-03 0.  1.
        -12    1    3    3    0    0 -0.14489758331E+02  0.32397678758E+01  0.55854806737E+01  0.15863378793E+02  0.00000000000E+00 0.  1.
</event>
<event>
 7    1  0.5290964E-013  0.5052887E+02  0.7816164E-02  0.1300439E+00
        -11   -1    0    0    0    0  0.00000000000E+00  0.00000000000E+00  0.45593999997E+02  0.45594000000E+02  0.51100000000E-03 0.  1.
         11   -1    0    0    0    0 -0.00000000000E+00 -0.00000000000E+00 -0.45593999997E+02  0.45594000000E+02  0.51100000000E-03 0. -1.
    9900012    2    1    2    0    0  0.40378672496E+02  0.22274353399E+01  0.42150149027E+01  0.50528868044E+02  0.30000024908E+02 0.  0.
         12    1    1    2    0    0 -0.40378672496E+02 -0.22274353399E+01 -0.42150149027E+01  0.40659131956E+02  0.00000000000E+00 0. -1.
         11    1    3    3    0    0  0.51600068995E+00  0.21465843052E+01 -0.25874056553E+01  0.34012864004E+01  0.51100000000E-03 0.  1.
        -11    1    3    3    0    0 -0.18393261197E+01 -0.21154169868E+01 -0.31310818714E+01  0.42025924796E+01  0.51100000000E-03 0. -1.
        -12    1    3    3    0    0  0.41701997926E+02  0.21962680215E+01  0.99335024294E+01  0.42924989164E+02  0.00000000000E+00 0.  1.
</event>
<event>
 7    1  0.5290964E-013  0.5052886E+02  0.7816164E-02  0.1300439E+00
        -11   -1    0    0    0    0  0.00000000000E+00  0.00000000000E+00  0.45593999997E+02  0.45594000000E+02  0.51100000000E-03 0.  1.
         11   -1    0    0    0    0 -0.00000000000E+00 -0.00000000000E+00 -0.45593999997E+02  0.45594000000E+02  0.51100000000E-03 0. -1.
    9900012    2    1    2    0    0  0.29177224870E+02 -0.13338643632E+01  0.28285614589E+02  0.50528860339E+02  0.30000001487E+02 0.  0.
         12    1    1    2    0    0 -0.29177224870E+02  0.13338643632E+01 -0.28285614589E+02  0.40659139661E+02  0.00000000000E+00 0. -1.
         11    1    3    3    0    0  0.17692623976E+02  0.10558746476E+02  0.21193278787E+02  0.29557928485E+02  0.51100000000E-03 0. -1.
        -11    1    3    3    0    0  0.37231855831E+01 -0.11466790830E+01  0.66508541846E+01  0.77078431128E+01  0.51100000000E-03 0.  1.
         12    1    3    3    0    0  0.77614153114E+01 -0.10745931756E+02  0.44148161746E+00  0.13263088742E+02  0.00000000000E+00 0. -1.
</event>
<event>
 7    1  0.5290964E-013  0.5052886E+02  0.7816164E-02  0.1300439E+00
        -11   -1    0    0    0    0  0.00000000000E+00  0.00000000000E+00  0.45593999997E+02  0.45594000000E+02  0.51100000000E-03 0.  1.
         11   -1    0    0    0    0 -0.00000000000E+00 -0.00000000000E+00 -0.45593999997E+02  0.45594000000E+02  0.51100000000E-03 0. -1.
    9900012    2    1    2    0    0  0.64749566870E+01  0.32768780822E+01  0.40006280191E+02  0.50528862665E+02  0.30000008557E+02 0.  0.
         12    1    1    2    0    0 -0.64749566870E+01 -0.32768780822E+01 -0.40006280191E+02  0.40659137335E+02  0.00000000000E+00 0. -1.
         11    1    3    3    0    0 -0.58680206429E+01 -0.32351976909E+01  0.12808233416E+02  0.14455137974E+02  0.51100000000E-03 0. -1.
        -11    1    3    3    0    0  0.74223585020E+01 -0.64318561838E+01  0.12164261541E+02  0.15634239310E+02  0.51100000000E-03 0.  1.
        -12    1    3    3    0    0  0.49206188279E+01  0.12943931957E+02  0.15033785235E+02  0.20439485381E+02  0.00000000000E+00 0.  1.
</event>
<event>
 7    1  0.5290964E-013  0.5052886E+02  0.7816164E-02  0.1300439E+00
        -11   -1    0    0    0    0  0.00000000000E+00  0.00000000000E+00  0.45593999997E+02  0.45594000000E+02  0.51100000000E-03 0.  1.
         11   -1    0    0    0    0 -0.00000000000E+00 -0.00000000000E+00 -0.45593999997E+02  0.45594000000E+02  0.51100000000E-03 0. -1.
    9900012    2    1    2    0    0 -0.27188859867E+02  0.95983044282E+01  0.28667128316E+02  0.50528858412E+02  0.29999995630E+02 0.  0.
         12    1    1    2    0    0  0.27188859867E+02 -0.95983044282E+01 -0.28667128316E+02  0.40659141588E+02  0.00000000000E+00 0. -1.
         11    1    3    3    0    0 -0.41953526885E+01  0.31686378128E+01  0.11676251625E+02  0.12805315382E+02  0.51100000000E-03 0. -1.
        -11    1    3    3    0    0 -0.10596190847E+01  0.63418732054E+01  0.14231507462E+02  0.15616592242E+02  0.51100000000E-03 0.  1.
         12    1    3    3    0    0 -0.21933888094E+02  0.87793409937E-01  0.27593692288E+01  0.22106950788E+02  0.00000000000E+00 0. -1.
</event>
<event>
 7    1  0.5290964E-013  0.5052885E+02  0.7816164E-02  0.1300439E+00
        -11   -1    0    0    0    0  0.00000000000E+00  0.00000000000E+00  0.45593999997E+02  0.45594000000E+02  0.51100000000E-03 0.  1.
         11   -1    0    0    0    0 -0.00000000000E+00 -0.00000000000E+00 -0.45593999997E+02  0.45594000000E+02  0.51100000000E-03 0. -1.
    9900012    2    1    2    0    0 -0.22307953294E+02  0.83971425153E+01  0.32939485406E+02  0.50528849967E+02  0.29999969960E+02 0.  0.
         12    1    1    2    0    0  0.22307953294E+02 -0.83971425153E+01 -0.32939485406E+02  0.40659150033E+02  0.00000000000E+00 0. -1.
         11    1    3    3    0    0 -0.15122346736E+02 -0.14843753676E+01  0.10646086438E+02  0.18553379685E+02  0.51100000000E-03 0.  1.
        -11    1    3    3    0    0  0.27198567638E+01 -0.25431848337E+01 -0.92831941923E+00  0.38376017406E+01  0.51100000000E-03 0. -1.
        -12    1    3    3    0    0 -0.99054633223E+01  0.12424702717E+02  0.23221718387E+02  0.28137868541E+02  0.00000000000E+00 0.  1.
</event>
<event>
 7    1  0.5290964E-013  0.5052882E+02  0.7816164E-02  0.1300439E+00
        -11   -1    0    0    0    0  0.00000000000E+00  0.00000000000E+00  0.45593999997E+02  0.45594000000E+02  0.51100000000E-03 0.  1.
         11   -1    0    0    0    0 -0.00000000000E+00 -0.00000000000E+00 -0.45593999997E+02  0.45594000000E+02  0.51100000000E-03 0. -1.
    9900012    2    1    2    0    0  0.28864685901E+02  0.21989607716E+02  0.18342727276E+02  0.50528824116E+02  0.29999891383E+02 0.  0.
         12    1    1    2    0    0 -0.28864685901E+02 -0.21989607716E+02 -0.18342727276E+02  0.40659175884E+02  0.00000000000E+00 0. -1.
         11    1    3    3    0    0  0.77976266924E+00  0.40618240221E+01  0.97377606394E+01  0.10579717706E+02  0.51100000000E-03 0. -1.
        -11    1    3    3    0    0  0.19040490155E+02  0.20181770832E+02  0.11722128154E+02  0.30120631268E+02  0.51100000000E-03 0.  1.
         12    1    3    3    0    0  0.90444330762E+01 -0.22539871386E+01 -0.31171615173E+01  0.98284751419E+01  0.00000000000E+00 0. -1.
</event>
<event>
 7    1  0.5290964E-013  0.5052886E+02  0.7816164E-02  0.1300439E+00
        -11   -1    0    0    0    0  0.00000000000E+00  0.00000000000E+00  0.45593999997E+02  0.45594000000E+02  0.51100000000E-03 0.  1.
         11   -1    0    0    0    0 -0.00000000000E+00 -0.00000000000E+00 -0.45593999997E+02  0.45594000000E+02  0.51100000000E-03 0. -1.
    9900012    2    1    2    0    0  0.31295353560E+02  0.23140629698E+02 -0.11759154546E+02  0.50528860648E+02  0.30000002424E+02 0.  0.
         12    1    1    2    0    0 -0.31295353560E+02 -0.23140629698E+02  0.11759154546E+02  0.40659139352E+02  0.00000000000E+00 0. -1.
         11    1    3    3    0    0 -0.18616362631E+00  0.46224320186E+01 -0.77281143897E+00  0.46902849000E+01  0.51100000000E-03 0. -1.
        -11    1    3    3    0    0  0.26614532118E+02  0.24654610785E+02 -0.66420734268E+01  0.36882249017E+02  0.51100000000E-03 0.  1.
         12    1    3    3    0    0  0.48669850678E+01 -0.61364131060E+01 -0.43442696801E+01  0.89563267309E+01  0.00000000000E+00 0. -1.
</event>
<event>
 7    1  0.5290964E-013  0.5052887E+02  0.7816164E-02  0.1300439E+00
        -11   -1    0    0    0    0  0.00000000000E+00  0.00000000000E+00  0.45593999997E+02  0.45594000000E+02  0.51100000000E-03 0.  1.
         11   -1    0    0    0    0 -0.00000000000E+00 -0.00000000000E+00 -0.45593999997E+02  0.45594000000E+02  0.51100000000E-03 0. -1.
    9900012    2    1    2    0    0  0.28338849280E+01 -0.32897697451E+02  0.23724993938E+02  0.50528871397E+02  0.30000035099E+02 0.  0.
         12    1    1    2    0    0 -0.28338849280E+01  0.32897697451E+02 -0.23724993938E+02  0.40659128603E+02  0.00000000000E+00 0. -1.
         11    1    3    3    0    0 -0.14900679486E+01 -0.40366385184E+01 -0.12116981882E+01  0.44702310657E+01  0.51100000000E-03 0. -1.
        -11    1    3    3    0    0  0.10220251631E+02 -0.83807291018E+01 -0.50386760373E-01  0.13217136708E+02  0.51100000000E-03 0.  1.
        -12    1    3    3    0    0 -0.58962987542E+01 -0.20480329831E+02  0.24987078886E+02  0.32841503624E+02  0.00000000000E+00 0.  1.
</event>
<event>
 7    1  0.5290964E-013  0.5052886E+02  0.7816164E-02  0.1300439E+00
        -11   -1    0    0    0    0  0.00000000000E+00  0.00000000000E+00  0.45593999997E+02  0.45594000000E+02  0.51100000000E-03 0. -1.
         11   -1    0    0    0    0 -0.00000000000E+00 -0.00000000000E+00 -0.45593999997E+02  0.45594000000E+02  0.51100000000E-03 0.  1.
    9900012    2    1    2    0    0  0.19027692473E+02  0.19036956413E+02 -0.30474695771E+02  0.50528857453E+02  0.29999992714E+02 0.  0.
         12    1    1    2    0    0 -0.19027692473E+02 -0.19036956413E+02  0.30474695771E+02  0.40659142547E+02  0.00000000000E+00 0. -1.
         11    1    3    3    0    0 -0.15721386963E+01 -0.16960785911E+01  0.12208359628E+00  0.23158599555E+01  0.51100000000E-03 0. -1.
        -11    1    3    3    0    0 -0.35778742898E+01  0.70005096184E+01 -0.15696234268E+01  0.80169843030E+01  0.51100000000E-03 0.  1.
        -12    1    3    3    0    0  0.24177705459E+02  0.13732525386E+02 -0.29027155941E+02  0.40196013195E+02  0.00000000000E+00 0.  1.
</event>
<event>
 7    1  0.5290964E-013  0.5052888E+02  0.7816164E-02  0.1300439E+00
        -11   -1    0    0    0    0  0.00000000000E+00  0.00000000000E+00  0.45593999997E+02  0.45594000000E+02  0.51100000000E-03 0.  1.
         11   -1    0    0    0    0 -0.00000000000E+00 -0.00000000000E+00 -0.45593999997E+02  0.45594000000E+02  0.51100000000E-03 0. -1.
    9900012    2    1    2    0    0  0.32826916926E+02  0.19324594942E+02  0.14216805526E+02  0.50528880433E+02  0.30000062566E+02 0.  0.
         12    1    1    2    0    0 -0.32826916926E+02 -0.19324594942E+02 -0.14216805526E+02  0.40659119567E+02  0.00000000000E+00 0. -1.
         11    1    3    3    0    0  0.17889047753E+02 -0.47299286194E+01  0.10399658550E+02  0.21226001801E+02  0.51100000000E-03 0. -1.
        -11    1    3    3    0    0  0.60811332218E+01  0.62582469275E+01  0.35557425295E+01  0.94227990037E+01  0.51100000000E-03 0.  1.
         12    1    3    3    0    0  0.88567359512E+01  0.17796276634E+02  0.26140444676E+00  0.19880079628E+02  0.00000000000E+00 0. -1.
</event>
<event>
 7    1  0.5290964E-013  0.5052889E+02  0.7816164E-02  0.1300439E+00
        -11   -1    0    0    0    0  0.00000000000E+00  0.00000000000E+00  0.45593999997E+02  0.45594000000E+02  0.51100000000E-03 0. -1.
         11   -1    0    0    0    0 -0.00000000000E+00 -0.00000000000E+00 -0.45593999997E+02  0.45594000000E+02  0.51100000000E-03 0.  1.
    9900012    2    1    2    0    0  0.28664305936E+02 -0.24708068007E+02 -0.14867161979E+02  0.50528885834E+02  0.30000078982E+02 0.  0.
         12    1    1    2    0    0 -0.28664305936E+02  0.24708068007E+02  0.14867161979E+02  0.40659114166E+02  0.00000000000E+00 0. -1.
         11    1    3    3    0    0  0.14559022289E+02  0.30692334096E+01 -0.68717989618E+00  0.14894883021E+02  0.51100000000E-03 0. -1.
        -11    1    3    3    0    0  0.36026147831E+01 -0.57484765624E+01  0.10534622203E+01  0.68653913927E+01  0.51100000000E-03 0.  1.
         12    1    3    3    0    0  0.10502668863E+02 -0.22028824854E+02 -0.15233444303E+02  0.28768611420E+02  0.00000000000E+00 0. -1.
</event>
<event>
 7    1  0.5290964E-013  0.5052888E+02  0.7816164E-02  0.1300439E+00
        -11   -1    0    0    0    0  0.00000000000E+00  0.00000000000E+00  0.45593999997E+02  0.45594000000E+02  0.51100000000E-03 0.  1.
         11   -1    0    0    0    0 -0.00000000000E+00 -0.00000000000E+00 -0.45593999997E+02  0.45594000000E+02  0.51100000000E-03 0. -1.
    9900012    2    1    2    0    0 -0.22543192791E+02  0.33671982520E+02  0.33416226472E+01  0.50528875686E+02  0.30000048135E+02 0.  0.
         12    1    1    2    0    0  0.22543192791E+02 -0.33671982520E+02 -0.33416226472E+01  0.40659124314E+02  0.00000000000E+00 0. -1.
         11    1    3    3    0    0 -0.87479430379E+01  0.27822898678E+01 -0.32741366028E+01  0.97461589899E+01  0.51100000000E-03 0. -1.
        -11    1    3    3    0    0 -0.54163377554E+01  0.19113368875E+01 -0.57994680714E+01  0.81623375053E+01  0.51100000000E-03 0.  1.
        -12    1    3    3    0    0 -0.83789119981E+01  0.28978355765E+02  0.12415227321E+02  0.32620379191E+02  0.00000000000E+00 0.  1.
</event>
<event>
 7    1  0.5290964E-013  0.5052887E+02  0.7816164E-02  0.1300439E+00
        -11   -1    0    0    0    0  0.00000000000E+00  0.00000000000E+00  0.45593999997E+02  0.45594000000E+02  0.51100000000E-03 0.  1.
         11   -1    0    0    0    0 -0.00000000000E+00 -0.00000000000E+00 -0.45593999997E+02  0.45594000000E+02  0.51100000000E-03 0. -1.
    9900012    2    1    2    0    0  0.78426268662E+01 -0.66711559823E+01  0.39333876516E+02  0.50528868675E+02  0.30000026826E+02 0.  0.
         12    1    1    2    0    0 -0.78426268662E+01  0.66711559823E+01 -0.39333876516E+02  0.40659131325E+02  0.00000000000E+00 0. -1.
         11    1    3    3    0    0 -0.28692105267E+01 -0.51353077945E+01 -0.19355885593E+01  0.61927585552E+01  0.51100000000E-03 0. -1.
        -11    1    3    3    0    0  0.28617271503E+01 -0.60743658337E+01  0.12753416629E+02  0.14413085671E+02  0.51100000000E-03 0.  1.
        -12    1    3    3    0    0  0.78501102427E+01  0.45385176459E+01  0.28516048446E+02  0.29923024450E+02  0.00000000000E+00 0.  1.
</event>
<event>
 7    1  0.5290964E-013  0.5052884E+02  0.7816164E-02  0.1300439E+00
        -11   -1    0    0    0    0  0.00000000000E+00  0.00000000000E+00  0.45593999997E+02  0.45594000000E+02  0.51100000000E-03 0.  1.
         11   -1    0    0    0    0 -0.00000000000E+00 -0.00000000000E+00 -0.45593999997E+02  0.45594000000E+02  0.51100000000E-03 0. -1.
    9900012    2    1    2    0    0  0.11088035967E+02  0.89898221877E+01  0.38071059461E+02  0.50528843429E+02  0.29999950086E+02 0.  0.
         12    1    1    2    0    0 -0.11088035967E+02 -0.89898221877E+01 -0.38071059461E+02  0.40659156571E+02  0.00000000000E+00 0. -1.
         11    1    3    3    0    0  0.15623047088E+02 -0.92221533881E+00  0.13808216679E+02  0.20870959000E+02  0.51100000000E-03 0. -1.
        -11    1    3    3    0    0  0.11351096652E+01  0.16507140225E+01 -0.11716912546E+01  0.23208169668E+01  0.51100000000E-03 0.  1.
        -12    1    3    3    0    0 -0.56701207861E+01  0.82613235040E+01  0.25434534037E+02  0.27337067462E+02  0.00000000000E+00 0.  1.
</event>
<event>
 7    1  0.5290964E-013  0.5052886E+02  0.7816164E-02  0.1300439E+00
        -11   -1    0    0    0    0  0.00000000000E+00  0.00000000000E+00  0.45593999997E+02  0.45594000000E+02  0.51100000000E-03 0.  1.
         11   -1    0    0    0    0 -0.00000000000E+00 -0.00000000000E+00 -0.45593999997E+02  0.45594000000E+02  0.51100000000E-03 0. -1.
    9900012    2    1    2    0    0 -0.37259160365E+02 -0.15831843552E+02  0.37780206518E+01  0.50528859067E+02  0.29999997621E+02 0.  0.
         12    1    1    2    0    0  0.37259160365E+02  0.15831843552E+02 -0.37780206518E+01  0.40659140933E+02  0.00000000000E+00 0. -1.
         11    1    3    3    0    0  0.14845024134E+01  0.83653840219E+00  0.14141261581E+01  0.22143389455E+01  0.51100000000E-03 0. -1.
        -11    1    3    3    0    0 -0.85108216612E+01  0.55024102822E+00 -0.83241290069E+01  0.11917549015E+02  0.51100000000E-03 0.  1.
        -12    1    3    3    0    0 -0.30232841117E+02 -0.17218622982E+02  0.10688023501E+02  0.36396971107E+02  0.00000000000E+00 0.  1.
</event>
<event>
 7    1  0.5290964E-013  0.5052886E+02  0.7816164E-02  0.1300439E+00
        -11   -1    0    0    0    0  0.00000000000E+00  0.00000000000E+00  0.45593999997E+02  0.45594000000E+02  0.51100000000E-03 0. -1.
         11   -1    0    0    0    0 -0.00000000000E+00 -0.00000000000E+00 -0.45593999997E+02  0.45594000000E+02  0.51100000000E-03 0.  1.
    9900012    2    1    2    0    0  0.53708043525E+01  0.39512209948E+02 -0.79439096756E+01  0.50528856190E+02  0.29999988876E+02 0.  0.
         12    1    1    2    0    0 -0.53708043525E+01 -0.39512209948E+02  0.79439096756E+01  0.40659143810E+02  0.00000000000E+00 0. -1.
         11    1    3    3    0    0  0.44724007900E+01  0.16184065118E+02  0.90026802394E+01  0.19051891883E+02  0.51100000000E-03 0. -1.
        -11    1    3    3    0    0 -0.11424767307E+01  0.45036532470E+01 -0.10487758188E+02  0.11470885656E+02  0.51100000000E-03 0.  1.
        -12    1    3    3    0    0  0.20408802932E+01  0.18824491583E+02 -0.64588317269E+01  0.20006078652E+02  0.00000000000E+00 0.  1.
</event>
<event>
 7    1  0.5290964E-013  0.5052886E+02  0.7816164E-02  0.1300439E+00
        -11   -1    0    0    0    0  0.00000000000E+00  0.00000000000E+00  0.45593999997E+02  0.45594000000E+02  0.51100000000E-03 0.  1.
         11   -1    0    0    0    0 -0.00000000000E+00 -0.00000000000E+00 -0.45593999997E+02  0.45594000000E+02  0.51100000000E-03 0. -1.
    9900012    2    1    2    0    0  0.34075715379E+02  0.15767870006E+02  0.15600807395E+02  0.50528864562E+02  0.30000014324E+02 0.  0.
         12    1    1    2    0    0 -0.34075715379E+02 -0.15767870006E+02 -0.15600807395E+02  0.40659135438E+02  0.00000000000E+00 0. -1.
         11    1    3    3    0    0  0.44095039802E+00  0.65185475874E+01 -0.76378499666E+00  0.65779379508E+01  0.51100000000E-03 0. -1.
        -11    1    3    3    0    0  0.70607115446E+01  0.98121099638E+01 -0.11129298574E+01  0.12139594828E+02  0.51100000000E-03 0.  1.
        -12    1    3    3    0    0  0.26574053437E+02 -0.56278754497E+00  0.17477522249E+02  0.31811331784E+02  0.00000000000E+00 0.  1.
</event>
<event>
 7    1  0.5290964E-013  0.5052886E+02  0.7816164E-02  0.1300439E+00
        -11   -1    0    0    0    0  0.00000000000E+00  0.00000000000E+00  0.45593999997E+02  0.45594000000E+02  0.51100000000E-03 0. -1.
         11   -1    0    0    0    0 -0.00000000000E+00 -0.00000000000E+00 -0.45593999997E+02  0.45594000000E+02  0.51100000000E-03 0.  1.
    9900012    2    1    2    0    0  0.26193834187E+02  0.29256924334E+02  0.10539518272E+02  0.50528855687E+02  0.29999987345E+02 0.  0.
         12    1    1    2    0    0 -0.26193834187E+02 -0.29256924334E+02 -0.10539518272E+02  0.40659144313E+02  0.00000000000E+00 0. -1.
         11    1    3    3    0    0 -0.39318923270E+01  0.10514700941E+02 -0.18797700982E+01  0.11382102136E+02  0.51100000000E-03 0. -1.
        -11    1    3    3    0    0  0.64582986557E+01  0.88093465872E+01  0.74272590469E+00  0.10948326395E+02  0.51100000000E-03 0.  1.
         12    1    3    3    0    0  0.23667427858E+02  0.99328768056E+01  0.11676562465E+02  0.28198427156E+02  0.00000000000E+00 0. -1.
</event>
<event>
 7    1  0.5290964E-013  0.5052890E+02  0.7816164E-02  0.1300439E+00
        -11   -1    0    0    0    0  0.00000000000E+00  0.00000000000E+00  0.45593999997E+02  0.45594000000E+02  0.51100000000E-03 0.  1.
         11   -1    0    0    0    0 -0.00000000000E+00 -0.00000000000E+00 -0.45593999997E+02  0.45594000000E+02  0.51100000000E-03 0. -1.
    9900012    2    1    2    0    0  0.35278066721E+02 -0.11048317852E+02  0.16927950201E+02  0.50528895030E+02  0.30000106933E+02 0.  0.
         12    1    1    2    0    0 -0.35278066721E+02  0.11048317852E+02 -0.16927950201E+02  0.40659104970E+02  0.00000000000E+00 0. -1.
         11    1    3    3    0    0  0.12369891805E+02  0.41373394652E+01  0.92188035502E+01  0.15972418110E+02  0.51100000000E-03 0. -1.
        -11    1    3    3    0    0  0.18747348930E+02 -0.56139939665E+01  0.12342918478E+02  0.23137148852E+02  0.51100000000E-03 0.  1.
         12    1    3    3    0    0  0.41608259857E+01 -0.95716633510E+01 -0.46337718270E+01  0.11419328068E+02  0.00000000000E+00 0. -1.
</event>
<event>
 7    1  0.5290964E-013  0.5052884E+02  0.7816164E-02  0.1300439E+00
        -11   -1    0    0    0    0  0.00000000000E+00  0.00000000000E+00  0.45593999997E+02  0.45594000000E+02  0.51100000000E-03 0.  1.
         11   -1    0    0    0    0 -0.00000000000E+00 -0.00000000000E+00 -0.45593999997E+02  0.45594000000E+02  0.51100000000E-03 0. -1.
    9900012    2    1    2    0    0 -0.31508163749E+02  0.60086735559E+01  0.24985964523E+02  0.50528844034E+02  0.29999951926E+02 0.  0.
         12    1    1    2    0    0  0.31508163749E+02 -0.60086735559E+01 -0.24985964523E+02  0.40659155966E+02  0.00000000000E+00 0. -1.
         11    1    3    3    0    0 -0.89745367318E+01 -0.11288283941E+01  0.12482731143E+02  0.15415418909E+02  0.51100000000E-03 0. -1.
        -11    1    3    3    0    0 -0.65876028588E+01 -0.83124732472E+01  0.42455873857E+01  0.11424479656E+02  0.51100000000E-03 0.  1.
         12    1    3    3    0    0 -0.15946024158E+02  0.15449975197E+02  0.82576459943E+01  0.23688945468E+02  0.00000000000E+00 0. -1.
</event>
<event>
 7    1  0.5290964E-013  0.5052882E+02  0.7816164E-02  0.1300439E+00
        -11   -1    0    0    0    0  0.00000000000E+00  0.00000000000E+00  0.45593999997E+02  0.45594000000E+02  0.51100000000E-03 0.  1.
         11   -1    0    0    0    0 -0.00000000000E+00 -0.00000000000E+00 -0.45593999997E+02  0.45594000000E+02  0.51100000000E-03 0. -1.
    9900012    2    1    2    0    0  0.11622935607E+02 -0.14606304802E+02  0.36121074975E+02  0.50528821093E+02  0.29999882194E+02 0.  0.
         12    1    1    2    0    0 -0.11622935607E+02  0.14606304802E+02 -0.36121074975E+02  0.40659178907E+02  0.00000000000E+00 0. -1.
         11    1    3    3    0    0 -0.19657112355E+01 -0.19611932543E+01  0.37363361798E+00  0.28017676534E+01  0.51100000000E-03 0. -1.
        -11    1    3    3    0    0 -0.41449810485E+01 -0.98514930456E+01  0.43088077570E+01  0.11523827822E+02  0.51100000000E-03 0.  1.
         12    1    3    3    0    0  0.17733627891E+02 -0.27936185017E+01  0.31438633600E+02  0.36203225618E+02  0.00000000000E+00 0. -1.
</event>
<event>
 7    1  0.5290964E-013  0.5052886E+02  0.7816164E-02  0.1300439E+00
        -11   -1    0    0    0    0  0.00000000000E+00  0.00000000000E+00  0.45593999997E+02  0.45594000000E+02  0.51100000000E-03 0.  1.
         11   -1    0    0    0    0 -0.00000000000E+00 -0.00000000000E+00 -0.45593999997E+02  0.45594000000E+02  0.51100000000E-03 0. -1.
    9900012    2    1    2    0    0  0.10101464541E+02  0.65903258298E+01  0.38829031947E+02  0.50528859548E+02  0.29999999081E+02 0.  0.
         12    1    1    2    0    0 -0.10101464541E+02 -0.65903258298E+01 -0.38829031947E+02  0.40659140452E+02  0.00000000000E+00 0. -1.
         11    1    3    3    0    0  0.68808717957E+01  0.69768964482E+01  0.50376918466E+01  0.11018249413E+02  0.51100000000E-03 0.  1.
        -11    1    3    3    0    0  0.14281430942E+01 -0.66347063902E+00 -0.26185449931E+01  0.30555791805E+01  0.51100000000E-03 0. -1.
        -12    1    3    3    0    0  0.17924496507E+01  0.27690002062E+00  0.36409885093E+02  0.36455030954E+02  0.00000000000E+00 0.  1.
</event>
<event>
 7    1  0.5290964E-013  0.5052885E+02  0.7816164E-02  0.1300439E+00
        -11   -1    0    0    0    0  0.00000000000E+00  0.00000000000E+00  0.45593999997E+02  0.45594000000E+02  0.51100000000E-03 0.  1.
         11   -1    0    0    0    0 -0.00000000000E+00 -0.00000000000E+00 -0.45593999997E+02  0.45594000000E+02  0.51100000000E-03 0. -1.
    9900012    2    1    2    0    0 -0.28354581050E+02 -0.49440871425E+01  0.28718283977E+02  0.50528854673E+02  0.29999984263E+02 0.  0.
         12    1    1    2    0    0  0.28354581050E+02  0.49440871425E+01 -0.28718283977E+02  0.40659145327E+02  0.00000000000E+00 0. -1.
         11    1    3    3    0    0  0.52026966379E+01 -0.11496392656E+01  0.53471723977E+01  0.75486406498E+01  0.51100000000E-03 0. -1.
        -11    1    3    3    0    0 -0.85902167364E+01 -0.56308636425E+01  0.29877471436E+01  0.10696966028E+02  0.51100000000E-03 0.  1.
        -12    1    3    3    0    0 -0.24967060951E+02  0.18364157655E+01  0.20383364435E+02  0.32283247995E+02  0.00000000000E+00 0.  1.
</event>
<event>
 7    1  0.5290964E-013  0.5052886E+02  0.7816164E-02  0.1300439E+00
        -11   -1    0    0    0    0  0.00000000000E+00  0.00000000000E+00  0.45593999997E+02  0.45594000000E+02  0.51100000000E-03 0.  1.
         11   -1    0    0    0    0 -0.00000000000E+00 -0.00000000000E+00 -0.45593999997E+02  0.45594000000E+02  0.51100000000E-03 0. -1.
    9900012    2    1    2    0    0  0.30223688852E+02 -0.22824411008E+02 -0.14789880283E+02  0.50528860013E+02  0.30000000496E+02 0.  0.
         12    1    1    2    0    0 -0.30223688852E+02  0.22824411008E+02  0.14789880283E+02  0.40659139987E+02  0.00000000000E+00 0. -1.
         11    1    3    3    0    0  0.12934175258E+02 -0.16501357923E+02 -0.11791435390E+02  0.24054638882E+02  0.51100000000E-03 0. -1.
        -11    1    3    3    0    0  0.43227431610E+01 -0.11542805984E+02 -0.13482007249E+01  0.12399198517E+02  0.51100000000E-03 0.  1.
        -12    1    3    3    0    0  0.12966770432E+02  0.52197528987E+01 -0.16502441681E+01  0.14075022614E+02  0.00000000000E+00 0.  1.
</event>
<event>
 7    1  0.5290964E-013  0.5052886E+02  0.7816164E-02  0.1300439E+00
        -11   -1    0    0    0    0  0.00000000000E+00  0.00000000000E+00  0.45593999997E+02  0.45594000000E+02  0.51100000000E-03 0. -1.
         11   -1    0    0    0    0 -0.00000000000E+00 -0.00000000000E+00 -0.45593999997E+02  0.45594000000E+02  0.51100000000E-03 0.  1.
    9900012    2    1    2    0    0 -0.20981622939E+02 -0.33859133165E+02 -0.81545376636E+01  0.50528857309E+02  0.29999992277E+02 0.  0.
         12    1    1    2    0    0  0.20981622939E+02  0.33859133165E+02  0.81545376636E+01  0.40659142691E+02  0.00000000000E+00 0. -1.
         11    1    3    3    0    0 -0.70341238977E+01 -0.13640024147E+02 -0.36263422665E+01  0.15769575651E+02  0.51100000000E-03 0. -1.
        -11    1    3    3    0    0 -0.81863188740E+01 -0.20856429124E+02  0.55955263067E+01  0.23093643442E+02  0.51100000000E-03 0.  1.
         12    1    3    3    0    0 -0.57611801676E+01  0.63732010652E+00 -0.10123721704E+02  0.11665638216E+02  0.00000000000E+00 0. -1.
</event>
<event>
 7    1  0.5290964E-013  0.5052886E+02  0.7816164E-02  0.1300439E+00
        -11   -1    0    0    0    0  0.00000000000E+00  0.00000000000E+00  0.45593999997E+02  0.45594000000E+02  0.51100000000E-03 0. -1.
         11   -1    0    0    0    0 -0.00000000000E+00 -0.00000000000E+00 -0.45593999997E+02  0.45594000000E+02  0.51100000000E-03 0.  1.
    9900012    2    1    2    0    0 -0.18409203434E+02  0.23483083307E+02 -0.27619051260E+02  0.50528856315E+02  0.29999989255E+02 0.  0.
         12    1    1    2    0    0  0.18409203434E+02 -0.23483083307E+02  0.27619051260E+02  0.40659143685E+02  0.00000000000E+00 0. -1.
         11    1    3    3    0    0  0.10480366578E+01 -0.29811989527E+01  0.10416942725E+01  0.33273195293E+01  0.51100000000E-03 0. -1.
        -11    1    3    3    0    0  0.24349638665E+01  0.43174051054E+01 -0.92842263528E+01  0.10524537762E+02  0.51100000000E-03 0.  1.
        -12    1    3    3    0    0 -0.21892203958E+02  0.22146877154E+02 -0.19376519180E+02  0.36676999024E+02  0.00000000000E+00 0.  1.
</event>
<event>
 7    1  0.5290964E-013  0.5052886E+02  0.7816164E-02  0.1300439E+00
        -11   -1    0    0    0    0  0.00000000000E+00  0.00000000000E+00  0.45593999997E+02  0.45594000000E+02  0.51100000000E-03 0.  1.
         11   -1    0    0    0    0 -0.00000000000E+00 -0.00000000000E+00 -0.45593999997E+02  0.45594000000E+02  0.51100000000E-03 0. -1.
    9900012    2    1    2    0    0 -0.13986667627E+02  0.55829300983E-01  0.38177687607E+02  0.50528858110E+02  0.29999994711E+02 0.  0.
         12    1    1    2    0    0  0.13986667627E+02 -0.55829300983E-01 -0.38177687607E+02  0.40659141890E+02  0.00000000000E+00 0. -1.
         11    1    3    3    0    0 -0.51172687115E+01  0.37850300086E+01  0.10073885884E+02  0.11916210316E+02  0.51100000000E-03 0. -1.
        -11    1    3    3    0    0 -0.52027914010E+01 -0.11352047221E+01  0.32137555866E+02  0.32575761317E+02  0.51100000000E-03 0.  1.
         12    1    3    3    0    0 -0.36666075149E+01 -0.25939959855E+01 -0.40337541431E+01  0.60368864763E+01  0.00000000000E+00 0. -1.
</event>
<event>
 7    1  0.5290964E-013  0.5052886E+02  0.7816164E-02  0.1300439E+00
        -11   -1    0    0    0    0  0.00000000000E+00  0.00000000000E+00  0.45593999997E+02  0.45594000000E+02  0.51100000000E-03 0. -1.
         11   -1    0    0    0    0 -0.00000000000E+00 -0.00000000000E+00 -0.45593999997E+02  0.45594000000E+02  0.51100000000E-03 0.  1.
    9900012    2    1    2    0    0  0.36153982694E+02 -0.67463233325E+01 -0.17336158064E+02  0.50528859336E+02  0.29999998437E+02 0.  0.
         12    1    1    2    0    0 -0.36153982694E+02  0.67463233325E+01  0.17336158064E+02  0.40659140664E+02  0.00000000000E+00 0. -1.
         11    1    3    3    0    0  0.71142938497E+01  0.39612790018E+00  0.45934262244E+01  0.84775974800E+01  0.51100000000E-03 0. -1.
        -11    1    3    3    0    0  0.16653721242E+02 -0.37811362861E+01 -0.51493981854E+00  0.17085332484E+02  0.51100000000E-03 0.  1.
         12    1    3    3    0    0  0.12385967603E+02 -0.33613149466E+01 -0.21414644470E+02  0.24965929372E+02  0.00000000000E+00 0. -1.
</event>
<event>
 7    1  0.5290964E-013  0.5052880E+02  0.7816164E-02  0.1300439E+00
        -11   -1    0    0    0    0  0.00000000000E+00  0.00000000000E+00  0.45593999997E+02  0.45594000000E+02  0.51100000000E-03 0.  1.
         11   -1    0    0    0    0 -0.00000000000E+00 -0.00000000000E+00 -0.45593999997E+02  0.45594000000E+02  0.51100000000E-03 0. -1.
    9900012    2    1    2    0    0  0.18946134833E+02 -0.37260465227E+01  0.35781710322E+02  0.50528803730E+02  0.29999829416E+02 0.  0.
         12    1    1    2    0    0 -0.18946134833E+02  0.37260465227E+01 -0.35781710322E+02  0.40659196270E+02  0.00000000000E+00 0. -1.
         11    1    3    3    0    0  0.37777500028E+01 -0.51308650602E+00 -0.24166604450E+01  0.45138565345E+01  0.51100000000E-03 0. -1.
        -11    1    3    3    0    0  0.12667774920E+02 -0.10822597424E+02  0.31236882333E+02  0.35402598133E+02  0.51100000000E-03 0.  1.
         12    1    3    3    0    0  0.25006099096E+01  0.76096374074E+01  0.69614884338E+01  0.10612349062E+02  0.00000000000E+00 0. -1.
</event>
<event>
 7    1  0.5290964E-013  0.5052886E+02  0.7816164E-02  0.1300439E+00
        -11   -1    0    0    0    0  0.00000000000E+00  0.00000000000E+00  0.45593999997E+02  0.45594000000E+02  0.51100000000E-03 0. -1.
         11   -1    0    0    0    0 -0.00000000000E+00 -0.00000000000E+00 -0.45593999997E+02  0.45594000000E+02  0.51100000000E-03 0.  1.
    9900012    2    1    2    0    0  0.24602375671E+02 -0.16818605824E+02 -0.27659060489E+02  0.50528855670E+02  0.29999987296E+02 0.  0.
         12    1    1    2    0    0 -0.24602375671E+02  0.16818605824E+02  0.27659060489E+02  0.40659144330E+02  0.00000000000E+00 0. -1.
         11    1    3    3    0    0  0.19522035354E+00 -0.73407180067E+01 -0.72839711100E+00  0.73793505441E+01  0.51100000000E-03 0. -1.
        -11    1    3    3    0    0 -0.14788530909E+01 -0.73966768502E+01 -0.41788763826E+01  0.86232733328E+01  0.51100000000E-03 0.  1.
         12    1    3    3    0    0  0.25886008408E+02 -0.20812109667E+01 -0.22751786995E+02  0.34526231794E+02  0.00000000000E+00 0. -1.
</event>
<event>
 7    1  0.5290964E-013  0.5052885E+02  0.7816164E-02  0.1300439E+00
        -11   -1    0    0    0    0  0.00000000000E+00  0.00000000000E+00  0.45593999997E+02  0.45594000000E+02  0.51100000000E-03 0.  1.
         11   -1    0    0    0    0 -0.00000000000E+00 -0.00000000000E+00 -0.45593999997E+02  0.45594000000E+02  0.51100000000E-03 0. -1.
    9900012    2    1    2    0    0 -0.15372833858E+02 -0.14583579003E+02  0.34701028863E+02  0.50528853409E+02  0.29999980421E+02 0.  0.
         12    1    1    2    0    0  0.15372833858E+02  0.14583579003E+02 -0.34701028863E+02  0.40659146591E+02  0.00000000000E+00 0. -1.
         11    1    3    3    0    0  0.45190838687E+00 -0.29352536984E+01 -0.29682398216E+01  0.41988550063E+01  0.51100000000E-03 0. -1.
        -11    1    3    3    0    0 -0.13105866586E+02  0.15412790113E+00  0.11273260798E+02  0.17287969911E+02  0.51100000000E-03 0.  1.
        -12    1    3    3    0    0 -0.27188756593E+01 -0.11802453206E+02  0.26396007887E+02  0.29042028491E+02  0.00000000000E+00 0.  1.
</event>
<event>
 7    1  0.5290964E-013  0.5052886E+02  0.7816164E-02  0.1300439E+00
        -11   -1    0    0    0    0  0.00000000000E+00  0.00000000000E+00  0.45593999997E+02  0.45594000000E+02  0.51100000000E-03 0.  1.
         11   -1    0    0    0    0 -0.00000000000E+00 -0.00000000000E+00 -0.45593999997E+02  0.45594000000E+02  0.51100000000E-03 0. -1.
    9900012    2    1    2    0    0  0.20542175651E+02 -0.35063352539E+01  0.34912608921E+02  0.50528860448E+02  0.30000001819E+02 0.  0.
         12    1    1    2    0    0 -0.20542175651E+02  0.35063352539E+01 -0.34912608921E+02  0.40659139552E+02  0.00000000000E+00 0. -1.
         11    1    3    3    0    0  0.33862780274E+01 -0.85360019814E+01 -0.88033550618E+00  0.92252479408E+01  0.51100000000E-03 0. -1.
        -11    1    3    3    0    0  0.24941241437E+01 -0.19936777099E+01  0.19056374868E+01  0.37184486748E+01  0.51100000000E-03 0.  1.
        -12    1    3    3    0    0  0.14661773480E+02  0.70233444374E+01  0.33887306940E+02  0.37585163833E+02  0.00000000000E+00 0.  1.
</event>
<event>
 7    1  0.5290964E-013  0.5052886E+02  0.7816164E-02  0.1300439E+00
        -11   -1    0    0    0    0  0.00000000000E+00  0.00000000000E+00  0.45593999997E+02  0.45594000000E+02  0.51100000000E-03 0. -1.
         11   -1    0    0    0    0 -0.00000000000E+00 -0.00000000000E+00 -0.45593999997E+02  0.45594000000E+02  0.51100000000E-03 0.  1.
    9900012    2    1    2    0    0 -0.79483910766E+01 -0.36591044869E+02 -0.15845632960E+02  0.50528861184E+02  0.30000004055E+02 0.  0.
         12    1    1    2    0    0  0.79483910766E+01  0.36591044869E+02  0.15845632960E+02  0.40659138816E+02  0.00000000000E+00 0. -1.
         11    1    3    3    0    0  0.79733515138E+01 -0.15295383742E+02 -0.59418137324E+01  0.18243581032E+02  0.51100000000E-03 0.  1.
        -11    1    3    3    0    0 -0.52314642144E+01 -0.16977770931E+01 -0.82299930638E+01  0.98986590493E+01  0.51100000000E-03 0. -1.
        -12    1    3    3    0    0 -0.10690278376E+02 -0.19597884034E+02 -0.16738261640E+01  0.22386621103E+02  0.00000000000E+00 0.  1.
</event>
<event>
 7    1  0.5290964E-013  0.5052886E+02  0.7816164E-02  0.1300439E+00
        -11   -1    0    0    0    0  0.00000000000E+00  0.00000000000E+00  0.45593999997E+02  0.45594000000E+02  0.51100000000E-03 0.  1.
         11   -1    0    0    0    0 -0.00000000000E+00 -0.00000000000E+00 -0.45593999997E+02  0.45594000000E+02  0.51100000000E-03 0. -1.
    9900012    2    1    2    0    0 -0.36665383692E+02 -0.11100633419E+02  0.13623190553E+02  0.50528859030E+02  0.29999997507E+02 0.  0.
         12    1    1    2    0    0  0.36665383692E+02  0.11100633419E+02 -0.13623190553E+02  0.40659140970E+02  0.00000000000E+00 0. -1.
         11    1    3    3    0    0 -0.14256203134E+02 -0.82310802556E+01 -0.32977690982E+01  0.16788844250E+02  0.51100000000E-03 0. -1.
        -11    1    3    3    0    0 -0.14186121369E+02 -0.74150974542E+01  0.20338794746E+01  0.16135872326E+02  0.51100000000E-03 0.  1.
         12    1    3    3    0    0 -0.82230591896E+01  0.45455442910E+01  0.14887080177E+02  0.17604142454E+02  0.00000000000E+00 0. -1.
</event>
<event>
 7    1  0.5290964E-013  0.5052884E+02  0.7816164E-02  0.1300439E+00
        -11   -1    0    0    0    0  0.00000000000E+00  0.00000000000E+00  0.45593999997E+02  0.45594000000E+02  0.51100000000E-03 0.  1.
         11   -1    0    0    0    0 -0.00000000000E+00 -0.00000000000E+00 -0.45593999997E+02  0.45594000000E+02  0.51100000000E-03 0. -1.
    9900012    2    1    2    0    0 -0.22750101037E+02  0.28898011945E+02 -0.17335086719E+02  0.50528838387E+02  0.29999934760E+02 0.  0.
         12    1    1    2    0    0  0.22750101037E+02 -0.28898011945E+02  0.17335086719E+02  0.40659161613E+02  0.00000000000E+00 0. -1.
         11    1    3    3    0    0 -0.20859202311E+01  0.78665295676E+01 -0.12631121514E+01  0.82358243799E+01  0.51100000000E-03 0. -1.
        -11    1    3    3    0    0  0.22990880090E+01  0.95791629388E+00  0.47498414723E+01  0.53632456192E+01  0.51100000000E-03 0.  1.
         12    1    3    3    0    0 -0.22963268814E+02  0.20073566083E+02 -0.20821816040E+02  0.36929768387E+02  0.00000000000E+00 0. -1.
</event>
<event>
 7    1  0.5290964E-013  0.5052887E+02  0.7816164E-02  0.1300439E+00
        -11   -1    0    0    0    0  0.00000000000E+00  0.00000000000E+00  0.45593999997E+02  0.45594000000E+02  0.51100000000E-03 0.  1.
         11   -1    0    0    0    0 -0.00000000000E+00 -0.00000000000E+00 -0.45593999997E+02  0.45594000000E+02  0.51100000000E-03 0. -1.
    9900012    2    1    2    0    0 -0.21658766696E+01  0.36645723671E+02  0.17480421838E+02  0.50528865322E+02  0.30000016634E+02 0.  0.
         12    1    1    2    0    0  0.21658766696E+01 -0.36645723671E+02 -0.17480421838E+02  0.40659134678E+02  0.00000000000E+00 0. -1.
         11    1    3    3    0    0 -0.91783489547E+00 -0.90625370556E+00  0.14724042633E+00  0.12982282844E+01  0.51100000000E-03 0. -1.
        -11    1    3    3    0    0 -0.17016212196E+01  0.37270459326E+01  0.14745177607E+02  0.15303811587E+02  0.51100000000E-03 0.  1.
        -12    1    3    3    0    0  0.45357944545E+00  0.33824931444E+02  0.25880038043E+01  0.33926825451E+02  0.00000000000E+00 0.  1.
</event>
<event>
 7    1  0.5290964E-013  0.5052886E+02  0.7816164E-02  0.1300439E+00
        -11   -1    0    0    0    0  0.00000000000E+00  0.00000000000E+00  0.45593999997E+02  0.45594000000E+02  0.51100000000E-03 0.  1.
         11   -1    0    0    0    0 -0.00000000000E+00 -0.00000000000E+00 -0.45593999997E+02  0.45594000000E+02  0.51100000000E-03 0. -1.
    9900012    2    1    2    0    0  0.37979735492E+02 -0.87461348955E+01 -0.11584908140E+02  0.50528864737E+02  0.30000014856E+02 0.  0.
         12    1    1    2    0    0 -0.37979735492E+02  0.87461348955E+01  0.11584908140E+02  0.40659135263E+02  0.00000000000E+00 0. -1.
         11    1    3    3    0    0 -0.11475154810E+01 -0.63469111626E+00  0.59083640176E-01  0.13126750283E+01  0.51100000000E-03 0. -1.
        -11    1    3    3    0    0  0.15063817334E+02  0.95622449590E+01 -0.60491179490E+01  0.18840035816E+02  0.51100000000E-03 0.  1.
         12    1    3    3    0    0  0.24063433639E+02 -0.17673688738E+02 -0.55948738316E+01  0.30376153893E+02  0.00000000000E+00 0. -1.
</event>
<event>
 7    1  0.5290964E-013  0.5052887E+02  0.7816164E-02  0.1300439E+00
        -11   -1    0    0    0    0  0.00000000000E+00  0.00000000000E+00  0.45593999997E+02  0.45594000000E+02  0.51100000000E-03 0.  1.
         11   -1    0    0    0    0 -0.00000000000E+00 -0.00000000000E+00 -0.45593999997E+02  0.45594000000E+02  0.51100000000E-03 0. -1.
    9900012    2    1    2    0    0 -0.41231919546E+01 -0.39879924606E+02  0.67643270959E+01  0.50528865485E+02  0.30000017127E+02 0.  0.
         12    1    1    2    0    0  0.41231919546E+01  0.39879924606E+02 -0.67643270959E+01  0.40659134515E+02  0.00000000000E+00 0. -1.
         11    1    3    3    0    0 -0.54643146500E+01 -0.13499482594E+02 -0.26021065716E+01  0.14794111118E+02  0.51100000000E-03 0. -1.
        -11    1    3    3    0    0 -0.94272333574E+00 -0.19496465923E+02  0.16502106549E+02  0.25560133638E+02  0.51100000000E-03 0.  1.
         12    1    3    3    0    0  0.22838460312E+01 -0.68839760889E+01 -0.71356728817E+01  0.10174620728E+02  0.00000000000E+00 0. -1.
</event>
<event>
 7    1  0.5290964E-013  0.5052886E+02  0.7816164E-02  0.1300439E+00
        -11   -1    0    0    0    0  0.00000000000E+00  0.00000000000E+00  0.45593999997E+02  0.45594000000E+02  0.51100000000E-03 0.  1.
         11   -1    0    0    0    0 -0.00000000000E+00 -0.00000000000E+00 -0.45593999997E+02  0.45594000000E+02  0.51100000000E-03 0. -1.
    9900012    2    1    2    0    0 -0.24607611739E+02 -0.22823284303E+01  0.32286565877E+02  0.50528856936E+02  0.29999991143E+02 0.  0.
         12    1    1    2    0    0  0.24607611739E+02  0.22823284303E+01 -0.32286565877E+02  0.40659143064E+02  0.00000000000E+00 0. -1.
         11    1    3    3    0    0  0.31082190075E+01 -0.15287639137E+01  0.17160686108E+01  0.38656223613E+01  0.51100000000E-03 0. -1.
        -11    1    3    3    0    0 -0.60119697129E+01 -0.35521477519E+01 -0.21436415600E+01  0.73045693151E+01  0.51100000000E-03 0.  1.
        -12    1    3    3    0    0 -0.21703861033E+02  0.27985832353E+01  0.32714138826E+02  0.39358665260E+02  0.00000000000E+00 0.  1.
</event>
<event>
 7    1  0.5290964E-013  0.5052886E+02  0.7816164E-02  0.1300439E+00
        -11   -1    0    0    0    0  0.00000000000E+00  0.00000000000E+00  0.45593999997E+02  0.45594000000E+02  0.51100000000E-03 0. -1.
         11   -1    0    0    0    0 -0.00000000000E+00 -0.00000000000E+00 -0.45593999997E+02  0.45594000000E+02  0.51100000000E-03 0.  1.
    9900012    2    1    2    0    0 -0.68721164213E+01 -0.40064371446E+02  0.88637191378E+00  0.50528862053E+02  0.30000006695E+02 0.  0.
         12    1    1    2    0    0  0.68721164213E+01  0.40064371446E+02 -0.88637191378E+00  0.40659137947E+02  0.00000000000E+00 0. -1.
         11    1    3    3    0    0 -0.47135443370E+00 -0.47190426577E+00  0.23301413357E+01  0.24237218371E+01  0.51100000000E-03 0. -1.
        -11    1    3    3    0    0 -0.10985583120E+02 -0.64795041117E+01 -0.64686708337E+01  0.14300724200E+02  0.51100000000E-03 0.  1.
        -12    1    3    3    0    0  0.45848211323E+01 -0.33112963068E+02  0.50249014118E+01  0.33804416016E+02  0.00000000000E+00 0.  1.
</event>
<event>
 7    1  0.5290964E-013  0.5052886E+02  0.7816164E-02  0.1300439E+00
        -11   -1    0    0    0    0  0.00000000000E+00  0.00000000000E+00  0.45593999997E+02  0.45594000000E+02  0.51100000000E-03 0. -1.
         11   -1    0    0    0    0 -0.00000000000E+00 -0.00000000000E+00 -0.45593999997E+02  0.45594000000E+02  0.51100000000E-03 0.  1.
    9900012    2    1    2    0    0 -0.21936619398E+02 -0.31263515796E+02  0.13947875079E+02  0.50528856997E+02  0.29999991328E+02 0.  0.
         12    1    1    2    0    0  0.21936619398E+02  0.31263515796E+02 -0.13947875079E+02  0.40659143003E+02  0.00000000000E+00 0. -1.
         11    1    3    3    0    0 -0.74747537830E+01 -0.14934374877E+02  0.80453040396E+01  0.18537378845E+02  0.51100000000E-03 0. -1.
        -11    1    3    3    0    0 -0.13502349595E+02 -0.13845056413E+02  0.13734020499E+02  0.23719661697E+02  0.51100000000E-03 0.  1.
         12    1    3    3    0    0 -0.95951602027E+00 -0.24840845055E+01 -0.78314494602E+01  0.82718164554E+01  0.00000000000E+00 0. -1.
</event>
<event>
 7    1  0.5290964E-013  0.5052886E+02  0.7816164E-02  0.1300439E+00
        -11   -1    0    0    0    0  0.00000000000E+00  0.00000000000E+00  0.45593999997E+02  0.45594000000E+02  0.51100000000E-03 0. -1.
         11   -1    0    0    0    0 -0.00000000000E+00 -0.00000000000E+00 -0.45593999997E+02  0.45594000000E+02  0.51100000000E-03 0.  1.
    9900012    2    1    2    0    0  0.20078151177E+02 -0.13743193003E+02 -0.32575419593E+02  0.50528862401E+02  0.30000007755E+02 0.  0.
         12    1    1    2    0    0 -0.20078151177E+02  0.13743193003E+02  0.32575419593E+02  0.40659137599E+02  0.00000000000E+00 0. -1.
         11    1    3    3    0    0  0.20389142750E+01 -0.11465889896E+01 -0.67247810671E+01  0.71200083141E+01  0.51100000000E-03 0. -1.
        -11    1    3    3    0    0  0.23455916780E+02 -0.15924295709E+02 -0.19405538458E+02  0.34356049670E+02  0.51100000000E-03 0.  1.
        -12    1    3    3    0    0 -0.54166798784E+01  0.33276916961E+01 -0.64451000677E+01  0.90528044169E+01  0.00000000000E+00 0.  1.
</event>
<event>
 7    1  0.5290964E-013  0.5052886E+02  0.7816164E-02  0.1300439E+00
        -11   -1    0    0    0    0  0.00000000000E+00  0.00000000000E+00  0.45593999997E+02  0.45594000000E+02  0.51100000000E-03 0. -1.
         11   -1    0    0    0    0 -0.00000000000E+00 -0.00000000000E+00 -0.45593999997E+02  0.45594000000E+02  0.51100000000E-03 0.  1.
    9900012    2    1    2    0    0 -0.26834751041E+02  0.18034117599E+02 -0.24654252866E+02  0.50528862707E+02  0.30000008685E+02 0.  0.
         12    1    1    2    0    0  0.26834751041E+02 -0.18034117599E+02  0.24654252866E+02  0.40659137293E+02  0.00000000000E+00 0. -1.
         11    1    3    3    0    0 -0.34339797343E+01 -0.62155509269E+00  0.33047228931E+01  0.48062190140E+01  0.51100000000E-03 0. -1.
        -11    1    3    3    0    0 -0.19496899453E+02  0.27546277667E+01 -0.17065636914E+02  0.26056727077E+02  0.51100000000E-03 0.  1.
        -12    1    3    3    0    0 -0.39038718534E+01  0.15901044925E+02 -0.10893338845E+02  0.19665916616E+02  0.00000000000E+00 0.  1.
</event>
<event>
 7    1  0.5290964E-013  0.5052887E+02  0.7816164E-02  0.1300439E+00
        -11   -1    0    0    0    0  0.00000000000E+00  0.00000000000E+00  0.45593999997E+02  0.45594000000E+02  0.51100000000E-03 0.  1.
         11   -1    0    0    0    0 -0.00000000000E+00 -0.00000000000E+00 -0.45593999997E+02  0.45594000000E+02  0.51100000000E-03 0. -1.
    9900012    2    1    2    0    0 -0.44492710621E+01 -0.20524986527E+02  0.34815140403E+02  0.50528867125E+02  0.30000022112E+02 0.  0.
         12    1    1    2    0    0  0.44492710621E+01  0.20524986527E+02 -0.34815140403E+02  0.40659132875E+02  0.00000000000E+00 0. -1.
         11    1    3    3    0    0 -0.56383172117E+01 -0.22244781685E+01  0.57054667224E+01  0.83241380865E+01  0.51100000000E-03 0. -1.
        -11    1    3    3    0    0 -0.11564238341E+02 -0.91430052361E+01  0.15941767987E+02  0.21713270596E+02  0.51100000000E-03 0.  1.
         12    1    3    3    0    0  0.12753284491E+02 -0.91575031220E+01  0.13167905693E+02  0.20491458442E+02  0.00000000000E+00 0. -1.
</event>
<event>
 7    1  0.5290964E-013  0.5052886E+02  0.7816164E-02  0.1300439E+00
        -11   -1    0    0    0    0  0.00000000000E+00  0.00000000000E+00  0.45593999997E+02  0.45594000000E+02  0.51100000000E-03 0. -1.
         11   -1    0    0    0    0 -0.00000000000E+00 -0.00000000000E+00 -0.45593999997E+02  0.45594000000E+02  0.51100000000E-03 0.  1.
    9900012    2    1    2    0    0 -0.14718215306E+02 -0.30032831105E+01 -0.37782538879E+02  0.50528858158E+02  0.29999994856E+02 0.  0.
         12    1    1    2    0    0  0.14718215306E+02  0.30032831105E+01  0.37782538879E+02  0.40659141842E+02  0.00000000000E+00 0. -1.
         11    1    3    3    0    0 -0.20506204759E+01  0.38715650197E+01  0.31674751101E+00  0.43925379093E+01  0.51100000000E-03 0. -1.
        -11    1    3    3    0    0 -0.32246969086E+01 -0.16330962021E-01  0.23801740685E+01  0.40080126883E+01  0.51100000000E-03 0.  1.
        -12    1    3    3    0    0 -0.94428979216E+01 -0.68585171681E+01 -0.40479460458E+02  0.42128307560E+02  0.00000000000E+00 0.  1.
</event>
<event>
 7    1  0.5290964E-013  0.5052886E+02  0.7816164E-02  0.1300439E+00
        -11   -1    0    0    0    0  0.00000000000E+00  0.00000000000E+00  0.45593999997E+02  0.45594000000E+02  0.51100000000E-03 0.  1.
         11   -1    0    0    0    0 -0.00000000000E+00 -0.00000000000E+00 -0.45593999997E+02  0.45594000000E+02  0.51100000000E-03 0. -1.
    9900012    2    1    2    0    0  0.29979380410E+00  0.31669903742E+02  0.25496920101E+02  0.50528860634E+02  0.30000002383E+02 0.  0.
         12    1    1    2    0    0 -0.29979380410E+00 -0.31669903742E+02 -0.25496920101E+02  0.40659139366E+02  0.00000000000E+00 0. -1.
         11    1    3    3    0    0 -0.22632842561E+00  0.28578136295E+01  0.35369506572E+00  0.28884985300E+01  0.51100000000E-03 0. -1.
        -11    1    3    3    0    0  0.10301103158E+02  0.46529334229E+01  0.16851677693E+02  0.20291415846E+02  0.51100000000E-03 0.  1.
        -12    1    3    3    0    0 -0.97749809282E+01  0.24159156689E+02  0.82915473430E+01  0.27348946258E+02  0.00000000000E+00 0.  1.
</event>
<event>
 7    1  0.5362387E-013  0.5052886E+02  0.7816164E-02  0.1300439E+00
        -11   -1    0    0    0    0  0.00000000000E+00  0.00000000000E+00  0.45593999997E+02  0.45594000000E+02  0.51100000000E-03 0.  1.
         11   -1    0    0    0    0 -0.00000000000E+00 -0.00000000000E+00 -0.45593999997E+02  0.45594000000E+02  0.51100000000E-03 0. -1.
    9900012    2    1    2    0    0 -0.40658127215E+02  0.27581807546E+00  0.77356953325E-01  0.50528863654E+02  0.30000011564E+02 0.  0.
         12    1    1    2    0    0  0.40658127215E+02 -0.27581807546E+00 -0.77356953325E-01  0.40659136346E+02  0.00000000000E+00 0. -1.
         11    1    3    3    0    0 -0.64025405299E+01  0.37682535399E+01  0.45229301058E+01  0.86976523833E+01  0.51100000000E-03 0.  1.
        -11    1    3    3    0    0 -0.22292607578E+02 -0.44780807465E+01  0.84095132748E+01  0.24243215001E+02  0.51100000000E-03 0. -1.
         12    1    3    3    0    0 -0.11962979107E+02  0.98564528200E+00 -0.12855086427E+02  0.17587996270E+02  0.00000000000E+00 0. -1.
</event>
<event>
 7    1  0.5290964E-013  0.5052884E+02  0.7816164E-02  0.1300439E+00
        -11   -1    0    0    0    0  0.00000000000E+00  0.00000000000E+00  0.45593999997E+02  0.45594000000E+02  0.51100000000E-03 0.  1.
         11   -1    0    0    0    0 -0.00000000000E+00 -0.00000000000E+00 -0.45593999997E+02  0.45594000000E+02  0.51100000000E-03 0. -1.
    9900012    2    1    2    0    0  0.35484137144E+01  0.30108774528E+02  0.27093125956E+02  0.50528843374E+02  0.29999949920E+02 0.  0.
         12    1    1    2    0    0 -0.35484137144E+01 -0.30108774528E+02 -0.27093125956E+02  0.40659156626E+02  0.00000000000E+00 0. -1.
         11    1    3    3    0    0  0.10267249734E+02 -0.47821384163E+00  0.84007821528E+01  0.13274722092E+02  0.51100000000E-03 0. -1.
        -11    1    3    3    0    0 -0.15131039823E+01  0.27247478422E+01  0.47119571815E+01  0.56494491064E+01  0.51100000000E-03 0.  1.
         12    1    3    3    0    0 -0.52057320371E+01  0.27862240527E+02  0.13980386622E+02  0.31604672176E+02  0.00000000000E+00 0. -1.
</event>
<event>
 7    1  0.5290964E-013  0.5052887E+02  0.7816164E-02  0.1300439E+00
        -11   -1    0    0    0    0  0.00000000000E+00  0.00000000000E+00  0.45593999997E+02  0.45594000000E+02  0.51100000000E-03 0.  1.
         11   -1    0    0    0    0 -0.00000000000E+00 -0.00000000000E+00 -0.45593999997E+02  0.45594000000E+02  0.51100000000E-03 0. -1.
    9900012    2    1    2    0    0 -0.40110865103E+02  0.18862579452E+01  0.63816224753E+01  0.50528873426E+02  0.30000041265E+02 0.  0.
         12    1    1    2    0    0  0.40110865103E+02 -0.18862579452E+01 -0.63816224753E+01  0.40659126574E+02  0.00000000000E+00 0. -1.
         11    1    3    3    0    0 -0.28902333919E+01 -0.27407508624E+01  0.68102369575E+01  0.78895178578E+01  0.51100000000E-03 0. -1.
        -11    1    3    3    0    0 -0.16395688836E+02 -0.68683927483E+01  0.45226052599E+01  0.18342502281E+02  0.51100000000E-03 0.  1.
         12    1    3    3    0    0 -0.20824942876E+02  0.11495401556E+02 -0.49512197420E+01  0.24296853287E+02  0.00000000000E+00 0. -1.
</event>
<event>
 7    1  0.5290964E-013  0.5052886E+02  0.7816164E-02  0.1300439E+00
        -11   -1    0    0    0    0  0.00000000000E+00  0.00000000000E+00  0.45593999997E+02  0.45594000000E+02  0.51100000000E-03 0. -1.
         11   -1    0    0    0    0 -0.00000000000E+00 -0.00000000000E+00 -0.45593999997E+02  0.45594000000E+02  0.51100000000E-03 0.  1.
    9900012    2    1    2    0    0 -0.39503287293E+02 -0.88010828751E+01  0.38983416656E+01  0.50528857922E+02  0.29999994141E+02 0.  0.
         12    1    1    2    0    0  0.39503287293E+02  0.88010828751E+01 -0.38983416656E+01  0.40659142078E+02  0.00000000000E+00 0. -1.
         11    1    3    3    0    0 -0.77279484093E+01  0.96161015470E-01  0.17896034002E+01  0.79330394017E+01  0.51100000000E-03 0. -1.
        -11    1    3    3    0    0 -0.34430705647E+02 -0.18851885699E+01 -0.95633656089E+00  0.34495536047E+02  0.51100000000E-03 0.  1.
         12    1    3    3    0    0  0.26553667630E+01 -0.70120553207E+01  0.30650748263E+01  0.81002824739E+01  0.00000000000E+00 0. -1.
</event>
<event>
 7    1  0.5290964E-013  0.5052887E+02  0.7816164E-02  0.1300439E+00
        -11   -1    0    0    0    0  0.00000000000E+00  0.00000000000E+00  0.45593999997E+02  0.45594000000E+02  0.51100000000E-03 0.  1.
         11   -1    0    0    0    0 -0.00000000000E+00 -0.00000000000E+00 -0.45593999997E+02  0.45594000000E+02  0.51100000000E-03 0. -1.
    9900012    2    1    2    0    0  0.83823545904E+01  0.39292391894E+02 -0.62456973831E+01  0.50528872304E+02  0.30000037854E+02 0.  0.
         12    1    1    2    0    0 -0.83823545904E+01 -0.39292391894E+02  0.62456973831E+01  0.40659127696E+02  0.00000000000E+00 0. -1.
         11    1    3    3    0    0  0.13650811954E+01  0.10246145533E+02  0.41865170959E+01  0.11152303377E+02  0.51100000000E-03 0. -1.
        -11    1    3    3    0    0  0.93105763495E+01  0.32366491305E+02 -0.10685146251E+02  0.35333396978E+02  0.51100000000E-03 0.  1.
         12    1    3    3    0    0 -0.22933029545E+01 -0.33202449436E+01  0.25293177161E+00  0.40431719489E+01  0.00000000000E+00 0. -1.
</event>
<event>
 7    1  0.5290964E-013  0.5052886E+02  0.7816164E-02  0.1300439E+00
        -11   -1    0    0    0    0  0.00000000000E+00  0.00000000000E+00  0.45593999997E+02  0.45594000000E+02  0.51100000000E-03 0. -1.
         11   -1    0    0    0    0 -0.00000000000E+00 -0.00000000000E+00 -0.45593999997E+02  0.45594000000E+02  0.51100000000E-03 0.  1.
    9900012    2    1    2    0    0 -0.10672522412E+02 -0.38560500661E+02 -0.72353637412E+01  0.50528862843E+02  0.30000009098E+02 0.  0.
         12    1    1    2    0    0  0.10672522412E+02  0.38560500661E+02  0.72353637412E+01  0.40659137157E+02  0.00000000000E+00 0. -1.
         11    1    3    3    0    0 -0.24757639930E+01 -0.33110847634E+01  0.55752665575E+01  0.69409139966E+01  0.51100000000E-03 0. -1.
        -11    1    3    3    0    0 -0.23984559601E+01 -0.13832068370E+02  0.52401231515E+01  0.14984578649E+02  0.51100000000E-03 0.  1.
        -12    1    3    3    0    0 -0.57983024589E+01 -0.21417347528E+02 -0.18050753450E+02  0.28603370198E+02  0.00000000000E+00 0.  1.
</event>
<event>
 7    1  0.5290964E-013  0.5052886E+02  0.7816164E-02  0.1300439E+00
        -11   -1    0    0    0    0  0.00000000000E+00  0.00000000000E+00  0.45593999997E+02  0.45594000000E+02  0.51100000000E-03 0.  1.
         11   -1    0    0    0    0 -0.00000000000E+00 -0.00000000000E+00 -0.45593999997E+02  0.45594000000E+02  0.51100000000E-03 0. -1.
    9900012    2    1    2    0    0 -0.31509497162E+02 -0.68643338778E+00  0.25687466210E+02  0.50528861759E+02  0.30000005802E+02 0.  0.
         12    1    1    2    0    0  0.31509497162E+02  0.68643338778E+00 -0.25687466210E+02  0.40659138241E+02  0.00000000000E+00 0. -1.
         11    1    3    3    0    0 -0.25283786413E+01 -0.50539852353E+01 -0.39456604529E+01  0.68922929409E+01  0.51100000000E-03 0. -1.
        -11    1    3    3    0    0 -0.17138889552E+02  0.81861980360E+01  0.13691640312E+02  0.23414021185E+02  0.51100000000E-03 0.  1.
        -12    1    3    3    0    0 -0.11842228969E+02 -0.38186461885E+01  0.15941486351E+02  0.20222547633E+02  0.00000000000E+00 0.  1.
</event>
<event>
 7    1  0.5290964E-013  0.5052886E+02  0.7816164E-02  0.1300439E+00
        -11   -1    0    0    0    0  0.00000000000E+00  0.00000000000E+00  0.45593999997E+02  0.45594000000E+02  0.51100000000E-03 0. -1.
         11   -1    0    0    0    0 -0.00000000000E+00 -0.00000000000E+00 -0.45593999997E+02  0.45594000000E+02  0.51100000000E-03 0.  1.
    9900012    2    1    2    0    0 -0.88041393661E+01 -0.38849232902E+02  0.81480198765E+01  0.50528855949E+02  0.29999988143E+02 0.  0.
         12    1    1    2    0    0  0.88041393661E+01  0.38849232902E+02 -0.81480198765E+01  0.40659144051E+02  0.00000000000E+00 0. -1.
         11    1    3    3    0    0  0.66840187374E+01 -0.18789349400E+02  0.85283612330E+01  0.21689829481E+02  0.51100000000E-03 0. -1.
        -11    1    3    3    0    0 -0.12758002040E+02 -0.14336940442E+02  0.57346553129E+01  0.20029996233E+02  0.51100000000E-03 0.  1.
        -12    1    3    3    0    0 -0.27301560631E+01 -0.57229430603E+01 -0.61149966694E+01  0.88090302342E+01  0.00000000000E+00 0.  1.
</event>
<event>
 7    1  0.5290964E-013  0.5052885E+02  0.7816164E-02  0.1300439E+00
        -11   -1    0    0    0    0  0.00000000000E+00  0.00000000000E+00  0.45593999997E+02  0.45594000000E+02  0.51100000000E-03 0.  1.
         11   -1    0    0    0    0 -0.00000000000E+00 -0.00000000000E+00 -0.45593999997E+02  0.45594000000E+02  0.51100000000E-03 0. -1.
    9900012    2    1    2    0    0  0.69428303134E+01  0.39713303604E+01  0.39864673624E+02  0.50528848992E+02  0.29999966996E+02 0.  0.
         12    1    1    2    0    0 -0.69428303134E+01 -0.39713303604E+01 -0.39864673624E+02  0.40659151008E+02  0.00000000000E+00 0. -1.
         11    1    3    3    0    0  0.58615959916E+01  0.95084536146E+01  0.29978882194E+02  0.31992223673E+02  0.51100000000E-03 0. -1.
        -11    1    3    3    0    0  0.26783190867E+01  0.46504574011E+01  0.32471910675E+01  0.62725112403E+01  0.51100000000E-03 0.  1.
         12    1    3    3    0    0 -0.15970847649E+01 -0.10187580655E+02  0.66386003620E+01  0.12264114078E+02  0.00000000000E+00 0. -1.
</event>
<event>
 7    1  0.5290964E-013  0.5052884E+02  0.7816164E-02  0.1300439E+00
        -11   -1    0    0    0    0  0.00000000000E+00  0.00000000000E+00  0.45593999997E+02  0.45594000000E+02  0.51100000000E-03 0. -1.
         11   -1    0    0    0    0 -0.00000000000E+00 -0.00000000000E+00 -0.45593999997E+02  0.45594000000E+02  0.51100000000E-03 0.  1.
    9900012    2    1    2    0    0  0.25572102778E+02  0.27692605817E+02 -0.15243168929E+02  0.50528842895E+02  0.29999948465E+02 0.  0.
         12    1    1    2    0    0 -0.25572102778E+02 -0.27692605817E+02  0.15243168929E+02  0.40659157105E+02  0.00000000000E+00 0. -1.
         11    1    3    3    0    0  0.80362863665E+01  0.17242216853E+02 -0.82738810705E+01  0.20744470318E+02  0.51100000000E-03 0. -1.
        -11    1    3    3    0    0  0.13927262330E+02  0.15493648924E+02 -0.97335626360E+01  0.22994869751E+02  0.51100000000E-03 0.  1.
         12    1    3    3    0    0  0.36085540816E+01 -0.50432599598E+01  0.27642747775E+01  0.67895028262E+01  0.00000000000E+00 0. -1.
</event>
<event>
 7    1  0.5290964E-013  0.5052885E+02  0.7816164E-02  0.1300439E+00
        -11   -1    0    0    0    0  0.00000000000E+00  0.00000000000E+00  0.45593999997E+02  0.45594000000E+02  0.51100000000E-03 0.  1.
         11   -1    0    0    0    0 -0.00000000000E+00 -0.00000000000E+00 -0.45593999997E+02  0.45594000000E+02  0.51100000000E-03 0. -1.
    9900012    2    1    2    0    0  0.18583833552E+02 -0.31224357466E+02  0.18244093222E+02  0.50528852122E+02  0.29999976510E+02 0.  0.
         12    1    1    2    0    0 -0.18583833552E+02  0.31224357466E+02 -0.18244093222E+02  0.40659147878E+02  0.00000000000E+00 0. -1.
         11    1    3    3    0    0  0.15413196292E+02 -0.23215831966E+02  0.76913705476E+01  0.28908453002E+02  0.51100000000E-03 0. -1.
        -11    1    3    3    0    0  0.61728091209E+01  0.91448114246E+00  0.10489931316E+02  0.12205675216E+02  0.51100000000E-03 0.  1.
         12    1    3    3    0    0 -0.30021718609E+01 -0.89230066430E+01  0.62791358638E-01  0.94147239039E+01  0.00000000000E+00 0. -1.
</event>
<event>
 7    1  0.5290964E-013  0.5052886E+02  0.7816164E-02  0.1300439E+00
        -11   -1    0    0    0    0  0.00000000000E+00  0.00000000000E+00  0.45593999997E+02  0.45594000000E+02  0.51100000000E-03 0.  1.
         11   -1    0    0    0    0 -0.00000000000E+00 -0.00000000000E+00 -0.45593999997E+02  0.45594000000E+02  0.51100000000E-03 0. -1.
    9900012    2    1    2    0    0  0.21995770027E+01  0.20995609410E+02  0.34749273114E+02  0.50528859140E+02  0.29999997842E+02 0.  0.
         12    1    1    2    0    0 -0.21995770027E+01 -0.20995609410E+02 -0.34749273114E+02  0.40659140860E+02  0.00000000000E+00 0. -1.
         11    1    3    3    0    0 -0.25949774656E+01 -0.14183185754E+01  0.15535936254E+01  0.33405372385E+01  0.51100000000E-03 0.  1.
        -11    1    3    3    0    0 -0.11035921073E+01 -0.39799147659E+01  0.12408443873E+02  0.13077733622E+02  0.51100000000E-03 0. -1.
        -12    1    3    3    0    0  0.58981465755E+01  0.26393842752E+02  0.20787235616E+02  0.34110588280E+02  0.00000000000E+00 0.  1.
</event>
<event>
 7    1  0.5290964E-013  0.5052885E+02  0.7816164E-02  0.1300439E+00
        -11   -1    0    0    0    0  0.00000000000E+00  0.00000000000E+00  0.45593999997E+02  0.45594000000E+02  0.51100000000E-03 0. -1.
         11   -1    0    0    0    0 -0.00000000000E+00 -0.00000000000E+00 -0.45593999997E+02  0.45594000000E+02  0.51100000000E-03 0.  1.
    9900012    2    1    2    0    0 -0.74851572334E+01 -0.39227834697E+02 -0.76364583423E+01  0.50528854782E+02  0.29999984596E+02 0.  0.
         12    1    1    2    0    0  0.74851572334E+01  0.39227834697E+02  0.76364583423E+01  0.40659145218E+02  0.00000000000E+00 0. -1.
         11    1    3    3    0    0  0.69496448564E+01 -0.15856305429E+02 -0.10942072612E+01  0.17346967323E+02  0.51100000000E-03 0. -1.
        -11    1    3    3    0    0 -0.41546711285E+01 -0.21532497141E+02 -0.59464536497E+01  0.22721576455E+02  0.51100000000E-03 0.  1.
         12    1    3    3    0    0 -0.10280130961E+02 -0.18390321267E+01 -0.59579743141E+00  0.10460311005E+02  0.00000000000E+00 0. -1.
</event>
<event>
 7    1  0.5290964E-013  0.5052887E+02  0.7816164E-02  0.1300439E+00
        -11   -1    0    0    0    0  0.00000000000E+00  0.00000000000E+00  0.45593999997E+02  0.45594000000E+02  0.51100000000E-03 0. -1.
         11   -1    0    0    0    0 -0.00000000000E+00 -0.00000000000E+00 -0.45593999997E+02  0.45594000000E+02  0.51100000000E-03 0.  1.
    9900012    2    1    2    0    0 -0.16534348889E+02 -0.28340481813E+02 -0.24012442208E+02  0.50528868389E+02  0.30000025954E+02 0.  0.
         12    1    1    2    0    0  0.16534348889E+02  0.28340481813E+02  0.24012442208E+02  0.40659131611E+02  0.00000000000E+00 0. -1.
         11    1    3    3    0    0 -0.47013596891E+01 -0.53764125329E+01 -0.30417302628E+01  0.77627777182E+01  0.51100000000E-03 0. -1.
        -11    1    3    3    0    0 -0.12133186684E+02 -0.28216269820E+02 -0.13313116155E+02  0.33475530820E+02  0.51100000000E-03 0.  1.
         12    1    3    3    0    0  0.30019748359E+00  0.52522005403E+01 -0.76575957905E+01  0.92905598504E+01  0.00000000000E+00 0. -1.
</event>
<event>
 7    1  0.5290964E-013  0.5052891E+02  0.7816164E-02  0.1300439E+00
        -11   -1    0    0    0    0  0.00000000000E+00  0.00000000000E+00  0.45593999997E+02  0.45594000000E+02  0.51100000000E-03 0.  1.
         11   -1    0    0    0    0 -0.00000000000E+00 -0.00000000000E+00 -0.45593999997E+02  0.45594000000E+02  0.51100000000E-03 0. -1.
    9900012    2    1    2    0    0  0.91006732946E+01 -0.19825340202E+02  0.34311732666E+02  0.50528912859E+02  0.30000161127E+02 0.  0.
         12    1    1    2    0    0 -0.91006732946E+01  0.19825340202E+02 -0.34311732666E+02  0.40659087141E+02  0.00000000000E+00 0. -1.
         11    1    3    3    0    0  0.13507617779E+01  0.21385278435E+01  0.96122493490E+00  0.27058847638E+01  0.51100000000E-03 0. -1.
        -11    1    3    3    0    0  0.90445683940E+01 -0.64735682101E+01  0.10501829508E+00  0.11123054073E+02  0.51100000000E-03 0.  1.
        -12    1    3    3    0    0 -0.12946568773E+01 -0.15490299836E+02  0.33245489436E+02  0.36699974023E+02  0.00000000000E+00 0.  1.
</event>
<event>
 7    1  0.5290964E-013  0.5052886E+02  0.7816164E-02  0.1300439E+00
        -11   -1    0    0    0    0  0.00000000000E+00  0.00000000000E+00  0.45593999997E+02  0.45594000000E+02  0.51100000000E-03 0. -1.
         11   -1    0    0    0    0 -0.00000000000E+00 -0.00000000000E+00 -0.45593999997E+02  0.45594000000E+02  0.51100000000E-03 0.  1.
    9900012    2    1    2    0    0 -0.38683667628E+02  0.59084935678E+01  0.11037609673E+02  0.50528864930E+02  0.30000015440E+02 0.  0.
         12    1    1    2    0    0  0.38683667628E+02 -0.59084935678E+01 -0.11037609673E+02  0.40659135070E+02  0.00000000000E+00 0. -1.
         11    1    3    3    0    0 -0.25829514910E+01  0.55231701233E+01  0.50703139395E+01  0.79300145222E+01  0.51100000000E-03 0. -1.
        -11    1    3    3    0    0 -0.25971392770E+02  0.66664839882E+01 -0.39385324313E+01  0.27101056975E+02  0.51100000000E-03 0.  1.
         12    1    3    3    0    0 -0.10129323367E+02 -0.62811605438E+01  0.99058281652E+01  0.15497793433E+02  0.00000000000E+00 0. -1.
</event>
<event>
 7    1  0.5290964E-013  0.5052886E+02  0.7816164E-02  0.1300439E+00
        -11   -1    0    0    0    0  0.00000000000E+00  0.00000000000E+00  0.45593999997E+02  0.45594000000E+02  0.51100000000E-03 0.  1.
         11   -1    0    0    0    0 -0.00000000000E+00 -0.00000000000E+00 -0.45593999997E+02  0.45594000000E+02  0.51100000000E-03 0. -1.
    9900012    2    1    2    0    0 -0.91777894814E+01  0.36725630130E+02  0.14837853226E+02  0.50528860602E+02  0.30000002286E+02 0.  0.
         12    1    1    2    0    0  0.91777894814E+01 -0.36725630130E+02 -0.14837853226E+02  0.40659139398E+02  0.00000000000E+00 0. -1.
         11    1    3    3    0    0 -0.38810806584E+01  0.45702596794E+01  0.86103148105E+01  0.10492262959E+02  0.51100000000E-03 0. -1.
        -11    1    3    3    0    0  0.49275901791E+01  0.15621977593E+02  0.11356087592E+02  0.19932086056E+02  0.51100000000E-03 0.  1.
         12    1    3    3    0    0 -0.10224299002E+02  0.16533392858E+02 -0.51285491765E+01  0.20104511587E+02  0.00000000000E+00 0. -1.
</event>
<event>
 7    1  0.5290964E-013  0.5052888E+02  0.7816164E-02  0.1300439E+00
        -11   -1    0    0    0    0  0.00000000000E+00  0.00000000000E+00  0.45593999997E+02  0.45594000000E+02  0.51100000000E-03 0.  1.
         11   -1    0    0    0    0 -0.00000000000E+00 -0.00000000000E+00 -0.45593999997E+02  0.45594000000E+02  0.51100000000E-03 0. -1.
    9900012    2    1    2    0    0  0.90294460660E+01 -0.10644352842E+01  0.39629533698E+02  0.50528882205E+02  0.30000067950E+02 0.  0.
         12    1    1    2    0    0 -0.90294460660E+01  0.10644352842E+01 -0.39629533698E+02  0.40659117795E+02  0.00000000000E+00 0. -1.
         11    1    3    3    0    0  0.18808541911E+02 -0.41144350284E+01  0.26460678755E+02  0.32723956742E+02  0.51100000000E-03 0.  1.
        -11    1    3    3    0    0 -0.52220990197E+01  0.46018275010E+01  0.93711767457E+01  0.11673306660E+02  0.51100000000E-03 0. -1.
        -12    1    3    3    0    0 -0.45569968250E+01 -0.15518277568E+01  0.37976781980E+01  0.61316188030E+01  0.00000000000E+00 0.  1.
</event>
<event>
 7    1  0.5290964E-013  0.5052884E+02  0.7816164E-02  0.1300439E+00
        -11   -1    0    0    0    0  0.00000000000E+00  0.00000000000E+00  0.45593999997E+02  0.45594000000E+02  0.51100000000E-03 0.  1.
         11   -1    0    0    0    0 -0.00000000000E+00 -0.00000000000E+00 -0.45593999997E+02  0.45594000000E+02  0.51100000000E-03 0. -1.
    9900012    2    1    2    0    0 -0.22960210178E+02  0.32820191130E+02  0.69879029480E+01  0.50528843776E+02  0.29999951142E+02 0.  0.
         12    1    1    2    0    0  0.22960210178E+02 -0.32820191130E+02 -0.69879029480E+01  0.40659156224E+02  0.00000000000E+00 0. -1.
         11    1    3    3    0    0  0.60964223056E+01  0.33831844140E+01 -0.83430202986E+00  0.70219913020E+01  0.51100000000E-03 0.  1.
        -11    1    3    3    0    0 -0.13072308041E+01  0.61871552322E+01  0.29516576178E+01  0.69786836292E+01  0.51100000000E-03 0. -1.
        -12    1    3    3    0    0 -0.27749401679E+02  0.23249851484E+02  0.48705473600E+01  0.36528168845E+02  0.00000000000E+00 0.  1.
</event>
<event>
 7    1  0.5290964E-013  0.5052885E+02  0.7816164E-02  0.1300439E+00
        -11   -1    0    0    0    0  0.00000000000E+00  0.00000000000E+00  0.45593999997E+02  0.45594000000E+02  0.51100000000E-03 0. -1.
         11   -1    0    0    0    0 -0.00000000000E+00 -0.00000000000E+00 -0.45593999997E+02  0.45594000000E+02  0.51100000000E-03 0.  1.
    9900012    2    1    2    0    0 -0.14403194676E+02 -0.29944805896E+02 -0.23431234631E+02  0.50528853755E+02  0.29999981474E+02 0.  0.
         12    1    1    2    0    0  0.14403194676E+02  0.29944805896E+02  0.23431234631E+02  0.40659146245E+02  0.00000000000E+00 0. -1.
         11    1    3    3    0    0 -0.30660440413E+01 -0.20439301115E+02  0.77083212886E+00  0.20682355731E+02  0.51100000000E-03 0. -1.
        -11    1    3    3    0    0  0.10254750981E+01  0.88929115666E-02 -0.50108576032E+01  0.51147211499E+01  0.51100000000E-03 0.  1.
        -12    1    3    3    0    0 -0.12362625733E+02 -0.95143976924E+01 -0.19191209157E+02  0.24731776874E+02  0.00000000000E+00 0.  1.
</event>
<event>
 7    1  0.5290964E-013  0.5052887E+02  0.7816164E-02  0.1300439E+00
        -11   -1    0    0    0    0  0.00000000000E+00  0.00000000000E+00  0.45593999997E+02  0.45594000000E+02  0.51100000000E-03 0. -1.
         11   -1    0    0    0    0 -0.00000000000E+00 -0.00000000000E+00 -0.45593999997E+02  0.45594000000E+02  0.51100000000E-03 0.  1.
    9900012    2    1    2    0    0  0.30240922973E+02 -0.12302994175E+02 -0.24234018598E+02  0.50528871317E+02  0.30000034854E+02 0.  0.
         12    1    1    2    0    0 -0.30240922973E+02  0.12302994175E+02  0.24234018598E+02  0.40659128683E+02  0.00000000000E+00 0. -1.
         11    1    3    3    0    0  0.94814895291E+01  0.58109252379E+01 -0.23255393323E+00  0.11122930253E+02  0.51100000000E-03 0. -1.
        -11    1    3    3    0    0  0.80535087758E+01  0.11599517071E+01 -0.70418679157E+01  0.10760687504E+02  0.51100000000E-03 0.  1.
        -12    1    3    3    0    0  0.12705924668E+02 -0.19273871120E+02 -0.16959596749E+02  0.28645253559E+02  0.00000000000E+00 0.  1.
</event>
<event>
 7    1  0.5290964E-013  0.5052887E+02  0.7816164E-02  0.1300439E+00
        -11   -1    0    0    0    0  0.00000000000E+00  0.00000000000E+00  0.45593999997E+02  0.45594000000E+02  0.51100000000E-03 0. -1.
         11   -1    0    0    0    0 -0.00000000000E+00 -0.00000000000E+00 -0.45593999997E+02  0.45594000000E+02  0.51100000000E-03 0.  1.
    9900012    2    1    2    0    0 -0.14603338575E+02 -0.19287855902E+02 -0.32678527409E+02  0.50528867736E+02  0.30000023971E+02 0.  0.
         12    1    1    2    0    0  0.14603338575E+02  0.19287855902E+02  0.32678527409E+02  0.40659132264E+02  0.00000000000E+00 0. -1.
         11    1    3    3    0    0 -0.15738413099E+02 -0.10307845423E+02 -0.13660231158E+02  0.23249757841E+02  0.51100000000E-03 0.  1.
        -11    1    3    3    0    0 -0.78733294451E+01 -0.27299812533E+01 -0.10439216870E+02  0.13357371123E+02  0.51100000000E-03 0. -1.
         12    1    3    3    0    0  0.90084039694E+01 -0.62500292264E+01 -0.85790793804E+01  0.13921738772E+02  0.00000000000E+00 0. -1.
</event>
<event>
 7    1  0.5290964E-013  0.5052886E+02  0.7816164E-02  0.1300439E+00
        -11   -1    0    0    0    0  0.00000000000E+00  0.00000000000E+00  0.45593999997E+02  0.45594000000E+02  0.51100000000E-03 0.  1.
         11   -1    0    0    0    0 -0.00000000000E+00 -0.00000000000E+00 -0.45593999997E+02  0.45594000000E+02  0.51100000000E-03 0. -1.
    9900012    2    1    2    0    0  0.27869790740E+02  0.24735101991E+02  0.16267005905E+02  0.50528856041E+02  0.29999988421E+02 0.  0.
         12    1    1    2    0    0 -0.27869790740E+02 -0.24735101991E+02 -0.16267005905E+02  0.40659143959E+02  0.00000000000E+00 0. -1.
         11    1    3    3    0    0  0.25819650985E+01  0.96910471424E+01  0.46578721006E+01  0.11057970485E+02  0.51100000000E-03 0. -1.
        -11    1    3    3    0    0 -0.16050413877E+01  0.94221503469E+01 -0.21503972254E+00  0.95602990204E+01  0.51100000000E-03 0.  1.
         12    1    3    3    0    0  0.26892867029E+02  0.56219045020E+01  0.11824173527E+02  0.29910586535E+02  0.00000000000E+00 0. -1.
</event>
<event>
 7    1  0.5290964E-013  0.5052887E+02  0.7816164E-02  0.1300439E+00
        -11   -1    0    0    0    0  0.00000000000E+00  0.00000000000E+00  0.45593999997E+02  0.45594000000E+02  0.51100000000E-03 0.  1.
         11   -1    0    0    0    0 -0.00000000000E+00 -0.00000000000E+00 -0.45593999997E+02  0.45594000000E+02  0.51100000000E-03 0. -1.
    9900012    2    1    2    0    0 -0.38338106114E+02 -0.11694905601E+02 -0.68252252977E+01  0.50528869441E+02  0.30000029154E+02 0.  0.
         12    1    1    2    0    0  0.38338106114E+02  0.11694905601E+02  0.68252252977E+01  0.40659130559E+02  0.00000000000E+00 0. -1.
         11    1    3    3    0    0 -0.17967415985E+02 -0.33190356290E+01 -0.10582223190E+02  0.21114627219E+02  0.51100000000E-03 0. -1.
        -11    1    3    3    0    0 -0.96893550543E+01 -0.14003499718E+02  0.11840284665E+01  0.17069959853E+02  0.51100000000E-03 0.  1.
         12    1    3    3    0    0 -0.10681335075E+02  0.56276297461E+01  0.25729694261E+01  0.12344282369E+02  0.00000000000E+00 0. -1.
</event>
<event>
 7    1  0.5290964E-013  0.5052885E+02  0.7816164E-02  0.1300439E+00
        -11   -1    0    0    0    0  0.00000000000E+00  0.00000000000E+00  0.45593999997E+02  0.45594000000E+02  0.51100000000E-03 0. -1.
         11   -1    0    0    0    0 -0.00000000000E+00 -0.00000000000E+00 -0.45593999997E+02  0.45594000000E+02  0.51100000000E-03 0.  1.
    9900012    2    1    2    0    0  0.38806690369E+02 -0.51537916498E+01 -0.10983870269E+02  0.50528853527E+02  0.29999980782E+02 0.  0.
         12    1    1    2    0    0 -0.38806690369E+02  0.51537916498E+01  0.10983870269E+02  0.40659146473E+02  0.00000000000E+00 0. -1.
         11    1    3    3    0    0  0.20647600288E+02 -0.12069051906E+02  0.59640341838E+01  0.24648633138E+02  0.51100000000E-03 0. -1.
        -11    1    3    3    0    0  0.12398445756E+01  0.11297672743E+01 -0.13996758448E+01  0.21846467443E+01  0.51100000000E-03 0.  1.
         12    1    3    3    0    0  0.16919245506E+02  0.57854929818E+01 -0.15548228608E+02  0.23695573646E+02  0.00000000000E+00 0. -1.
</event>
<event>
 7    1  0.5290964E-013  0.5052887E+02  0.7816164E-02  0.1300439E+00
        -11   -1    0    0    0    0  0.00000000000E+00  0.00000000000E+00  0.45593999997E+02  0.45594000000E+02  0.51100000000E-03 0. -1.
         11   -1    0    0    0    0 -0.00000000000E+00 -0.00000000000E+00 -0.45593999997E+02  0.45594000000E+02  0.51100000000E-03 0.  1.
    9900012    2    1    2    0    0  0.83307630174E+01 -0.38487103076E+02  0.10124527686E+02  0.50528870933E+02  0.30000033687E+02 0.  0.
         12    1    1    2    0    0 -0.83307630174E+01  0.38487103076E+02 -0.10124527686E+02  0.40659129067E+02  0.00000000000E+00 0. -1.
         11    1    3    3    0    0  0.76074878987E+01  0.97393867587E+00 -0.13905557777E+01  0.77946182912E+01  0.51100000000E-03 0. -1.
        -11    1    3    3    0    0 -0.30946185868E+01 -0.58474578216E+01 -0.94471513737E+00  0.66829569896E+01  0.51100000000E-03 0.  1.
        -12    1    3    3    0    0  0.38178937055E+01 -0.33613583931E+02  0.12459798601E+02  0.36051295652E+02  0.00000000000E+00 0.  1.
</event>
<event>
 7    1  0.5290964E-013  0.5052887E+02  0.7816164E-02  0.1300439E+00
        -11   -1    0    0    0    0  0.00000000000E+00  0.00000000000E+00  0.45593999997E+02  0.45594000000E+02  0.51100000000E-03 0.  1.
         11   -1    0    0    0    0 -0.00000000000E+00 -0.00000000000E+00 -0.45593999997E+02  0.45594000000E+02  0.51100000000E-03 0. -1.
    9900012    2    1    2    0    0 -0.16495727425E+02  0.37134069222E+02 -0.14550075069E+01  0.50528866130E+02  0.30000019088E+02 0.  0.
         12    1    1    2    0    0  0.16495727425E+02 -0.37134069222E+02  0.14550075069E+01  0.40659133870E+02  0.00000000000E+00 0. -1.
         11    1    3    3    0    0 -0.90816018118E+01  0.71036240268E+01 -0.78891491722E+01  0.13970527574E+02  0.51100000000E-03 0. -1.
        -11    1    3    3    0    0 -0.14347199797E+01  0.45505433395E+01 -0.59312116318E+01  0.76121703730E+01  0.51100000000E-03 0.  1.
        -12    1    3    3    0    0 -0.59794056334E+01  0.25479901855E+02  0.12365353297E+02  0.28946168182E+02  0.00000000000E+00 0.  1.
</event>
<event>
 7    1  0.5290964E-013  0.5052888E+02  0.7816164E-02  0.1300439E+00
        -11   -1    0    0    0    0  0.00000000000E+00  0.00000000000E+00  0.45593999997E+02  0.45594000000E+02  0.51100000000E-03 0. -1.
         11   -1    0    0    0    0 -0.00000000000E+00 -0.00000000000E+00 -0.45593999997E+02  0.45594000000E+02  0.51100000000E-03 0.  1.
    9900012    2    1    2    0    0  0.30750807559E+02  0.25323110430E+02  0.81419879711E+01  0.50528879799E+02  0.30000060638E+02 0.  0.
         12    1    1    2    0    0 -0.30750807559E+02 -0.25323110430E+02 -0.81419879711E+01  0.40659120201E+02  0.00000000000E+00 0. -1.
         11    1    3    3    0    0  0.43780909848E+01  0.93277860033E+01  0.58031161749E+01  0.11825879671E+02  0.51100000000E-03 0. -1.
        -11    1    3    3    0    0  0.94151614002E+00  0.12431486511E+02 -0.20993066470E+01  0.12642602508E+02  0.51100000000E-03 0.  1.
        -12    1    3    3    0    0  0.25431200434E+02  0.35638379154E+01  0.44381784431E+01  0.26060397620E+02  0.00000000000E+00 0.  1.
</event>
<event>
 7    1  0.5290964E-013  0.5052886E+02  0.7816164E-02  0.1300439E+00
        -11   -1    0    0    0    0  0.00000000000E+00  0.00000000000E+00  0.45593999997E+02  0.45594000000E+02  0.51100000000E-03 0.  1.
         11   -1    0    0    0    0 -0.00000000000E+00 -0.00000000000E+00 -0.45593999997E+02  0.45594000000E+02  0.51100000000E-03 0. -1.
    9900012    2    1    2    0    0  0.26899207867E+02 -0.11129913863E+01  0.30468991513E+02  0.50528861082E+02  0.30000003746E+02 0.  0.
         12    1    1    2    0    0 -0.26899207867E+02  0.11129913863E+01 -0.30468991513E+02  0.40659138918E+02  0.00000000000E+00 0. -1.
         11    1    3    3    0    0  0.11710171612E+02  0.13355766182E+02  0.72177428458E+01  0.19172908531E+02  0.51100000000E-03 0.  1.
        -11    1    3    3    0    0  0.58857799395E+01 -0.52515068183E+01  0.76738229769E+01  0.11004921113E+02  0.51100000000E-03 0. -1.
        -12    1    3    3    0    0  0.93032563161E+01 -0.92172507504E+01  0.15577425690E+02  0.20351031439E+02  0.00000000000E+00 0.  1.
</event>
<event>
 7    1  0.5290964E-013  0.5052886E+02  0.7816164E-02  0.1300439E+00
        -11   -1    0    0    0    0  0.00000000000E+00  0.00000000000E+00  0.45593999997E+02  0.45594000000E+02  0.51100000000E-03 0. -1.
         11   -1    0    0    0    0 -0.00000000000E+00 -0.00000000000E+00 -0.45593999997E+02  0.45594000000E+02  0.51100000000E-03 0.  1.
    9900012    2    1    2    0    0  0.34003380320E+02  0.21796839124E+02 -0.46726120192E+01  0.50528863609E+02  0.30000011427E+02 0.  0.
         12    1    1    2    0    0 -0.34003380320E+02 -0.21796839124E+02  0.46726120192E+01  0.40659136391E+02  0.00000000000E+00 0. -1.
         11    1    3    3    0    0  0.81779082597E+01  0.42808869360E+00  0.86464283260E+01  0.11908911222E+02  0.51100000000E-03 0. -1.
        -11    1    3    3    0    0  0.91291303969E+01  0.51327799616E+01  0.21102844233E+01  0.10683620760E+02  0.51100000000E-03 0.  1.
        -12    1    3    3    0    0  0.16696341663E+02  0.16235970469E+02 -0.15429324769E+02  0.27936331627E+02  0.00000000000E+00 0.  1.
</event>
<event>
 7    1  0.5290964E-013  0.5052887E+02  0.7816164E-02  0.1300439E+00
        -11   -1    0    0    0    0  0.00000000000E+00  0.00000000000E+00  0.45593999997E+02  0.45594000000E+02  0.51100000000E-03 0.  1.
         11   -1    0    0    0    0 -0.00000000000E+00 -0.00000000000E+00 -0.45593999997E+02  0.45594000000E+02  0.51100000000E-03 0. -1.
    9900012    2    1    2    0    0  0.31238159139E+02 -0.10820923151E+02  0.23669595710E+02  0.50528871563E+02  0.30000035601E+02 0.  0.
         12    1    1    2    0    0 -0.31238159139E+02  0.10820923151E+02 -0.23669595710E+02  0.40659128437E+02  0.00000000000E+00 0. -1.
         11    1    3    3    0    0  0.83662486657E-01 -0.10969107728E+01 -0.14784451224E+01  0.18428274190E+01  0.51100000000E-03 0. -1.
        -11    1    3    3    0    0  0.24038504836E+02 -0.33549606119E+01  0.28615416887E+01  0.24439596899E+02  0.51100000000E-03 0.  1.
         12    1    3    3    0    0  0.71159918162E+01 -0.63690517660E+01  0.22286499144E+02  0.24246447245E+02  0.00000000000E+00 0. -1.
</event>
<event>
 7    1  0.5290964E-013  0.5052886E+02  0.7816164E-02  0.1300439E+00
        -11   -1    0    0    0    0  0.00000000000E+00  0.00000000000E+00  0.45593999997E+02  0.45594000000E+02  0.51100000000E-03 0.  1.
         11   -1    0    0    0    0 -0.00000000000E+00 -0.00000000000E+00 -0.45593999997E+02  0.45594000000E+02  0.51100000000E-03 0. -1.
    9900012    2    1    2    0    0  0.78228803737E+01 -0.20101808093E+02  0.34465717471E+02  0.50528858018E+02  0.29999994431E+02 0.  0.
         12    1    1    2    0    0 -0.78228803737E+01  0.20101808093E+02 -0.34465717471E+02  0.40659141982E+02  0.00000000000E+00 0. -1.
         11    1    3    3    0    0  0.11383834160E+02 -0.24417858799E+01  0.46480913775E+01  0.12536297388E+02  0.51100000000E-03 0. -1.
        -11    1    3    3    0    0  0.24229106229E+01 -0.14078720383E+02  0.11329399230E+02  0.18232831670E+02  0.51100000000E-03 0.  1.
         12    1    3    3    0    0 -0.59838644095E+01 -0.35813018298E+01  0.18488226863E+02  0.19759728961E+02  0.00000000000E+00 0. -1.
</event>
<event>
 7    1  0.5290964E-013  0.5052886E+02  0.7816164E-02  0.1300439E+00
        -11   -1    0    0    0    0  0.00000000000E+00  0.00000000000E+00  0.45593999997E+02  0.45594000000E+02  0.51100000000E-03 0.  1.
         11   -1    0    0    0    0 -0.00000000000E+00 -0.00000000000E+00 -0.45593999997E+02  0.45594000000E+02  0.51100000000E-03 0. -1.
    9900012    2    1    2    0    0 -0.38397197846E+01  0.37497668835E+02  0.15242926521E+02  0.50528862958E+02  0.30000009446E+02 0.  0.
         12    1    1    2    0    0  0.38397197846E+01 -0.37497668835E+02 -0.15242926521E+02  0.40659137042E+02  0.00000000000E+00 0. -1.
         11    1    3    3    0    0  0.46950713014E+01  0.98925592469E+01 -0.41232022248E+01  0.11700735867E+02  0.51100000000E-03 0. -1.
        -11    1    3    3    0    0  0.28060926275E+01  0.89734201463E+01 -0.37483475612E+00  0.94094062677E+01  0.51100000000E-03 0.  1.
         12    1    3    3    0    0 -0.11340883713E+02  0.18631689442E+02  0.19740963502E+02  0.29418720823E+02  0.00000000000E+00 0. -1.
</event>
<event>
 7    1  0.5290964E-013  0.5052886E+02  0.7816164E-02  0.1300439E+00
        -11   -1    0    0    0    0  0.00000000000E+00  0.00000000000E+00  0.45593999997E+02  0.45594000000E+02  0.51100000000E-03 0.  1.
         11   -1    0    0    0    0 -0.00000000000E+00 -0.00000000000E+00 -0.45593999997E+02  0.45594000000E+02  0.51100000000E-03 0. -1.
    9900012    2    1    2    0    0 -0.28040766362E+02  0.18339652786E+02  0.23033417985E+02  0.50528858512E+02  0.29999995933E+02 0.  0.
         12    1    1    2    0    0  0.28040766362E+02 -0.18339652786E+02 -0.23033417985E+02  0.40659141488E+02  0.00000000000E+00 0. -1.
         11    1    3    3    0    0 -0.25205240814E+02  0.46355653427E+01  0.87307480349E+01  0.27074316096E+02  0.51100000000E-03 0. -1.
        -11    1    3    3    0    0 -0.48297448763E+01  0.11833034922E+01  0.98945525468E+00  0.50700754124E+01  0.51100000000E-03 0.  1.
         12    1    3    3    0    0  0.19942193287E+01  0.12520783951E+02  0.13313214695E+02  0.18384467004E+02  0.00000000000E+00 0. -1.
</event>
<event>
 7    1  0.5290964E-013  0.5052886E+02  0.7816164E-02  0.1300439E+00
        -11   -1    0    0    0    0  0.00000000000E+00  0.00000000000E+00  0.45593999997E+02  0.45594000000E+02  0.51100000000E-03 0.  1.
         11   -1    0    0    0    0 -0.00000000000E+00 -0.00000000000E+00 -0.45593999997E+02  0.45594000000E+02  0.51100000000E-03 0. -1.
    9900012    2    1    2    0    0  0.11199044290E+02  0.36969142188E+02  0.12689750320E+02  0.50528857974E+02  0.29999994298E+02 0.  0.
         12    1    1    2    0    0 -0.11199044290E+02 -0.36969142188E+02 -0.12689750320E+02  0.40659142026E+02  0.00000000000E+00 0. -1.
         11    1    3    3    0    0 -0.19758778773E+01  0.10493439564E+01  0.71010950348E+00  0.23472264256E+01  0.51100000000E-03 0. -1.
        -11    1    3    3    0    0 -0.43201827991E+00  0.17692752494E+02  0.17378445547E+02  0.24803840439E+02  0.51100000000E-03 0.  1.
        -12    1    3    3    0    0  0.13606940447E+02  0.18227045737E+02 -0.53988047307E+01  0.23377791109E+02  0.00000000000E+00 0.  1.
</event>
<event>
 7    1  0.5290964E-013  0.5052886E+02  0.7816164E-02  0.1300439E+00
        -11   -1    0    0    0    0  0.00000000000E+00  0.00000000000E+00  0.45593999997E+02  0.45594000000E+02  0.51100000000E-03 0.  1.
         11   -1    0    0    0    0 -0.00000000000E+00 -0.00000000000E+00 -0.45593999997E+02  0.45594000000E+02  0.51100000000E-03 0. -1.
    9900012    2    1    2    0    0 -0.38050503257E+02 -0.10431546941E+02 -0.98238200588E+01  0.50528863139E+02  0.30000009999E+02 0.  0.
         12    1    1    2    0    0  0.38050503257E+02  0.10431546941E+02  0.98238200588E+01  0.40659136861E+02  0.00000000000E+00 0. -1.
         11    1    3    3    0    0 -0.16244661669E+02  0.29734477184E+01 -0.62385470600E+01  0.17653608519E+02  0.51100000000E-03 0. -1.
        -11    1    3    3    0    0 -0.23547059704E+01 -0.37679026784E+01 -0.94044331739E+01  0.10401206391E+02  0.51100000000E-03 0.  1.
        -12    1    3    3    0    0 -0.19451135618E+02 -0.96370919810E+01  0.58191601751E+01  0.22474048229E+02  0.00000000000E+00 0.  1.
</event>
<event>
 7    1  0.5290964E-013  0.5052886E+02  0.7816164E-02  0.1300439E+00
        -11   -1    0    0    0    0  0.00000000000E+00  0.00000000000E+00  0.45593999997E+02  0.45594000000E+02  0.51100000000E-03 0.  1.
         11   -1    0    0    0    0 -0.00000000000E+00 -0.00000000000E+00 -0.45593999997E+02  0.45594000000E+02  0.51100000000E-03 0. -1.
    9900012    2    1    2    0    0 -0.13822695744E+02  0.79604743379E+01  0.37399590176E+02  0.50528863085E+02  0.30000009834E+02 0.  0.
         12    1    1    2    0    0  0.13822695744E+02 -0.79604743379E+01 -0.37399590176E+02  0.40659136915E+02  0.00000000000E+00 0. -1.
         11    1    3    3    0    0 -0.63374319712E+01  0.97992006448E+00  0.11493502638E+02  0.13161454725E+02  0.51100000000E-03 0. -1.
        -11    1    3    3    0    0 -0.92390192843E+01  0.25171257019E-01  0.28327942508E+02  0.29796517211E+02  0.51100000000E-03 0.  1.
         12    1    3    3    0    0  0.17537555116E+01  0.69553830164E+01 -0.24218549698E+01  0.75708911493E+01  0.00000000000E+00 0. -1.
</event>
<event>
 7    1  0.5290964E-013  0.5052882E+02  0.7816164E-02  0.1300439E+00
        -11   -1    0    0    0    0  0.00000000000E+00  0.00000000000E+00  0.45593999997E+02  0.45594000000E+02  0.51100000000E-03 0.  1.
         11   -1    0    0    0    0 -0.00000000000E+00 -0.00000000000E+00 -0.45593999997E+02  0.45594000000E+02  0.51100000000E-03 0. -1.
    9900012    2    1    2    0    0  0.27910279017E+02  0.27074707410E+02  0.11880467137E+02  0.50528819542E+02  0.29999877478E+02 0.  0.
         12    1    1    2    0    0 -0.27910279017E+02 -0.27074707410E+02 -0.11880467137E+02  0.40659180458E+02  0.00000000000E+00 0. -1.
         11    1    3    3    0    0 -0.24577542781E+01  0.72894745169E+01 -0.29249769294E+01  0.82299747948E+01  0.51100000000E-03 0. -1.
        -11    1    3    3    0    0  0.21241194625E+01  0.40984430229E+01 -0.29060044970E+01  0.54547209920E+01  0.51100000000E-03 0.  1.
        -12    1    3    3    0    0  0.28243913833E+02  0.15686789870E+02  0.17711448563E+02  0.36844123755E+02  0.00000000000E+00 0.  1.
</event>
<event>
 7    1  0.5290964E-013  0.5052886E+02  0.7816164E-02  0.1300439E+00
        -11   -1    0    0    0    0  0.00000000000E+00  0.00000000000E+00  0.45593999997E+02  0.45594000000E+02  0.51100000000E-03 0.  1.
         11   -1    0    0    0    0 -0.00000000000E+00 -0.00000000000E+00 -0.45593999997E+02  0.45594000000E+02  0.51100000000E-03 0. -1.
    9900012    2    1    2    0    0 -0.29804362117E+02 -0.13105258492E+02  0.24354006475E+02  0.50528862863E+02  0.30000009159E+02 0.  0.
         12    1    1    2    0    0  0.29804362117E+02  0.13105258492E+02 -0.24354006475E+02  0.40659137137E+02  0.00000000000E+00 0. -1.
         11    1    3    3    0    0  0.10914535666E+01 -0.80812613181E+01  0.83213352918E+01  0.11650865920E+02  0.51100000000E-03 0. -1.
        -11    1    3    3    0    0 -0.74122482910E+01  0.14757511034E+01 -0.28231736985E+01  0.80678111058E+01  0.51100000000E-03 0.  1.
        -12    1    3    3    0    0 -0.23483567393E+02 -0.64997482774E+01  0.18855844881E+02  0.30810185838E+02  0.00000000000E+00 0.  1.
</event>
<event>
 7    1  0.5290964E-013  0.5052884E+02  0.7816164E-02  0.1300439E+00
        -11   -1    0    0    0    0  0.00000000000E+00  0.00000000000E+00  0.45593999997E+02  0.45594000000E+02  0.51100000000E-03 0.  1.
         11   -1    0    0    0    0 -0.00000000000E+00 -0.00000000000E+00 -0.45593999997E+02  0.45594000000E+02  0.51100000000E-03 0. -1.
    9900012    2    1    2    0    0  0.32822683575E+01 -0.31933399314E+02  0.24952997833E+02  0.50528838939E+02  0.29999936439E+02 0.  0.
         12    1    1    2    0    0 -0.32822683575E+01  0.31933399314E+02 -0.24952997833E+02  0.40659161061E+02  0.00000000000E+00 0. -1.
         11    1    3    3    0    0  0.71015882895E+01 -0.24019846023E+02  0.18959733426E+02  0.31414281005E+02  0.51100000000E-03 0. -1.
        -11    1    3    3    0    0  0.16189809115E+00 -0.66554293243E+01  0.10837688156E+02  0.12719136579E+02  0.51100000000E-03 0.  1.
         12    1    3    3    0    0 -0.39812180231E+01 -0.12581239659E+01 -0.48444237482E+01  0.63954213554E+01  0.00000000000E+00 0. -1.
</event>
<event>
 7    1  0.5290964E-013  0.5052885E+02  0.7816164E-02  0.1300439E+00
        -11   -1    0    0    0    0  0.00000000000E+00  0.00000000000E+00  0.45593999997E+02  0.45594000000E+02  0.51100000000E-03 0.  1.
         11   -1    0    0    0    0 -0.00000000000E+00 -0.00000000000E+00 -0.45593999997E+02  0.45594000000E+02  0.51100000000E-03 0. -1.
    9900012    2    1    2    0    0  0.18189029986E+02  0.25902957263E+02  0.25521800079E+02  0.50528852369E+02  0.29999977262E+02 0.  0.
         12    1    1    2    0    0 -0.18189029986E+02 -0.25902957263E+02 -0.25521800079E+02  0.40659147631E+02  0.00000000000E+00 0. -1.
         11    1    3    3    0    0  0.65528675324E+01  0.53641927991E+01  0.59857038463E+01  0.10370308003E+02  0.51100000000E-03 0. -1.
        -11    1    3    3    0    0  0.25898553622E+01  0.17550887615E+02  0.23829900769E+02  0.29708671761E+02  0.51100000000E-03 0.  1.
         12    1    3    3    0    0  0.90463070916E+01  0.29878768490E+01 -0.42938045370E+01  0.10449872605E+02  0.00000000000E+00 0. -1.
</event>
<event>
 7    1  0.5290964E-013  0.5052885E+02  0.7816164E-02  0.1300439E+00
        -11   -1    0    0    0    0  0.00000000000E+00  0.00000000000E+00  0.45593999997E+02  0.45594000000E+02  0.51100000000E-03 0. -1.
         11   -1    0    0    0    0 -0.00000000000E+00 -0.00000000000E+00 -0.45593999997E+02  0.45594000000E+02  0.51100000000E-03 0.  1.
    9900012    2    1    2    0    0 -0.34136790058E+02 -0.18732430073E+02  0.11702229441E+02  0.50528849175E+02  0.29999967553E+02 0.  0.
         12    1    1    2    0    0  0.34136790058E+02  0.18732430073E+02 -0.11702229441E+02  0.40659150825E+02  0.00000000000E+00 0. -1.
         11    1    3    3    0    0 -0.42727556115E+01 -0.34098820007E+00  0.43326203698E+01  0.60946134412E+01  0.51100000000E-03 0. -1.
        -11    1    3    3    0    0 -0.21944116140E+02 -0.92787773305E+01  0.16767818654E+02  0.29134166963E+02  0.51100000000E-03 0.  1.
        -12    1    3    3    0    0 -0.79199183066E+01 -0.91126645422E+01 -0.93982095830E+01  0.15300068771E+02  0.00000000000E+00 0.  1.
</event>
<event>
 7    1  0.5290964E-013  0.5052887E+02  0.7816164E-02  0.1300439E+00
        -11   -1    0    0    0    0  0.00000000000E+00  0.00000000000E+00  0.45593999997E+02  0.45594000000E+02  0.51100000000E-03 0. -1.
         11   -1    0    0    0    0 -0.00000000000E+00 -0.00000000000E+00 -0.45593999997E+02  0.45594000000E+02  0.51100000000E-03 0.  1.
    9900012    2    1    2    0    0 -0.17062810141E+02  0.33708574826E+02 -0.15025229408E+02  0.50528867871E+02  0.30000024380E+02 0.  0.
         12    1    1    2    0    0  0.17062810141E+02 -0.33708574826E+02  0.15025229408E+02  0.40659132129E+02  0.00000000000E+00 0. -1.
         11    1    3    3    0    0  0.90971761378E+00  0.12658372957E+02 -0.29071669748E+01  0.13019739327E+02  0.51100000000E-03 0. -1.
        -11    1    3    3    0    0  0.46352994962E+00  0.91796598945E+01 -0.12576528645E+02  0.15577229819E+02  0.51100000000E-03 0.  1.
         12    1    3    3    0    0 -0.18436057704E+02  0.11870541975E+02  0.45846621170E+00  0.21931898726E+02  0.00000000000E+00 0. -1.
</event>
<event>
 7    1  0.5290964E-013  0.5052886E+02  0.7816164E-02  0.1300439E+00
        -11   -1    0    0    0    0  0.00000000000E+00  0.00000000000E+00  0.45593999997E+02  0.45594000000E+02  0.51100000000E-03 0.  1.
         11   -1    0    0    0    0 -0.00000000000E+00 -0.00000000000E+00 -0.45593999997E+02  0.45594000000E+02  0.51100000000E-03 0. -1.
    9900012    2    1    2    0    0  0.39002318396E+02  0.69065470982E+01  0.91806353961E+01  0.50528864503E+02  0.30000014143E+02 0.  0.
         12    1    1    2    0    0 -0.39002318396E+02 -0.69065470982E+01 -0.91806353961E+01  0.40659135497E+02  0.00000000000E+00 0. -1.
         11    1    3    3    0    0  0.10476432630E+02  0.93298182700E+01  0.64000624102E+01  0.15419531404E+02  0.51100000000E-03 0. -1.
        -11    1    3    3    0    0  0.95095126446E+00  0.18745533295E+01  0.66134989774E+01  0.69394976387E+01  0.51100000000E-03 0.  1.
         12    1    3    3    0    0  0.27574934501E+02 -0.42978245014E+01 -0.38329259915E+01  0.28169835460E+02  0.00000000000E+00 0. -1.
</event>
<event>
 7    1  0.5290964E-013  0.5052889E+02  0.7816164E-02  0.1300439E+00
        -11   -1    0    0    0    0  0.00000000000E+00  0.00000000000E+00  0.45593999997E+02  0.45594000000E+02  0.51100000000E-03 0. -1.
         11   -1    0    0    0    0 -0.00000000000E+00 -0.00000000000E+00 -0.45593999997E+02  0.45594000000E+02  0.51100000000E-03 0.  1.
    9900012    2    1    2    0    0  0.30654009530E+02  0.26085141017E+02  0.57498253568E+01  0.50528888183E+02  0.30000086120E+02 0.  0.
         12    1    1    2    0    0 -0.30654009530E+02 -0.26085141017E+02 -0.57498253568E+01  0.40659111817E+02  0.00000000000E+00 0. -1.
         11    1    3    3    0    0  0.54949710907E+01 -0.21607571899E+01  0.94326384852E+01  0.11128263475E+02  0.51100000000E-03 0. -1.
        -11    1    3    3    0    0  0.12667920453E+02  0.68378481289E+01 -0.22821870990E+01  0.14575347469E+02  0.51100000000E-03 0.  1.
        -12    1    3    3    0    0  0.12491117986E+02  0.21408050078E+02 -0.14006260294E+01  0.24825277239E+02  0.00000000000E+00 0.  1.
</event>
<event>
 7    1  0.5290964E-013  0.5052886E+02  0.7816164E-02  0.1300439E+00
        -11   -1    0    0    0    0  0.00000000000E+00  0.00000000000E+00  0.45593999997E+02  0.45594000000E+02  0.51100000000E-03 0.  1.
         11   -1    0    0    0    0 -0.00000000000E+00 -0.00000000000E+00 -0.45593999997E+02  0.45594000000E+02  0.51100000000E-03 0. -1.
    9900012    2    1    2    0    0  0.34426973710E+02  0.20322401532E+02  0.74127943513E+01  0.50528855358E+02  0.29999986347E+02 0.  0.
         12    1    1    2    0    0 -0.34426973710E+02 -0.20322401532E+02 -0.74127943513E+01  0.40659144642E+02  0.00000000000E+00 0. -1.
         11    1    3    3    0    0  0.48280495718E+01 -0.19607095602E+00 -0.58380125784E+01  0.75783175979E+01  0.51100000000E-03 0. -1.
        -11    1    3    3    0    0  0.74103023500E+01  0.54456538543E+01 -0.50374496900E+01  0.10485400634E+02  0.51100000000E-03 0.  1.
        -12    1    3    3    0    0  0.22188621789E+02  0.15072818634E+02  0.18288256620E+02  0.32465137126E+02  0.00000000000E+00 0.  1.
</event>
<event>
 7    1  0.5290964E-013  0.5052885E+02  0.7816164E-02  0.1300439E+00
        -11   -1    0    0    0    0  0.00000000000E+00  0.00000000000E+00  0.45593999997E+02  0.45594000000E+02  0.51100000000E-03 0. -1.
         11   -1    0    0    0    0 -0.00000000000E+00 -0.00000000000E+00 -0.45593999997E+02  0.45594000000E+02  0.51100000000E-03 0.  1.
    9900012    2    1    2    0    0 -0.40099205257E+02 -0.66489798024E+01  0.10056236976E+01  0.50528850062E+02  0.29999970249E+02 0.  0.
         12    1    1    2    0    0  0.40099205257E+02  0.66489798024E+01 -0.10056236976E+01  0.40659149938E+02  0.00000000000E+00 0. -1.
         11    1    3    3    0    0 -0.12947333836E-01 -0.73274689091E+01  0.31780334068E+01  0.79869809592E+01  0.51100000000E-03 0. -1.
        -11    1    3    3    0    0 -0.61218497325E+01 -0.44324579206E+01 -0.31329658691E+01  0.81816381467E+01  0.51100000000E-03 0.  1.
         12    1    3    3    0    0 -0.33964408190E+02  0.51109470273E+01  0.96055615986E+00  0.34360230956E+02  0.00000000000E+00 0. -1.
</event>
<event>
 7    1  0.5290964E-013  0.5052886E+02  0.7816164E-02  0.1300439E+00
        -11   -1    0    0    0    0  0.00000000000E+00  0.00000000000E+00  0.45593999997E+02  0.45594000000E+02  0.51100000000E-03 0.  1.
         11   -1    0    0    0    0 -0.00000000000E+00 -0.00000000000E+00 -0.45593999997E+02  0.45594000000E+02  0.51100000000E-03 0. -1.
    9900012    2    1    2    0    0  0.32014048384E+02 -0.69693452048E+01  0.24076841393E+02  0.50528863782E+02  0.30000011953E+02 0.  0.
         12    1    1    2    0    0 -0.32014048384E+02  0.69693452048E+01 -0.24076841393E+02  0.40659136218E+02  0.00000000000E+00 0. -1.
         11    1    3    3    0    0  0.18937715516E+02 -0.41138918753E+01  0.51321176686E+01  0.20047438923E+02  0.51100000000E-03 0. -1.
        -11    1    3    3    0    0  0.10312721688E+02 -0.56842726842E+01  0.22350199618E+02  0.25262513885E+02  0.51100000000E-03 0.  1.
         12    1    3    3    0    0  0.27636111800E+01  0.28288193547E+01 -0.34054758942E+01  0.52189109747E+01  0.00000000000E+00 0. -1.
</event>
<event>
 7    1  0.5290964E-013  0.5052887E+02  0.7816164E-02  0.1300439E+00
        -11   -1    0    0    0    0  0.00000000000E+00  0.00000000000E+00  0.45593999997E+02  0.45594000000E+02  0.51100000000E-03 0.  1.
         11   -1    0    0    0    0 -0.00000000000E+00 -0.00000000000E+00 -0.45593999997E+02  0.45594000000E+02  0.51100000000E-03 0. -1.
    9900012    2    1    2    0    0 -0.39937382366E+02 -0.53572985342E+01  0.54285810483E+01  0.50528872488E+02  0.30000038416E+02 0.  0.
         12    1    1    2    0    0  0.39937382366E+02  0.53572985342E+01 -0.54285810483E+01  0.40659127512E+02  0.00000000000E+00 0. -1.
         11    1    3    3    0    0 -0.27787774029E+01 -0.94360593895E+01 -0.36179043207E+01  0.10480937582E+02  0.51100000000E-03 0. -1.
        -11    1    3    3    0    0 -0.79323487780E+01  0.59701697721E+00  0.69111276172E+01  0.10537659684E+02  0.51100000000E-03 0.  1.
        -12    1    3    3    0    0 -0.29226256185E+02  0.34817438781E+01  0.21353577519E+01  0.29510275223E+02  0.00000000000E+00 0.  1.
</event>
<event>
 7    1  0.5290964E-013  0.5052886E+02  0.7816164E-02  0.1300439E+00
        -11   -1    0    0    0    0  0.00000000000E+00  0.00000000000E+00  0.45593999997E+02  0.45594000000E+02  0.51100000000E-03 0.  1.
         11   -1    0    0    0    0 -0.00000000000E+00 -0.00000000000E+00 -0.45593999997E+02  0.45594000000E+02  0.51100000000E-03 0. -1.
    9900012    2    1    2    0    0  0.20799869173E+02 -0.74316767047E+00  0.34928195498E+02  0.50528859619E+02  0.29999999297E+02 0.  0.
         12    1    1    2    0    0 -0.20799869173E+02  0.74316767047E+00 -0.34928195498E+02  0.40659140381E+02  0.00000000000E+00 0. -1.
         11    1    3    3    0    0  0.30365684676E+01  0.14688321986E+01 -0.11515536461E+01  0.35643080882E+01  0.51100000000E-03 0. -1.
        -11    1    3    3    0    0  0.13895161979E+02  0.16300228694E+00  0.38539386655E+01  0.14420642831E+02  0.51100000000E-03 0.  1.
        -12    1    3    3    0    0  0.38681387272E+01 -0.23750021561E+01  0.32225810478E+02  0.32543908700E+02  0.00000000000E+00 0.  1.
</event>
<event>
 7    1  0.5290964E-013  0.5052886E+02  0.7816164E-02  0.1300439E+00
        -11   -1    0    0    0    0  0.00000000000E+00  0.00000000000E+00  0.45593999997E+02  0.45594000000E+02  0.51100000000E-03 0.  1.
         11   -1    0    0    0    0 -0.00000000000E+00 -0.00000000000E+00 -0.45593999997E+02  0.45594000000E+02  0.51100000000E-03 0. -1.
    9900012    2    1    2    0    0  0.28302049815E+02 -0.28912315249E+02 -0.40295891760E+01  0.50528860981E+02  0.30000003439E+02 0.  0.
         12    1    1    2    0    0 -0.28302049815E+02  0.28912315249E+02  0.40295891760E+01  0.40659139019E+02  0.00000000000E+00 0. -1.
         11    1    3    3    0    0  0.59849968449E+01 -0.10202047156E+02  0.34212803758E+01  0.12312884028E+02  0.51100000000E-03 0. -1.
        -11    1    3    3    0    0  0.12082000331E+02  0.31948664401E+01 -0.63367367523E+01  0.14011999732E+02  0.51100000000E-03 0.  1.
         12    1    3    3    0    0  0.10235052640E+02 -0.21905134533E+02 -0.11141327995E+01  0.24203977221E+02  0.00000000000E+00 0. -1.
</event>
<event>
 7    1  0.5290964E-013  0.5052887E+02  0.7816164E-02  0.1300439E+00
        -11   -1    0    0    0    0  0.00000000000E+00  0.00000000000E+00  0.45593999997E+02  0.45594000000E+02  0.51100000000E-03 0.  1.
         11   -1    0    0    0    0 -0.00000000000E+00 -0.00000000000E+00 -0.45593999997E+02  0.45594000000E+02  0.51100000000E-03 0. -1.
    9900012    2    1    2    0    0  0.17397661239E+02  0.34696515008E+02  0.12109429637E+02  0.50528867490E+02  0.30000023223E+02 0.  0.
         12    1    1    2    0    0 -0.17397661239E+02 -0.34696515008E+02 -0.12109429637E+02  0.40659132510E+02  0.00000000000E+00 0. -1.
         11    1    3    3    0    0  0.29995748143E+01  0.57776615291E+01  0.94771444622E+01  0.11497612327E+02  0.51100000000E-03 0. -1.
        -11    1    3    3    0    0 -0.52142500294E+01  0.24520317334E+01  0.19491415591E+01  0.60827638512E+01  0.51100000000E-03 0.  1.
        -12    1    3    3    0    0  0.19612336455E+02  0.26466821746E+02  0.68314361575E+00  0.32948491312E+02  0.00000000000E+00 0.  1.
</event>
<event>
 7    1  0.5290964E-013  0.5052886E+02  0.7816164E-02  0.1300439E+00
        -11   -1    0    0    0    0  0.00000000000E+00  0.00000000000E+00  0.45593999997E+02  0.45594000000E+02  0.51100000000E-03 0. -1.
         11   -1    0    0    0    0 -0.00000000000E+00 -0.00000000000E+00 -0.45593999997E+02  0.45594000000E+02  0.51100000000E-03 0.  1.
    9900012    2    1    2    0    0  0.24449737207E+02 -0.29269410240E+02 -0.14095299751E+02  0.50528862032E+02  0.30000006632E+02 0.  0.
         12    1    1    2    0    0 -0.24449737207E+02  0.29269410240E+02  0.14095299751E+02  0.40659137968E+02  0.00000000000E+00 0. -1.
         11    1    3    3    0    0  0.53506375271E+01 -0.14589143815E+01 -0.12245784856E+01  0.56795550748E+01  0.51100000000E-03 0. -1.
        -11    1    3    3    0    0  0.95882421515E+01 -0.56071921408E+01  0.73743763388E+01  0.13332532314E+02  0.51100000000E-03 0.  1.
         12    1    3    3    0    0  0.95108575279E+01 -0.22203303718E+02 -0.20245097604E+02  0.31516774643E+02  0.00000000000E+00 0. -1.
</event>
<event>
 7    1  0.5290964E-013  0.5052886E+02  0.7816164E-02  0.1300439E+00
        -11   -1    0    0    0    0  0.00000000000E+00  0.00000000000E+00  0.45593999997E+02  0.45594000000E+02  0.51100000000E-03 0.  1.
         11   -1    0    0    0    0 -0.00000000000E+00 -0.00000000000E+00 -0.45593999997E+02  0.45594000000E+02  0.51100000000E-03 0. -1.
    9900012    2    1    2    0    0 -0.30259904929E+02 -0.10908170856E+02  0.24869967714E+02  0.50528864104E+02  0.30000012929E+02 0.  0.
         12    1    1    2    0    0  0.30259904929E+02  0.10908170856E+02 -0.24869967714E+02  0.40659135896E+02  0.00000000000E+00 0. -1.
         11    1    3    3    0    0 -0.11714495117E+02 -0.35064121367E+01  0.49711154144E+01  0.13199860251E+02  0.51100000000E-03 0. -1.
        -11    1    3    3    0    0 -0.19902576071E+02  0.30638029035E+01  0.17082037115E+02  0.26406351788E+02  0.51100000000E-03 0.  1.
        -12    1    3    3    0    0  0.13571662591E+01 -0.10465561623E+02  0.28168151845E+01  0.10922652064E+02  0.00000000000E+00 0.  1.
</event>
<event>
 7    1  0.5290964E-013  0.5052886E+02  0.7816164E-02  0.1300439E+00
        -11   -1    0    0    0    0  0.00000000000E+00  0.00000000000E+00  0.45593999997E+02  0.45594000000E+02  0.51100000000E-03 0. -1.
         11   -1    0    0    0    0 -0.00000000000E+00 -0.00000000000E+00 -0.45593999997E+02  0.45594000000E+02  0.51100000000E-03 0.  1.
    9900012    2    1    2    0    0  0.28751898104E+02 -0.28705052797E+02  0.15855790358E+01  0.50528858819E+02  0.29999996867E+02 0.  0.
         12    1    1    2    0    0 -0.28751898104E+02  0.28705052797E+02 -0.15855790358E+01  0.40659141181E+02  0.00000000000E+00 0. -1.
         11    1    3    3    0    0  0.92953301173E+00 -0.17617672263E+01 -0.33798992466E+01  0.39232097264E+01  0.51100000000E-03 0. -1.
        -11    1    3    3    0    0  0.11453084486E+02 -0.50489163832E+01 -0.94661259249E+01  0.15693063473E+02  0.51100000000E-03 0.  1.
        -12    1    3    3    0    0  0.16369280607E+02 -0.21894369188E+02  0.14431604207E+02  0.30912585620E+02  0.00000000000E+00 0.  1.
</event>
<event>
 7    1  0.5290964E-013  0.5052885E+02  0.7816164E-02  0.1300439E+00
        -11   -1    0    0    0    0  0.00000000000E+00  0.00000000000E+00  0.45593999997E+02  0.45594000000E+02  0.51100000000E-03 0.  1.
         11   -1    0    0    0    0 -0.00000000000E+00 -0.00000000000E+00 -0.45593999997E+02  0.45594000000E+02  0.51100000000E-03 0. -1.
    9900012    2    1    2    0    0  0.61714622294E+01 -0.38419131741E+02  0.11791925182E+02  0.50528854297E+02  0.29999983122E+02 0.  0.
         12    1    1    2    0    0 -0.61714622294E+01  0.38419131741E+02 -0.11791925182E+02  0.40659145703E+02  0.00000000000E+00 0. -1.
         11    1    3    3    0    0  0.99222070216E+00  0.41357763624E+01  0.22550701550E+01  0.48139889600E+01  0.51100000000E-03 0. -1.
        -11    1    3    3    0    0 -0.12066934856E+01 -0.61669852188E+00  0.23156379359E+01  0.26830217193E+01  0.51100000000E-03 0.  1.
        -12    1    3    3    0    0  0.63859350128E+01 -0.41938209581E+02  0.72212170911E+01  0.43031843618E+02  0.00000000000E+00 0.  1.
</event>
<event>
 7    1  0.5290964E-013  0.5052886E+02  0.7816164E-02  0.1300439E+00
        -11   -1    0    0    0    0  0.00000000000E+00  0.00000000000E+00  0.45593999997E+02  0.45594000000E+02  0.51100000000E-03 0. -1.
         11   -1    0    0    0    0 -0.00000000000E+00 -0.00000000000E+00 -0.45593999997E+02  0.45594000000E+02  0.51100000000E-03 0.  1.
    9900012    2    1    2    0    0  0.28554403526E+01  0.40511772846E+02 -0.19514147590E+01  0.50528864517E+02  0.30000014185E+02 0.  0.
         12    1    1    2    0    0 -0.28554403526E+01 -0.40511772846E+02  0.19514147590E+01  0.40659135483E+02  0.00000000000E+00 0. -1.
         11    1    3    3    0    0  0.74024356613E+01  0.21638975047E+01 -0.65064873987E+01  0.10090237096E+02  0.51100000000E-03 0. -1.
        -11    1    3    3    0    0  0.54250744991E+00  0.84155299563E+00 -0.17990580821E+01  0.20589162250E+01  0.51100000000E-03 0.  1.
        -12    1    3    3    0    0 -0.50895027587E+01  0.37506322345E+02  0.63541307218E+01  0.38379711195E+02  0.00000000000E+00 0.  1.
</event>
<event>
 7    1  0.5290964E-013  0.5052886E+02  0.7816164E-02  0.1300439E+00
        -11   -1    0    0    0    0  0.00000000000E+00  0.00000000000E+00  0.45593999997E+02  0.45594000000E+02  0.51100000000E-03 0.  1.
         11   -1    0    0    0    0 -0.00000000000E+00 -0.00000000000E+00 -0.45593999997E+02  0.45594000000E+02  0.51100000000E-03 0. -1.
    9900012    2    1    2    0    0 -0.80943715786E+01 -0.20525808046E+02  0.34151694431E+02  0.50528857366E+02  0.29999992450E+02 0.  0.
         12    1    1    2    0    0  0.80943715786E+01  0.20525808046E+02 -0.34151694431E+02  0.40659142634E+02  0.00000000000E+00 0. -1.
         11    1    3    3    0    0 -0.10668216393E+02  0.86146662907E+00  0.14604540791E+02  0.18106506503E+02  0.51100000000E-03 0. -1.
        -11    1    3    3    0    0 -0.39943978763E+01 -0.17131113806E+02  0.16186550884E+02  0.23904700467E+02  0.51100000000E-03 0.  1.
        -12    1    3    3    0    0  0.65682426908E+01 -0.42561608689E+01  0.33606027561E+01  0.85176503962E+01  0.00000000000E+00 0.  1.
</event>
<event>
 7    1  0.5290964E-013  0.5052886E+02  0.7816164E-02  0.1300439E+00
        -11   -1    0    0    0    0  0.00000000000E+00  0.00000000000E+00  0.45593999997E+02  0.45594000000E+02  0.51100000000E-03 0.  1.
         11   -1    0    0    0    0 -0.00000000000E+00 -0.00000000000E+00 -0.45593999997E+02  0.45594000000E+02  0.51100000000E-03 0. -1.
    9900012    2    1    2    0    0  0.19171401048E+02  0.10687947338E+02  0.34225589539E+02  0.50528858153E+02  0.29999994843E+02 0.  0.
         12    1    1    2    0    0 -0.19171401048E+02 -0.10687947338E+02 -0.34225589539E+02  0.40659141847E+02  0.00000000000E+00 0. -1.
         11    1    3    3    0    0 -0.12803475085E+00 -0.53688803823E+01  0.78827114838E-01  0.53709853315E+01  0.51100000000E-03 0. -1.
        -11    1    3    3    0    0  0.58380820480E+01  0.25396450138E+01  0.21117346559E+02  0.22056185634E+02  0.51100000000E-03 0.  1.
        -12    1    3    3    0    0  0.13461353751E+02  0.13517182706E+02  0.13029415865E+02  0.23101687187E+02  0.00000000000E+00 0.  1.
</event>
<event>
 7    1  0.5290964E-013  0.5052878E+02  0.7816164E-02  0.1300439E+00
        -11   -1    0    0    0    0  0.00000000000E+00  0.00000000000E+00  0.45593999997E+02  0.45594000000E+02  0.51100000000E-03 0.  1.
         11   -1    0    0    0    0 -0.00000000000E+00 -0.00000000000E+00 -0.45593999997E+02  0.45594000000E+02  0.51100000000E-03 0. -1.
    9900012    2    1    2    0    0  0.37178572411E+02  0.13848757845E+02 -0.88959452039E+01  0.50528779871E+02  0.29999756896E+02 0.  0.
         12    1    1    2    0    0 -0.37178572411E+02 -0.13848757845E+02  0.88959452039E+01  0.40659220129E+02  0.00000000000E+00 0. -1.
         11    1    3    3    0    0  0.11097149558E+02  0.70776300466E+01 -0.14404789658E+02  0.19512497040E+02  0.51100000000E-03 0. -1.
        -11    1    3    3    0    0 -0.14715956730E+00 -0.23132275947E+01 -0.97044906705E+00  0.25128568395E+01  0.51100000000E-03 0.  1.
        -12    1    3    3    0    0  0.26228582421E+02  0.90843553935E+01  0.64792935215E+01  0.28503425992E+02  0.00000000000E+00 0.  1.
</event>
<event>
 7    1  0.5290964E-013  0.5052886E+02  0.7816164E-02  0.1300439E+00
        -11   -1    0    0    0    0  0.00000000000E+00  0.00000000000E+00  0.45593999997E+02  0.45594000000E+02  0.51100000000E-03 0. -1.
         11   -1    0    0    0    0 -0.00000000000E+00 -0.00000000000E+00 -0.45593999997E+02  0.45594000000E+02  0.51100000000E-03 0.  1.
    9900012    2    1    2    0    0 -0.22360333461E+01 -0.26551077139E+02 -0.30711656940E+02  0.50528863089E+02  0.30000009844E+02 0.  0.
         12    1    1    2    0    0  0.22360333461E+01  0.26551077139E+02  0.30711656940E+02  0.40659136911E+02  0.00000000000E+00 0. -1.
         11    1    3    3    0    0 -0.76750764998E+01 -0.11368544611E+02 -0.51080805760E+01  0.14637045238E+02  0.51100000000E-03 0. -1.
        -11    1    3    3    0    0 -0.72205914565E+01 -0.58052747854E+01 -0.77299577775E+01  0.12066084859E+02  0.51100000000E-03 0.  1.
        -12    1    3    3    0    0  0.12659634610E+02 -0.93772577423E+01 -0.17873618587E+02  0.23825732992E+02  0.00000000000E+00 0.  1.
</event>
<event>
 7    1  0.5290964E-013  0.5052886E+02  0.7816164E-02  0.1300439E+00
        -11   -1    0    0    0    0  0.00000000000E+00  0.00000000000E+00  0.45593999997E+02  0.45594000000E+02  0.51100000000E-03 0.  1.
         11   -1    0    0    0    0 -0.00000000000E+00 -0.00000000000E+00 -0.45593999997E+02  0.45594000000E+02  0.51100000000E-03 0. -1.
    9900012    2    1    2    0    0 -0.36609940058E+02 -0.14535547328E+02  0.10079467342E+02  0.50528861925E+02  0.30000006306E+02 0.  0.
         12    1    1    2    0    0  0.36609940058E+02  0.14535547328E+02 -0.10079467342E+02  0.40659138075E+02  0.00000000000E+00 0. -1.
         11    1    3    3    0    0 -0.17495042421E+01  0.26342171562E+01 -0.54969712502E+01  0.63416526478E+01  0.51100000000E-03 0. -1.
        -11    1    3    3    0    0  0.99936553723E+00 -0.15809499317E+01 -0.45809039124E+00  0.19256119109E+01  0.51100000000E-03 0.  1.
        -12    1    3    3    0    0 -0.35859801353E+02 -0.15588814552E+02  0.16034528983E+02  0.42261597366E+02  0.00000000000E+00 0.  1.
</event>
<event>
 7    1  0.5290964E-013  0.5052886E+02  0.7816164E-02  0.1300439E+00
        -11   -1    0    0    0    0  0.00000000000E+00  0.00000000000E+00  0.45593999997E+02  0.45594000000E+02  0.51100000000E-03 0. -1.
         11   -1    0    0    0    0 -0.00000000000E+00 -0.00000000000E+00 -0.45593999997E+02  0.45594000000E+02  0.51100000000E-03 0.  1.
    9900012    2    1    2    0    0  0.16420783085E+02  0.23144814841E+02  0.29117713284E+02  0.50528858371E+02  0.29999995503E+02 0.  0.
         12    1    1    2    0    0 -0.16420783085E+02 -0.23144814841E+02 -0.29117713284E+02  0.40659141629E+02  0.00000000000E+00 0. -1.
         11    1    3    3    0    0  0.41910509661E+01  0.20220118512E+02  0.14307373869E+02  0.25122082878E+02  0.51100000000E-03 0. -1.
        -11    1    3    3    0    0  0.16536991772E+00  0.73606908726E+01  0.29982899980E+01  0.79496453069E+01  0.51100000000E-03 0.  1.
         12    1    3    3    0    0  0.12064362201E+02 -0.44359945428E+01  0.11812049417E+02  0.17457130186E+02  0.00000000000E+00 0. -1.
</event>
<event>
 7    1  0.5290964E-013  0.5052886E+02  0.7816164E-02  0.1300439E+00
        -11   -1    0    0    0    0  0.00000000000E+00  0.00000000000E+00  0.45593999997E+02  0.45594000000E+02  0.51100000000E-03 0.  1.
         11   -1    0    0    0    0 -0.00000000000E+00 -0.00000000000E+00 -0.45593999997E+02  0.45594000000E+02  0.51100000000E-03 0. -1.
    9900012    2    1    2    0    0  0.30484337676E+02  0.12098527724E+02  0.24031158967E+02  0.50528858126E+02  0.29999994759E+02 0.  0.
         12    1    1    2    0    0 -0.30484337676E+02 -0.12098527724E+02 -0.24031158967E+02  0.40659141874E+02  0.00000000000E+00 0. -1.
         11    1    3    3    0    0  0.10192980599E+02  0.56137414705E+00 -0.22136754519E+01  0.10445685889E+02  0.51100000000E-03 0. -1.
        -11    1    3    3    0    0  0.77675655372E+01 -0.40959332602E+01  0.27356800422E+01  0.91975914892E+01  0.51100000000E-03 0.  1.
         12    1    3    3    0    0  0.12523791540E+02  0.15633086838E+02  0.23509154377E+02  0.30885580748E+02  0.00000000000E+00 0. -1.
</event>
<event>
 7    1  0.5290964E-013  0.5052886E+02  0.7816164E-02  0.1300439E+00
        -11   -1    0    0    0    0  0.00000000000E+00  0.00000000000E+00  0.45593999997E+02  0.45594000000E+02  0.51100000000E-03 0. -1.
         11   -1    0    0    0    0 -0.00000000000E+00 -0.00000000000E+00 -0.45593999997E+02  0.45594000000E+02  0.51100000000E-03 0.  1.
    9900012    2    1    2    0    0  0.34335433256E+02 -0.21057939722E+02 -0.55504244419E+01  0.50528855719E+02  0.29999987443E+02 0.  0.
         12    1    1    2    0    0 -0.34335433256E+02  0.21057939722E+02  0.55504244419E+01  0.40659144281E+02  0.00000000000E+00 0. -1.
         11    1    3    3    0    0  0.74954811866E+01 -0.64314889030E+01 -0.12477730386E+02  0.15913517637E+02  0.51100000000E-03 0. -1.
        -11    1    3    3    0    0  0.76657915711E+01 -0.54161379519E+01 -0.45655446835E+01  0.10437581580E+02  0.51100000000E-03 0.  1.
        -12    1    3    3    0    0  0.19174160498E+02 -0.92103128666E+01  0.11492850628E+02  0.24177756502E+02  0.00000000000E+00 0.  1.
</event>
<event>
 7    1  0.5290964E-013  0.5052885E+02  0.7816164E-02  0.1300439E+00
        -11   -1    0    0    0    0  0.00000000000E+00  0.00000000000E+00  0.45593999997E+02  0.45594000000E+02  0.51100000000E-03 0.  1.
         11   -1    0    0    0    0 -0.00000000000E+00 -0.00000000000E+00 -0.45593999997E+02  0.45594000000E+02  0.51100000000E-03 0. -1.
    9900012    2    1    2    0    0 -0.99622692439E+01  0.65081639421E+01  0.38878832069E+02  0.50528848638E+02  0.29999965922E+02 0.  0.
         12    1    1    2    0    0  0.99622692439E+01 -0.65081639421E+01 -0.38878832069E+02  0.40659151362E+02  0.00000000000E+00 0. -1.
         11    1    3    3    0    0 -0.23765968034E+01 -0.67241882322E+01  0.76922118181E+01  0.10489663611E+02  0.51100000000E-03 0. -1.
        -11    1    3    3    0    0  0.58784901000E+01  0.19597140960E+01  0.31345342521E+01  0.69442372103E+01  0.51100000000E-03 0.  1.
        -12    1    3    3    0    0 -0.13464162541E+02  0.11272638078E+02  0.28052085999E+02  0.33094947818E+02  0.00000000000E+00 0.  1.
</event>
<event>
 7    1  0.5290964E-013  0.5052885E+02  0.7816164E-02  0.1300439E+00
        -11   -1    0    0    0    0  0.00000000000E+00  0.00000000000E+00  0.45593999997E+02  0.45594000000E+02  0.51100000000E-03 0. -1.
         11   -1    0    0    0    0 -0.00000000000E+00 -0.00000000000E+00 -0.45593999997E+02  0.45594000000E+02  0.51100000000E-03 0.  1.
    9900012    2    1    2    0    0 -0.25793445340E+02 -0.29977746543E+02 -0.94445264169E+01  0.50528853556E+02  0.29999980870E+02 0.  0.
         12    1    1    2    0    0  0.25793445340E+02  0.29977746543E+02  0.94445264169E+01  0.40659146444E+02  0.00000000000E+00 0. -1.
         11    1    3    3    0    0 -0.90040139698E+01  0.28243906162E+01 -0.18064419534E+01  0.96079489337E+01  0.51100000000E-03 0. -1.
        -11    1    3    3    0    0 -0.62731672597E+01 -0.16310944639E+02  0.43126067783E+01  0.17999947777E+02  0.51100000000E-03 0.  1.
         12    1    3    3    0    0 -0.10516264110E+02 -0.16491192520E+02 -0.11950691242E+02  0.22920956846E+02  0.00000000000E+00 0. -1.
</event>
<event>
 7    1  0.5290964E-013  0.5052886E+02  0.7816164E-02  0.1300439E+00
        -11   -1    0    0    0    0  0.00000000000E+00  0.00000000000E+00  0.45593999997E+02  0.45594000000E+02  0.51100000000E-03 0. -1.
         11   -1    0    0    0    0 -0.00000000000E+00 -0.00000000000E+00 -0.45593999997E+02  0.45594000000E+02  0.51100000000E-03 0.  1.
    9900012    2    1    2    0    0 -0.33727659115E+02  0.18918247410E+02 -0.12558296037E+02  0.50528857439E+02  0.29999992672E+02 0.  0.
         12    1    1    2    0    0  0.33727659115E+02 -0.18918247410E+02  0.12558296037E+02  0.40659142561E+02  0.00000000000E+00 0. -1.
         11    1    3    3    0    0 -0.38881559763E+01  0.22041374304E+01  0.55103751819E+01  0.70950837637E+01  0.51100000000E-03 0. -1.
        -11    1    3    3    0    0 -0.30775579372E+02  0.95324742059E+01 -0.15465711075E+02  0.35737831069E+02  0.51100000000E-03 0.  1.
         12    1    3    3    0    0  0.93607623320E+00  0.71816357734E+01 -0.26029601437E+01  0.76959426067E+01  0.00000000000E+00 0. -1.
</event>
<event>
 7    1  0.5290964E-013  0.5052883E+02  0.7816164E-02  0.1300439E+00
        -11   -1    0    0    0    0  0.00000000000E+00  0.00000000000E+00  0.45593999997E+02  0.45594000000E+02  0.51100000000E-03 0.  1.
         11   -1    0    0    0    0 -0.00000000000E+00 -0.00000000000E+00 -0.45593999997E+02  0.45594000000E+02  0.51100000000E-03 0. -1.
    9900012    2    1    2    0    0 -0.10602531512E+02  0.37173484173E+02  0.12605021421E+02  0.50528829263E+02  0.29999907027E+02 0.  0.
         12    1    1    2    0    0  0.10602531512E+02 -0.37173484173E+02 -0.12605021421E+02  0.40659170737E+02  0.00000000000E+00 0. -1.
         11    1    3    3    0    0 -0.33242470477E+01  0.14164104212E+01 -0.12356785843E+01  0.38188661590E+01  0.51100000000E-03 0. -1.
        -11    1    3    3    0    0 -0.87970763569E+00  0.30907297574E+02  0.24526103493E+00  0.30920787217E+02  0.51100000000E-03 0.  1.
        -12    1    3    3    0    0 -0.63985768288E+01  0.48497761778E+01  0.13595438970E+02  0.15789175887E+02  0.00000000000E+00 0.  1.
</event>
<event>
 7    1  0.5290964E-013  0.5052886E+02  0.7816164E-02  0.1300439E+00
        -11   -1    0    0    0    0  0.00000000000E+00  0.00000000000E+00  0.45593999997E+02  0.45594000000E+02  0.51100000000E-03 0.  1.
         11   -1    0    0    0    0 -0.00000000000E+00 -0.00000000000E+00 -0.45593999997E+02  0.45594000000E+02  0.51100000000E-03 0. -1.
    9900012    2    1    2    0    0 -0.13319140377E+02 -0.24338056333E+02  0.29722464726E+02  0.50528863317E+02  0.30000010538E+02 0.  0.
         12    1    1    2    0    0  0.13319140377E+02  0.24338056333E+02 -0.29722464726E+02  0.40659136683E+02  0.00000000000E+00 0. -1.
         11    1    3    3    0    0 -0.16276403388E+02 -0.14980651876E+02  0.20282215146E+02  0.30011822493E+02  0.51100000000E-03 0. -1.
        -11    1    3    3    0    0 -0.42762618509E+01 -0.10000837981E+02  0.47268302708E+01  0.11859430864E+02  0.51100000000E-03 0.  1.
         12    1    3    3    0    0  0.72335248620E+01  0.64343352421E+00  0.47134193089E+01  0.86576099596E+01  0.00000000000E+00 0. -1.
</event>
<event>
 7    1  0.5290964E-013  0.5052886E+02  0.7816164E-02  0.1300439E+00
        -11   -1    0    0    0    0  0.00000000000E+00  0.00000000000E+00  0.45593999997E+02  0.45594000000E+02  0.51100000000E-03 0. -1.
         11   -1    0    0    0    0 -0.00000000000E+00 -0.00000000000E+00 -0.45593999997E+02  0.45594000000E+02  0.51100000000E-03 0.  1.
    9900012    2    1    2    0    0  0.40094752642E+02  0.58950411098E+01  0.32901358041E+01  0.50528859665E+02  0.29999999439E+02 0.  0.
         12    1    1    2    0    0 -0.40094752642E+02 -0.58950411098E+01 -0.32901358041E+01  0.40659140335E+02  0.00000000000E+00 0. -1.
         11    1    3    3    0    0  0.11807394234E+02 -0.14993238995E+01  0.55159837389E+00  0.11914981820E+02  0.51100000000E-03 0. -1.
        -11    1    3    3    0    0  0.20333495032E+02 -0.19504525062E+01 -0.83567699952E+01  0.22070135709E+02  0.51100000000E-03 0.  1.
         12    1    3    3    0    0  0.79538633766E+01  0.93448175156E+01  0.11095307425E+02  0.16543742136E+02  0.00000000000E+00 0. -1.
</event>
<event>
 7    1  0.5290964E-013  0.5052886E+02  0.7816164E-02  0.1300439E+00
        -11   -1    0    0    0    0  0.00000000000E+00  0.00000000000E+00  0.45593999997E+02  0.45594000000E+02  0.51100000000E-03 0.  1.
         11   -1    0    0    0    0 -0.00000000000E+00 -0.00000000000E+00 -0.45593999997E+02  0.45594000000E+02  0.51100000000E-03 0. -1.
    9900012    2    1    2    0    0 -0.37842260685E+02 -0.10107294270E+02  0.10907390565E+02  0.50528864986E+02  0.30000015610E+02 0.  0.
         12    1    1    2    0    0  0.37842260685E+02  0.10107294270E+02 -0.10907390565E+02  0.40659135014E+02  0.00000000000E+00 0. -1.
         11    1    3    3    0    0  0.32140403021E+00 -0.16138577595E+01 -0.41901415406E+01  0.45016801096E+01  0.51100000000E-03 0. -1.
        -11    1    3    3    0    0  0.15617626040E+01  0.18594517019E+01  0.85587129992E+00  0.25747192092E+01  0.51100000000E-03 0.  1.
         12    1    3    3    0    0 -0.39725427319E+02 -0.10352888212E+02  0.14241660806E+02  0.43452465667E+02  0.00000000000E+00 0. -1.
</event>
<event>
 7    1  0.5290964E-013  0.5052886E+02  0.7816164E-02  0.1300439E+00
        -11   -1    0    0    0    0  0.00000000000E+00  0.00000000000E+00  0.45593999997E+02  0.45594000000E+02  0.51100000000E-03 0.  1.
         11   -1    0    0    0    0 -0.00000000000E+00 -0.00000000000E+00 -0.45593999997E+02  0.45594000000E+02  0.51100000000E-03 0. -1.
    9900012    2    1    2    0    0  0.27007745207E+02 -0.60637638716E+01  0.29782182871E+02  0.50528856502E+02  0.29999989822E+02 0.  0.
         12    1    1    2    0    0 -0.27007745207E+02  0.60637638716E+01 -0.29782182871E+02  0.40659143498E+02  0.00000000000E+00 0. -1.
         11    1    3    3    0    0  0.68702251919E+01 -0.13654311685E+01  0.18879387877E+02  0.20136923384E+02  0.51100000000E-03 0. -1.
        -11    1    3    3    0    0  0.12430078369E+01 -0.71466994402E+01  0.85219838019E+01  0.11191272919E+02  0.51100000000E-03 0.  1.
         12    1    3    3    0    0  0.18894512178E+02  0.24483667372E+01  0.23808111916E+01  0.19200660199E+02  0.00000000000E+00 0. -1.
</event>
<event>
 7    1  0.5290964E-013  0.5052887E+02  0.7816164E-02  0.1300439E+00
        -11   -1    0    0    0    0  0.00000000000E+00  0.00000000000E+00  0.45593999997E+02  0.45594000000E+02  0.51100000000E-03 0.  1.
         11   -1    0    0    0    0 -0.00000000000E+00 -0.00000000000E+00 -0.45593999997E+02  0.45594000000E+02  0.51100000000E-03 0. -1.
    9900012    2    1    2    0    0  0.13391160604E+02  0.12629181658E+01  0.38369869455E+02  0.50528867857E+02  0.30000024338E+02 0.  0.
         12    1    1    2    0    0 -0.13391160604E+02 -0.12629181658E+01 -0.38369869455E+02  0.40659132143E+02  0.00000000000E+00 0. -1.
         11    1    3    3    0    0  0.11438788059E+02  0.13562855347E+01  0.24049670927E+02  0.26665934348E+02  0.51100000000E-03 0. -1.
        -11    1    3    3    0    0  0.40105640838E+01  0.68460101796E+01  0.14602969269E+02  0.16619241601E+02  0.51100000000E-03 0.  1.
         12    1    3    3    0    0 -0.20581915384E+01 -0.69393775485E+01 -0.28277074106E+00  0.72436919082E+01  0.00000000000E+00 0. -1.
</event>
<event>
 7    1  0.5290964E-013  0.5052886E+02  0.7816164E-02  0.1300439E+00
        -11   -1    0    0    0    0  0.00000000000E+00  0.00000000000E+00  0.45593999997E+02  0.45594000000E+02  0.51100000000E-03 0. -1.
         11   -1    0    0    0    0 -0.00000000000E+00 -0.00000000000E+00 -0.45593999997E+02  0.45594000000E+02  0.51100000000E-03 0.  1.
    9900012    2    1    2    0    0  0.27047055737E+02  0.27479684599E+02 -0.12903067676E+02  0.50528862711E+02  0.30000008696E+02 0.  0.
         12    1    1    2    0    0 -0.27047055737E+02 -0.27479684599E+02  0.12903067676E+02  0.40659137289E+02  0.00000000000E+00 0. -1.
         11    1    3    3    0    0  0.50616183180E+01  0.63790796202E+01 -0.16457791083E+02  0.18362230921E+02  0.51100000000E-03 0.  1.
        -11    1    3    3    0    0  0.31188874888E+01  0.14026694045E+01  0.34967389275E+01  0.48910248429E+01  0.51100000000E-03 0. -1.
        -12    1    3    3    0    0  0.18866549930E+02  0.19697935574E+02  0.57984479894E-01  0.27275606947E+02  0.00000000000E+00 0.  1.
</event>
<event>
 7    1  0.5290964E-013  0.5052886E+02  0.7816164E-02  0.1300439E+00
        -11   -1    0    0    0    0  0.00000000000E+00  0.00000000000E+00  0.45593999997E+02  0.45594000000E+02  0.51100000000E-03 0.  1.
         11   -1    0    0    0    0 -0.00000000000E+00 -0.00000000000E+00 -0.45593999997E+02  0.45594000000E+02  0.51100000000E-03 0. -1.
    9900012    2    1    2    0    0  0.12089037328E+01 -0.40577535119E+02 -0.22733626729E+01  0.50528856104E+02  0.29999988613E+02 0.  0.
         12    1    1    2    0    0 -0.12089037328E+01  0.40577535119E+02  0.22733626729E+01  0.40659143896E+02  0.00000000000E+00 0. -1.
         11    1    3    3    0    0 -0.99140238615E+01 -0.13308667659E+02 -0.19276811899E+01  0.16707018256E+02  0.51100000000E-03 0. -1.
        -11    1    3    3    0    0  0.41095881849E+01 -0.12457801814E+02 -0.83844640476E+01  0.15568711530E+02  0.51100000000E-03 0.  1.
        -12    1    3    3    0    0  0.70133394094E+01 -0.14811065646E+02  0.80387825646E+01  0.18253126317E+02  0.00000000000E+00 0.  1.
</event>
<event>
 7    1  0.5290964E-013  0.5052885E+02  0.7816164E-02  0.1300439E+00
        -11   -1    0    0    0    0  0.00000000000E+00  0.00000000000E+00  0.45593999997E+02  0.45594000000E+02  0.51100000000E-03 0.  1.
         11   -1    0    0    0    0 -0.00000000000E+00 -0.00000000000E+00 -0.45593999997E+02  0.45594000000E+02  0.51100000000E-03 0. -1.
    9900012    2    1    2    0    0  0.32856460472E+02  0.21238008533E+02  0.11070969828E+02  0.50528851286E+02  0.29999973968E+02 0.  0.
         12    1    1    2    0    0 -0.32856460472E+02 -0.21238008533E+02 -0.11070969828E+02  0.40659148714E+02  0.00000000000E+00 0. -1.
         11    1    3    3    0    0  0.12982027878E+02  0.11346853284E+02  0.49284849997E+01  0.17932487054E+02  0.51100000000E-03 0. -1.
        -11    1    3    3    0    0  0.18592560951E+02  0.98263612370E+01  0.13590334955E+02  0.25038728049E+02  0.51100000000E-03 0.  1.
         12    1    3    3    0    0  0.12818716440E+01  0.64794011762E-01 -0.74478501263E+01  0.75576361833E+01  0.00000000000E+00 0. -1.
</event>
<event>
 7    1  0.5290964E-013  0.5052888E+02  0.7816164E-02  0.1300439E+00
        -11   -1    0    0    0    0  0.00000000000E+00  0.00000000000E+00  0.45593999997E+02  0.45594000000E+02  0.51100000000E-03 0. -1.
         11   -1    0    0    0    0 -0.00000000000E+00 -0.00000000000E+00 -0.45593999997E+02  0.45594000000E+02  0.51100000000E-03 0.  1.
    9900012    2    1    2    0    0  0.29200771238E+02  0.27938121447E+02  0.44654799721E+01  0.50528878240E+02  0.30000055898E+02 0.  0.
         12    1    1    2    0    0 -0.29200771238E+02 -0.27938121447E+02 -0.44654799721E+01  0.40659121760E+02  0.00000000000E+00 0. -1.
         11    1    3    3    0    0  0.16582030337E+02  0.88442417466E+01 -0.38038183602E+01  0.19174289466E+02  0.51100000000E-03 0. -1.
        -11    1    3    3    0    0  0.13688834383E+02  0.13533736392E+02 -0.22776506531E+01  0.19383856692E+02  0.51100000000E-03 0.  1.
         12    1    3    3    0    0 -0.10700934814E+01  0.55601433082E+01  0.10546948985E+02  0.11970732082E+02  0.00000000000E+00 0. -1.
</event>
<event>
 7    1  0.5290964E-013  0.5052887E+02  0.7816164E-02  0.1300439E+00
        -11   -1    0    0    0    0  0.00000000000E+00  0.00000000000E+00  0.45593999997E+02  0.45594000000E+02  0.51100000000E-03 0.  1.
         11   -1    0    0    0    0 -0.00000000000E+00 -0.00000000000E+00 -0.45593999997E+02  0.45594000000E+02  0.51100000000E-03 0. -1.
    9900012    2    1    2    0    0 -0.45222263573E+01  0.26048595047E+02  0.30889879059E+02  0.50528874783E+02  0.30000045389E+02 0.  0.
         12    1    1    2    0    0  0.45222263573E+01 -0.26048595047E+02 -0.30889879059E+02  0.40659125217E+02  0.00000000000E+00 0. -1.
         11    1    3    3    0    0 -0.35333612721E+01  0.62269970283E+00  0.72044332021E+01  0.80483696998E+01  0.51100000000E-03 0. -1.
        -11    1    3    3    0    0 -0.91136383471E+01  0.11128967684E+02  0.94248708500E+00  0.14415290763E+02  0.51100000000E-03 0.  1.
         12    1    3    3    0    0  0.81247732620E+01  0.14296927661E+02  0.22742958772E+02  0.28065214319E+02  0.00000000000E+00 0. -1.
</event>
<event>
 7    1  0.5290964E-013  0.5052886E+02  0.7816164E-02  0.1300439E+00
        -11   -1    0    0    0    0  0.00000000000E+00  0.00000000000E+00  0.45593999997E+02  0.45594000000E+02  0.51100000000E-03 0.  1.
         11   -1    0    0    0    0 -0.00000000000E+00 -0.00000000000E+00 -0.45593999997E+02  0.45594000000E+02  0.51100000000E-03 0. -1.
    9900012    2    1    2    0    0 -0.36830399244E+02  0.14793195065E+02 -0.88231940023E+01  0.50528859808E+02  0.29999999874E+02 0.  0.
         12    1    1    2    0    0  0.36830399244E+02 -0.14793195065E+02  0.88231940023E+01  0.40659140192E+02  0.00000000000E+00 0. -1.
         11    1    3    3    0    0 -0.12817830806E+01  0.52822675140E+01  0.86651930249E+00  0.55041960283E+01  0.51100000000E-03 0. -1.
        -11    1    3    3    0    0  0.11401342384E+01 -0.21109174961E+01 -0.58805725118E+01  0.63511425811E+01  0.51100000000E-03 0.  1.
        -12    1    3    3    0    0 -0.36688750402E+02  0.11621845047E+02 -0.38091407929E+01  0.38673521199E+02  0.00000000000E+00 0.  1.
</event>
<event>
 7    1  0.5290964E-013  0.5052887E+02  0.7816164E-02  0.1300439E+00
        -11   -1    0    0    0    0  0.00000000000E+00  0.00000000000E+00  0.45593999997E+02  0.45594000000E+02  0.51100000000E-03 0. -1.
         11   -1    0    0    0    0 -0.00000000000E+00 -0.00000000000E+00 -0.45593999997E+02  0.45594000000E+02  0.51100000000E-03 0.  1.
    9900012    2    1    2    0    0  0.20381681260E+01  0.17314929108E+02 -0.36731511065E+02  0.50528870590E+02  0.30000032644E+02 0.  0.
         12    1    1    2    0    0 -0.20381681260E+01 -0.17314929108E+02  0.36731511065E+02  0.40659129410E+02  0.00000000000E+00 0. -1.
         11    1    3    3    0    0 -0.62505108402E+01  0.10131640722E+02 -0.50671156409E+01  0.12938110011E+02  0.51100000000E-03 0. -1.
        -11    1    3    3    0    0 -0.34264617462E+00  0.54994308632E+01 -0.88623090148E+00  0.55809095757E+01  0.51100000000E-03 0.  1.
        -12    1    3    3    0    0  0.86313251408E+01  0.16838575227E+01 -0.30778164522E+02  0.32009851002E+02  0.00000000000E+00 0.  1.
</event>
<event>
 7    1  0.5290964E-013  0.5052884E+02  0.7816164E-02  0.1300439E+00
        -11   -1    0    0    0    0  0.00000000000E+00  0.00000000000E+00  0.45593999997E+02  0.45594000000E+02  0.51100000000E-03 0.  1.
         11   -1    0    0    0    0 -0.00000000000E+00 -0.00000000000E+00 -0.45593999997E+02  0.45594000000E+02  0.51100000000E-03 0. -1.
    9900012    2    1    2    0    0  0.13766357835E+02  0.37423899954E+02  0.79439516231E+01  0.50528840353E+02  0.29999940736E+02 0.  0.
         12    1    1    2    0    0 -0.13766357835E+02 -0.37423899954E+02 -0.79439516231E+01  0.40659159647E+02  0.00000000000E+00 0. -1.
         11    1    3    3    0    0  0.16550093473E+02  0.25863171694E+02  0.26901087770E-01  0.30705210762E+02  0.51100000000E-03 0. -1.
        -11    1    3    3    0    0  0.35213163483E+01  0.11275018603E+02  0.44499386669E+01  0.12622506396E+02  0.51100000000E-03 0.  1.
        -12    1    3    3    0    0 -0.63050519857E+01  0.28570965709E+00  0.34671118684E+01  0.72011231942E+01  0.00000000000E+00 0.  1.
</event>
<event>
 7    1  0.5290964E-013  0.5052886E+02  0.7816164E-02  0.1300439E+00
        -11   -1    0    0    0    0  0.00000000000E+00  0.00000000000E+00  0.45593999997E+02  0.45594000000E+02  0.51100000000E-03 0.  1.
         11   -1    0    0    0    0 -0.00000000000E+00 -0.00000000000E+00 -0.45593999997E+02  0.45594000000E+02  0.51100000000E-03 0. -1.
    9900012    2    1    2    0    0  0.33531052323E+02 -0.19098206643E+02  0.12809856740E+02  0.50528863308E+02  0.30000010510E+02 0.  0.
         12    1    1    2    0    0 -0.33531052323E+02  0.19098206643E+02 -0.12809856740E+02  0.40659136692E+02  0.00000000000E+00 0. -1.
         11    1    3    3    0    0  0.11161248682E+02  0.89414782292E+00 -0.24958052126E+01  0.11471792204E+02  0.51100000000E-03 0. -1.
        -11    1    3    3    0    0  0.98740600131E+01 -0.89497204831E+01  0.17757583713E+02  0.22201944452E+02  0.51100000000E-03 0.  1.
         12    1    3    3    0    0  0.12495743629E+02 -0.11042633983E+02 -0.24519217607E+01  0.16855126651E+02  0.00000000000E+00 0. -1.
</event>
<event>
 7    1  0.5290964E-013  0.5052887E+02  0.7816164E-02  0.1300439E+00
        -11   -1    0    0    0    0  0.00000000000E+00  0.00000000000E+00  0.45593999997E+02  0.45594000000E+02  0.51100000000E-03 0.  1.
         11   -1    0    0    0    0 -0.00000000000E+00 -0.00000000000E+00 -0.45593999997E+02  0.45594000000E+02  0.51100000000E-03 0. -1.
    9900012    2    1    2    0    0 -0.24892329727E+01 -0.30500120603E+02  0.26771456072E+02  0.50528874360E+02  0.30000044104E+02 0.  0.
         12    1    1    2    0    0  0.24892329727E+01  0.30500120603E+02 -0.26771456072E+02  0.40659125640E+02  0.00000000000E+00 0. -1.
         11    1    3    3    0    0 -0.26206921368E+01 -0.47377684607E+00  0.65568526351E+00  0.27427021716E+01  0.51100000000E-03 0. -1.
        -11    1    3    3    0    0  0.54569085641E+01 -0.71982965324E+01 -0.37836552402E+01  0.97933330018E+01  0.51100000000E-03 0.  1.
        -12    1    3    3    0    0 -0.53254494000E+01 -0.22828047225E+02  0.29899426049E+02  0.37992839187E+02  0.00000000000E+00 0.  1.
</event>
<event>
 7    1  0.5290964E-013  0.5052885E+02  0.7816164E-02  0.1300439E+00
        -11   -1    0    0    0    0  0.00000000000E+00  0.00000000000E+00  0.45593999997E+02  0.45594000000E+02  0.51100000000E-03 0.  1.
         11   -1    0    0    0    0 -0.00000000000E+00 -0.00000000000E+00 -0.45593999997E+02  0.45594000000E+02  0.51100000000E-03 0. -1.
    9900012    2    1    2    0    0  0.37740505583E+02 -0.15086892004E+02  0.10982862958E+01  0.50528852140E+02  0.29999976563E+02 0.  0.
         12    1    1    2    0    0 -0.37740505583E+02  0.15086892004E+02 -0.10982862958E+01  0.40659147860E+02  0.00000000000E+00 0. -1.
         11    1    3    3    0    0  0.58936270081E+01 -0.30161823152E+01  0.99761696539E+01  0.11973143125E+02  0.51100000000E-03 0. -1.
        -11    1    3    3    0    0  0.10063918541E+02 -0.90050680856E+01 -0.95626205655E+01  0.16547429407E+02  0.51100000000E-03 0.  1.
        -12    1    3    3    0    0  0.21782960033E+02 -0.30656416028E+01  0.68473720735E+00  0.22008279608E+02  0.00000000000E+00 0.  1.
</event>
<event>
 7    1  0.5290964E-013  0.5052886E+02  0.7816164E-02  0.1300439E+00
        -11   -1    0    0    0    0  0.00000000000E+00  0.00000000000E+00  0.45593999997E+02  0.45594000000E+02  0.51100000000E-03 0.  1.
         11   -1    0    0    0    0 -0.00000000000E+00 -0.00000000000E+00 -0.45593999997E+02  0.45594000000E+02  0.51100000000E-03 0. -1.
    9900012    2    1    2    0    0  0.38049317523E+02  0.14314748945E+02 -0.70918387428E+00  0.50528861506E+02  0.30000005032E+02 0.  0.
         12    1    1    2    0    0 -0.38049317523E+02 -0.14314748945E+02  0.70918387428E+00  0.40659138494E+02  0.00000000000E+00 0. -1.
         11    1    3    3    0    0  0.55454814579E+01  0.92907881801E+01 -0.28596256904E+01  0.11191450708E+02  0.51100000000E-03 0. -1.
        -11    1    3    3    0    0  0.21573908853E+01  0.81725570964E+01 -0.15862937498E+01  0.86000786652E+01  0.51100000000E-03 0.  1.
        -12    1    3    3    0    0  0.30346445180E+02 -0.31485963311E+01  0.37367355660E+01  0.30737332132E+02  0.00000000000E+00 0.  1.
</event>
<event>
 7    1  0.5290964E-013  0.5052887E+02  0.7816164E-02  0.1300439E+00
        -11   -1    0    0    0    0  0.00000000000E+00  0.00000000000E+00  0.45593999997E+02  0.45594000000E+02  0.51100000000E-03 0.  1.
         11   -1    0    0    0    0 -0.00000000000E+00 -0.00000000000E+00 -0.45593999997E+02  0.45594000000E+02  0.51100000000E-03 0. -1.
    9900012    2    1    2    0    0 -0.12911526949E+01 -0.57079351379E+01  0.40235770292E+02  0.50528870523E+02  0.30000032442E+02 0.  0.
         12    1    1    2    0    0  0.12911526949E+01  0.57079351379E+01 -0.40235770292E+02  0.40659129477E+02  0.00000000000E+00 0. -1.
         11    1    3    3    0    0  0.70826819460E+01  0.91818581308E+01  0.22108934221E+02  0.24965493685E+02  0.51100000000E-03 0. -1.
        -11    1    3    3    0    0 -0.20577872850E+01 -0.95016881895E+01  0.99165631858E+01  0.13887216879E+02  0.51100000000E-03 0.  1.
        -12    1    3    3    0    0 -0.63160473559E+01 -0.53881050792E+01  0.82102728854E+01  0.11676159959E+02  0.00000000000E+00 0.  1.
</event>
<event>
 7    1  0.5290964E-013  0.5052885E+02  0.7816164E-02  0.1300439E+00
        -11   -1    0    0    0    0  0.00000000000E+00  0.00000000000E+00  0.45593999997E+02  0.45594000000E+02  0.51100000000E-03 0.  1.
         11   -1    0    0    0    0 -0.00000000000E+00 -0.00000000000E+00 -0.45593999997E+02  0.45594000000E+02  0.51100000000E-03 0. -1.
    9900012    2    1    2    0    0  0.58624696634E+00  0.40029571657E+02  0.71032695317E+01  0.50528846902E+02  0.29999960644E+02 0.  0.
         12    1    1    2    0    0 -0.58624696634E+00 -0.40029571657E+02 -0.71032695317E+01  0.40659153098E+02  0.00000000000E+00 0. -1.
         11    1    3    3    0    0  0.78989966341E+01  0.42567056612E+01 -0.26839876064E+01  0.93657610819E+01  0.51100000000E-03 0. -1.
        -11    1    3    3    0    0  0.47911083194E+01  0.63946114282E+01  0.27213804771E+00  0.79949880315E+01  0.51100000000E-03 0.  1.
         12    1    3    3    0    0 -0.12103857987E+02  0.29378254568E+02  0.95151190904E+01  0.33168097789E+02  0.00000000000E+00 0. -1.
</event>
<event>
 7    1  0.5290964E-013  0.5052871E+02  0.7816164E-02  0.1300439E+00
        -11   -1    0    0    0    0  0.00000000000E+00  0.00000000000E+00  0.45593999997E+02  0.45594000000E+02  0.51100000000E-03 0.  1.
         11   -1    0    0    0    0 -0.00000000000E+00 -0.00000000000E+00 -0.45593999997E+02  0.45594000000E+02  0.51100000000E-03 0. -1.
    9900012    2    1    2    0    0 -0.24562142804E+02 -0.12871589458E+02  0.29735517064E+02  0.50528712631E+02  0.29999552509E+02 0.  0.
         12    1    1    2    0    0  0.24562142804E+02  0.12871589458E+02 -0.29735517064E+02  0.40659287369E+02  0.00000000000E+00 0. -1.
         11    1    3    3    0    0 -0.26404139253E+01  0.20521471445E+01  0.86171255770E+01  0.92432649573E+01  0.51100000000E-03 0. -1.
        -11    1    3    3    0    0 -0.25593472890E+02 -0.66806517987E+01  0.15839124321E+02  0.30830744761E+02  0.51100000000E-03 0.  1.
         12    1    3    3    0    0  0.36717440110E+01 -0.82430848042E+01  0.52792671658E+01  0.10454702912E+02  0.00000000000E+00 0. -1.
</event>
<event>
 7    1  0.5290964E-013  0.5052886E+02  0.7816164E-02  0.1300439E+00
        -11   -1    0    0    0    0  0.00000000000E+00  0.00000000000E+00  0.45593999997E+02  0.45594000000E+02  0.51100000000E-03 0.  1.
         11   -1    0    0    0    0 -0.00000000000E+00 -0.00000000000E+00 -0.45593999997E+02  0.45594000000E+02  0.51100000000E-03 0. -1.
    9900012    2    1    2    0    0  0.61169129258E+00 -0.37071912313E+02 -0.16687275720E+02  0.50528855644E+02  0.29999987216E+02 0.  0.
         12    1    1    2    0    0 -0.61169129258E+00  0.37071912313E+02  0.16687275720E+02  0.40659144356E+02  0.00000000000E+00 0. -1.
         11    1    3    3    0    0  0.52184829446E+01 -0.27422113620E+01 -0.11320970801E+02  0.12763881366E+02  0.51100000000E-03 0. -1.
        -11    1    3    3    0    0  0.32343556658E+01 -0.24768443756E+01  0.13286198040E+01  0.42849790523E+01  0.51100000000E-03 0.  1.
        -12    1    3    3    0    0 -0.78411473178E+01 -0.31852856575E+02 -0.66949247239E+01  0.33479995226E+02  0.00000000000E+00 0.  1.
</event>
<event>
 7    1  0.5290964E-013  0.5052886E+02  0.7816164E-02  0.1300439E+00
        -11   -1    0    0    0    0  0.00000000000E+00  0.00000000000E+00  0.45593999997E+02  0.45594000000E+02  0.51100000000E-03 0.  1.
         11   -1    0    0    0    0 -0.00000000000E+00 -0.00000000000E+00 -0.45593999997E+02  0.45594000000E+02  0.51100000000E-03 0. -1.
    9900012    2    1    2    0    0 -0.32610892034E+02 -0.69969962877E+01  0.23253760244E+02  0.50528860784E+02  0.30000002839E+02 0.  0.
         12    1    1    2    0    0  0.32610892034E+02  0.69969962877E+01 -0.23253760244E+02  0.40659139216E+02  0.00000000000E+00 0. -1.
         11    1    3    3    0    0  0.25085018977E+01 -0.21166478942E+01  0.15581724096E+01  0.36332742256E+01  0.51100000000E-03 0.  1.
        -11    1    3    3    0    0 -0.72196184716E+01 -0.92578440899E+01  0.80520765576E+00  0.11767706986E+02  0.51100000000E-03 0. -1.
         12    1    3    3    0    0 -0.27899775460E+02  0.43774956964E+01  0.20890380179E+02  0.35127879573E+02  0.00000000000E+00 0. -1.
</event>
<event>
 7    1  0.5290964E-013  0.5052886E+02  0.7816164E-02  0.1300439E+00
        -11   -1    0    0    0    0  0.00000000000E+00  0.00000000000E+00  0.45593999997E+02  0.45594000000E+02  0.51100000000E-03 0. -1.
         11   -1    0    0    0    0 -0.00000000000E+00 -0.00000000000E+00 -0.45593999997E+02  0.45594000000E+02  0.51100000000E-03 0.  1.
    9900012    2    1    2    0    0  0.30321882993E+02  0.15001696274E+02  0.22554334047E+02  0.50528862483E+02  0.30000008004E+02 0.  0.
         12    1    1    2    0    0 -0.30321882993E+02 -0.15001696274E+02 -0.22554334047E+02  0.40659137517E+02  0.00000000000E+00 0. -1.
         11    1    3    3    0    0  0.28268730239E+00 -0.32996034826E+01 -0.29159716667E+01  0.44125034024E+01  0.51100000000E-03 0. -1.
        -11    1    3    3    0    0 -0.79984026469E+00 -0.13729099196E+01  0.85930070546E-01  0.15912291898E+01  0.51100000000E-03 0.  1.
        -12    1    3    3    0    0  0.30839035955E+02  0.19674209676E+02  0.25384375643E+02  0.44525129891E+02  0.00000000000E+00 0.  1.
</event>
<event>
 7    1  0.5290964E-013  0.5052885E+02  0.7816164E-02  0.1300439E+00
        -11   -1    0    0    0    0  0.00000000000E+00  0.00000000000E+00  0.45593999997E+02  0.45594000000E+02  0.51100000000E-03 0. -1.
         11   -1    0    0    0    0 -0.00000000000E+00 -0.00000000000E+00 -0.45593999997E+02  0.45594000000E+02  0.51100000000E-03 0.  1.
    9900012    2    1    2    0    0 -0.33162476762E+02  0.21269913173E+02  0.10050226342E+02  0.50528854400E+02  0.29999983435E+02 0.  0.
         12    1    1    2    0    0  0.33162476762E+02 -0.21269913173E+02 -0.10050226342E+02  0.40659145600E+02  0.00000000000E+00 0. -1.
         11    1    3    3    0    0 -0.77726901485E+01 -0.39197232366E+01  0.36755953353E+01  0.94492827096E+01  0.51100000000E-03 0. -1.
        -11    1    3    3    0    0 -0.24299970884E+02  0.15296295045E+02  0.10120470486E+02  0.30444854248E+02  0.51100000000E-03 0.  1.
        -12    1    3    3    0    0 -0.10898157298E+01  0.98933413640E+01 -0.37458394800E+01  0.10634717442E+02  0.00000000000E+00 0.  1.
</event>
<event>
 7    1  0.5290964E-013  0.5052886E+02  0.7816164E-02  0.1300439E+00
        -11   -1    0    0    0    0  0.00000000000E+00  0.00000000000E+00  0.45593999997E+02  0.45594000000E+02  0.51100000000E-03 0.  1.
         11   -1    0    0    0    0 -0.00000000000E+00 -0.00000000000E+00 -0.45593999997E+02  0.45594000000E+02  0.51100000000E-03 0. -1.
    9900012    2    1    2    0    0  0.20673821252E+01 -0.34142715411E+02 -0.21981056424E+02  0.50528856797E+02  0.29999990720E+02 0.  0.
         12    1    1    2    0    0 -0.20673821252E+01  0.34142715411E+02  0.21981056424E+02  0.40659143203E+02  0.00000000000E+00 0. -1.
         11    1    3    3    0    0  0.44615998019E+01 -0.16491976413E+02 -0.53064649520E+01  0.17889933743E+02  0.51100000000E-03 0. -1.
        -11    1    3    3    0    0  0.50868804635E+01 -0.19053124785E+02 -0.85146659910E+01  0.21480164201E+02  0.51100000000E-03 0.  1.
         12    1    3    3    0    0 -0.74810981402E+01  0.14023857862E+01 -0.81599254812E+01  0.11158758853E+02  0.00000000000E+00 0. -1.
</event>
<event>
 7    1  0.5290964E-013  0.5052886E+02  0.7816164E-02  0.1300439E+00
        -11   -1    0    0    0    0  0.00000000000E+00  0.00000000000E+00  0.45593999997E+02  0.45594000000E+02  0.51100000000E-03 0. -1.
         11   -1    0    0    0    0 -0.00000000000E+00 -0.00000000000E+00 -0.45593999997E+02  0.45594000000E+02  0.51100000000E-03 0.  1.
    9900012    2    1    2    0    0  0.39193528010E+02 -0.69636955221E+01 -0.82788797091E+01  0.50528861514E+02  0.30000005056E+02 0.  0.
         12    1    1    2    0    0 -0.39193528010E+02  0.69636955221E+01  0.82788797091E+01  0.40659138486E+02  0.00000000000E+00 0. -1.
         11    1    3    3    0    0  0.38109370689E+01 -0.20377999205E+01  0.59282156040E+01  0.73361850010E+01  0.51100000000E-03 0. -1.
        -11    1    3    3    0    0  0.10301145243E+02 -0.54950329367E+01  0.38372665436E+01  0.12289572616E+02  0.51100000000E-03 0.  1.
        -12    1    3    3    0    0  0.25081445698E+02  0.56913733512E+00 -0.18044361857E+02  0.30903103896E+02  0.00000000000E+00 0.  1.
</event>
<event>
 7    1  0.5290964E-013  0.5052888E+02  0.7816164E-02  0.1300439E+00
        -11   -1    0    0    0    0  0.00000000000E+00  0.00000000000E+00  0.45593999997E+02  0.45594000000E+02  0.51100000000E-03 0.  1.
         11   -1    0    0    0    0 -0.00000000000E+00 -0.00000000000E+00 -0.45593999997E+02  0.45594000000E+02  0.51100000000E-03 0. -1.
    9900012    2    1    2    0    0  0.32636423376E+02  0.15175027003E+02  0.18914190983E+02  0.50528878074E+02  0.30000055392E+02 0.  0.
         12    1    1    2    0    0 -0.32636423376E+02 -0.15175027003E+02 -0.18914190983E+02  0.40659121926E+02  0.00000000000E+00 0. -1.
         11    1    3    3    0    0  0.13585290272E+02  0.70160214616E+00  0.42243464816E+00  0.13609952558E+02  0.51100000000E-03 0. -1.
        -11    1    3    3    0    0  0.20473556681E+02  0.17730638211E+02  0.19320957210E+02  0.33269226656E+02  0.51100000000E-03 0.  1.
         12    1    3    3    0    0 -0.14224235769E+01 -0.32572133543E+01 -0.82920087582E+00  0.36496988588E+01  0.00000000000E+00 0. -1.
</event>
<event>
 7    1  0.5290964E-013  0.5052886E+02  0.7816164E-02  0.1300439E+00
        -11   -1    0    0    0    0  0.00000000000E+00  0.00000000000E+00  0.45593999997E+02  0.45594000000E+02  0.51100000000E-03 0.  1.
         11   -1    0    0    0    0 -0.00000000000E+00 -0.00000000000E+00 -0.45593999997E+02  0.45594000000E+02  0.51100000000E-03 0. -1.
    9900012    2    1    2    0    0 -0.34613588049E+02 -0.69349858380E+01  0.20173527099E+02  0.50528859554E+02  0.29999999101E+02 0.  0.
         12    1    1    2    0    0  0.34613588049E+02  0.69349858380E+01 -0.20173527099E+02  0.40659140446E+02  0.00000000000E+00 0. -1.
         11    1    3    3    0    0 -0.12209449739E+02  0.60116226469E+01  0.39743147123E+01  0.14177638995E+02  0.51100000000E-03 0. -1.
        -11    1    3    3    0    0 -0.21911708647E+02 -0.27622343234E+01  0.88971132894E+01  0.23809904230E+02  0.51100000000E-03 0.  1.
         12    1    3    3    0    0 -0.49242966231E+00 -0.10184374162E+02  0.73020990975E+01  0.12541316329E+02  0.00000000000E+00 0. -1.
</event>
<event>
 7    1  0.5290964E-013  0.5052886E+02  0.7816164E-02  0.1300439E+00
        -11   -1    0    0    0    0  0.00000000000E+00  0.00000000000E+00  0.45593999997E+02  0.45594000000E+02  0.51100000000E-03 0. -1.
         11   -1    0    0    0    0 -0.00000000000E+00 -0.00000000000E+00 -0.45593999997E+02  0.45594000000E+02  0.51100000000E-03 0.  1.
    9900012    2    1    2    0    0 -0.25011560239E+02 -0.11193144539E+02 -0.30038323337E+02  0.50528862046E+02  0.30000006674E+02 0.  0.
         12    1    1    2    0    0  0.25011560239E+02  0.11193144539E+02  0.30038323337E+02  0.40659137954E+02  0.00000000000E+00 0. -1.
         11    1    3    3    0    0 -0.10526136729E+02 -0.73815711159E+00  0.59095709673E+00  0.10568522172E+02  0.51100000000E-03 0. -1.
        -11    1    3    3    0    0 -0.12616981562E+02  0.15949303477E+01 -0.10813308232E+02  0.16693102220E+02  0.51100000000E-03 0.  1.
         12    1    3    3    0    0 -0.18684419482E+01 -0.12049917775E+02 -0.19815972202E+02  0.23267237653E+02  0.00000000000E+00 0. -1.
</event>
<event>
 7    1  0.5290964E-013  0.5052885E+02  0.7816164E-02  0.1300439E+00
        -11   -1    0    0    0    0  0.00000000000E+00  0.00000000000E+00  0.45593999997E+02  0.45594000000E+02  0.51100000000E-03 0.  1.
         11   -1    0    0    0    0 -0.00000000000E+00 -0.00000000000E+00 -0.45593999997E+02  0.45594000000E+02  0.51100000000E-03 0. -1.
    9900012    2    1    2    0    0  0.82956710533E+01  0.15825732354E+02  0.36522515399E+02  0.50528854733E+02  0.29999984447E+02 0.  0.
         12    1    1    2    0    0 -0.82956710533E+01 -0.15825732354E+02 -0.36522515399E+02  0.40659145267E+02  0.00000000000E+00 0. -1.
         11    1    3    3    0    0  0.63833964671E+01  0.41851842442E+01  0.12392253381E+02  0.14554431000E+02  0.51100000000E-03 0. -1.
        -11    1    3    3    0    0  0.21468903582E+01  0.10339238737E+02  0.29034441827E+02  0.30895109780E+02  0.51100000000E-03 0.  1.
        -12    1    3    3    0    0 -0.23461577193E+00  0.13013093728E+01 -0.49041798086E+01  0.50793139536E+01  0.00000000000E+00 0.  1.
</event>
<event>
 7    1  0.5290964E-013  0.5052886E+02  0.7816164E-02  0.1300439E+00
        -11   -1    0    0    0    0  0.00000000000E+00  0.00000000000E+00  0.45593999997E+02  0.45594000000E+02  0.51100000000E-03 0.  1.
         11   -1    0    0    0    0 -0.00000000000E+00 -0.00000000000E+00 -0.45593999997E+02  0.45594000000E+02  0.51100000000E-03 0. -1.
    9900012    2    1    2    0    0  0.80582879591E+01 -0.30170327466E+02  0.26038063445E+02  0.50528863115E+02  0.30000009924E+02 0.  0.
         12    1    1    2    0    0 -0.80582879591E+01  0.30170327466E+02 -0.26038063445E+02  0.40659136885E+02  0.00000000000E+00 0. -1.
         11    1    3    3    0    0  0.81144730212E+01 -0.24177252741E+01  0.56824346319E+01  0.10197064848E+02  0.51100000000E-03 0. -1.
        -11    1    3    3    0    0  0.80829041042E+01 -0.28640298824E+01  0.40416520317E+01  0.94800293950E+01  0.51100000000E-03 0.  1.
        -12    1    3    3    0    0 -0.81390891663E+01 -0.24888572310E+02  0.16313976781E+02  0.30851768872E+02  0.00000000000E+00 0.  1.
</event>
<event>
 7    1  0.5290964E-013  0.5052886E+02  0.7816164E-02  0.1300439E+00
        -11   -1    0    0    0    0  0.00000000000E+00  0.00000000000E+00  0.45593999997E+02  0.45594000000E+02  0.51100000000E-03 0.  1.
         11   -1    0    0    0    0 -0.00000000000E+00 -0.00000000000E+00 -0.45593999997E+02  0.45594000000E+02  0.51100000000E-03 0. -1.
    9900012    2    1    2    0    0 -0.31320471036E+02 -0.18532276336E+02  0.18131423153E+02  0.50528859851E+02  0.30000000003E+02 0.  0.
         12    1    1    2    0    0  0.31320471036E+02  0.18532276336E+02 -0.18131423153E+02  0.40659140149E+02  0.00000000000E+00 0. -1.
         11    1    3    3    0    0 -0.88922400071E+01 -0.39213666962E+00  0.84222110073E+01  0.12253952098E+02  0.51100000000E-03 0. -1.
        -11    1    3    3    0    0 -0.24364043908E+02 -0.16556446034E+02  0.14528634482E+02  0.32845148211E+02  0.51100000000E-03 0.  1.
         12    1    3    3    0    0  0.19358128788E+01 -0.15836936329E+01 -0.48194223366E+01  0.54297595419E+01  0.00000000000E+00 0. -1.
</event>
<event>
 7    1  0.5290964E-013  0.5052888E+02  0.7816164E-02  0.1300439E+00
        -11   -1    0    0    0    0  0.00000000000E+00  0.00000000000E+00  0.45593999997E+02  0.45594000000E+02  0.51100000000E-03 0.  1.
         11   -1    0    0    0    0 -0.00000000000E+00 -0.00000000000E+00 -0.45593999997E+02  0.45594000000E+02  0.51100000000E-03 0. -1.
    9900012    2    1    2    0    0  0.85563895544E+01  0.36945400219E+01  0.39576545798E+02  0.50528875496E+02  0.30000047557E+02 0.  0.
         12    1    1    2    0    0 -0.85563895544E+01 -0.36945400219E+01 -0.39576545798E+02  0.40659124504E+02  0.00000000000E+00 0. -1.
         11    1    3    3    0    0 -0.53034865788E+01  0.11556055235E+02  0.12057545373E+02  0.17522950185E+02  0.51100000000E-03 0. -1.
        -11    1    3    3    0    0  0.61816861518E+00  0.17001557956E+01  0.19012107280E+01  0.26243598571E+01  0.51100000000E-03 0.  1.
        -12    1    3    3    0    0  0.13241707518E+02 -0.95616710091E+01  0.25617789697E+02  0.30381565454E+02  0.00000000000E+00 0.  1.
</event>
<event>
 7    1  0.5290964E-013  0.5052886E+02  0.7816164E-02  0.1300439E+00
        -11   -1    0    0    0    0  0.00000000000E+00  0.00000000000E+00  0.45593999997E+02  0.45594000000E+02  0.51100000000E-03 0. -1.
         11   -1    0    0    0    0 -0.00000000000E+00 -0.00000000000E+00 -0.45593999997E+02  0.45594000000E+02  0.51100000000E-03 0.  1.
    9900012    2    1    2    0    0 -0.39805174959E+02  0.80392409727E+01 -0.20210522904E+01  0.50528855871E+02  0.29999987905E+02 0.  0.
         12    1    1    2    0    0  0.39805174959E+02 -0.80392409727E+01  0.20210522904E+01  0.40659144129E+02  0.00000000000E+00 0. -1.
         11    1    3    3    0    0  0.31841262807E+01 -0.38501931397E+01 -0.77589067454E+00  0.50561501149E+01  0.51100000000E-03 0. -1.
        -11    1    3    3    0    0 -0.24037127148E+01 -0.13083742474E+01 -0.53914904062E+00  0.27893296571E+01  0.51100000000E-03 0.  1.
        -12    1    3    3    0    0 -0.40585588525E+02  0.13197808360E+02 -0.70601257526E+00  0.42683376099E+02  0.00000000000E+00 0.  1.
</event>
<event>
 7    1  0.5290964E-013  0.5052886E+02  0.7816164E-02  0.1300439E+00
        -11   -1    0    0    0    0  0.00000000000E+00  0.00000000000E+00  0.45593999997E+02  0.45594000000E+02  0.51100000000E-03 0. -1.
         11   -1    0    0    0    0 -0.00000000000E+00 -0.00000000000E+00 -0.45593999997E+02  0.45594000000E+02  0.51100000000E-03 0.  1.
    9900012    2    1    2    0    0  0.22141823444E+02  0.31502318549E+02 -0.13057909157E+02  0.50528863131E+02  0.30000009974E+02 0.  0.
         12    1    1    2    0    0 -0.22141823444E+02 -0.31502318549E+02  0.13057909157E+02  0.40659136869E+02  0.00000000000E+00 0. -1.
         11    1    3    3    0    0  0.15600751519E+02  0.31323396572E+01 -0.57802624700E+01  0.16929454633E+02  0.51100000000E-03 0. -1.
        -11    1    3    3    0    0  0.82485688956E+01  0.79165421860E+01 -0.62949317874E+01  0.13051310106E+02  0.51100000000E-03 0.  1.
        -12    1    3    3    0    0 -0.17074969713E+01  0.20453436705E+02 -0.98271489947E+00  0.20548098392E+02  0.00000000000E+00 0.  1.
</event>
<event>
 7    1  0.5290964E-013  0.5052887E+02  0.7816164E-02  0.1300439E+00
        -11   -1    0    0    0    0  0.00000000000E+00  0.00000000000E+00  0.45593999997E+02  0.45594000000E+02  0.51100000000E-03 0.  1.
         11   -1    0    0    0    0 -0.00000000000E+00 -0.00000000000E+00 -0.45593999997E+02  0.45594000000E+02  0.51100000000E-03 0. -1.
    9900012    2    1    2    0    0  0.43489193625E+01 -0.47228058333E+01  0.40149058729E+02  0.50528869274E+02  0.30000028646E+02 0.  0.
         12    1    1    2    0    0 -0.43489193625E+01  0.47228058333E+01 -0.40149058729E+02  0.40659130726E+02  0.00000000000E+00 0. -1.
         11    1    3    3    0    0  0.39793311822E-01  0.21536278456E+01 -0.21645974469E+01  0.30537155685E+01  0.51100000000E-03 0. -1.
        -11    1    3    3    0    0  0.94002796341E-01 -0.60070181044E+01  0.11869740239E+01  0.61238885217E+01  0.51100000000E-03 0.  1.
        -12    1    3    3    0    0  0.42151232544E+01 -0.86941557447E+00  0.41126682152E+02  0.41351265184E+02  0.00000000000E+00 0.  1.
</event>
<event>
 7    1  0.5290964E-013  0.5052886E+02  0.7816164E-02  0.1300439E+00
        -11   -1    0    0    0    0  0.00000000000E+00  0.00000000000E+00  0.45593999997E+02  0.45594000000E+02  0.51100000000E-03 0.  1.
         11   -1    0    0    0    0 -0.00000000000E+00 -0.00000000000E+00 -0.45593999997E+02  0.45594000000E+02  0.51100000000E-03 0. -1.
    9900012    2    1    2    0    0 -0.58795035043E+01 -0.19266339029E+02  0.35318628422E+02  0.50528857183E+02  0.29999991894E+02 0.  0.
         12    1    1    2    0    0  0.58795035043E+01  0.19266339029E+02 -0.35318628422E+02  0.40659142817E+02  0.00000000000E+00 0. -1.
         11    1    3    3    0    0  0.28441072515E+01 -0.10821989383E+02  0.33118432893E+01  0.11669306170E+02  0.51100000000E-03 0. -1.
        -11    1    3    3    0    0  0.30100113175E+01 -0.74280527385E+01  0.21967223119E+02  0.23383648720E+02  0.51100000000E-03 0.  1.
         12    1    3    3    0    0 -0.11733622073E+02 -0.10162969072E+01  0.10039562013E+02  0.15475902293E+02  0.00000000000E+00 0. -1.
</event>
<event>
 7    1  0.5290964E-013  0.5052887E+02  0.7816164E-02  0.1300439E+00
        -11   -1    0    0    0    0  0.00000000000E+00  0.00000000000E+00  0.45593999997E+02  0.45594000000E+02  0.51100000000E-03 0.  1.
         11   -1    0    0    0    0 -0.00000000000E+00 -0.00000000000E+00 -0.45593999997E+02  0.45594000000E+02  0.51100000000E-03 0. -1.
    9900012    2    1    2    0    0 -0.12994388358E+02  0.11875461441E+02  0.36650841537E+02  0.50528869432E+02  0.30000029125E+02 0.  0.
         12    1    1    2    0    0  0.12994388358E+02 -0.11875461441E+02 -0.36650841537E+02  0.40659130568E+02  0.00000000000E+00 0. -1.
         11    1    3    3    0    0  0.20728254126E+01  0.30172350459E+00  0.16564967737E+02  0.16696879908E+02  0.51100000000E-03 0. -1.
        -11    1    3    3    0    0  0.25215905393E+01  0.47778257163E+01  0.12295504453E+02  0.13430021126E+02  0.51100000000E-03 0.  1.
         12    1    3    3    0    0 -0.17588804310E+02  0.67959122199E+01  0.77903693459E+01  0.20401968398E+02  0.00000000000E+00 0. -1.
</event>
<event>
 7    1  0.5290964E-013  0.5052886E+02  0.7816164E-02  0.1300439E+00
        -11   -1    0    0    0    0  0.00000000000E+00  0.00000000000E+00  0.45593999997E+02  0.45594000000E+02  0.51100000000E-03 0.  1.
         11   -1    0    0    0    0 -0.00000000000E+00 -0.00000000000E+00 -0.45593999997E+02  0.45594000000E+02  0.51100000000E-03 0. -1.
    9900012    2    1    2    0    0 -0.19419891691E+02  0.21800297669E+02  0.28298067838E+02  0.50528858161E+02  0.29999994865E+02 0.  0.
         12    1    1    2    0    0  0.19419891691E+02 -0.21800297669E+02 -0.28298067838E+02  0.40659141839E+02  0.00000000000E+00 0. -1.
         11    1    3    3    0    0 -0.14126829227E+02  0.16321984370E+02  0.55058972698E+01  0.22277553339E+02  0.51100000000E-03 0. -1.
        -11    1    3    3    0    0 -0.35131792199E+00  0.50612878405E+01  0.15349005044E+00  0.50757874605E+01  0.51100000000E-03 0.  1.
        -12    1    3    3    0    0 -0.49417445419E+01  0.41702545853E+00  0.22638680518E+02  0.23175517361E+02  0.00000000000E+00 0.  1.
</event>
<event>
 7    1  0.5290964E-013  0.5052885E+02  0.7816164E-02  0.1300439E+00
        -11   -1    0    0    0    0  0.00000000000E+00  0.00000000000E+00  0.45593999997E+02  0.45594000000E+02  0.51100000000E-03 0.  1.
         11   -1    0    0    0    0 -0.00000000000E+00 -0.00000000000E+00 -0.45593999997E+02  0.45594000000E+02  0.51100000000E-03 0. -1.
    9900012    2    1    2    0    0  0.22862588217E+02  0.14438444413E+02  0.30364444843E+02  0.50528854317E+02  0.29999983182E+02 0.  0.
         12    1    1    2    0    0 -0.22862588217E+02 -0.14438444413E+02 -0.30364444843E+02  0.40659145683E+02  0.00000000000E+00 0. -1.
         11    1    3    3    0    0 -0.35498371643E+01  0.82913687518E+01  0.34636909848E+01  0.96615368948E+01  0.51100000000E-03 0. -1.
        -11    1    3    3    0    0  0.17275019310E+02  0.10880483377E+02  0.19057381229E+02  0.27928390398E+02  0.51100000000E-03 0.  1.
         12    1    3    3    0    0  0.91374060716E+01 -0.47334077161E+01  0.78433726300E+01  0.12938927024E+02  0.00000000000E+00 0. -1.
</event>
<event>
 7    1  0.5290964E-013  0.5052883E+02  0.7816164E-02  0.1300439E+00
        -11   -1    0    0    0    0  0.00000000000E+00  0.00000000000E+00  0.45593999997E+02  0.45594000000E+02  0.51100000000E-03 0. -1.
         11   -1    0    0    0    0 -0.00000000000E+00 -0.00000000000E+00 -0.45593999997E+02  0.45594000000E+02  0.51100000000E-03 0.  1.
    9900012    2    1    2    0    0  0.31497792083E+02 -0.15902714028E+02 -0.20203001135E+02  0.50528825458E+02  0.29999895462E+02 0.  0.
         12    1    1    2    0    0 -0.31497792083E+02  0.15902714028E+02  0.20203001135E+02  0.40659174542E+02  0.00000000000E+00 0. -1.
         11    1    3    3    0    0  0.23395061050E+00 -0.27586206862E+01 -0.42359292584E+01  0.50604167735E+01  0.51100000000E-03 0. -1.
        -11    1    3    3    0    0  0.57428087032E+01 -0.80793654257E+01 -0.16721499530E+02  0.19438738238E+02  0.51100000000E-03 0.  1.
         12    1    3    3    0    0  0.25521032769E+02 -0.50647279162E+01  0.75442765315E+00  0.26029670447E+02  0.00000000000E+00 0. -1.
</event>
<event>
 7    1  0.5290964E-013  0.5052886E+02  0.7816164E-02  0.1300439E+00
        -11   -1    0    0    0    0  0.00000000000E+00  0.00000000000E+00  0.45593999997E+02  0.45594000000E+02  0.51100000000E-03 0.  1.
         11   -1    0    0    0    0 -0.00000000000E+00 -0.00000000000E+00 -0.45593999997E+02  0.45594000000E+02  0.51100000000E-03 0. -1.
    9900012    2    1    2    0    0 -0.38984835293E+02 -0.33988470191E+01  0.11036120080E+02  0.50528862156E+02  0.30000007008E+02 0.  0.
         12    1    1    2    0    0  0.38984835293E+02  0.33988470191E+01 -0.11036120080E+02  0.40659137844E+02  0.00000000000E+00 0. -1.
         11    1    3    3    0    0 -0.87942846031E+01  0.11252225628E+01 -0.49190155432E+01  0.10139146003E+02  0.51100000000E-03 0. -1.
        -11    1    3    3    0    0 -0.77638249704E+01  0.17045798527E+01  0.15140075616E+02  0.17099838028E+02  0.51100000000E-03 0.  1.
         12    1    3    3    0    0 -0.22426725719E+02 -0.62286494346E+01  0.81506000662E+00  0.23289878125E+02  0.00000000000E+00 0. -1.
</event>
<event>
 7    1  0.5290964E-013  0.5052886E+02  0.7816164E-02  0.1300439E+00
        -11   -1    0    0    0    0  0.00000000000E+00  0.00000000000E+00  0.45593999997E+02  0.45594000000E+02  0.51100000000E-03 0. -1.
         11   -1    0    0    0    0 -0.00000000000E+00 -0.00000000000E+00 -0.45593999997E+02  0.45594000000E+02  0.51100000000E-03 0.  1.
    9900012    2    1    2    0    0 -0.39844526117E+02 -0.77407485848E+01 -0.23790799250E+01  0.50528862387E+02  0.30000007713E+02 0.  0.
         12    1    1    2    0    0  0.39844526117E+02  0.77407485848E+01  0.23790799250E+01  0.40659137613E+02  0.00000000000E+00 0. -1.
         11    1    3    3    0    0 -0.60105938560E+01 -0.32768914399E+01  0.53979970477E+01  0.87180059876E+01  0.51100000000E-03 0. -1.
        -11    1    3    3    0    0 -0.34505782958E+02 -0.78778377962E+01 -0.24894009808E+01  0.35481072466E+02  0.51100000000E-03 0.  1.
        -12    1    3    3    0    0  0.67185069716E+00  0.34139806514E+01 -0.52876759920E+01  0.63297839334E+01  0.00000000000E+00 0.  1.
</event>
<event>
 7    1  0.5290964E-013  0.5052887E+02  0.7816164E-02  0.1300439E+00
        -11   -1    0    0    0    0  0.00000000000E+00  0.00000000000E+00  0.45593999997E+02  0.45594000000E+02  0.51100000000E-03 0.  1.
         11   -1    0    0    0    0 -0.00000000000E+00 -0.00000000000E+00 -0.45593999997E+02  0.45594000000E+02  0.51100000000E-03 0. -1.
    9900012    2    1    2    0    0  0.26196931502E+02 -0.98180238453E+00  0.31079282729E+02  0.50528868541E+02  0.30000026418E+02 0.  0.
         12    1    1    2    0    0 -0.26196931502E+02  0.98180238453E+00 -0.31079282729E+02  0.40659131459E+02  0.00000000000E+00 0. -1.
         11    1    3    3    0    0 -0.19109437658E+01 -0.46471050264E+00  0.11478341997E+02  0.11645599907E+02  0.51100000000E-03 0. -1.
        -11    1    3    3    0    0  0.38238939895E+01 -0.36382140847E+01  0.12220029350E+02  0.13311193956E+02  0.51100000000E-03 0.  1.
         12    1    3    3    0    0  0.24283981278E+02  0.31211222028E+01  0.73809113818E+01  0.25572074678E+02  0.00000000000E+00 0. -1.
</event>
<event>
 7    1  0.5290964E-013  0.5052887E+02  0.7816164E-02  0.1300439E+00
        -11   -1    0    0    0    0  0.00000000000E+00  0.00000000000E+00  0.45593999997E+02  0.45594000000E+02  0.51100000000E-03 0.  1.
         11   -1    0    0    0    0 -0.00000000000E+00 -0.00000000000E+00 -0.45593999997E+02  0.45594000000E+02  0.51100000000E-03 0. -1.
    9900012    2    1    2    0    0 -0.34916829189E+02 -0.56692189904E+01  0.20045934214E+02  0.50528874541E+02  0.30000044656E+02 0.  0.
         12    1    1    2    0    0  0.34916829189E+02  0.56692189904E+01 -0.20045934214E+02  0.40659125459E+02  0.00000000000E+00 0. -1.
         11    1    3    3    0    0  0.13700288808E+00  0.29339232970E+01  0.15848741809E+01  0.33374394578E+01  0.51100000000E-03 0.  1.
        -11    1    3    3    0    0 -0.91780164912E+00 -0.36536592332E+01  0.11369025569E+02  0.11976908128E+02  0.51100000000E-03 0. -1.
        -12    1    3    3    0    0 -0.34136030428E+02 -0.49494830542E+01  0.70920344641E+01  0.35214526956E+02  0.00000000000E+00 0.  1.
</event>
<event>
 7    1  0.5290964E-013  0.5052888E+02  0.7816164E-02  0.1300439E+00
        -11   -1    0    0    0    0  0.00000000000E+00  0.00000000000E+00  0.45593999997E+02  0.45594000000E+02  0.51100000000E-03 0.  1.
         11   -1    0    0    0    0 -0.00000000000E+00 -0.00000000000E+00 -0.45593999997E+02  0.45594000000E+02  0.51100000000E-03 0. -1.
    9900012    2    1    2    0    0 -0.24788985521E+02  0.14246532289E+02  0.28908587458E+02  0.50528881537E+02  0.30000065919E+02 0.  0.
         12    1    1    2    0    0  0.24788985521E+02 -0.14246532289E+02 -0.28908587458E+02  0.40659118463E+02  0.00000000000E+00 0. -1.
         11    1    3    3    0    0 -0.68191313451E+01 -0.60913744165E+01  0.34955613697E+01  0.97889909660E+01  0.51100000000E-03 0.  1.
        -11    1    3    3    0    0 -0.51466962371E+01 -0.68524872493E+00 -0.21732272493E+00  0.51966602160E+01  0.51100000000E-03 0. -1.
        -12    1    3    3    0    0 -0.12823157939E+02  0.21023155430E+02  0.25630348813E+02  0.35543230355E+02  0.00000000000E+00 0.  1.
</event>
<event>
 7    1  0.5290964E-013  0.5052886E+02  0.7816164E-02  0.1300439E+00
        -11   -1    0    0    0    0  0.00000000000E+00  0.00000000000E+00  0.45593999997E+02  0.45594000000E+02  0.51100000000E-03 0.  1.
         11   -1    0    0    0    0 -0.00000000000E+00 -0.00000000000E+00 -0.45593999997E+02  0.45594000000E+02  0.51100000000E-03 0. -1.
    9900012    2    1    2    0    0  0.29079003328E+02  0.17698339573E+02  0.22233898528E+02  0.50528857093E+02  0.29999991619E+02 0.  0.
         12    1    1    2    0    0 -0.29079003328E+02 -0.17698339573E+02 -0.22233898528E+02  0.40659142907E+02  0.00000000000E+00 0. -1.
         11    1    3    3    0    0  0.99414289196E+01  0.64121910468E+01  0.19051484176E+02  0.22425593695E+02  0.51100000000E-03 0. -1.
        -11    1    3    3    0    0  0.21616169491E+02  0.68882420374E+01  0.38484729823E+01  0.23011245216E+02  0.51100000000E-03 0.  1.
         12    1    3    3    0    0 -0.24785950824E+01  0.43979064889E+01 -0.66605863079E+00  0.50920181822E+01  0.00000000000E+00 0. -1.
</event>
<event>
 7    1  0.5290964E-013  0.5052887E+02  0.7816164E-02  0.1300439E+00
        -11   -1    0    0    0    0  0.00000000000E+00  0.00000000000E+00  0.45593999997E+02  0.45594000000E+02  0.51100000000E-03 0.  1.
         11   -1    0    0    0    0 -0.00000000000E+00 -0.00000000000E+00 -0.45593999997E+02  0.45594000000E+02  0.51100000000E-03 0. -1.
    9900012    2    1    2    0    0 -0.40682568469E+00  0.11427880828E+02  0.39017982815E+02  0.50528868796E+02  0.30000027191E+02 0.  0.
         12    1    1    2    0    0  0.40682568469E+00 -0.11427880828E+02 -0.39017982815E+02  0.40659131204E+02  0.00000000000E+00 0. -1.
         11    1    3    3    0    0  0.16608088912E+01  0.82641401251E+01  0.75222086440E+01  0.11297695399E+02  0.51100000000E-03 0. -1.
        -11    1    3    3    0    0 -0.69112262249E+01  0.64782966480E+01  0.27094701918E+01  0.98526445370E+01  0.51100000000E-03 0.  1.
         12    1    3    3    0    0  0.48435916490E+01 -0.33145559453E+01  0.28786303979E+02  0.29378528860E+02  0.00000000000E+00 0. -1.
</event>
<event>
 7    1  0.5290964E-013  0.5052886E+02  0.7816164E-02  0.1300439E+00
        -11   -1    0    0    0    0  0.00000000000E+00  0.00000000000E+00  0.45593999997E+02  0.45594000000E+02  0.51100000000E-03 0. -1.
         11   -1    0    0    0    0 -0.00000000000E+00 -0.00000000000E+00 -0.45593999997E+02  0.45594000000E+02  0.51100000000E-03 0.  1.
    9900012    2    1    2    0    0  0.15878257381E+02  0.33424014581E+02 -0.16848787777E+02  0.50528862556E+02  0.30000008225E+02 0.  0.
         12    1    1    2    0    0 -0.15878257381E+02 -0.33424014581E+02  0.16848787777E+02  0.40659137444E+02  0.00000000000E+00 0. -1.
         11    1    3    3    0    0  0.20677055639E+00  0.16528956951E+02 -0.70407283955E+01  0.17967220947E+02  0.51100000000E-03 0. -1.
        -11    1    3    3    0    0  0.43704351204E+01  0.11591670383E+02  0.48538652736E+01  0.13305169437E+02  0.51100000000E-03 0.  1.
        -12    1    3    3    0    0  0.11301051704E+02  0.53033872465E+01 -0.14661924655E+02  0.19256472172E+02  0.00000000000E+00 0.  1.
</event>
<event>
 7    1  0.5290964E-013  0.5052886E+02  0.7816164E-02  0.1300439E+00
        -11   -1    0    0    0    0  0.00000000000E+00  0.00000000000E+00  0.45593999997E+02  0.45594000000E+02  0.51100000000E-03 0.  1.
         11   -1    0    0    0    0 -0.00000000000E+00 -0.00000000000E+00 -0.45593999997E+02  0.45594000000E+02  0.51100000000E-03 0. -1.
    9900012    2    1    2    0    0  0.35517159843E+02 -0.19035768906E+02  0.54163182777E+01  0.50528860255E+02  0.30000001230E+02 0.  0.
         12    1    1    2    0    0 -0.35517159843E+02  0.19035768906E+02 -0.54163182777E+01  0.40659139745E+02  0.00000000000E+00 0. -1.
         11    1    3    3    0    0  0.27085915416E+02 -0.70355177039E+01 -0.69480701709E+01  0.28834371896E+02  0.51100000000E-03 0. -1.
        -11    1    3    3    0    0  0.75645146982E+01 -0.38478925658E+01  0.24580588912E+01  0.88357350341E+01  0.51100000000E-03 0.  1.
         12    1    3    3    0    0  0.86672972847E+00 -0.81523586361E+01  0.99063295574E+01  0.12858753324E+02  0.00000000000E+00 0. -1.
</event>
<event>
 7    1  0.5290964E-013  0.5052887E+02  0.7816164E-02  0.1300439E+00
        -11   -1    0    0    0    0  0.00000000000E+00  0.00000000000E+00  0.45593999997E+02  0.45594000000E+02  0.51100000000E-03 0.  1.
         11   -1    0    0    0    0 -0.00000000000E+00 -0.00000000000E+00 -0.45593999997E+02  0.45594000000E+02  0.51100000000E-03 0. -1.
    9900012    2    1    2    0    0  0.21071114957E+02 -0.18825341658E+02 -0.29236616481E+02  0.50528866742E+02  0.30000020948E+02 0.  0.
         12    1    1    2    0    0 -0.21071114957E+02  0.18825341658E+02  0.29236616481E+02  0.40659133258E+02  0.00000000000E+00 0. -1.
         11    1    3    3    0    0  0.49637432979E+01 -0.49322843763E+01 -0.26753607998E+01  0.74915774285E+01  0.51100000000E-03 0. -1.
        -11    1    3    3    0    0  0.22164572895E+02 -0.70605789191E+01 -0.12882402185E+02  0.26590907330E+02  0.51100000000E-03 0.  1.
         12    1    3    3    0    0 -0.60572012361E+01 -0.68324783625E+01 -0.13678853496E+02  0.16446381984E+02  0.00000000000E+00 0. -1.
</event>
<event>
 7    1  0.5290964E-013  0.5052886E+02  0.7816164E-02  0.1300439E+00
        -11   -1    0    0    0    0  0.00000000000E+00  0.00000000000E+00  0.45593999997E+02  0.45594000000E+02  0.51100000000E-03 0. -1.
         11   -1    0    0    0    0 -0.00000000000E+00 -0.00000000000E+00 -0.45593999997E+02  0.45594000000E+02  0.51100000000E-03 0.  1.
    9900012    2    1    2    0    0 -0.79980590274E+01  0.22125089022E+01 -0.39803284716E+02  0.50528860584E+02  0.30000002230E+02 0.  0.
         12    1    1    2    0    0  0.79980590274E+01 -0.22125089022E+01  0.39803284716E+02  0.40659139416E+02  0.00000000000E+00 0. -1.
         11    1    3    3    0    0 -0.49109817378E+01  0.55231604217E+01 -0.34534261224E+02  0.35316260295E+02  0.51100000000E-03 0. -1.
        -11    1    3    3    0    0 -0.42403398956E+01  0.40327827150E+01 -0.51234089064E+01  0.77777334706E+01  0.51100000000E-03 0.  1.
         12    1    3    3    0    0  0.11532626060E+01 -0.73434342344E+01 -0.14561458591E+00  0.74348668180E+01  0.00000000000E+00 0. -1.
</event>
<event>
 7    1  0.5290964E-013  0.5052886E+02  0.7816164E-02  0.1300439E+00
        -11   -1    0    0    0    0  0.00000000000E+00  0.00000000000E+00  0.45593999997E+02  0.45594000000E+02  0.51100000000E-03 0. -1.
         11   -1    0    0    0    0 -0.00000000000E+00 -0.00000000000E+00 -0.45593999997E+02  0.45594000000E+02  0.51100000000E-03 0.  1.
    9900012    2    1    2    0    0 -0.17786517472E+02 -0.20692336030E+02  0.30143530032E+02  0.50528863549E+02  0.30000011244E+02 0.  0.
         12    1    1    2    0    0  0.17786517472E+02  0.20692336030E+02 -0.30143530032E+02  0.40659136451E+02  0.00000000000E+00 0. -1.
         11    1    3    3    0    0 -0.63564723923E+01 -0.33624270344E+00  0.12981526124E+02  0.14458140309E+02  0.51100000000E-03 0. -1.
        -11    1    3    3    0    0 -0.27994996603E+01  0.21253751377E+01  0.10518090218E+02  0.11089843998E+02  0.51100000000E-03 0.  1.
        -12    1    3    3    0    0 -0.86305454191E+01 -0.22481468464E+02  0.66439136898E+01  0.24980879241E+02  0.00000000000E+00 0.  1.
</event>
<event>
 7    1  0.5290964E-013  0.5052884E+02  0.7816164E-02  0.1300439E+00
        -11   -1    0    0    0    0  0.00000000000E+00  0.00000000000E+00  0.45593999997E+02  0.45594000000E+02  0.51100000000E-03 0.  1.
         11   -1    0    0    0    0 -0.00000000000E+00 -0.00000000000E+00 -0.45593999997E+02  0.45594000000E+02  0.51100000000E-03 0. -1.
    9900012    2    1    2    0    0  0.32730798501E+02  0.22790716438E+02 -0.79022542301E+01  0.50528836848E+02  0.29999930084E+02 0.  0.
         12    1    1    2    0    0 -0.32730798501E+02 -0.22790716438E+02  0.79022542301E+01  0.40659163152E+02  0.00000000000E+00 0. -1.
         11    1    3    3    0    0  0.12023291341E+02  0.14024039680E+02 -0.94629971143E+01  0.20755277359E+02  0.51100000000E-03 0. -1.
        -11    1    3    3    0    0  0.15440756161E+02 -0.41628215945E+00 -0.62033539041E+01  0.16645475109E+02  0.51100000000E-03 0.  1.
         12    1    3    3    0    0  0.52667509989E+01  0.91829589180E+01  0.77640967883E+01  0.13128084381E+02  0.00000000000E+00 0. -1.
</event>
<event>
 7    1  0.5290964E-013  0.5052886E+02  0.7816164E-02  0.1300439E+00
        -11   -1    0    0    0    0  0.00000000000E+00  0.00000000000E+00  0.45593999997E+02  0.45594000000E+02  0.51100000000E-03 0.  1.
         11   -1    0    0    0    0 -0.00000000000E+00 -0.00000000000E+00 -0.45593999997E+02  0.45594000000E+02  0.51100000000E-03 0. -1.
    9900012    2    1    2    0    0  0.33373613470E+02 -0.11533284964E+02  0.20158152880E+02  0.50528857540E+02  0.29999992978E+02 0.  0.
         12    1    1    2    0    0 -0.33373613470E+02  0.11533284964E+02 -0.20158152880E+02  0.40659142460E+02  0.00000000000E+00 0. -1.
         11    1    3    3    0    0  0.36276259081E+02 -0.26002201951E+01  0.18041454429E+02  0.40598302873E+02  0.51100000000E-03 0.  1.
        -11    1    3    3    0    0 -0.10757210299E+00 -0.34398875079E+01  0.90882091111E-01  0.34427688914E+01  0.51100000000E-03 0. -1.
        -12    1    3    3    0    0 -0.27950735088E+01 -0.54931772610E+01  0.20258163597E+01  0.64877857751E+01  0.00000000000E+00 0.  1.
</event>
<event>
 7    1  0.5290964E-013  0.5052886E+02  0.7816164E-02  0.1300439E+00
        -11   -1    0    0    0    0  0.00000000000E+00  0.00000000000E+00  0.45593999997E+02  0.45594000000E+02  0.51100000000E-03 0.  1.
         11   -1    0    0    0    0 -0.00000000000E+00 -0.00000000000E+00 -0.45593999997E+02  0.45594000000E+02  0.51100000000E-03 0. -1.
    9900012    2    1    2    0    0 -0.19839291651E+01  0.32873296125E+02  0.23844832937E+02  0.50528860427E+02  0.30000001753E+02 0.  0.
         12    1    1    2    0    0  0.19839291651E+01 -0.32873296125E+02 -0.23844832937E+02  0.40659139573E+02  0.00000000000E+00 0. -1.
         11    1    3    3    0    0  0.46733046225E+01  0.69303090268E+01  0.28192643066E+01  0.88214063954E+01  0.51100000000E-03 0. -1.
        -11    1    3    3    0    0  0.18608365956E+01  0.17717185682E+02  0.27603683531E+00  0.17816777990E+02  0.51100000000E-03 0.  1.
        -12    1    3    3    0    0 -0.85180703833E+01  0.82258014157E+01  0.20749531796E+02  0.23890676042E+02  0.00000000000E+00 0.  1.
</event>
<event>
 7    1  0.5290964E-013  0.5052886E+02  0.7816164E-02  0.1300439E+00
        -11   -1    0    0    0    0  0.00000000000E+00  0.00000000000E+00  0.45593999997E+02  0.45594000000E+02  0.51100000000E-03 0.  1.
         11   -1    0    0    0    0 -0.00000000000E+00 -0.00000000000E+00 -0.45593999997E+02  0.45594000000E+02  0.51100000000E-03 0. -1.
    9900012    2    1    2    0    0  0.37450705694E+02 -0.62473372941E+00  0.15818341890E+02  0.50528860937E+02  0.30000003305E+02 0.  0.
         12    1    1    2    0    0 -0.37450705694E+02  0.62473372941E+00 -0.15818341890E+02  0.40659139063E+02  0.00000000000E+00 0. -1.
         11    1    3    3    0    0  0.32209710641E+00 -0.39119904479E+01 -0.35632008094E+01  0.53013032435E+01  0.51100000000E-03 0. -1.
        -11    1    3    3    0    0  0.10456618378E+02 -0.17691047290E+01 -0.18482028707E+01  0.10765057063E+02  0.51100000000E-03 0.  1.
        -12    1    3    3    0    0  0.26671990209E+02  0.50563614474E+01  0.21229745570E+02  0.34462500631E+02  0.00000000000E+00 0.  1.
</event>
<event>
 7    1  0.5290964E-013  0.5052885E+02  0.7816164E-02  0.1300439E+00
        -11   -1    0    0    0    0  0.00000000000E+00  0.00000000000E+00  0.45593999997E+02  0.45594000000E+02  0.51100000000E-03 0. -1.
         11   -1    0    0    0    0 -0.00000000000E+00 -0.00000000000E+00 -0.45593999997E+02  0.45594000000E+02  0.51100000000E-03 0.  1.
    9900012    2    1    2    0    0  0.70502749123E+01 -0.39867855540E+02 -0.37435707601E+01  0.50528848462E+02  0.29999965386E+02 0.  0.
         12    1    1    2    0    0 -0.70502749123E+01  0.39867855540E+02  0.37435707601E+01  0.40659151538E+02  0.00000000000E+00 0. -1.
         11    1    3    3    0    0  0.46285473344E+01 -0.12482102631E+02  0.57506940784E+01  0.14501614364E+02  0.51100000000E-03 0. -1.
        -11    1    3    3    0    0 -0.88558341394E+01 -0.15406564384E+02 -0.17903737633E+01  0.17860388095E+02  0.51100000000E-03 0.  1.
        -12    1    3    3    0    0  0.11277561717E+02 -0.11979188526E+02 -0.77038910752E+01  0.18166846004E+02  0.00000000000E+00 0.  1.
</event>
<event>
 7    1  0.5290964E-013  0.5052887E+02  0.7816164E-02  0.1300439E+00
        -11   -1    0    0    0    0  0.00000000000E+00  0.00000000000E+00  0.45593999997E+02  0.45594000000E+02  0.51100000000E-03 0.  1.
         11   -1    0    0    0    0 -0.00000000000E+00 -0.00000000000E+00 -0.45593999997E+02  0.45594000000E+02  0.51100000000E-03 0. -1.
    9900012    2    1    2    0    0 -0.24914880846E+02  0.30252701830E+02  0.10825311104E+02  0.50528872906E+02  0.30000039684E+02 0.  0.
         12    1    1    2    0    0  0.24914880846E+02 -0.30252701830E+02 -0.10825311104E+02  0.40659127094E+02  0.00000000000E+00 0. -1.
         11    1    3    3    0    0 -0.11094279381E+01  0.20313946615E+01 -0.40268847848E+00  0.23493728721E+01  0.51100000000E-03 0. -1.
        -11    1    3    3    0    0 -0.21148110659E+02  0.34107246872E+02  0.11399427124E+02  0.41719225936E+02  0.51100000000E-03 0.  1.
        -12    1    3    3    0    0 -0.26573422488E+01 -0.58859397034E+01 -0.17142754237E+00  0.64602740980E+01  0.00000000000E+00 0.  1.
</event>
<event>
 7    1  0.5290964E-013  0.5052885E+02  0.7816164E-02  0.1300439E+00
        -11   -1    0    0    0    0  0.00000000000E+00  0.00000000000E+00  0.45593999997E+02  0.45594000000E+02  0.51100000000E-03 0.  1.
         11   -1    0    0    0    0 -0.00000000000E+00 -0.00000000000E+00 -0.45593999997E+02  0.45594000000E+02  0.51100000000E-03 0. -1.
    9900012    2    1    2    0    0 -0.29091621692E+02  0.28049339677E+02 -0.44808922324E+01  0.50528852146E+02  0.29999976584E+02 0.  0.
         12    1    1    2    0    0  0.29091621692E+02 -0.28049339677E+02  0.44808922324E+01  0.40659147854E+02  0.00000000000E+00 0. -1.
         11    1    3    3    0    0 -0.24277883388E+00 -0.17022598815E+01  0.52817814672E+00  0.17987781080E+01  0.51100000000E-03 0. -1.
        -11    1    3    3    0    0 -0.10630278039E+02  0.86904288559E+01  0.10102402549E+02  0.17046551042E+02  0.51100000000E-03 0.  1.
        -12    1    3    3    0    0 -0.18218564819E+02  0.21061170703E+02 -0.15111472928E+02  0.31683522997E+02  0.00000000000E+00 0.  1.
</event>
<event>
 7    1  0.5290964E-013  0.5052886E+02  0.7816164E-02  0.1300439E+00
        -11   -1    0    0    0    0  0.00000000000E+00  0.00000000000E+00  0.45593999997E+02  0.45594000000E+02  0.51100000000E-03 0.  1.
         11   -1    0    0    0    0 -0.00000000000E+00 -0.00000000000E+00 -0.45593999997E+02  0.45594000000E+02  0.51100000000E-03 0. -1.
    9900012    2    1    2    0    0 -0.13398506626E+02 -0.16840628459E+02  0.34496939283E+02  0.50528861217E+02  0.30000004154E+02 0.  0.
         12    1    1    2    0    0  0.13398506626E+02  0.16840628459E+02 -0.34496939283E+02  0.40659138783E+02  0.00000000000E+00 0. -1.
         11    1    3    3    0    0  0.30322281083E+01 -0.63585311161E+01 -0.13754779867E+01  0.71775528704E+01  0.51100000000E-03 0. -1.
        -11    1    3    3    0    0 -0.45148903168E+00 -0.80127325696E+01  0.97297999372E+01  0.12612562494E+02  0.51100000000E-03 0.  1.
        -12    1    3    3    0    0 -0.15979245703E+02 -0.24693647737E+01  0.26142617332E+02  0.30738745853E+02  0.00000000000E+00 0.  1.
</event>
<event>
 7    1  0.5290964E-013  0.5052886E+02  0.7816164E-02  0.1300439E+00
        -11   -1    0    0    0    0  0.00000000000E+00  0.00000000000E+00  0.45593999997E+02  0.45594000000E+02  0.51100000000E-03 0.  1.
         11   -1    0    0    0    0 -0.00000000000E+00 -0.00000000000E+00 -0.45593999997E+02  0.45594000000E+02  0.51100000000E-03 0. -1.
    9900012    2    1    2    0    0 -0.23816372576E+02  0.20920783339E+02  0.25461090087E+02  0.50528857282E+02  0.29999992194E+02 0.  0.
         12    1    1    2    0    0  0.23816372576E+02 -0.20920783339E+02 -0.25461090087E+02  0.40659142718E+02  0.00000000000E+00 0. -1.
         11    1    3    3    0    0 -0.19537260092E+01 -0.56433002315E+01  0.30425264155E+01  0.67023018488E+01  0.51100000000E-03 0. -1.
        -11    1    3    3    0    0 -0.80408824952E+01  0.91967004695E+00  0.22699628586E+01  0.84056121691E+01  0.51100000000E-03 0.  1.
         12    1    3    3    0    0 -0.13821764071E+02  0.25644413524E+02  0.20148600813E+02  0.35420943264E+02  0.00000000000E+00 0. -1.
</event>
<event>
 7    1  0.5290964E-013  0.5052886E+02  0.7816164E-02  0.1300439E+00
        -11   -1    0    0    0    0  0.00000000000E+00  0.00000000000E+00  0.45593999997E+02  0.45594000000E+02  0.51100000000E-03 0. -1.
         11   -1    0    0    0    0 -0.00000000000E+00 -0.00000000000E+00 -0.45593999997E+02  0.45594000000E+02  0.51100000000E-03 0.  1.
    9900012    2    1    2    0    0 -0.31242981508E+02  0.25161209865E+02 -0.66298811969E+01  0.50528859575E+02  0.29999999165E+02 0.  0.
         12    1    1    2    0    0  0.31242981508E+02 -0.25161209865E+02  0.66298811969E+01  0.40659140425E+02  0.00000000000E+00 0. -1.
         11    1    3    3    0    0 -0.16877511492E+01 -0.20117549194E+01  0.31057500824E+01  0.40671053137E+01  0.51100000000E-03 0. -1.
        -11    1    3    3    0    0 -0.15764847668E+02  0.31955547172E+01  0.23870013523E+01  0.16261604093E+02  0.51100000000E-03 0.  1.
         12    1    3    3    0    0 -0.13790382691E+02  0.23977410067E+02 -0.12122632632E+02  0.30200150169E+02  0.00000000000E+00 0. -1.
</event>
<event>
 7    1  0.5290964E-013  0.5052886E+02  0.7816164E-02  0.1300439E+00
        -11   -1    0    0    0    0  0.00000000000E+00  0.00000000000E+00  0.45593999997E+02  0.45594000000E+02  0.51100000000E-03 0.  1.
         11   -1    0    0    0    0 -0.00000000000E+00 -0.00000000000E+00 -0.45593999997E+02  0.45594000000E+02  0.51100000000E-03 0. -1.
    9900012    2    1    2    0    0  0.26511113701E+02  0.28279704967E+02  0.12271311826E+02  0.50528856421E+02  0.29999989577E+02 0.  0.
         12    1    1    2    0    0 -0.26511113701E+02 -0.28279704967E+02 -0.12271311826E+02  0.40659143579E+02  0.00000000000E+00 0. -1.
         11    1    3    3    0    0 -0.58927079726E+00  0.60999321641E+01  0.27744647732E+01  0.67271143530E+01  0.51100000000E-03 0.  1.
        -11    1    3    3    0    0 -0.16564087379E+01 -0.93103174823E+00  0.65177479078E+01  0.67890756421E+01  0.51100000000E-03 0. -1.
         12    1    3    3    0    0  0.28756793236E+02  0.23110804551E+02  0.29790991444E+01  0.37012666426E+02  0.00000000000E+00 0. -1.
</event>
<event>
 7    1  0.5290964E-013  0.5052885E+02  0.7816164E-02  0.1300439E+00
        -11   -1    0    0    0    0  0.00000000000E+00  0.00000000000E+00  0.45593999997E+02  0.45594000000E+02  0.51100000000E-03 0.  1.
         11   -1    0    0    0    0 -0.00000000000E+00 -0.00000000000E+00 -0.45593999997E+02  0.45594000000E+02  0.51100000000E-03 0. -1.
    9900012    2    1    2    0    0  0.14115451178E+02  0.35857204984E+02  0.12968471604E+02  0.50528851374E+02  0.29999974238E+02 0.  0.
         12    1    1    2    0    0 -0.14115451178E+02 -0.35857204984E+02 -0.12968471604E+02  0.40659148626E+02  0.00000000000E+00 0. -1.
         11    1    3    3    0    0  0.65039138033E+01 -0.10126355761E+01  0.84812153349E+01  0.10735797101E+02  0.51100000000E-03 0. -1.
        -11    1    3    3    0    0  0.82270427127E+01  0.11854648244E+02  0.29130073288E+01  0.14720819568E+02  0.51100000000E-03 0.  1.
        -12    1    3    3    0    0 -0.61550533822E+00  0.25015192316E+02  0.15742489402E+01  0.25072234706E+02  0.00000000000E+00 0.  1.
</event>
<event>
 7    1  0.5290964E-013  0.5052886E+02  0.7816164E-02  0.1300439E+00
        -11   -1    0    0    0    0  0.00000000000E+00  0.00000000000E+00  0.45593999997E+02  0.45594000000E+02  0.51100000000E-03 0.  1.
         11   -1    0    0    0    0 -0.00000000000E+00 -0.00000000000E+00 -0.45593999997E+02  0.45594000000E+02  0.51100000000E-03 0. -1.
    9900012    2    1    2    0    0 -0.19285124566E+01  0.34301281574E+02  0.21745546381E+02  0.50528857544E+02  0.29999992990E+02 0.  0.
         12    1    1    2    0    0  0.19285124566E+01 -0.34301281574E+02 -0.21745546381E+02  0.40659142456E+02  0.00000000000E+00 0. -1.
         11    1    3    3    0    0  0.22858132156E+01  0.94993729451E+01 -0.35604758624E+01  0.10399039236E+02  0.51100000000E-03 0. -1.
        -11    1    3    3    0    0  0.43261893291E+00  0.38924405497E+01 -0.27838660497E+01  0.48050143619E+01  0.51100000000E-03 0.  1.
        -12    1    3    3    0    0 -0.46469446051E+01  0.20909468079E+02  0.28089888293E+02  0.35324803946E+02  0.00000000000E+00 0.  1.
</event>
<event>
 7    1  0.5290964E-013  0.5052886E+02  0.7816164E-02  0.1300439E+00
        -11   -1    0    0    0    0  0.00000000000E+00  0.00000000000E+00  0.45593999997E+02  0.45594000000E+02  0.51100000000E-03 0.  1.
         11   -1    0    0    0    0 -0.00000000000E+00 -0.00000000000E+00 -0.45593999997E+02  0.45594000000E+02  0.51100000000E-03 0. -1.
    9900012    2    1    2    0    0 -0.62416873347E+00  0.59983600488E+01  0.40209399947E+02  0.50528858913E+02  0.29999997151E+02 0.  0.
         12    1    1    2    0    0  0.62416873347E+00 -0.59983600488E+01 -0.40209399947E+02  0.40659141087E+02  0.00000000000E+00 0. -1.
         11    1    3    3    0    0 -0.58950739836E+01  0.57633244875E+01  0.10222292510E+02  0.13132519592E+02  0.51100000000E-03 0. -1.
        -11    1    3    3    0    0 -0.84550717620E+01 -0.11378607326E+01  0.12201196279E+02  0.14887986984E+02  0.51100000000E-03 0.  1.
         12    1    3    3    0    0  0.13725977012E+02  0.13728962940E+01  0.17785911158E+02  0.22508352336E+02  0.00000000000E+00 0. -1.
</event>
<event>
 7    1  0.5290964E-013  0.5052887E+02  0.7816164E-02  0.1300439E+00
        -11   -1    0    0    0    0  0.00000000000E+00  0.00000000000E+00  0.45593999997E+02  0.45594000000E+02  0.51100000000E-03 0.  1.
         11   -1    0    0    0    0 -0.00000000000E+00 -0.00000000000E+00 -0.45593999997E+02  0.45594000000E+02  0.51100000000E-03 0. -1.
    9900012    2    1    2    0    0 -0.93456218455E+01 -0.20039681365E+02  0.34120889062E+02  0.50528873752E+02  0.30000042256E+02 0.  0.
         12    1    1    2    0    0  0.93456218455E+01  0.20039681365E+02 -0.34120889062E+02  0.40659126248E+02  0.00000000000E+00 0. -1.
         11    1    3    3    0    0 -0.85300721237E+00  0.59146075522E+00 -0.86520611828E+00  0.13513064114E+01  0.51100000000E-03 0.  1.
        -11    1    3    3    0    0  0.29745813233E+01  0.86549303815E+00 -0.28276939012E+01  0.41944088151E+01  0.51100000000E-03 0. -1.
        -12    1    3    3    0    0 -0.11467195956E+02 -0.21496635158E+02  0.37813789081E+02  0.44983158525E+02  0.00000000000E+00 0.  1.
</event>
<event>
 7    1  0.5290964E-013  0.5052886E+02  0.7816164E-02  0.1300439E+00
        -11   -1    0    0    0    0  0.00000000000E+00  0.00000000000E+00  0.45593999997E+02  0.45594000000E+02  0.51100000000E-03 0.  1.
         11   -1    0    0    0    0 -0.00000000000E+00 -0.00000000000E+00 -0.45593999997E+02  0.45594000000E+02  0.51100000000E-03 0. -1.
    9900012    2    1    2    0    0  0.21734044639E+02  0.60476214855E+00  0.34357405851E+02  0.50528858710E+02  0.29999996535E+02 0.  0.
         12    1    1    2    0    0 -0.21734044639E+02 -0.60476214855E+00 -0.34357405851E+02  0.40659141290E+02  0.00000000000E+00 0. -1.
         11    1    3    3    0    0  0.50924660364E+01 -0.81283747710E+01  0.37909818719E+01  0.10313836850E+02  0.51100000000E-03 0. -1.
        -11    1    3    3    0    0  0.35417602020E+01  0.10537985736E+01 -0.20581657786E+01  0.42297285251E+01  0.51100000000E-03 0.  1.
        -12    1    3    3    0    0  0.13099818401E+02  0.76793383459E+01  0.32624589758E+02  0.35985293335E+02  0.00000000000E+00 0.  1.
</event>
<event>
 7    1  0.5290964E-013  0.5052891E+02  0.7816164E-02  0.1300439E+00
        -11   -1    0    0    0    0  0.00000000000E+00  0.00000000000E+00  0.45593999997E+02  0.45594000000E+02  0.51100000000E-03 0. -1.
         11   -1    0    0    0    0 -0.00000000000E+00 -0.00000000000E+00 -0.45593999997E+02  0.45594000000E+02  0.51100000000E-03 0.  1.
    9900012    2    1    2    0    0 -0.19066235646E+02  0.32616367245E+02 -0.15027069192E+02  0.50528910457E+02  0.30000153824E+02 0.  0.
         12    1    1    2    0    0  0.19066235646E+02 -0.32616367245E+02  0.15027069192E+02  0.40659089543E+02  0.00000000000E+00 0. -1.
         11    1    3    3    0    0 -0.16992356638E+02  0.13258248094E+02  0.20772727035E+01  0.21652630066E+02  0.51100000000E-03 0. -1.
        -11    1    3    3    0    0 -0.44090101592E+01  0.14894651910E+01 -0.11167090294E+01  0.47859081120E+01  0.51100000000E-03 0.  1.
        -12    1    3    3    0    0  0.23351311516E+01  0.17868653960E+02 -0.15987632867E+02  0.24090372279E+02  0.00000000000E+00 0.  1.
</event>
<event>
 7    1  0.5290964E-013  0.5052886E+02  0.7816164E-02  0.1300439E+00
        -11   -1    0    0    0    0  0.00000000000E+00  0.00000000000E+00  0.45593999997E+02  0.45594000000E+02  0.51100000000E-03 0.  1.
         11   -1    0    0    0    0 -0.00000000000E+00 -0.00000000000E+00 -0.45593999997E+02  0.45594000000E+02  0.51100000000E-03 0. -1.
    9900012    2    1    2    0    0  0.14643703446E+02 -0.31014689118E+02  0.21836123855E+02  0.50528864536E+02  0.30000014243E+02 0.  0.
         12    1    1    2    0    0 -0.14643703446E+02  0.31014689118E+02 -0.21836123855E+02  0.40659135464E+02  0.00000000000E+00 0. -1.
         11    1    3    3    0    0  0.72450960955E+01  0.81406100073E+00 -0.23995544090E+01  0.76754136285E+01  0.51100000000E-03 0. -1.
        -11    1    3    3    0    0  0.67311499325E-01 -0.86657916343E+01  0.14053345612E+02  0.16510511762E+02  0.51100000000E-03 0.  1.
        -12    1    3    3    0    0  0.73312958510E+01 -0.23162958484E+02  0.10182332652E+02  0.26342939145E+02  0.00000000000E+00 0.  1.
</event>
<event>
 7    1  0.5290964E-013  0.5052886E+02  0.7816164E-02  0.1300439E+00
        -11   -1    0    0    0    0  0.00000000000E+00  0.00000000000E+00  0.45593999997E+02  0.45594000000E+02  0.51100000000E-03 0.  1.
         11   -1    0    0    0    0 -0.00000000000E+00 -0.00000000000E+00 -0.45593999997E+02  0.45594000000E+02  0.51100000000E-03 0. -1.
    9900012    2    1    2    0    0 -0.22502341542E+02 -0.27812082140E+02  0.19320928358E+02  0.50528861292E+02  0.30000004384E+02 0.  0.
         12    1    1    2    0    0  0.22502341542E+02  0.27812082140E+02 -0.19320928358E+02  0.40659138708E+02  0.00000000000E+00 0. -1.
         11    1    3    3    0    0 -0.84745826531E+01 -0.20928067887E+02  0.71212842692E+01  0.23675203622E+02  0.51100000000E-03 0.  1.
        -11    1    3    3    0    0 -0.36979181682E+01 -0.18952346683E+01  0.14560500008E+02  0.15141818714E+02  0.51100000000E-03 0. -1.
         12    1    3    3    0    0 -0.10329840721E+02 -0.49887795842E+01 -0.23608559198E+01  0.11711838956E+02  0.00000000000E+00 0. -1.
</event>
<event>
 7    1  0.5290964E-013  0.5052886E+02  0.7816164E-02  0.1300439E+00
        -11   -1    0    0    0    0  0.00000000000E+00  0.00000000000E+00  0.45593999997E+02  0.45594000000E+02  0.51100000000E-03 0.  1.
         11   -1    0    0    0    0 -0.00000000000E+00 -0.00000000000E+00 -0.45593999997E+02  0.45594000000E+02  0.51100000000E-03 0. -1.
    9900012    2    1    2    0    0 -0.49351653305E+01  0.22258498877E+02  0.33665552202E+02  0.50528855467E+02  0.29999986677E+02 0.  0.
         12    1    1    2    0    0  0.49351653305E+01 -0.22258498877E+02 -0.33665552202E+02  0.40659144533E+02  0.00000000000E+00 0. -1.
         11    1    3    3    0    0 -0.92082263027E+01  0.21433996514E+02  0.19394641236E+02  0.30337431452E+02  0.51100000000E-03 0. -1.
        -11    1    3    3    0    0  0.66611030163E+01  0.57159442702E+01  0.78693358320E+01  0.11788501134E+02  0.51100000000E-03 0.  1.
        -12    1    3    3    0    0 -0.23880420442E+01 -0.48914419068E+01  0.64015751347E+01  0.84029228806E+01  0.00000000000E+00 0.  1.
</event>
<event>
 7    1  0.5290964E-013  0.5052885E+02  0.7816164E-02  0.1300439E+00
        -11   -1    0    0    0    0  0.00000000000E+00  0.00000000000E+00  0.45593999997E+02  0.45594000000E+02  0.51100000000E-03 0.  1.
         11   -1    0    0    0    0 -0.00000000000E+00 -0.00000000000E+00 -0.45593999997E+02  0.45594000000E+02  0.51100000000E-03 0. -1.
    9900012    2    1    2    0    0 -0.28253729876E+01 -0.13886113988E+02  0.38109839575E+02  0.50528846459E+02  0.29999959297E+02 0.  0.
         12    1    1    2    0    0  0.28253729876E+01  0.13886113988E+02 -0.38109839575E+02  0.40659153541E+02  0.00000000000E+00 0. -1.
         11    1    3    3    0    0 -0.35261379680E+01 -0.10264202480E+02  0.16193161904E+02  0.19493742438E+02  0.51100000000E-03 0. -1.
        -11    1    3    3    0    0 -0.71493371803E+01  0.37555369600E+01  0.17720692331E+02  0.19474085779E+02  0.51100000000E-03 0.  1.
         12    1    3    3    0    0  0.78501021607E+01 -0.73774484680E+01  0.41959853404E+01  0.11561018243E+02  0.00000000000E+00 0. -1.
</event>
<event>
 7    1  0.5290964E-013  0.5052885E+02  0.7816164E-02  0.1300439E+00
        -11   -1    0    0    0    0  0.00000000000E+00  0.00000000000E+00  0.45593999997E+02  0.45594000000E+02  0.51100000000E-03 0.  1.
         11   -1    0    0    0    0 -0.00000000000E+00 -0.00000000000E+00 -0.45593999997E+02  0.45594000000E+02  0.51100000000E-03 0. -1.
    9900012    2    1    2    0    0  0.19502499413E+02 -0.15552452807E+02  0.32108261494E+02  0.50528846936E+02  0.29999960748E+02 0.  0.
         12    1    1    2    0    0 -0.19502499413E+02  0.15552452807E+02 -0.32108261494E+02  0.40659153064E+02  0.00000000000E+00 0. -1.
         11    1    3    3    0    0  0.23102723019E+01 -0.98940331780E+01  0.14665274538E+02  0.17840950876E+02  0.51100000000E-03 0. -1.
        -11    1    3    3    0    0  0.77183316224E+01 -0.10789889762E+02  0.17441588326E+02  0.21913543021E+02  0.51100000000E-03 0.  1.
         12    1    3    3    0    0  0.94738954889E+01  0.51314701330E+01  0.13986299845E-02  0.10774353039E+02  0.00000000000E+00 0. -1.
</event>
<event>
 7    1  0.5290964E-013  0.5052884E+02  0.7816164E-02  0.1300439E+00
        -11   -1    0    0    0    0  0.00000000000E+00  0.00000000000E+00  0.45593999997E+02  0.45594000000E+02  0.51100000000E-03 0. -1.
         11   -1    0    0    0    0 -0.00000000000E+00 -0.00000000000E+00 -0.45593999997E+02  0.45594000000E+02  0.51100000000E-03 0.  1.
    9900012    2    1    2    0    0 -0.27768999988E+02  0.29613728501E+02 -0.22532613251E+01  0.50528837900E+02  0.29999933281E+02 0.  0.
         12    1    1    2    0    0  0.27768999988E+02 -0.29613728501E+02  0.22532613251E+01  0.40659162100E+02  0.00000000000E+00 0. -1.
         11    1    3    3    0    0 -0.24918815037E+02  0.14584353878E+02 -0.36057625558E+00  0.28875261667E+02  0.51100000000E-03 0. -1.
        -11    1    3    3    0    0 -0.85645162888E+01  0.10926523454E+02 -0.37445655646E+01  0.14379208100E+02  0.51100000000E-03 0.  1.
         12    1    3    3    0    0  0.57143313378E+01  0.41028511698E+01  0.18518804951E+01  0.72743681325E+01  0.00000000000E+00 0. -1.
</event>
<event>
 7    1  0.5290964E-013  0.5052885E+02  0.7816164E-02  0.1300439E+00
        -11   -1    0    0    0    0  0.00000000000E+00  0.00000000000E+00  0.45593999997E+02  0.45594000000E+02  0.51100000000E-03 0.  1.
         11   -1    0    0    0    0 -0.00000000000E+00 -0.00000000000E+00 -0.45593999997E+02  0.45594000000E+02  0.51100000000E-03 0. -1.
    9900012    2    1    2    0    0  0.97682192008E+01  0.13957190492E+02  0.36918086610E+02  0.50528851070E+02  0.29999973312E+02 0.  0.
         12    1    1    2    0    0 -0.97682192008E+01 -0.13957190492E+02 -0.36918086610E+02  0.40659148930E+02  0.00000000000E+00 0. -1.
         11    1    3    3    0    0  0.10655494691E+01  0.24455149109E+01  0.35749313464E+01  0.44605014565E+01  0.51100000000E-03 0.  1.
        -11    1    3    3    0    0 -0.82866062183E+01  0.51227569093E+01  0.23457327264E+02  0.25399934717E+02  0.51100000000E-03 0. -1.
         12    1    3    3    0    0  0.16989275950E+02  0.63889186717E+01  0.98858279994E+01  0.20668414896E+02  0.00000000000E+00 0. -1.
</event>
<event>
 7    1  0.5290964E-013  0.5052887E+02  0.7816164E-02  0.1300439E+00
        -11   -1    0    0    0    0  0.00000000000E+00  0.00000000000E+00  0.45593999997E+02  0.45594000000E+02  0.51100000000E-03 0.  1.
         11   -1    0    0    0    0 -0.00000000000E+00 -0.00000000000E+00 -0.45593999997E+02  0.45594000000E+02  0.51100000000E-03 0. -1.
    9900012    2    1    2    0    0 -0.11844760299E+02  0.26238996157E+02  0.28712045845E+02  0.50528870122E+02  0.30000031223E+02 0.  0.
         12    1    1    2    0    0  0.11844760299E+02 -0.26238996157E+02 -0.28712045845E+02  0.40659129878E+02  0.00000000000E+00 0. -1.
         11    1    3    3    0    0 -0.21673142117E+01  0.88026505642E+00 -0.25491021581E+01  0.34597744920E+01  0.51100000000E-03 0. -1.
        -11    1    3    3    0    0 -0.42759464537E+01  0.10530241401E+02 -0.73869512261E+00  0.11389265682E+02  0.51100000000E-03 0.  1.
        -12    1    3    3    0    0 -0.54014996335E+01  0.14828489700E+02  0.31999843126E+02  0.35679829948E+02  0.00000000000E+00 0.  1.
</event>
<event>
 7    1  0.5290964E-013  0.5052885E+02  0.7816164E-02  0.1300439E+00
        -11   -1    0    0    0    0  0.00000000000E+00  0.00000000000E+00  0.45593999997E+02  0.45594000000E+02  0.51100000000E-03 0.  1.
         11   -1    0    0    0    0 -0.00000000000E+00 -0.00000000000E+00 -0.45593999997E+02  0.45594000000E+02  0.51100000000E-03 0. -1.
    9900012    2    1    2    0    0  0.75932292740E+01  0.12841887311E+02  0.37823208762E+02  0.50528851932E+02  0.29999975933E+02 0.  0.
         12    1    1    2    0    0 -0.75932292740E+01 -0.12841887311E+02 -0.37823208762E+02  0.40659148068E+02  0.00000000000E+00 0. -1.
         11    1    3    3    0    0  0.85958000355E+01  0.18450973798E+01  0.94883570918E+01  0.12935265098E+02  0.51100000000E-03 0. -1.
        -11    1    3    3    0    0  0.71084282818E+01  0.95336099015E+01  0.50985675791E+01  0.12938889520E+02  0.51100000000E-03 0.  1.
        -12    1    3    3    0    0 -0.81109990433E+01  0.14631800292E+01  0.23236284092E+02  0.24654697314E+02  0.00000000000E+00 0.  1.
</event>
<event>
 7    1  0.5290964E-013  0.5052886E+02  0.7816164E-02  0.1300439E+00
        -11   -1    0    0    0    0  0.00000000000E+00  0.00000000000E+00  0.45593999997E+02  0.45594000000E+02  0.51100000000E-03 0.  1.
         11   -1    0    0    0    0 -0.00000000000E+00 -0.00000000000E+00 -0.45593999997E+02  0.45594000000E+02  0.51100000000E-03 0. -1.
    9900012    2    1    2    0    0  0.17572364312E+02 -0.30062466168E+00  0.36664522176E+02  0.50528861432E+02  0.30000004809E+02 0.  0.
         12    1    1    2    0    0 -0.17572364312E+02  0.30062466168E+00 -0.36664522176E+02  0.40659138568E+02  0.00000000000E+00 0. -1.
         11    1    3    3    0    0 -0.28263855909E+01  0.12577978865E+01  0.56178891897E+01  0.64133602925E+01  0.51100000000E-03 0. -1.
        -11    1    3    3    0    0  0.11318778257E+02  0.50121452023E+01  0.14447880171E+01  0.12462895067E+02  0.51100000000E-03 0.  1.
         12    1    3    3    0    0  0.90799716454E+01 -0.65705677505E+01  0.29601844969E+02  0.31652606073E+02  0.00000000000E+00 0. -1.
</event>
<event>
 7    1  0.5290964E-013  0.5052886E+02  0.7816164E-02  0.1300439E+00
        -11   -1    0    0    0    0  0.00000000000E+00  0.00000000000E+00  0.45593999997E+02  0.45594000000E+02  0.51100000000E-03 0.  1.
         11   -1    0    0    0    0 -0.00000000000E+00 -0.00000000000E+00 -0.45593999997E+02  0.45594000000E+02  0.51100000000E-03 0. -1.
    9900012    2    1    2    0    0 -0.18394714900E+02  0.36050842679E+02 -0.38906355224E+01  0.50528857868E+02  0.29999993975E+02 0.  0.
         12    1    1    2    0    0  0.18394714900E+02 -0.36050842679E+02  0.38906355224E+01  0.40659142132E+02  0.00000000000E+00 0. -1.
         11    1    3    3    0    0  0.17124117607E+01  0.32844943631E+01 -0.34209239066E+01  0.50421203769E+01  0.51100000000E-03 0. -1.
        -11    1    3    3    0    0  0.15835502979E+01  0.24604284027E+01  0.69016990379E+01  0.74963183859E+01  0.51100000000E-03 0.  1.
        -12    1    3    3    0    0 -0.21690676959E+02  0.30305919914E+02 -0.73714106538E+01  0.37990419105E+02  0.00000000000E+00 0.  1.
</event>
<event>
 7    1  0.5290964E-013  0.5052884E+02  0.7816164E-02  0.1300439E+00
        -11   -1    0    0    0    0  0.00000000000E+00  0.00000000000E+00  0.45593999997E+02  0.45594000000E+02  0.51100000000E-03 0.  1.
         11   -1    0    0    0    0 -0.00000000000E+00 -0.00000000000E+00 -0.45593999997E+02  0.45594000000E+02  0.51100000000E-03 0. -1.
    9900012    2    1    2    0    0  0.12272389565E+02 -0.26941607032E+02  0.27869435771E+02  0.50528841311E+02  0.29999943649E+02 0.  0.
         12    1    1    2    0    0 -0.12272389565E+02  0.26941607032E+02 -0.27869435771E+02  0.40659158689E+02  0.00000000000E+00 0. -1.
         11    1    3    3    0    0  0.51196042095E+01 -0.12196305278E+02  0.28068803578E+01  0.13521789353E+02  0.51100000000E-03 0. -1.
        -11    1    3    3    0    0  0.13800885941E+02 -0.13575864212E+02  0.13441624369E+02  0.23567897823E+02  0.51100000000E-03 0.  1.
        -12    1    3    3    0    0 -0.66481005852E+01 -0.11694375425E+01  0.11620931044E+02  0.13439154135E+02  0.00000000000E+00 0.  1.
</event>
<event>
 7    1  0.5290964E-013  0.5052886E+02  0.7816164E-02  0.1300439E+00
        -11   -1    0    0    0    0  0.00000000000E+00  0.00000000000E+00  0.45593999997E+02  0.45594000000E+02  0.51100000000E-03 0.  1.
         11   -1    0    0    0    0 -0.00000000000E+00 -0.00000000000E+00 -0.45593999997E+02  0.45594000000E+02  0.51100000000E-03 0. -1.
    9900012    2    1    2    0    0  0.38288032759E+02 -0.53658974984E+00  0.13671291108E+02  0.50528861031E+02  0.30000003591E+02 0.  0.
         12    1    1    2    0    0 -0.38288032759E+02  0.53658974984E+00 -0.13671291108E+02  0.40659138969E+02  0.00000000000E+00 0. -1.
         11    1    3    3    0    0  0.83965904238E+01  0.74137068966E+00  0.13626172514E+02  0.16022638325E+02  0.51100000000E-03 0. -1.
        -11    1    3    3    0    0  0.26717116491E+01 -0.18403844501E+01  0.58309270673E+01  0.66726882728E+01  0.51100000000E-03 0.  1.
        -12    1    3    3    0    0  0.27219730686E+02  0.56242401056E+00 -0.57858084734E+01  0.27833534434E+02  0.00000000000E+00 0.  1.
</event>
<event>
 7    1  0.5290964E-013  0.5052890E+02  0.7816164E-02  0.1300439E+00
        -11   -1    0    0    0    0  0.00000000000E+00  0.00000000000E+00  0.45593999997E+02  0.45594000000E+02  0.51100000000E-03 0.  1.
         11   -1    0    0    0    0 -0.00000000000E+00 -0.00000000000E+00 -0.45593999997E+02  0.45594000000E+02  0.51100000000E-03 0. -1.
    9900012    2    1    2    0    0  0.37935553650E+02  0.12908694768E+02  0.68863707979E+01  0.50528896049E+02  0.30000110031E+02 0.  0.
         12    1    1    2    0    0 -0.37935553650E+02 -0.12908694768E+02 -0.68863707979E+01  0.40659103951E+02  0.00000000000E+00 0. -1.
         11    1    3    3    0    0  0.65942633999E+01  0.10187509744E+02 -0.47987034888E+01  0.13049797700E+02  0.51100000000E-03 0. -1.
        -11    1    3    3    0    0 -0.31572258405E+00  0.10589155335E+01 -0.25122217504E+01  0.27444928933E+01  0.51100000000E-03 0.  1.
        -12    1    3    3    0    0  0.31657012834E+02  0.16622694904E+01  0.14197296037E+02  0.34734605456E+02  0.00000000000E+00 0.  1.
</event>
<event>
 7    1  0.5290964E-013  0.5052886E+02  0.7816164E-02  0.1300439E+00
        -11   -1    0    0    0    0  0.00000000000E+00  0.00000000000E+00  0.45593999997E+02  0.45594000000E+02  0.51100000000E-03 0.  1.
         11   -1    0    0    0    0 -0.00000000000E+00 -0.00000000000E+00 -0.45593999997E+02  0.45594000000E+02  0.51100000000E-03 0. -1.
    9900012    2    1    2    0    0  0.40310322120E+02  0.47044773480E+01 -0.24721681225E+01  0.50528858448E+02  0.29999995739E+02 0.  0.
         12    1    1    2    0    0 -0.40310322120E+02 -0.47044773480E+01  0.24721681225E+01  0.40659141552E+02  0.00000000000E+00 0. -1.
         11    1    3    3    0    0  0.10700715069E+02  0.11468845424E+02  0.74783744707E+01  0.17377163270E+02  0.51100000000E-03 0. -1.
        -11    1    3    3    0    0  0.65955668418E+01  0.13036394743E+01  0.22444351188E+00  0.67269125901E+01  0.51100000000E-03 0.  1.
        -12    1    3    3    0    0  0.23014040209E+02 -0.80680075500E+01 -0.10174986105E+02  0.26424782588E+02  0.00000000000E+00 0.  1.
</event>
<event>
 7    1  0.5290964E-013  0.5052886E+02  0.7816164E-02  0.1300439E+00
        -11   -1    0    0    0    0  0.00000000000E+00  0.00000000000E+00  0.45593999997E+02  0.45594000000E+02  0.51100000000E-03 0.  1.
         11   -1    0    0    0    0 -0.00000000000E+00 -0.00000000000E+00 -0.45593999997E+02  0.45594000000E+02  0.51100000000E-03 0. -1.
    9900012    2    1    2    0    0  0.90785777016E+01  0.26978844626E+02  0.29032512820E+02  0.50528862883E+02  0.30000009220E+02 0.  0.
         12    1    1    2    0    0 -0.90785777016E+01 -0.26978844626E+02 -0.29032512820E+02  0.40659137117E+02  0.00000000000E+00 0. -1.
         11    1    3    3    0    0 -0.39003049445E+01  0.82437446940E+01  0.86645258361E+01  0.12579575250E+02  0.51100000000E-03 0. -1.
        -11    1    3    3    0    0 -0.48860017991E+01  0.11723416706E+02  0.64697396313E+01  0.14253737896E+02  0.51100000000E-03 0.  1.
         12    1    3    3    0    0  0.17864884445E+02  0.70116832256E+01  0.13898247352E+02  0.23695549737E+02  0.00000000000E+00 0. -1.
</event>
<event>
 7    1  0.5290964E-013  0.5052886E+02  0.7816164E-02  0.1300439E+00
        -11   -1    0    0    0    0  0.00000000000E+00  0.00000000000E+00  0.45593999997E+02  0.45594000000E+02  0.51100000000E-03 0. -1.
         11   -1    0    0    0    0 -0.00000000000E+00 -0.00000000000E+00 -0.45593999997E+02  0.45594000000E+02  0.51100000000E-03 0.  1.
    9900012    2    1    2    0    0 -0.35998688705E+02 -0.15138816175E+02 -0.11317097830E+02  0.50528855310E+02  0.29999986199E+02 0.  0.
         12    1    1    2    0    0  0.35998688705E+02  0.15138816175E+02  0.11317097830E+02  0.40659144690E+02  0.00000000000E+00 0. -1.
         11    1    3    3    0    0 -0.62966542828E+01 -0.50765065056E+01  0.13204175995E+01  0.81952593831E+01  0.51100000000E-03 0. -1.
        -11    1    3    3    0    0 -0.20396004110E+02 -0.49154007928E+01  0.51561056990E+01  0.21604248999E+02  0.51100000000E-03 0.  1.
         12    1    3    3    0    0 -0.93060303128E+01 -0.51469088764E+01 -0.17793621128E+02  0.20729346927E+02  0.00000000000E+00 0. -1.
</event>
<event>
 7    1  0.5290964E-013  0.5052886E+02  0.7816164E-02  0.1300439E+00
        -11   -1    0    0    0    0  0.00000000000E+00  0.00000000000E+00  0.45593999997E+02  0.45594000000E+02  0.51100000000E-03 0.  1.
         11   -1    0    0    0    0 -0.00000000000E+00 -0.00000000000E+00 -0.45593999997E+02  0.45594000000E+02  0.51100000000E-03 0. -1.
    9900012    2    1    2    0    0  0.30182781372E+01 -0.26425795750E+02  0.30752774177E+02  0.50528858303E+02  0.29999995298E+02 0.  0.
         12    1    1    2    0    0 -0.30182781372E+01  0.26425795750E+02 -0.30752774177E+02  0.40659141697E+02  0.00000000000E+00 0. -1.
         11    1    3    3    0    0  0.64115589673E+01 -0.16657012495E+01  0.20030277776E+01  0.69206047122E+01  0.51100000000E-03 0. -1.
        -11    1    3    3    0    0 -0.44613528857E+01 -0.11954843051E+01  0.16287681629E+02  0.16929897384E+02  0.51100000000E-03 0.  1.
         12    1    3    3    0    0  0.10680720557E+01 -0.23564610196E+02  0.12462064770E+02  0.26678356207E+02  0.00000000000E+00 0. -1.
</event>
<event>
 7    1  0.5290964E-013  0.5052886E+02  0.7816164E-02  0.1300439E+00
        -11   -1    0    0    0    0  0.00000000000E+00  0.00000000000E+00  0.45593999997E+02  0.45594000000E+02  0.51100000000E-03 0. -1.
         11   -1    0    0    0    0 -0.00000000000E+00 -0.00000000000E+00 -0.45593999997E+02  0.45594000000E+02  0.51100000000E-03 0.  1.
    9900012    2    1    2    0    0 -0.11764045175E+02 -0.38717361860E+02  0.39672079290E+01  0.50528860719E+02  0.30000002642E+02 0.  0.
         12    1    1    2    0    0  0.11764045175E+02  0.38717361860E+02 -0.39672079290E+01  0.40659139281E+02  0.00000000000E+00 0. -1.
         11    1    3    3    0    0 -0.82101628972E+01 -0.22671664995E+02  0.33787839626E+00  0.24114836315E+02  0.51100000000E-03 0. -1.
        -11    1    3    3    0    0 -0.69854503790E+01 -0.17078316846E+02 -0.31757963246E+01  0.18723010063E+02  0.51100000000E-03 0.  1.
         12    1    3    3    0    0  0.34315681012E+01  0.10326199798E+01  0.68051258574E+01  0.76910143408E+01  0.00000000000E+00 0. -1.
</event>
<event>
 7    1  0.5290964E-013  0.5052886E+02  0.7816164E-02  0.1300439E+00
        -11   -1    0    0    0    0  0.00000000000E+00  0.00000000000E+00  0.45593999997E+02  0.45594000000E+02  0.51100000000E-03 0.  1.
         11   -1    0    0    0    0 -0.00000000000E+00 -0.00000000000E+00 -0.45593999997E+02  0.45594000000E+02  0.51100000000E-03 0. -1.
    9900012    2    1    2    0    0  0.39358482071E+02 -0.84433977407E+01  0.57257813274E+01  0.50528860214E+02  0.30000001106E+02 0.  0.
         12    1    1    2    0    0 -0.39358482071E+02  0.84433977407E+01 -0.57257813274E+01  0.40659139786E+02  0.00000000000E+00 0. -1.
         11    1    3    3    0    0  0.16787593365E+01  0.17809755207E+01  0.29291992527E+01  0.38171082299E+01  0.51100000000E-03 0. -1.
        -11    1    3    3    0    0  0.19160692934E+02 -0.97763770163E+01  0.13423592692E+02  0.25355522916E+02  0.51100000000E-03 0.  1.
        -12    1    3    3    0    0  0.18519029800E+02 -0.44799624506E+00 -0.10627010618E+02  0.21356229069E+02  0.00000000000E+00 0.  1.
</event>
<event>
 7    1  0.5290964E-013  0.5052890E+02  0.7816164E-02  0.1300439E+00
        -11   -1    0    0    0    0  0.00000000000E+00  0.00000000000E+00  0.45593999997E+02  0.45594000000E+02  0.51100000000E-03 0. -1.
         11   -1    0    0    0    0 -0.00000000000E+00 -0.00000000000E+00 -0.45593999997E+02  0.45594000000E+02  0.51100000000E-03 0.  1.
    9900012    2    1    2    0    0 -0.18227198082E+02  0.15446623133E+02 -0.32898835465E+02  0.50528901497E+02  0.30000126589E+02 0.  0.
         12    1    1    2    0    0  0.18227198082E+02 -0.15446623133E+02  0.32898835465E+02  0.40659098503E+02  0.00000000000E+00 0. -1.
         11    1    3    3    0    0 -0.86715245553E+01  0.64182838241E+00 -0.20119796103E+02  0.21918336553E+02  0.51100000000E-03 0.  1.
        -11    1    3    3    0    0 -0.10637066566E+02  0.85729153051E+00 -0.17887442186E+01  0.10820431601E+02  0.51100000000E-03 0. -1.
         12    1    3    3    0    0  0.10813930391E+01  0.13947503220E+02 -0.10990295144E+02  0.17790133342E+02  0.00000000000E+00 0. -1.
</event>
<event>
 7    1  0.5290964E-013  0.5052873E+02  0.7816164E-02  0.1300439E+00
        -11   -1    0    0    0    0  0.00000000000E+00  0.00000000000E+00  0.45593999997E+02  0.45594000000E+02  0.51100000000E-03 0. -1.
         11   -1    0    0    0    0 -0.00000000000E+00 -0.00000000000E+00 -0.45593999997E+02  0.45594000000E+02  0.51100000000E-03 0.  1.
    9900012    2    1    2    0    0  0.18166903208E+02 -0.16478368298E+02 -0.32428434002E+02  0.50528728908E+02  0.29999601986E+02 0.  0.
         12    1    1    2    0    0 -0.18166903208E+02  0.16478368298E+02  0.32428434002E+02  0.40659271092E+02  0.00000000000E+00 0. -1.
         11    1    3    3    0    0  0.41099368126E+01  0.34955777895E+00 -0.33332089836E+01  0.53032116339E+01  0.51100000000E-03 0.  1.
        -11    1    3    3    0    0  0.74348131460E+01 -0.61279093058E+01 -0.31032556621E+02  0.32493803866E+02  0.51100000000E-03 0. -1.
         12    1    3    3    0    0  0.66221532493E+01 -0.10700016771E+02  0.19373316033E+01  0.12731713408E+02  0.00000000000E+00 0. -1.
</event>
<event>
 7    1  0.5290964E-013  0.5052886E+02  0.7816164E-02  0.1300439E+00
        -11   -1    0    0    0    0  0.00000000000E+00  0.00000000000E+00  0.45593999997E+02  0.45594000000E+02  0.51100000000E-03 0.  1.
         11   -1    0    0    0    0 -0.00000000000E+00 -0.00000000000E+00 -0.45593999997E+02  0.45594000000E+02  0.51100000000E-03 0. -1.
    9900012    2    1    2    0    0  0.26124001698E+02 -0.30743958737E+02  0.50508434499E+01  0.50528862244E+02  0.30000007277E+02 0.  0.
         12    1    1    2    0    0 -0.26124001698E+02  0.30743958737E+02 -0.50508434499E+01  0.40659137756E+02  0.00000000000E+00 0. -1.
         11    1    3    3    0    0  0.11655803281E+02 -0.47191941133E+01 -0.28780504128E+01  0.12900066575E+02  0.51100000000E-03 0. -1.
        -11    1    3    3    0    0  0.16645533141E+02 -0.15065700410E+02 -0.21859895482E+01  0.22557208447E+02  0.51100000000E-03 0.  1.
        -12    1    3    3    0    0 -0.21773347244E+01 -0.10959064214E+02  0.10114883411E+02  0.15071587221E+02  0.00000000000E+00 0.  1.
</event>
<event>
 7    1  0.5290964E-013  0.5052882E+02  0.7816164E-02  0.1300439E+00
        -11   -1    0    0    0    0  0.00000000000E+00  0.00000000000E+00  0.45593999997E+02  0.45594000000E+02  0.51100000000E-03 0.  1.
         11   -1    0    0    0    0 -0.00000000000E+00 -0.00000000000E+00 -0.45593999997E+02  0.45594000000E+02  0.51100000000E-03 0. -1.
    9900012    2    1    2    0    0 -0.35640322696E+02  0.17745341335E+02  0.82485958325E+01  0.50528818083E+02  0.29999873044E+02 0.  0.
         12    1    1    2    0    0  0.35640322696E+02 -0.17745341335E+02 -0.82485958325E+01  0.40659181917E+02  0.00000000000E+00 0. -1.
         11    1    3    3    0    0 -0.18112368184E+02  0.10950821115E+02  0.93753003847E+01  0.23148965893E+02  0.51100000000E-03 0. -1.
        -11    1    3    3    0    0 -0.20094963171E+02  0.85423882120E+01 -0.50147698415E+01  0.22403746517E+02  0.51100000000E-03 0.  1.
         12    1    3    3    0    0  0.25670086592E+01 -0.17478679914E+01  0.38880652893E+01  0.49761056727E+01  0.00000000000E+00 0. -1.
</event>
<event>
 7    1  0.5290964E-013  0.5052885E+02  0.7816164E-02  0.1300439E+00
        -11   -1    0    0    0    0  0.00000000000E+00  0.00000000000E+00  0.45593999997E+02  0.45594000000E+02  0.51100000000E-03 0.  1.
         11   -1    0    0    0    0 -0.00000000000E+00 -0.00000000000E+00 -0.45593999997E+02  0.45594000000E+02  0.51100000000E-03 0. -1.
    9900012    2    1    2    0    0  0.11661319807E+02  0.25622637699E+02  0.29337012975E+02  0.50528852535E+02  0.29999977765E+02 0.  0.
         12    1    1    2    0    0 -0.11661319807E+02 -0.25622637699E+02 -0.29337012975E+02  0.40659147465E+02  0.00000000000E+00 0. -1.
         11    1    3    3    0    0  0.11905182335E+02  0.20575657925E+02  0.12250702606E+02  0.26742677130E+02  0.51100000000E-03 0. -1.
        -11    1    3    3    0    0  0.69437267228E+01  0.40792766299E+01  0.13441452586E+02  0.15669348631E+02  0.51100000000E-03 0.  1.
         12    1    3    3    0    0 -0.71875892513E+01  0.96770314364E+00  0.36448577824E+01  0.81168267736E+01  0.00000000000E+00 0. -1.
</event>
<event>
 7    1  0.5290964E-013  0.5052886E+02  0.7816164E-02  0.1300439E+00
        -11   -1    0    0    0    0  0.00000000000E+00  0.00000000000E+00  0.45593999997E+02  0.45594000000E+02  0.51100000000E-03 0. -1.
         11   -1    0    0    0    0 -0.00000000000E+00 -0.00000000000E+00 -0.45593999997E+02  0.45594000000E+02  0.51100000000E-03 0.  1.
    9900012    2    1    2    0    0 -0.74855102233E+01  0.28576115723E+02 -0.27938118798E+02  0.50528859145E+02  0.29999997857E+02 0.  0.
         12    1    1    2    0    0  0.74855102233E+01 -0.28576115723E+02  0.27938118798E+02  0.40659140855E+02  0.00000000000E+00 0. -1.
         11    1    3    3    0    0 -0.14922048097E+02  0.14636593391E+02 -0.25387729197E+02  0.32885166558E+02  0.51100000000E-03 0. -1.
        -11    1    3    3    0    0 -0.10484943961E+01  0.41507994127E-01 -0.68647091317E+00  0.12539162603E+01  0.51100000000E-03 0.  1.
        -12    1    3    3    0    0  0.84850322696E+01  0.13898014338E+02 -0.18639186871E+01  0.16389776326E+02  0.00000000000E+00 0.  1.
</event>
<event>
 7    1  0.5290964E-013  0.5052887E+02  0.7816164E-02  0.1300439E+00
        -11   -1    0    0    0    0  0.00000000000E+00  0.00000000000E+00  0.45593999997E+02  0.45594000000E+02  0.51100000000E-03 0.  1.
         11   -1    0    0    0    0 -0.00000000000E+00 -0.00000000000E+00 -0.45593999997E+02  0.45594000000E+02  0.51100000000E-03 0. -1.
    9900012    2    1    2    0    0  0.71686446689E+01 -0.17735132346E+02  0.35878132144E+02  0.50528871236E+02  0.30000034609E+02 0.  0.
         12    1    1    2    0    0 -0.71686446689E+01  0.17735132346E+02 -0.35878132144E+02  0.40659128764E+02  0.00000000000E+00 0. -1.
         11    1    3    3    0    0  0.40728446850E+01  0.42413731532E+01  0.63760003067E+01  0.86735627181E+01  0.51100000000E-03 0. -1.
        -11    1    3    3    0    0  0.21259305283E+01  0.33940352326E+01  0.62772809039E+01  0.74460265631E+01  0.51100000000E-03 0.  1.
         12    1    3    3    0    0  0.96986945554E+00 -0.25370540732E+02  0.23224850933E+02  0.34409281955E+02  0.00000000000E+00 0. -1.
</event>
<event>
 7    1  0.5290964E-013  0.5052900E+02  0.7816164E-02  0.1300438E+00
        -11   -1    0    0    0    0  0.00000000000E+00  0.00000000000E+00  0.45593999997E+02  0.45594000000E+02  0.51100000000E-03 0.  1.
         11   -1    0    0    0    0 -0.00000000000E+00 -0.00000000000E+00 -0.45593999997E+02  0.45594000000E+02  0.51100000000E-03 0. -1.
    9900012    2    1    2    0    0  0.25496283099E+02 -0.23447995654E+02  0.21290491902E+02  0.50529003487E+02  0.30000436595E+02 0.  0.
         12    1    1    2    0    0 -0.25496283099E+02  0.23447995654E+02 -0.21290491902E+02  0.40658996513E+02  0.00000000000E+00 0. -1.
         11    1    3    3    0    0  0.67179243374E+01  0.13154355820E+00 -0.19735794629E+01  0.70030584225E+01  0.51100000000E-03 0. -1.
        -11    1    3    3    0    0  0.20474375681E+02 -0.94718552912E+01  0.14946062080E+02  0.27061058260E+02  0.51100000000E-03 0.  1.
         12    1    3    3    0    0 -0.16960169201E+01 -0.14107683921E+02  0.83180092847E+01  0.16464886804E+02  0.00000000000E+00 0. -1.
</event>
<event>
 7    1  0.5290964E-013  0.5052886E+02  0.7816164E-02  0.1300439E+00
        -11   -1    0    0    0    0  0.00000000000E+00  0.00000000000E+00  0.45593999997E+02  0.45594000000E+02  0.51100000000E-03 0.  1.
         11   -1    0    0    0    0 -0.00000000000E+00 -0.00000000000E+00 -0.45593999997E+02  0.45594000000E+02  0.51100000000E-03 0. -1.
    9900012    2    1    2    0    0 -0.79374732720E+01 -0.44711562963E+01  0.39625382165E+02  0.50528860409E+02  0.30000001700E+02 0.  0.
         12    1    1    2    0    0  0.79374732720E+01  0.44711562963E+01 -0.39625382165E+02  0.40659139591E+02  0.00000000000E+00 0. -1.
         11    1    3    3    0    0 -0.10705888435E+02 -0.30902935788E+01  0.44093644893E+01  0.11983674605E+02  0.51100000000E-03 0. -1.
        -11    1    3    3    0    0 -0.42015974355E+01 -0.57993443927E+01  0.19866616211E+02  0.21117960516E+02  0.51100000000E-03 0.  1.
        -12    1    3    3    0    0  0.69700125985E+01  0.44184816753E+01  0.15349401464E+02  0.17427225288E+02  0.00000000000E+00 0.  1.
</event>
<event>
 7    1  0.5290964E-013  0.5052885E+02  0.7816164E-02  0.1300439E+00
        -11   -1    0    0    0    0  0.00000000000E+00  0.00000000000E+00  0.45593999997E+02  0.45594000000E+02  0.51100000000E-03 0.  1.
         11   -1    0    0    0    0 -0.00000000000E+00 -0.00000000000E+00 -0.45593999997E+02  0.45594000000E+02  0.51100000000E-03 0. -1.
    9900012    2    1    2    0    0 -0.72817353122E+01 -0.33624154747E+02  0.21669308215E+02  0.50528851335E+02  0.29999974119E+02 0.  0.
         12    1    1    2    0    0  0.72817353122E+01  0.33624154747E+02 -0.21669308215E+02  0.40659148665E+02  0.00000000000E+00 0. -1.
         11    1    3    3    0    0  0.21960352786E+00 -0.22155273721E+01  0.35429561311E+01  0.41844146130E+01  0.51100000000E-03 0. -1.
        -11    1    3    3    0    0 -0.11919881159E+02 -0.32332583745E+02  0.81737327486E+01  0.35415949031E+02  0.51100000000E-03 0.  1.
         12    1    3    3    0    0  0.44185423185E+01  0.92395636972E+00  0.99526193355E+01  0.10928487692E+02  0.00000000000E+00 0. -1.
</event>
<event>
 7    1  0.5290964E-013  0.5052886E+02  0.7816164E-02  0.1300439E+00
        -11   -1    0    0    0    0  0.00000000000E+00  0.00000000000E+00  0.45593999997E+02  0.45594000000E+02  0.51100000000E-03 0.  1.
         11   -1    0    0    0    0 -0.00000000000E+00 -0.00000000000E+00 -0.45593999997E+02  0.45594000000E+02  0.51100000000E-03 0. -1.
    9900012    2    1    2    0    0 -0.91785252634E+01 -0.18174380110E+02  0.35193923385E+02  0.50528860048E+02  0.30000000602E+02 0.  0.
         12    1    1    2    0    0  0.91785252634E+01  0.18174380110E+02 -0.35193923385E+02  0.40659139952E+02  0.00000000000E+00 0. -1.
         11    1    3    3    0    0  0.20554892525E+01  0.12745607843E+01  0.28207659743E+00  0.24349761248E+01  0.51100000000E-03 0. -1.
        -11    1    3    3    0    0 -0.31811546334E-01  0.38214573219E+01  0.15010153090E+02  0.15489003974E+02  0.51100000000E-03 0.  1.
        -12    1    3    3    0    0 -0.11202202970E+02 -0.23270398216E+02  0.19901693698E+02  0.32604879950E+02  0.00000000000E+00 0.  1.
</event>
<event>
 7    1  0.5290964E-013  0.5052883E+02  0.7816164E-02  0.1300439E+00
        -11   -1    0    0    0    0  0.00000000000E+00  0.00000000000E+00  0.45593999997E+02  0.45594000000E+02  0.51100000000E-03 0.  1.
         11   -1    0    0    0    0 -0.00000000000E+00 -0.00000000000E+00 -0.45593999997E+02  0.45594000000E+02  0.51100000000E-03 0. -1.
    9900012    2    1    2    0    0  0.82775584350E+01  0.39753850521E+02  0.20690950296E+01  0.50528834255E+02  0.29999922200E+02 0.  0.
         12    1    1    2    0    0 -0.82775584350E+01 -0.39753850521E+02 -0.20690950296E+01  0.40659165745E+02  0.00000000000E+00 0. -1.
         11    1    3    3    0    0 -0.40448578953E+01  0.74970613697E+01 -0.35091686717E+00  0.85258399869E+01  0.51100000000E-03 0. -1.
        -11    1    3    3    0    0  0.10662869154E+02  0.19466385414E+02  0.12644339409E+02  0.25544397801E+02  0.51100000000E-03 0.  1.
         12    1    3    3    0    0  0.16595471764E+01  0.12790403737E+02 -0.10224327512E+02  0.16458596467E+02  0.00000000000E+00 0. -1.
</event>
<event>
 7    1  0.5290964E-013  0.5052886E+02  0.7816164E-02  0.1300439E+00
        -11   -1    0    0    0    0  0.00000000000E+00  0.00000000000E+00  0.45593999997E+02  0.45594000000E+02  0.51100000000E-03 0.  1.
         11   -1    0    0    0    0 -0.00000000000E+00 -0.00000000000E+00 -0.45593999997E+02  0.45594000000E+02  0.51100000000E-03 0. -1.
    9900012    2    1    2    0    0  0.20939793650E+02  0.21087795228E+01  0.34788559123E+02  0.50528858900E+02  0.29999997112E+02 0.  0.
         12    1    1    2    0    0 -0.20939793650E+02 -0.21087795228E+01 -0.34788559123E+02  0.40659141100E+02  0.00000000000E+00 0. -1.
         11    1    3    3    0    0  0.13712101157E+01 -0.52299395496E+01  0.12457575308E+02  0.13580267585E+02  0.51100000000E-03 0. -1.
        -11    1    3    3    0    0  0.78928850837E+01 -0.72600470014E+01  0.87877572563E+01  0.13864724854E+02  0.51100000000E-03 0.  1.
         12    1    3    3    0    0  0.11675698450E+02  0.14598766074E+02  0.13543226559E+02  0.23083866461E+02  0.00000000000E+00 0. -1.
</event>
<event>
 7    1  0.5290964E-013  0.5052885E+02  0.7816164E-02  0.1300439E+00
        -11   -1    0    0    0    0  0.00000000000E+00  0.00000000000E+00  0.45593999997E+02  0.45594000000E+02  0.51100000000E-03 0.  1.
         11   -1    0    0    0    0 -0.00000000000E+00 -0.00000000000E+00 -0.45593999997E+02  0.45594000000E+02  0.51100000000E-03 0. -1.
    9900012    2    1    2    0    0 -0.22501605195E+02 -0.25555146782E+02  0.22221123385E+02  0.50528854806E+02  0.29999984669E+02 0.  0.
         12    1    1    2    0    0  0.22501605195E+02  0.25555146782E+02 -0.22221123385E+02  0.40659145194E+02  0.00000000000E+00 0. -1.
         11    1    3    3    0    0 -0.44796438673E+01 -0.14070421560E+01  0.93910118064E+01  0.10499432357E+02  0.51100000000E-03 0. -1.
        -11    1    3    3    0    0 -0.15711332001E+02 -0.10906628210E+02  0.17375566004E+02  0.25840100355E+02  0.51100000000E-03 0.  1.
         12    1    3    3    0    0 -0.23106293268E+01 -0.13241476416E+02 -0.45454544254E+01  0.14189322095E+02  0.00000000000E+00 0. -1.
</event>
<event>
 7    1  0.5290964E-013  0.5052883E+02  0.7816164E-02  0.1300439E+00
        -11   -1    0    0    0    0  0.00000000000E+00  0.00000000000E+00  0.45593999997E+02  0.45594000000E+02  0.51100000000E-03 0.  1.
         11   -1    0    0    0    0 -0.00000000000E+00 -0.00000000000E+00 -0.45593999997E+02  0.45594000000E+02  0.51100000000E-03 0. -1.
    9900012    2    1    2    0    0  0.27124444965E+02  0.85589063313E+01  0.29054738210E+02  0.50528828776E+02  0.29999905546E+02 0.  0.
         12    1    1    2    0    0 -0.27124444965E+02 -0.85589063313E+01 -0.29054738210E+02  0.40659171224E+02  0.00000000000E+00 0. -1.
         11    1    3    3    0    0 -0.91630631549E+00 -0.47060807140E+01  0.72924329718E+01  0.87273358971E+01  0.51100000000E-03 0. -1.
        -11    1    3    3    0    0  0.40540729884E+01  0.10370002887E+02  0.40671451322E+01  0.11853865929E+02  0.51100000000E-03 0.  1.
        -12    1    3    3    0    0  0.23986678292E+02  0.28949841583E+01  0.17695160106E+02  0.29947626950E+02  0.00000000000E+00 0.  1.
</event>
<event>
 7    1  0.5290964E-013  0.5052886E+02  0.7816164E-02  0.1300439E+00
        -11   -1    0    0    0    0  0.00000000000E+00  0.00000000000E+00  0.45593999997E+02  0.45594000000E+02  0.51100000000E-03 0. -1.
         11   -1    0    0    0    0 -0.00000000000E+00 -0.00000000000E+00 -0.45593999997E+02  0.45594000000E+02  0.51100000000E-03 0.  1.
    9900012    2    1    2    0    0  0.20608720752E+02 -0.34958716925E+02 -0.25168267147E+01  0.50528859862E+02  0.30000000037E+02 0.  0.
         12    1    1    2    0    0 -0.20608720752E+02  0.34958716925E+02  0.25168267147E+01  0.40659140138E+02  0.00000000000E+00 0. -1.
         11    1    3    3    0    0  0.95668704830E+01 -0.33437747676E+01  0.70118583785E+01  0.12323635775E+02  0.51100000000E-03 0. -1.
        -11    1    3    3    0    0  0.71974319072E+01 -0.11811414411E+02  0.34016637334E+01  0.14243730300E+02  0.51100000000E-03 0.  1.
        -12    1    3    3    0    0  0.38444183618E+01 -0.19803527746E+02 -0.12930348827E+02  0.23961493787E+02  0.00000000000E+00 0.  1.
</event>
<event>
 7    1  0.5290964E-013  0.5052884E+02  0.7816164E-02  0.1300439E+00
        -11   -1    0    0    0    0  0.00000000000E+00  0.00000000000E+00  0.45593999997E+02  0.45594000000E+02  0.51100000000E-03 0.  1.
         11   -1    0    0    0    0 -0.00000000000E+00 -0.00000000000E+00 -0.45593999997E+02  0.45594000000E+02  0.51100000000E-03 0. -1.
    9900012    2    1    2    0    0  0.17206228772E+02  0.36382445986E+02  0.57819261967E+01  0.50528839223E+02  0.29999937304E+02 0.  0.
         12    1    1    2    0    0 -0.17206228772E+02 -0.36382445986E+02 -0.57819261967E+01  0.40659160777E+02  0.00000000000E+00 0. -1.
         11    1    3    3    0    0  0.19587884659E+01  0.39590959555E+01 -0.46734760889E+01  0.64306043304E+01  0.51100000000E-03 0. -1.
        -11    1    3    3    0    0  0.16588360248E+02  0.32132559951E+02  0.15150092154E+02  0.39207147272E+02  0.51100000000E-03 0.  1.
         12    1    3    3    0    0 -0.13409199416E+01  0.29079008035E+00 -0.46946898680E+01  0.48910876211E+01  0.00000000000E+00 0. -1.
</event>
<event>
 7    1  0.5290964E-013  0.5052884E+02  0.7816164E-02  0.1300439E+00
        -11   -1    0    0    0    0  0.00000000000E+00  0.00000000000E+00  0.45593999997E+02  0.45594000000E+02  0.51100000000E-03 0.  1.
         11   -1    0    0    0    0 -0.00000000000E+00 -0.00000000000E+00 -0.45593999997E+02  0.45594000000E+02  0.51100000000E-03 0. -1.
    9900012    2    1    2    0    0  0.18065718279E+01 -0.11606366568E+02  0.38925514362E+02  0.50528842175E+02  0.29999946275E+02 0.  0.
         12    1    1    2    0    0 -0.18065718279E+01  0.11606366568E+02 -0.38925514362E+02  0.40659157825E+02  0.00000000000E+00 0. -1.
         11    1    3    3    0    0  0.60527120816E+01 -0.78729416297E+01  0.28189205205E+01  0.10323025071E+02  0.51100000000E-03 0. -1.
        -11    1    3    3    0    0 -0.81236971266E+01 -0.78344339243E+01  0.18051803373E+02  0.21289443750E+02  0.51100000000E-03 0.  1.
        -12    1    3    3    0    0  0.38775568730E+01  0.41010089859E+01  0.18054790469E+02  0.18916373354E+02  0.00000000000E+00 0.  1.
</event>
<event>
 7    1  0.5290964E-013  0.5052889E+02  0.7816164E-02  0.1300439E+00
        -11   -1    0    0    0    0  0.00000000000E+00  0.00000000000E+00  0.45593999997E+02  0.45594000000E+02  0.51100000000E-03 0.  1.
         11   -1    0    0    0    0 -0.00000000000E+00 -0.00000000000E+00 -0.45593999997E+02  0.45594000000E+02  0.51100000000E-03 0. -1.
    9900012    2    1    2    0    0 -0.25979570460E+02  0.31214827821E+02  0.19646149736E+01  0.50528889469E+02  0.30000090029E+02 0.  0.
         12    1    1    2    0    0  0.25979570460E+02 -0.31214827821E+02 -0.19646149736E+01  0.40659110531E+02  0.00000000000E+00 0. -1.
         11    1    3    3    0    0 -0.16694851772E+01 -0.32161255133E+01  0.78076861053E+00  0.37067835057E+01  0.51100000000E-03 0. -1.
        -11    1    3    3    0    0 -0.10686284373E+01  0.23459837363E+01  0.63642569213E+01  0.68665400930E+01  0.51100000000E-03 0.  1.
        -12    1    3    3    0    0 -0.23241456846E+02  0.32084969598E+02 -0.51804105583E+01  0.39955565870E+02  0.00000000000E+00 0.  1.
</event>
<event>
 7    1  0.5290964E-013  0.5052884E+02  0.7816164E-02  0.1300439E+00
        -11   -1    0    0    0    0  0.00000000000E+00  0.00000000000E+00  0.45593999997E+02  0.45594000000E+02  0.51100000000E-03 0. -1.
         11   -1    0    0    0    0 -0.00000000000E+00 -0.00000000000E+00 -0.45593999997E+02  0.45594000000E+02  0.51100000000E-03 0.  1.
    9900012    2    1    2    0    0 -0.37587518035E+02  0.30881104165E+01 -0.15192412508E+02  0.50528839461E+02  0.29999938024E+02 0.  0.
         12    1    1    2    0    0  0.37587518035E+02 -0.30881104165E+01  0.15192412508E+02  0.40659160539E+02  0.00000000000E+00 0. -1.
         11    1    3    3    0    0 -0.11715154780E+02  0.34054122536E+01  0.37690777438E+01  0.12769010590E+02  0.51100000000E-03 0. -1.
        -11    1    3    3    0    0 -0.24403934098E+02  0.29746520650E+01 -0.74370664661E+01  0.25684830391E+02  0.51100000000E-03 0.  1.
        -12    1    3    3    0    0 -0.14684291566E+01 -0.32919539021E+01 -0.11524423786E+02  0.12074998479E+02  0.00000000000E+00 0.  1.
</event>
<event>
 7    1  0.5290964E-013  0.5052883E+02  0.7816164E-02  0.1300439E+00
        -11   -1    0    0    0    0  0.00000000000E+00  0.00000000000E+00  0.45593999997E+02  0.45594000000E+02  0.51100000000E-03 0.  1.
         11   -1    0    0    0    0 -0.00000000000E+00 -0.00000000000E+00 -0.45593999997E+02  0.45594000000E+02  0.51100000000E-03 0. -1.
    9900012    2    1    2    0    0  0.25360307824E+02 -0.14858335037E+02  0.28093644369E+02  0.50528828993E+02  0.29999906208E+02 0.  0.
         12    1    1    2    0    0 -0.25360307824E+02  0.14858335037E+02 -0.28093644369E+02  0.40659171007E+02  0.00000000000E+00 0. -1.
         11    1    3    3    0    0  0.62258643105E+01 -0.47942222585E+01  0.36359746823E+00  0.78662670217E+01  0.51100000000E-03 0. -1.
        -11    1    3    3    0    0  0.17332050343E+02 -0.10263450875E+02  0.62274433812E+01  0.21083629770E+02  0.51100000000E-03 0.  1.
        -12    1    3    3    0    0  0.18023931706E+01  0.19933809662E+00  0.21502603520E+02  0.21578932201E+02  0.00000000000E+00 0.  1.
</event>
<event>
 7    1  0.5290964E-013  0.5052888E+02  0.7816164E-02  0.1300439E+00
        -11   -1    0    0    0    0  0.00000000000E+00  0.00000000000E+00  0.45593999997E+02  0.45594000000E+02  0.51100000000E-03 0.  1.
         11   -1    0    0    0    0 -0.00000000000E+00 -0.00000000000E+00 -0.45593999997E+02  0.45594000000E+02  0.51100000000E-03 0. -1.
    9900012    2    1    2    0    0  0.41779078931E+01 -0.24159038665E+02  0.32435319015E+02  0.50528880689E+02  0.30000063341E+02 0.  0.
         12    1    1    2    0    0 -0.41779078931E+01  0.24159038665E+02 -0.32435319015E+02  0.40659119311E+02  0.00000000000E+00 0. -1.
         11    1    3    3    0    0 -0.61965105213E+01 -0.78759325173E+01  0.11253203667E+02  0.15068564918E+02  0.51100000000E-03 0. -1.
        -11    1    3    3    0    0  0.11694008527E+02 -0.20463124803E+02  0.20024045682E+02  0.30926553605E+02  0.51100000000E-03 0.  1.
         12    1    3    3    0    0 -0.13195901126E+01  0.41800186551E+01  0.11580696652E+01  0.45337621653E+01  0.00000000000E+00 0. -1.
</event>
<event>
 7    1  0.5290964E-013  0.5052885E+02  0.7816164E-02  0.1300439E+00
        -11   -1    0    0    0    0  0.00000000000E+00  0.00000000000E+00  0.45593999997E+02  0.45594000000E+02  0.51100000000E-03 0.  1.
         11   -1    0    0    0    0 -0.00000000000E+00 -0.00000000000E+00 -0.45593999997E+02  0.45594000000E+02  0.51100000000E-03 0. -1.
    9900012    2    1    2    0    0 -0.21974454208E+02 -0.78309919407E+01  0.33301128592E+02  0.50528852960E+02  0.29999979058E+02 0.  0.
         12    1    1    2    0    0  0.21974454208E+02  0.78309919407E+01 -0.33301128592E+02  0.40659147040E+02  0.00000000000E+00 0. -1.
         11    1    3    3    0    0 -0.59251973761E+01  0.23909826023E+01  0.22873534719E+02  0.23749175829E+02  0.51100000000E-03 0. -1.
        -11    1    3    3    0    0 -0.24805191592E+01  0.36379658364E+01  0.49499719907E+01  0.66249523543E+01  0.51100000000E-03 0.  1.
         12    1    3    3    0    0 -0.13568737673E+02 -0.13859940379E+02  0.54776218815E+01  0.20154724777E+02  0.00000000000E+00 0. -1.
</event>
<event>
 7    1  0.5290964E-013  0.5052885E+02  0.7816164E-02  0.1300439E+00
        -11   -1    0    0    0    0  0.00000000000E+00  0.00000000000E+00  0.45593999997E+02  0.45594000000E+02  0.51100000000E-03 0. -1.
         11   -1    0    0    0    0 -0.00000000000E+00 -0.00000000000E+00 -0.45593999997E+02  0.45594000000E+02  0.51100000000E-03 0.  1.
    9900012    2    1    2    0    0  0.53081055279E+01  0.37526762643E+02 -0.14721842903E+02  0.50528849035E+02  0.29999967126E+02 0.  0.
         12    1    1    2    0    0 -0.53081055279E+01 -0.37526762643E+02  0.14721842903E+02  0.40659150965E+02  0.00000000000E+00 0. -1.
         11    1    3    3    0    0  0.32725874354E+00  0.22274251810E+01 -0.43660809561E+01  0.49123501909E+01  0.51100000000E-03 0. -1.
        -11    1    3    3    0    0 -0.94662958422E+01  0.61041042690E+01  0.51707699938E+00  0.11275558291E+02  0.51100000000E-03 0.  1.
        -12    1    3    3    0    0  0.14447142627E+02  0.29195233193E+02 -0.10872838947E+02  0.34340940552E+02  0.00000000000E+00 0.  1.
</event>
<event>
 7    1  0.5290964E-013  0.5052885E+02  0.7816164E-02  0.1300439E+00
        -11   -1    0    0    0    0  0.00000000000E+00  0.00000000000E+00  0.45593999997E+02  0.45594000000E+02  0.51100000000E-03 0.  1.
         11   -1    0    0    0    0 -0.00000000000E+00 -0.00000000000E+00 -0.45593999997E+02  0.45594000000E+02  0.51100000000E-03 0. -1.
    9900012    2    1    2    0    0 -0.14333874632E+02  0.10852164236E+02  0.36468300448E+02  0.50528851360E+02  0.29999974194E+02 0.  0.
         12    1    1    2    0    0  0.14333874632E+02 -0.10852164236E+02 -0.36468300448E+02  0.40659148640E+02  0.00000000000E+00 0. -1.
         11    1    3    3    0    0  0.54386345125E+01 -0.22138263919E+01  0.26408410885E+01  0.64384636809E+01  0.51100000000E-03 0. -1.
        -11    1    3    3    0    0 -0.92397082797E+01  0.90385896648E-01  0.21255984668E+02  0.23177516329E+02  0.51100000000E-03 0.  1.
        -12    1    3    3    0    0 -0.10532800865E+02  0.12975604731E+02  0.12571474691E+02  0.20912871350E+02  0.00000000000E+00 0.  1.
</event>
<event>
 7    1  0.5290964E-013  0.5052887E+02  0.7816164E-02  0.1300439E+00
        -11   -1    0    0    0    0  0.00000000000E+00  0.00000000000E+00  0.45593999997E+02  0.45594000000E+02  0.51100000000E-03 0. -1.
         11   -1    0    0    0    0 -0.00000000000E+00 -0.00000000000E+00 -0.45593999997E+02  0.45594000000E+02  0.51100000000E-03 0.  1.
    9900012    2    1    2    0    0  0.18027765848E+02 -0.34017826813E+02 -0.13074874665E+02  0.50528865356E+02  0.30000016735E+02 0.  0.
         12    1    1    2    0    0 -0.18027765848E+02  0.34017826813E+02  0.13074874665E+02  0.40659134644E+02  0.00000000000E+00 0. -1.
         11    1    3    3    0    0 -0.54532008509E+01 -0.11107172224E+02 -0.77330630247E+01  0.14591330931E+02  0.51100000000E-03 0. -1.
        -11    1    3    3    0    0  0.44283351302E+01 -0.73430771819E+01 -0.72922246854E+01  0.11256441518E+02  0.51100000000E-03 0.  1.
         12    1    3    3    0    0  0.19052631569E+02 -0.15567577406E+02  0.19504130453E+01  0.24681092906E+02  0.00000000000E+00 0. -1.
</event>
<event>
 7    1  0.5290964E-013  0.5052887E+02  0.7816164E-02  0.1300439E+00
        -11   -1    0    0    0    0  0.00000000000E+00  0.00000000000E+00  0.45593999997E+02  0.45594000000E+02  0.51100000000E-03 0.  1.
         11   -1    0    0    0    0 -0.00000000000E+00 -0.00000000000E+00 -0.45593999997E+02  0.45594000000E+02  0.51100000000E-03 0. -1.
    9900012    2    1    2    0    0  0.18864623291E+02 -0.29639744669E+02  0.20464032693E+02  0.50528866832E+02  0.30000021221E+02 0.  0.
         12    1    1    2    0    0 -0.18864623291E+02  0.29639744669E+02 -0.20464032693E+02  0.40659133168E+02  0.00000000000E+00 0. -1.
         11    1    3    3    0    0  0.52202280537E+01 -0.18765301876E+02 -0.26259701950E+01  0.19654084948E+02  0.51100000000E-03 0. -1.
        -11    1    3    3    0    0 -0.20234643306E+00 -0.13413679350E+01 -0.86550545090E+00  0.16091339169E+01  0.51100000000E-03 0.  1.
        -12    1    3    3    0    0  0.13846741670E+02 -0.95330748587E+01  0.23955508339E+02  0.29265647967E+02  0.00000000000E+00 0.  1.
</event>
<event>
 7    1  0.5290964E-013  0.5052887E+02  0.7816164E-02  0.1300439E+00
        -11   -1    0    0    0    0  0.00000000000E+00  0.00000000000E+00  0.45593999997E+02  0.45594000000E+02  0.51100000000E-03 0.  1.
         11   -1    0    0    0    0 -0.00000000000E+00 -0.00000000000E+00 -0.45593999997E+02  0.45594000000E+02  0.51100000000E-03 0. -1.
    9900012    2    1    2    0    0  0.27531779981E+02  0.25686257148E+02  0.15342177401E+02  0.50528866677E+02  0.30000020750E+02 0.  0.
         12    1    1    2    0    0 -0.27531779981E+02 -0.25686257148E+02 -0.15342177401E+02  0.40659133323E+02  0.00000000000E+00 0. -1.
         11    1    3    3    0    0  0.51071890213E+01  0.64973228285E+01 -0.56379195166E+01  0.10004235122E+02  0.51100000000E-03 0. -1.
        -11    1    3    3    0    0  0.10860302950E+02 -0.13245767300E+01  0.47657749421E+01  0.11933704150E+02  0.51100000000E-03 0.  1.
         12    1    3    3    0    0  0.11564288010E+02  0.20513511049E+02  0.16214321976E+02  0.28590927405E+02  0.00000000000E+00 0. -1.
</event>
<event>
 7    1  0.5290964E-013  0.5052885E+02  0.7816164E-02  0.1300439E+00
        -11   -1    0    0    0    0  0.00000000000E+00  0.00000000000E+00  0.45593999997E+02  0.45594000000E+02  0.51100000000E-03 0.  1.
         11   -1    0    0    0    0 -0.00000000000E+00 -0.00000000000E+00 -0.45593999997E+02  0.45594000000E+02  0.51100000000E-03 0. -1.
    9900012    2    1    2    0    0  0.54232790442E+01  0.37649905330E+02 -0.14361027498E+02  0.50528850504E+02  0.29999971592E+02 0.  0.
         12    1    1    2    0    0 -0.54232790442E+01 -0.37649905330E+02  0.14361027498E+02  0.40659149496E+02  0.00000000000E+00 0. -1.
         11    1    3    3    0    0 -0.18345235089E+01  0.59607604526E+01 -0.53849054478E+01  0.82397420239E+01  0.51100000000E-03 0. -1.
        -11    1    3    3    0    0 -0.82613012181E+01  0.11716584900E+02  0.24339893294E+01  0.14541381085E+02  0.51100000000E-03 0.  1.
        -12    1    3    3    0    0  0.15519103771E+02  0.19972559978E+02 -0.11410111379E+02  0.27747727395E+02  0.00000000000E+00 0.  1.
</event>
<event>
 7    1  0.5290964E-013  0.5052886E+02  0.7816164E-02  0.1300439E+00
        -11   -1    0    0    0    0  0.00000000000E+00  0.00000000000E+00  0.45593999997E+02  0.45594000000E+02  0.51100000000E-03 0. -1.
         11   -1    0    0    0    0 -0.00000000000E+00 -0.00000000000E+00 -0.45593999997E+02  0.45594000000E+02  0.51100000000E-03 0.  1.
    9900012    2    1    2    0    0  0.33055390507E+02  0.22264496647E+02  0.80497932258E+01  0.50528858057E+02  0.29999994551E+02 0.  0.
         12    1    1    2    0    0 -0.33055390507E+02 -0.22264496647E+02 -0.80497932258E+01  0.40659141943E+02  0.00000000000E+00 0. -1.
         11    1    3    3    0    0  0.10605191840E+02  0.55686403459E+01  0.11565880153E+02  0.16650808786E+02  0.51100000000E-03 0. -1.
        -11    1    3    3    0    0  0.45711105078E+01  0.79014508859E+01  0.68548483637E+01  0.11415643816E+02  0.51100000000E-03 0.  1.
         12    1    3    3    0    0  0.17879088160E+02  0.87944054151E+01 -0.10370935291E+02  0.22462405455E+02  0.00000000000E+00 0. -1.
</event>
<event>
 7    1  0.5290964E-013  0.5052883E+02  0.7816164E-02  0.1300439E+00
        -11   -1    0    0    0    0  0.00000000000E+00  0.00000000000E+00  0.45593999997E+02  0.45594000000E+02  0.51100000000E-03 0.  1.
         11   -1    0    0    0    0 -0.00000000000E+00 -0.00000000000E+00 -0.45593999997E+02  0.45594000000E+02  0.51100000000E-03 0. -1.
    9900012    2    1    2    0    0 -0.34593756984E+02 -0.17362582852E+02  0.12449115928E+02  0.50528833839E+02  0.29999920937E+02 0.  0.
         12    1    1    2    0    0  0.34593756984E+02  0.17362582852E+02 -0.12449115928E+02  0.40659166161E+02  0.00000000000E+00 0. -1.
         11    1    3    3    0    0  0.16951945668E+01  0.13437711365E+01 -0.14183017233E+01  0.25866939375E+01  0.51100000000E-03 0. -1.
        -11    1    3    3    0    0 -0.17044949962E+02 -0.23479905298E+01 -0.31432898617E+01  0.17490673233E+02  0.51100000000E-03 0.  1.
        -12    1    3    3    0    0 -0.19244001588E+02 -0.16358363459E+02  0.17010707513E+02  0.30451466668E+02  0.00000000000E+00 0.  1.
</event>
<event>
 7    1  0.5290964E-013  0.5052886E+02  0.7816164E-02  0.1300439E+00
        -11   -1    0    0    0    0  0.00000000000E+00  0.00000000000E+00  0.45593999997E+02  0.45594000000E+02  0.51100000000E-03 0.  1.
         11   -1    0    0    0    0 -0.00000000000E+00 -0.00000000000E+00 -0.45593999997E+02  0.45594000000E+02  0.51100000000E-03 0. -1.
    9900012    2    1    2    0    0  0.29422847393E+02  0.16519454573E+02  0.22684112664E+02  0.50528864551E+02  0.30000014289E+02 0.  0.
         12    1    1    2    0    0 -0.29422847393E+02 -0.16519454573E+02 -0.22684112664E+02  0.40659135449E+02  0.00000000000E+00 0. -1.
         11    1    3    3    0    0  0.10254279333E+02  0.29817228075E+01 -0.26566463628E+01  0.11004484799E+02  0.51100000000E-03 0. -1.
        -11    1    3    3    0    0  0.21081062965E+01  0.43144775409E+01 -0.26397903271E+01  0.54797191389E+01  0.51100000000E-03 0.  1.
        -12    1    3    3    0    0  0.17060461763E+02  0.92232542246E+01  0.27980549354E+02  0.34044660613E+02  0.00000000000E+00 0.  1.
</event>
<event>
 7    1  0.5290964E-013  0.5052883E+02  0.7816164E-02  0.1300439E+00
        -11   -1    0    0    0    0  0.00000000000E+00  0.00000000000E+00  0.45593999997E+02  0.45594000000E+02  0.51100000000E-03 0. -1.
         11   -1    0    0    0    0 -0.00000000000E+00 -0.00000000000E+00 -0.45593999997E+02  0.45594000000E+02  0.51100000000E-03 0.  1.
    9900012    2    1    2    0    0  0.29744183009E+02  0.14459593742E+02 -0.23651046987E+02  0.50528827632E+02  0.29999902069E+02 0.  0.
         12    1    1    2    0    0 -0.29744183009E+02 -0.14459593742E+02  0.23651046987E+02  0.40659172368E+02  0.00000000000E+00 0. -1.
         11    1    3    3    0    0 -0.15262161528E+01 -0.23013887965E+00  0.29204293801E+01  0.33032117211E+01  0.51100000000E-03 0. -1.
        -11    1    3    3    0    0  0.16914830667E+02 -0.50039896345E+00 -0.17797468477E+02  0.24558334229E+02  0.51100000000E-03 0.  1.
        -12    1    3    3    0    0  0.14355568495E+02  0.15190131585E+02 -0.87740078901E+01  0.22667281682E+02  0.00000000000E+00 0.  1.
</event>
<event>
 7    1  0.5290964E-013  0.5052875E+02  0.7816164E-02  0.1300439E+00
        -11   -1    0    0    0    0  0.00000000000E+00  0.00000000000E+00  0.45593999997E+02  0.45594000000E+02  0.51100000000E-03 0. -1.
         11   -1    0    0    0    0 -0.00000000000E+00 -0.00000000000E+00 -0.45593999997E+02  0.45594000000E+02  0.51100000000E-03 0.  1.
    9900012    2    1    2    0    0  0.39346279041E+02  0.59528870697E+01 -0.83431481910E+01  0.50528749385E+02  0.29999664230E+02 0.  0.
         12    1    1    2    0    0 -0.39346279041E+02 -0.59528870697E+01  0.83431481910E+01  0.40659250615E+02  0.00000000000E+00 0. -1.
         11    1    3    3    0    0  0.19603871716E+02 -0.35329399764E+01  0.67074885589E-02  0.19919676112E+02  0.51100000000E-03 0. -1.
        -11    1    3    3    0    0  0.60451405030E+01  0.31834107129E+01 -0.13122137726E+02  0.14794199074E+02  0.51100000000E-03 0.  1.
         12    1    3    3    0    0  0.13697266822E+02  0.63024163332E+01  0.47722820468E+01  0.15814874200E+02  0.00000000000E+00 0. -1.
</event>
<event>
 7    1  0.5290964E-013  0.5052886E+02  0.7816164E-02  0.1300439E+00
        -11   -1    0    0    0    0  0.00000000000E+00  0.00000000000E+00  0.45593999997E+02  0.45594000000E+02  0.51100000000E-03 0.  1.
         11   -1    0    0    0    0 -0.00000000000E+00 -0.00000000000E+00 -0.45593999997E+02  0.45594000000E+02  0.51100000000E-03 0. -1.
    9900012    2    1    2    0    0 -0.28005697181E+02  0.13044769762E+02  0.26432565043E+02  0.50528860959E+02  0.30000003372E+02 0.  0.
         12    1    1    2    0    0  0.28005697181E+02 -0.13044769762E+02 -0.26432565043E+02  0.40659139041E+02  0.00000000000E+00 0. -1.
         11    1    3    3    0    0 -0.34620592916E+01 -0.26606674095E+00  0.41217683005E+01  0.53893988749E+01  0.51100000000E-03 0. -1.
        -11    1    3    3    0    0 -0.44073525134E+01 -0.68389330574E+01  0.12686058694E+02  0.15070894034E+02  0.51100000000E-03 0.  1.
        -12    1    3    3    0    0 -0.20136285376E+02  0.20149769560E+02  0.96247380487E+01  0.30068568050E+02  0.00000000000E+00 0.  1.
</event>
<event>
 7    1  0.5290964E-013  0.5052886E+02  0.7816164E-02  0.1300439E+00
        -11   -1    0    0    0    0  0.00000000000E+00  0.00000000000E+00  0.45593999997E+02  0.45594000000E+02  0.51100000000E-03 0.  1.
         11   -1    0    0    0    0 -0.00000000000E+00 -0.00000000000E+00 -0.45593999997E+02  0.45594000000E+02  0.51100000000E-03 0. -1.
    9900012    2    1    2    0    0 -0.37713263558E+02  0.11651122687E+02  0.97532876190E+01  0.50528861698E+02  0.30000005618E+02 0.  0.
         12    1    1    2    0    0  0.37713263558E+02 -0.11651122687E+02 -0.97532876190E+01  0.40659138302E+02  0.00000000000E+00 0. -1.
         11    1    3    3    0    0 -0.22828771951E+02  0.40786807799E+01  0.12738924695E+02  0.26458810788E+02  0.51100000000E-03 0. -1.
        -11    1    3    3    0    0 -0.47370817637E+01  0.20891753697E+01  0.70734588296E+01  0.87657525311E+01  0.51100000000E-03 0.  1.
         12    1    3    3    0    0 -0.10147409844E+02  0.54832665372E+01 -0.10059095905E+02  0.15304298379E+02  0.00000000000E+00 0. -1.
</event>
<event>
 7    1  0.5290964E-013  0.5052886E+02  0.7816164E-02  0.1300439E+00
        -11   -1    0    0    0    0  0.00000000000E+00  0.00000000000E+00  0.45593999997E+02  0.45594000000E+02  0.51100000000E-03 0.  1.
         11   -1    0    0    0    0 -0.00000000000E+00 -0.00000000000E+00 -0.45593999997E+02  0.45594000000E+02  0.51100000000E-03 0. -1.
    9900012    2    1    2    0    0 -0.10538472350E+02 -0.28290827546E+02  0.27234824240E+02  0.50528856206E+02  0.29999988922E+02 0.  0.
         12    1    1    2    0    0  0.10538472350E+02  0.28290827546E+02 -0.27234824240E+02  0.40659143794E+02  0.00000000000E+00 0. -1.
         11    1    3    3    0    0  0.13681039042E+01 -0.18739546200E+02  0.11552318531E+02  0.22056707909E+02  0.51100000000E-03 0. -1.
        -11    1    3    3    0    0 -0.17106171204E+01 -0.12857048215E+02  0.74564015224E+01  0.14960876434E+02  0.51100000000E-03 0.  1.
         12    1    3    3    0    0 -0.10195959134E+02  0.33057668695E+01  0.82261041871E+01  0.13511271863E+02  0.00000000000E+00 0. -1.
</event>
<event>
 7    1  0.5290964E-013  0.5052886E+02  0.7816164E-02  0.1300439E+00
        -11   -1    0    0    0    0  0.00000000000E+00  0.00000000000E+00  0.45593999997E+02  0.45594000000E+02  0.51100000000E-03 0.  1.
         11   -1    0    0    0    0 -0.00000000000E+00 -0.00000000000E+00 -0.45593999997E+02  0.45594000000E+02  0.51100000000E-03 0. -1.
    9900012    2    1    2    0    0 -0.18555646466E+02  0.35244305409E+02  0.81665527483E+01  0.50528860028E+02  0.30000000540E+02 0.  0.
         12    1    1    2    0    0  0.18555646466E+02 -0.35244305409E+02 -0.81665527483E+01  0.40659139972E+02  0.00000000000E+00 0. -1.
         11    1    3    3    0    0 -0.68334672076E+01  0.45799618480E+00  0.26489340181E+01  0.73432204295E+01  0.51100000000E-03 0. -1.
        -11    1    3    3    0    0  0.16327304945E+01  0.14942751500E+02  0.11024186987E+02  0.18640931582E+02  0.51100000000E-03 0.  1.
        -12    1    3    3    0    0 -0.13354909753E+02  0.19843557724E+02 -0.55065682568E+01  0.24544708016E+02  0.00000000000E+00 0.  1.
</event>
<event>
 7    1  0.5290964E-013  0.5052888E+02  0.7816164E-02  0.1300439E+00
        -11   -1    0    0    0    0  0.00000000000E+00  0.00000000000E+00  0.45593999997E+02  0.45594000000E+02  0.51100000000E-03 0. -1.
         11   -1    0    0    0    0 -0.00000000000E+00 -0.00000000000E+00 -0.45593999997E+02  0.45594000000E+02  0.51100000000E-03 0.  1.
    9900012    2    1    2    0    0  0.10887162053E+02  0.36099407853E+02 -0.15214035400E+02  0.50528875341E+02  0.30000047085E+02 0.  0.
         12    1    1    2    0    0 -0.10887162053E+02 -0.36099407853E+02  0.15214035400E+02  0.40659124659E+02  0.00000000000E+00 0. -1.
         11    1    3    3    0    0 -0.47728017298E+01  0.12637437494E+02 -0.15401845706E+02  0.20486613048E+02  0.51100000000E-03 0. -1.
        -11    1    3    3    0    0  0.78523448250E+00  0.98416790412E+01  0.12507716804E-01  0.98729628910E+01  0.51100000000E-03 0.  1.
        -12    1    3    3    0    0  0.14874729300E+02  0.13620291319E+02  0.17530258977E+00  0.20169299402E+02  0.00000000000E+00 0.  1.
</event>
<event>
 7    1  0.5290964E-013  0.5052891E+02  0.7816164E-02  0.1300439E+00
        -11   -1    0    0    0    0  0.00000000000E+00  0.00000000000E+00  0.45593999997E+02  0.45594000000E+02  0.51100000000E-03 0.  1.
         11   -1    0    0    0    0 -0.00000000000E+00 -0.00000000000E+00 -0.45593999997E+02  0.45594000000E+02  0.51100000000E-03 0. -1.
    9900012    2    1    2    0    0  0.29700695199E+02  0.27442831306E+02 -0.42333708132E+01  0.50528908595E+02  0.30000148166E+02 0.  0.
         12    1    1    2    0    0 -0.29700695199E+02 -0.27442831306E+02  0.42333708132E+01  0.40659091405E+02  0.00000000000E+00 0. -1.
         11    1    3    3    0    0  0.23580778583E+01  0.96935783335E+01  0.33777941606E+00  0.99819881431E+01  0.51100000000E-03 0. -1.
        -11    1    3    3    0    0  0.99867020457E+01  0.19387410016E+02 -0.70919764608E+01  0.22932553614E+02  0.51100000000E-03 0.  1.
         12    1    3    3    0    0  0.17355915295E+02 -0.16381570432E+01  0.25208262315E+01  0.17614366838E+02  0.00000000000E+00 0. -1.
</event>
<event>
 7    1  0.5290964E-013  0.5052886E+02  0.7816164E-02  0.1300439E+00
        -11   -1    0    0    0    0  0.00000000000E+00  0.00000000000E+00  0.45593999997E+02  0.45594000000E+02  0.51100000000E-03 0.  1.
         11   -1    0    0    0    0 -0.00000000000E+00 -0.00000000000E+00 -0.45593999997E+02  0.45594000000E+02  0.51100000000E-03 0. -1.
    9900012    2    1    2    0    0  0.57837411493E+01  0.39078543584E+02  0.96219229256E+01  0.50528860423E+02  0.30000001742E+02 0.  0.
         12    1    1    2    0    0 -0.57837411493E+01 -0.39078543584E+02 -0.96219229256E+01  0.40659139577E+02  0.00000000000E+00 0. -1.
         11    1    3    3    0    0  0.24185445696E+01  0.25704475501E+01 -0.19652612426E+01  0.40396547446E+01  0.51100000000E-03 0. -1.
        -11    1    3    3    0    0  0.13921418250E+02  0.12277666330E+02  0.39463264024E+01  0.18976840331E+02  0.51100000000E-03 0.  1.
        -12    1    3    3    0    0 -0.10556221670E+02  0.24230429705E+02  0.76408577658E+01  0.27512365348E+02  0.00000000000E+00 0.  1.
</event>
<event>
 7    1  0.5290964E-013  0.5052885E+02  0.7816164E-02  0.1300439E+00
        -11   -1    0    0    0    0  0.00000000000E+00  0.00000000000E+00  0.45593999997E+02  0.45594000000E+02  0.51100000000E-03 0. -1.
         11   -1    0    0    0    0 -0.00000000000E+00 -0.00000000000E+00 -0.45593999997E+02  0.45594000000E+02  0.51100000000E-03 0.  1.
    9900012    2    1    2    0    0 -0.26472076422E+02 -0.24820387760E+02 -0.18339672850E+02  0.50528854917E+02  0.29999985005E+02 0.  0.
         12    1    1    2    0    0  0.26472076422E+02  0.24820387760E+02  0.18339672850E+02  0.40659145083E+02  0.00000000000E+00 0. -1.
         11    1    3    3    0    0  0.40088495975E+01 -0.10875354720E+02 -0.24939125687E+01  0.11855961182E+02  0.51100000000E-03 0. -1.
        -11    1    3    3    0    0 -0.12541809046E+02 -0.37676315047E+01 -0.11856821057E+02  0.17665679357E+02  0.51100000000E-03 0.  1.
        -12    1    3    3    0    0 -0.17939116974E+02 -0.10177401535E+02 -0.39889392245E+01  0.21007214378E+02  0.00000000000E+00 0.  1.
</event>
<event>
 7    1  0.5290964E-013  0.5052886E+02  0.7816164E-02  0.1300439E+00
        -11   -1    0    0    0    0  0.00000000000E+00  0.00000000000E+00  0.45593999997E+02  0.45594000000E+02  0.51100000000E-03 0.  1.
         11   -1    0    0    0    0 -0.00000000000E+00 -0.00000000000E+00 -0.45593999997E+02  0.45594000000E+02  0.51100000000E-03 0. -1.
    9900012    2    1    2    0    0  0.30209144427E+02  0.18213265919E+02  0.20220050025E+02  0.50528857296E+02  0.29999992236E+02 0.  0.
         12    1    1    2    0    0 -0.30209144427E+02 -0.18213265919E+02 -0.20220050025E+02  0.40659142704E+02  0.00000000000E+00 0. -1.
         11    1    3    3    0    0  0.14621615623E+02  0.63367182340E+01  0.10981862989E+02  0.19353215660E+02  0.51100000000E-03 0. -1.
        -11    1    3    3    0    0  0.21138955488E+02  0.70320237589E+01  0.81791209498E+01  0.23731894511E+02  0.51100000000E-03 0.  1.
         12    1    3    3    0    0 -0.55514266843E+01  0.48445239256E+01  0.10590660865E+01  0.74437471258E+01  0.00000000000E+00 0. -1.
</event>
<event>
 7    1  0.5290964E-013  0.5052884E+02  0.7816164E-02  0.1300439E+00
        -11   -1    0    0    0    0  0.00000000000E+00  0.00000000000E+00  0.45593999997E+02  0.45594000000E+02  0.51100000000E-03 0.  1.
         11   -1    0    0    0    0 -0.00000000000E+00 -0.00000000000E+00 -0.45593999997E+02  0.45594000000E+02  0.51100000000E-03 0. -1.
    9900012    2    1    2    0    0  0.13206390552E+02  0.18756947879E+02  0.33569861121E+02  0.50528838415E+02  0.29999934845E+02 0.  0.
         12    1    1    2    0    0 -0.13206390552E+02 -0.18756947879E+02 -0.33569861121E+02  0.40659161585E+02  0.00000000000E+00 0. -1.
         11    1    3    3    0    0 -0.41008408363E+01 -0.31611881129E+01  0.70835896206E+01  0.87742377461E+01  0.51100000000E-03 0. -1.
        -11    1    3    3    0    0  0.45296827521E+01 -0.35767385296E+00  0.10663184818E+02  0.11590921756E+02  0.51100000000E-03 0.  1.
        -12    1    3    3    0    0  0.12777548636E+02  0.22275809845E+02  0.15823086682E+02  0.30163678913E+02  0.00000000000E+00 0.  1.
</event>
<event>
 7    1  0.5290964E-013  0.5052886E+02  0.7816164E-02  0.1300439E+00
        -11   -1    0    0    0    0  0.00000000000E+00  0.00000000000E+00  0.45593999997E+02  0.45594000000E+02  0.51100000000E-03 0. -1.
         11   -1    0    0    0    0 -0.00000000000E+00 -0.00000000000E+00 -0.45593999997E+02  0.45594000000E+02  0.51100000000E-03 0.  1.
    9900012    2    1    2    0    0  0.58658241758E+01  0.39050284345E+02 -0.96867548899E+01  0.50528858088E+02  0.29999994645E+02 0.  0.
         12    1    1    2    0    0 -0.58658241758E+01 -0.39050284345E+02  0.96867548899E+01  0.40659141912E+02  0.00000000000E+00 0. -1.
         11    1    3    3    0    0 -0.85970218615E+01  0.43343910582E+01 -0.58345398833E+01  0.11257778939E+02  0.51100000000E-03 0. -1.
        -11    1    3    3    0    0 -0.85884517990E+00  0.85964834849E+01  0.61759494848E+00  0.86613259453E+01  0.51100000000E-03 0.  1.
        -12    1    3    3    0    0  0.15321691217E+02  0.26119409802E+02 -0.44698099551E+01  0.30609753204E+02  0.00000000000E+00 0.  1.
</event>
<event>
 7    1  0.5290964E-013  0.5052886E+02  0.7816164E-02  0.1300439E+00
        -11   -1    0    0    0    0  0.00000000000E+00  0.00000000000E+00  0.45593999997E+02  0.45594000000E+02  0.51100000000E-03 0.  1.
         11   -1    0    0    0    0 -0.00000000000E+00 -0.00000000000E+00 -0.45593999997E+02  0.45594000000E+02  0.51100000000E-03 0. -1.
    9900012    2    1    2    0    0 -0.12760114140E+02  0.36021349926E+02  0.13885508086E+02  0.50528862058E+02  0.30000006711E+02 0.  0.
         12    1    1    2    0    0  0.12760114140E+02 -0.36021349926E+02 -0.13885508086E+02  0.40659137942E+02  0.00000000000E+00 0. -1.
         11    1    3    3    0    0 -0.30054327792E+01  0.60629314839E+01  0.13451723461E+02  0.15057909174E+02  0.51100000000E-03 0. -1.
        -11    1    3    3    0    0 -0.10099618678E+01 -0.20322496988E+01  0.41279984731E+00  0.23066134891E+01  0.51100000000E-03 0.  1.
        -12    1    3    3    0    0 -0.87447194929E+01  0.31990668141E+02  0.20984778128E-01  0.33164339395E+02  0.00000000000E+00 0.  1.
</event>
<event>
 7    1  0.5290964E-013  0.5052887E+02  0.7816164E-02  0.1300439E+00
        -11   -1    0    0    0    0  0.00000000000E+00  0.00000000000E+00  0.45593999997E+02  0.45594000000E+02  0.51100000000E-03 0.  1.
         11   -1    0    0    0    0 -0.00000000000E+00 -0.00000000000E+00 -0.45593999997E+02  0.45594000000E+02  0.51100000000E-03 0. -1.
    9900012    2    1    2    0    0 -0.34108881923E+02 -0.17981355092E+02  0.12900389684E+02  0.50528868050E+02  0.30000024924E+02 0.  0.
         12    1    1    2    0    0  0.34108881923E+02  0.17981355092E+02 -0.12900389684E+02  0.40659131950E+02  0.00000000000E+00 0. -1.
         11    1    3    3    0    0 -0.12136629807E+02  0.29895927846E+01  0.12355190546E+01  0.12560332626E+02  0.51100000000E-03 0.  1.
        -11    1    3    3    0    0 -0.25398780398E+02 -0.19539614744E+02  0.86685054661E+01  0.33196951326E+02  0.51100000000E-03 0. -1.
         12    1    3    3    0    0  0.34265282827E+01 -0.14313331322E+01  0.29963651629E+01  0.47715840972E+01  0.00000000000E+00 0. -1.
</event>
<event>
 7    1  0.5290964E-013  0.5052886E+02  0.7816164E-02  0.1300439E+00
        -11   -1    0    0    0    0  0.00000000000E+00  0.00000000000E+00  0.45593999997E+02  0.45594000000E+02  0.51100000000E-03 0.  1.
         11   -1    0    0    0    0 -0.00000000000E+00 -0.00000000000E+00 -0.45593999997E+02  0.45594000000E+02  0.51100000000E-03 0. -1.
    9900012    2    1    2    0    0  0.10775846704E+02  0.30194921355E+02  0.25006269998E+02  0.50528859735E+02  0.29999999650E+02 0.  0.
         12    1    1    2    0    0 -0.10775846704E+02 -0.30194921355E+02 -0.25006269998E+02  0.40659140265E+02  0.00000000000E+00 0. -1.
         11    1    3    3    0    0  0.24259313030E+01  0.16714535555E+01 -0.35092811273E+01  0.45819159712E+01  0.51100000000E-03 0. -1.
        -11    1    3    3    0    0 -0.21963187823E+01  0.77466943189E+01 -0.12477373800E+01  0.81481248085E+01  0.51100000000E-03 0.  1.
         12    1    3    3    0    0  0.10546234184E+02  0.20776773481E+02  0.29763288506E+02  0.37798818955E+02  0.00000000000E+00 0. -1.
</event>
<event>
 7    1  0.5290964E-013  0.5052886E+02  0.7816164E-02  0.1300439E+00
        -11   -1    0    0    0    0  0.00000000000E+00  0.00000000000E+00  0.45593999997E+02  0.45594000000E+02  0.51100000000E-03 0. -1.
         11   -1    0    0    0    0 -0.00000000000E+00 -0.00000000000E+00 -0.45593999997E+02  0.45594000000E+02  0.51100000000E-03 0.  1.
    9900012    2    1    2    0    0 -0.20135903649E+02 -0.32822467757E+02 -0.13053607504E+02  0.50528859892E+02  0.30000000127E+02 0.  0.
         12    1    1    2    0    0  0.20135903649E+02  0.32822467757E+02  0.13053607504E+02  0.40659140108E+02  0.00000000000E+00 0. -1.
         11    1    3    3    0    0 -0.11256511567E+02 -0.25558417813E+02 -0.12650240024E+02  0.30658935837E+02  0.51100000000E-03 0. -1.
        -11    1    3    3    0    0 -0.65570840171E+01 -0.18492611777E+01 -0.78371753884E+01  0.10384432389E+02  0.51100000000E-03 0.  1.
         12    1    3    3    0    0 -0.23223080651E+01 -0.54147887667E+01  0.74338079074E+01  0.94854916658E+01  0.00000000000E+00 0. -1.
</event>
<event>
 7    1  0.5290964E-013  0.5052886E+02  0.7816164E-02  0.1300439E+00
        -11   -1    0    0    0    0  0.00000000000E+00  0.00000000000E+00  0.45593999997E+02  0.45594000000E+02  0.51100000000E-03 0.  1.
         11   -1    0    0    0    0 -0.00000000000E+00 -0.00000000000E+00 -0.45593999997E+02  0.45594000000E+02  0.51100000000E-03 0. -1.
    9900012    2    1    2    0    0 -0.21259298565E+02 -0.12866112820E+01  0.34634557574E+02  0.50528859300E+02  0.29999998329E+02 0.  0.
         12    1    1    2    0    0  0.21259298565E+02  0.12866112820E+01 -0.34634557574E+02  0.40659140700E+02  0.00000000000E+00 0. -1.
         11    1    3    3    0    0  0.12876000493E+01  0.84299510402E+00 -0.12950792026E+01  0.20114136906E+01  0.51100000000E-03 0. -1.
        -11    1    3    3    0    0 -0.10247135084E+01  0.83367075076E+01  0.12227640428E+02  0.14834618988E+02  0.51100000000E-03 0.  1.
        -12    1    3    3    0    0 -0.21522185106E+02 -0.10466313894E+02  0.23701996349E+02  0.33682826621E+02  0.00000000000E+00 0.  1.
</event>
<event>
 7    1  0.5290964E-013  0.5052886E+02  0.7816164E-02  0.1300439E+00
        -11   -1    0    0    0    0  0.00000000000E+00  0.00000000000E+00  0.45593999997E+02  0.45594000000E+02  0.51100000000E-03 0. -1.
         11   -1    0    0    0    0 -0.00000000000E+00 -0.00000000000E+00 -0.45593999997E+02  0.45594000000E+02  0.51100000000E-03 0.  1.
    9900012    2    1    2    0    0  0.15250839869E+02  0.37462585111E+02 -0.41391292685E+01  0.50528858458E+02  0.29999995768E+02 0.  0.
         12    1    1    2    0    0 -0.15250839869E+02 -0.37462585111E+02  0.41391292685E+01  0.40659141542E+02  0.00000000000E+00 0. -1.
         11    1    3    3    0    0  0.13172060317E+02  0.17477890015E+02  0.27529726397E+01  0.22058074961E+02  0.51100000000E-03 0. -1.
        -11    1    3    3    0    0  0.89391080910E+01  0.16641039720E+02 -0.11590442534E+01  0.18925518230E+02  0.51100000000E-03 0.  1.
        -12    1    3    3    0    0 -0.68603285393E+01  0.33436553754E+01 -0.57330576548E+01  0.95452652666E+01  0.00000000000E+00 0.  1.
</event>
<event>
 7    1  0.5290964E-013  0.5052886E+02  0.7816164E-02  0.1300439E+00
        -11   -1    0    0    0    0  0.00000000000E+00  0.00000000000E+00  0.45593999997E+02  0.45594000000E+02  0.51100000000E-03 0.  1.
         11   -1    0    0    0    0 -0.00000000000E+00 -0.00000000000E+00 -0.45593999997E+02  0.45594000000E+02  0.51100000000E-03 0. -1.
    9900012    2    1    2    0    0 -0.17548872833E+01 -0.39593819365E+02  0.90782826128E+01  0.50528863555E+02  0.30000011261E+02 0.  0.
         12    1    1    2    0    0  0.17548872833E+01  0.39593819365E+02 -0.90782826128E+01  0.40659136445E+02  0.00000000000E+00 0. -1.
         11    1    3    3    0    0  0.54601662506E+01 -0.49345424887E+01 -0.26651861530E+00  0.73643843932E+01  0.51100000000E-03 0. -1.
        -11    1    3    3    0    0 -0.14960449444E+01 -0.30485014078E+02  0.15088316856E+02  0.34047489476E+02  0.51100000000E-03 0.  1.
         12    1    3    3    0    0 -0.57190085894E+01 -0.41742627986E+01 -0.57435156283E+01  0.91169896857E+01  0.00000000000E+00 0. -1.
</event>
<event>
 7    1  0.5290964E-013  0.5052885E+02  0.7816164E-02  0.1300439E+00
        -11   -1    0    0    0    0  0.00000000000E+00  0.00000000000E+00  0.45593999997E+02  0.45594000000E+02  0.51100000000E-03 0. -1.
         11   -1    0    0    0    0 -0.00000000000E+00 -0.00000000000E+00 -0.45593999997E+02  0.45594000000E+02  0.51100000000E-03 0.  1.
    9900012    2    1    2    0    0  0.18625749544E+02  0.10230790895E+02 -0.34663791879E+02  0.50528854709E+02  0.29999984372E+02 0.  0.
         12    1    1    2    0    0 -0.18625749544E+02 -0.10230790895E+02  0.34663791879E+02  0.40659145291E+02  0.00000000000E+00 0. -1.
         11    1    3    3    0    0  0.81040794023E+01  0.15069392886E+00 -0.96571911573E+01  0.12607940075E+02  0.51100000000E-03 0. -1.
        -11    1    3    3    0    0  0.15151011054E+02  0.10122693071E+02 -0.27246527243E+02  0.32777969706E+02  0.51100000000E-03 0.  1.
         12    1    3    3    0    0 -0.46293409121E+01 -0.42596105539E-01  0.22399265218E+01  0.51429449279E+01  0.00000000000E+00 0. -1.
</event>
<event>
 7    1  0.5290964E-013  0.5052889E+02  0.7816164E-02  0.1300439E+00
        -11   -1    0    0    0    0  0.00000000000E+00  0.00000000000E+00  0.45593999997E+02  0.45594000000E+02  0.51100000000E-03 0.  1.
         11   -1    0    0    0    0 -0.00000000000E+00 -0.00000000000E+00 -0.45593999997E+02  0.45594000000E+02  0.51100000000E-03 0. -1.
    9900012    2    1    2    0    0  0.24588728840E+02  0.64328197231E+00  0.32375053638E+02  0.50528886683E+02  0.30000081562E+02 0.  0.
         12    1    1    2    0    0 -0.24588728840E+02 -0.64328197231E+00 -0.32375053638E+02  0.40659113317E+02  0.00000000000E+00 0. -1.
         11    1    3    3    0    0  0.21087198179E+01 -0.82376435682E+00  0.13576969794E+02  0.13764425016E+02  0.51100000000E-03 0. -1.
        -11    1    3    3    0    0  0.36627312815E+01 -0.65230802233E+01  0.13833666396E+02  0.15726935565E+02  0.51100000000E-03 0.  1.
         12    1    3    3    0    0  0.18817277741E+02  0.79901265524E+01  0.49644174475E+01  0.21037526102E+02  0.00000000000E+00 0. -1.
</event>
<event>
 7    1  0.5290964E-013  0.5052884E+02  0.7816164E-02  0.1300439E+00
        -11   -1    0    0    0    0  0.00000000000E+00  0.00000000000E+00  0.45593999997E+02  0.45594000000E+02  0.51100000000E-03 0.  1.
         11   -1    0    0    0    0 -0.00000000000E+00 -0.00000000000E+00 -0.45593999997E+02  0.45594000000E+02  0.51100000000E-03 0. -1.
    9900012    2    1    2    0    0 -0.35904396307E+02 -0.98566612940E+00  0.19054395161E+02  0.50528841292E+02  0.29999943591E+02 0.  0.
         12    1    1    2    0    0  0.35904396307E+02  0.98566612940E+00 -0.19054395161E+02  0.40659158708E+02  0.00000000000E+00 0. -1.
         11    1    3    3    0    0 -0.98024375152E+00 -0.34626398012E+01  0.97892635718E+01  0.10429785892E+02  0.51100000000E-03 0. -1.
        -11    1    3    3    0    0 -0.72396513873E+00  0.16521318012E+01  0.53736354835E+01  0.56682998846E+01  0.51100000000E-03 0.  1.
        -12    1    3    3    0    0 -0.34200187417E+02  0.82484187060E+00  0.38914961061E+01  0.34430755516E+02  0.00000000000E+00 0.  1.
</event>
<event>
 7    1  0.5290964E-013  0.5052885E+02  0.7816164E-02  0.1300439E+00
        -11   -1    0    0    0    0  0.00000000000E+00  0.00000000000E+00  0.45593999997E+02  0.45594000000E+02  0.51100000000E-03 0.  1.
         11   -1    0    0    0    0 -0.00000000000E+00 -0.00000000000E+00 -0.45593999997E+02  0.45594000000E+02  0.51100000000E-03 0. -1.
    9900012    2    1    2    0    0 -0.22606857971E+02 -0.32043202403E+02  0.10739165845E+02  0.50528849362E+02  0.29999968120E+02 0.  0.
         12    1    1    2    0    0  0.22606857971E+02  0.32043202403E+02 -0.10739165845E+02  0.40659150638E+02  0.00000000000E+00 0. -1.
         11    1    3    3    0    0 -0.76433192382E+01 -0.40900486430E+01  0.65948645209E+01  0.10892247940E+02  0.51100000000E-03 0. -1.
        -11    1    3    3    0    0 -0.62980613539E+01 -0.17906620987E+02  0.13594319460E+02  0.23347765928E+02  0.51100000000E-03 0.  1.
         12    1    3    3    0    0 -0.86654773788E+01 -0.10046532773E+02 -0.94500181362E+01  0.16288835494E+02  0.00000000000E+00 0. -1.
</event>
<event>
 7    1  0.5290964E-013  0.5052886E+02  0.7816164E-02  0.1300439E+00
        -11   -1    0    0    0    0  0.00000000000E+00  0.00000000000E+00  0.45593999997E+02  0.45594000000E+02  0.51100000000E-03 0. -1.
         11   -1    0    0    0    0 -0.00000000000E+00 -0.00000000000E+00 -0.45593999997E+02  0.45594000000E+02  0.51100000000E-03 0.  1.
    9900012    2    1    2    0    0  0.23438605810E+01  0.28908371875E+02 -0.28495233137E+02  0.50528856399E+02  0.29999989509E+02 0.  0.
         12    1    1    2    0    0 -0.23438605810E+01 -0.28908371875E+02  0.28495233137E+02  0.40659143601E+02  0.00000000000E+00 0. -1.
         11    1    3    3    0    0  0.12537469519E+01 -0.28879337911E+01  0.18784484046E+01  0.36661439785E+01  0.51100000000E-03 0. -1.
        -11    1    3    3    0    0  0.57453328435E+01  0.33647894180E+01 -0.78480877820E+01  0.10291896784E+02  0.51100000000E-03 0.  1.
        -12    1    3    3    0    0 -0.46552192144E+01  0.28431516248E+02 -0.22525593759E+02  0.36570815636E+02  0.00000000000E+00 0.  1.
</event>
<event>
 7    1  0.5290964E-013  0.5052886E+02  0.7816164E-02  0.1300439E+00
        -11   -1    0    0    0    0  0.00000000000E+00  0.00000000000E+00  0.45593999997E+02  0.45594000000E+02  0.51100000000E-03 0. -1.
         11   -1    0    0    0    0 -0.00000000000E+00 -0.00000000000E+00 -0.45593999997E+02  0.45594000000E+02  0.51100000000E-03 0.  1.
    9900012    2    1    2    0    0 -0.13747660346E+02 -0.38263803339E+02 -0.22084176709E+00  0.50528861027E+02  0.30000003578E+02 0.  0.
         12    1    1    2    0    0  0.13747660346E+02  0.38263803339E+02  0.22084176709E+00  0.40659138973E+02  0.00000000000E+00 0. -1.
         11    1    3    3    0    0 -0.21318081358E+01 -0.15301580496E+02  0.31896428008E+01  0.15775195500E+02  0.51100000000E-03 0. -1.
        -11    1    3    3    0    0 -0.88776091380E+01 -0.15138533354E+02  0.90827851813E+01  0.19760671118E+02  0.51100000000E-03 0.  1.
         12    1    3    3    0    0 -0.27382430719E+01 -0.78236894887E+01 -0.12493269749E+02  0.14992994410E+02  0.00000000000E+00 0. -1.
</event>
<event>
 7    1  0.5290964E-013  0.5052886E+02  0.7816164E-02  0.1300439E+00
        -11   -1    0    0    0    0  0.00000000000E+00  0.00000000000E+00  0.45593999997E+02  0.45594000000E+02  0.51100000000E-03 0. -1.
         11   -1    0    0    0    0 -0.00000000000E+00 -0.00000000000E+00 -0.45593999997E+02  0.45594000000E+02  0.51100000000E-03 0.  1.
    9900012    2    1    2    0    0  0.37039448162E+02  0.10968298138E+02  0.12686258297E+02  0.50528862850E+02  0.30000009119E+02 0.  0.
         12    1    1    2    0    0 -0.37039448162E+02 -0.10968298138E+02 -0.12686258297E+02  0.40659137150E+02  0.00000000000E+00 0. -1.
         11    1    3    3    0    0  0.72142842411E+01  0.12350395784E+02  0.85559602922E+01  0.16666812230E+02  0.51100000000E-03 0. -1.
        -11    1    3    3    0    0  0.73749751978E+01  0.56230934037E+01 -0.21502409258E+01  0.95201352351E+01  0.51100000000E-03 0.  1.
        -12    1    3    3    0    0  0.22450188723E+02 -0.70051910493E+01  0.62805389308E+01  0.24341915385E+02  0.00000000000E+00 0.  1.
</event>
<event>
 7    1  0.5290964E-013  0.5052886E+02  0.7816164E-02  0.1300439E+00
        -11   -1    0    0    0    0  0.00000000000E+00  0.00000000000E+00  0.45593999997E+02  0.45594000000E+02  0.51100000000E-03 0. -1.
         11   -1    0    0    0    0 -0.00000000000E+00 -0.00000000000E+00 -0.45593999997E+02  0.45594000000E+02  0.51100000000E-03 0.  1.
    9900012    2    1    2    0    0 -0.15930185170E+02  0.72992302998E+01 -0.36689450077E+02  0.50528864379E+02  0.30000013766E+02 0.  0.
         12    1    1    2    0    0  0.15930185170E+02 -0.72992302998E+01  0.36689450077E+02  0.40659135621E+02  0.00000000000E+00 0. -1.
         11    1    3    3    0    0 -0.57408249265E+01 -0.11797449890E+01 -0.73306890869E+00  0.59064591221E+01  0.51100000000E-03 0. -1.
        -11    1    3    3    0    0 -0.44347689134E+01  0.77782368968E+01 -0.79784000011E+00  0.89891430885E+01  0.51100000000E-03 0.  1.
        -12    1    3    3    0    0 -0.57545913298E+01  0.70073839201E+00 -0.35158541168E+02  0.35633262168E+02  0.00000000000E+00 0.  1.
</event>
<event>
 7    1  0.5290964E-013  0.5052884E+02  0.7816164E-02  0.1300439E+00
        -11   -1    0    0    0    0  0.00000000000E+00  0.00000000000E+00  0.45593999997E+02  0.45594000000E+02  0.51100000000E-03 0.  1.
         11   -1    0    0    0    0 -0.00000000000E+00 -0.00000000000E+00 -0.45593999997E+02  0.45594000000E+02  0.51100000000E-03 0. -1.
    9900012    2    1    2    0    0  0.30669551788E+02 -0.15075854768E+02  0.22028720813E+02  0.50528839353E+02  0.29999937696E+02 0.  0.
         12    1    1    2    0    0 -0.30669551788E+02  0.15075854768E+02 -0.22028720813E+02  0.40659160647E+02  0.00000000000E+00 0. -1.
         11    1    3    3    0    0  0.67600780358E+01 -0.47713377400E+01 -0.34908332457E+01  0.89805476386E+01  0.51100000000E-03 0. -1.
        -11    1    3    3    0    0  0.48833365060E+01 -0.99523320222E+01  0.19505777062E+01  0.11256137959E+02  0.51100000000E-03 0.  1.
        -12    1    3    3    0    0  0.19026137247E+02 -0.35218500614E+00  0.23568976352E+02  0.30292153755E+02  0.00000000000E+00 0.  1.
</event>
<event>
 7    1  0.5290964E-013  0.5052886E+02  0.7816164E-02  0.1300439E+00
        -11   -1    0    0    0    0  0.00000000000E+00  0.00000000000E+00  0.45593999997E+02  0.45594000000E+02  0.51100000000E-03 0.  1.
         11   -1    0    0    0    0 -0.00000000000E+00 -0.00000000000E+00 -0.45593999997E+02  0.45594000000E+02  0.51100000000E-03 0. -1.
    9900012    2    1    2    0    0  0.18055939234E+02  0.69180946660E+01  0.35767143625E+02  0.50528861562E+02  0.30000005205E+02 0.  0.
         12    1    1    2    0    0 -0.18055939234E+02 -0.69180946660E+01 -0.35767143625E+02  0.40659138438E+02  0.00000000000E+00 0. -1.
         11    1    3    3    0    0 -0.26535464502E+01 -0.33934814431E+01  0.16800752331E+02  0.17344229710E+02  0.51100000000E-03 0. -1.
        -11    1    3    3    0    0  0.60624979676E+01 -0.98892696454E+00  0.11880239982E+02  0.13374302241E+02  0.51100000000E-03 0.  1.
        -12    1    3    3    0    0  0.14646987717E+02  0.11300503074E+02  0.70861513111E+01  0.19810329611E+02  0.00000000000E+00 0.  1.
</event>
<event>
 7    1  0.5290964E-013  0.5052886E+02  0.7816164E-02  0.1300439E+00
        -11   -1    0    0    0    0  0.00000000000E+00  0.00000000000E+00  0.45593999997E+02  0.45594000000E+02  0.51100000000E-03 0. -1.
         11   -1    0    0    0    0 -0.00000000000E+00 -0.00000000000E+00 -0.45593999997E+02  0.45594000000E+02  0.51100000000E-03 0.  1.
    9900012    2    1    2    0    0 -0.38666032108E+02  0.71297710096E+00 -0.12553699383E+02  0.50528859042E+02  0.29999997543E+02 0.  0.
         12    1    1    2    0    0  0.38666032108E+02 -0.71297710096E+00  0.12553699383E+02  0.40659140958E+02  0.00000000000E+00 0. -1.
         11    1    3    3    0    0 -0.19842602847E+01 -0.52014461561E+01 -0.36061335623E+01  0.66329880538E+01  0.51100000000E-03 0. -1.
        -11    1    3    3    0    0  0.46914198277E+00  0.37861738194E+01 -0.52654463852E+01  0.65023174551E+01  0.51100000000E-03 0.  1.
         12    1    3    3    0    0 -0.37150913806E+02  0.21282494377E+01 -0.36821194350E+01  0.37393553533E+02  0.00000000000E+00 0. -1.
</event>
<event>
 7    1  0.5290964E-013  0.5052872E+02  0.7816164E-02  0.1300439E+00
        -11   -1    0    0    0    0  0.00000000000E+00  0.00000000000E+00  0.45593999997E+02  0.45594000000E+02  0.51100000000E-03 0. -1.
         11   -1    0    0    0    0 -0.00000000000E+00 -0.00000000000E+00 -0.45593999997E+02  0.45594000000E+02  0.51100000000E-03 0.  1.
    9900012    2    1    2    0    0 -0.18260936801E+02 -0.72423126659E+01 -0.35598650421E+02  0.50528722861E+02  0.29999583606E+02 0.  0.
         12    1    1    2    0    0  0.18260936801E+02  0.72423126659E+01  0.35598650421E+02  0.40659277139E+02  0.00000000000E+00 0. -1.
         11    1    3    3    0    0  0.21316740519E+01 -0.21539907428E+01 -0.13930669264E+02  0.14256481220E+02  0.51100000000E-03 0. -1.
        -11    1    3    3    0    0 -0.86452771045E+01 -0.61876213917E+00 -0.22055441987E+02  0.23697388133E+02  0.51100000000E-03 0.  1.
         12    1    3    3    0    0 -0.11747333749E+02 -0.44695597839E+01  0.38746082944E+00  0.12574853508E+02  0.00000000000E+00 0. -1.
</event>
<event>
 7    1  0.5290964E-013  0.5052886E+02  0.7816164E-02  0.1300439E+00
        -11   -1    0    0    0    0  0.00000000000E+00  0.00000000000E+00  0.45593999997E+02  0.45594000000E+02  0.51100000000E-03 0.  1.
         11   -1    0    0    0    0 -0.00000000000E+00 -0.00000000000E+00 -0.45593999997E+02  0.45594000000E+02  0.51100000000E-03 0. -1.
    9900012    2    1    2    0    0 -0.30029793182E+02 -0.25272266327E+02  0.10615553987E+02  0.50528856990E+02  0.29999991306E+02 0.  0.
         12    1    1    2    0    0  0.30029793182E+02  0.25272266327E+02 -0.10615553987E+02  0.40659143010E+02  0.00000000000E+00 0. -1.
         11    1    3    3    0    0 -0.25348592347E+01  0.12990455970E+01 -0.23342843188E+01  0.36826504511E+01  0.51100000000E-03 0. -1.
        -11    1    3    3    0    0 -0.23883043364E+02 -0.86302061608E+01  0.18942973980E+01  0.25465046271E+02  0.51100000000E-03 0.  1.
         12    1    3    3    0    0 -0.36118905829E+01 -0.17941105764E+02  0.11055540908E+02  0.21381160267E+02  0.00000000000E+00 0. -1.
</event>
<event>
 7    1  0.5290964E-013  0.5052883E+02  0.7816164E-02  0.1300439E+00
        -11   -1    0    0    0    0  0.00000000000E+00  0.00000000000E+00  0.45593999997E+02  0.45594000000E+02  0.51100000000E-03 0. -1.
         11   -1    0    0    0    0 -0.00000000000E+00 -0.00000000000E+00 -0.45593999997E+02  0.45594000000E+02  0.51100000000E-03 0.  1.
    9900012    2    1    2    0    0  0.21494494140E+02 -0.13231346362E+02 -0.31876108479E+02  0.50528830104E+02  0.29999909583E+02 0.  0.
         12    1    1    2    0    0 -0.21494494140E+02  0.13231346362E+02  0.31876108479E+02  0.40659169896E+02  0.00000000000E+00 0. -1.
         11    1    3    3    0    0  0.13854791881E+02 -0.86572984295E+01 -0.57175960786E+01  0.17308812187E+02  0.51100000000E-03 0. -1.
        -11    1    3    3    0    0  0.73169220360E+01 -0.90584506699E+01 -0.70998178603E+01  0.13638192348E+02  0.51100000000E-03 0.  1.
        -12    1    3    3    0    0  0.32278022346E+00  0.44844027378E+01 -0.19058694540E+02  0.19581825568E+02  0.00000000000E+00 0.  1.
</event>
<event>
 7    1  0.5290964E-013  0.5052889E+02  0.7816164E-02  0.1300439E+00
        -11   -1    0    0    0    0  0.00000000000E+00  0.00000000000E+00  0.45593999997E+02  0.45594000000E+02  0.51100000000E-03 0.  1.
         11   -1    0    0    0    0 -0.00000000000E+00 -0.00000000000E+00 -0.45593999997E+02  0.45594000000E+02  0.51100000000E-03 0. -1.
    9900012    2    1    2    0    0  0.20153817735E+01 -0.29513874035E+02 -0.27893232422E+02  0.50528893526E+02  0.30000102362E+02 0.  0.
         12    1    1    2    0    0 -0.20153817735E+01  0.29513874035E+02  0.27893232422E+02  0.40659106474E+02  0.00000000000E+00 0. -1.
         11    1    3    3    0    0  0.59602083444E+01 -0.14327749294E+02 -0.28946573000E+01  0.15785674660E+02  0.51100000000E-03 0. -1.
        -11    1    3    3    0    0  0.27754506012E+01 -0.15043001408E+02 -0.23192766927E+02  0.27783078580E+02  0.51100000000E-03 0.  1.
         12    1    3    3    0    0 -0.67202771721E+01 -0.14312333378E+00 -0.18058081952E+01  0.69601402857E+01  0.00000000000E+00 0. -1.
</event>
<event>
 7    1  0.5290964E-013  0.5052887E+02  0.7816164E-02  0.1300439E+00
        -11   -1    0    0    0    0  0.00000000000E+00  0.00000000000E+00  0.45593999997E+02  0.45594000000E+02  0.51100000000E-03 0.  1.
         11   -1    0    0    0    0 -0.00000000000E+00 -0.00000000000E+00 -0.45593999997E+02  0.45594000000E+02  0.51100000000E-03 0. -1.
    9900012    2    1    2    0    0 -0.38417837021E+02 -0.31660592140E+01  0.12931012380E+02  0.50528865559E+02  0.30000017354E+02 0.  0.
         12    1    1    2    0    0  0.38417837021E+02  0.31660592140E+01 -0.12931012380E+02  0.40659134441E+02  0.00000000000E+00 0. -1.
         11    1    3    3    0    0 -0.13797995363E+02  0.25994892575E+01  0.10660591853E+01  0.14081139971E+02  0.51100000000E-03 0. -1.
        -11    1    3    3    0    0 -0.27855486843E+02 -0.73628696969E-02  0.97427715235E+01  0.29510164329E+02  0.51100000000E-03 0.  1.
        -12    1    3    3    0    0  0.32356451852E+01 -0.57581856017E+01  0.21221816717E+01  0.69375612600E+01  0.00000000000E+00 0.  1.
</event>
<event>
 7    1  0.5290964E-013  0.5052886E+02  0.7816164E-02  0.1300439E+00
        -11   -1    0    0    0    0  0.00000000000E+00  0.00000000000E+00  0.45593999997E+02  0.45594000000E+02  0.51100000000E-03 0.  1.
         11   -1    0    0    0    0 -0.00000000000E+00 -0.00000000000E+00 -0.45593999997E+02  0.45594000000E+02  0.51100000000E-03 0. -1.
    9900012    2    1    2    0    0  0.16914496583E+02 -0.21077554794E+02  0.30377659623E+02  0.50528859392E+02  0.29999998608E+02 0.  0.
         12    1    1    2    0    0 -0.16914496583E+02  0.21077554794E+02 -0.30377659623E+02  0.40659140608E+02  0.00000000000E+00 0. -1.
         11    1    3    3    0    0  0.59717764175E+01 -0.25660684439E+01  0.23762237874E+01  0.69204956895E+01  0.51100000000E-03 0. -1.
        -11    1    3    3    0    0  0.35957012140E+01 -0.15429693537E+02  0.14753999326E+01  0.15911672291E+02  0.51100000000E-03 0.  1.
        -12    1    3    3    0    0  0.73470189518E+01 -0.30817928137E+01  0.26526035903E+02  0.27696691412E+02  0.00000000000E+00 0.  1.
</event>
<event>
 7    1  0.5290964E-013  0.5052886E+02  0.7816164E-02  0.1300439E+00
        -11   -1    0    0    0    0  0.00000000000E+00  0.00000000000E+00  0.45593999997E+02  0.45594000000E+02  0.51100000000E-03 0. -1.
         11   -1    0    0    0    0 -0.00000000000E+00 -0.00000000000E+00 -0.45593999997E+02  0.45594000000E+02  0.51100000000E-03 0.  1.
    9900012    2    1    2    0    0 -0.30762598907E+02  0.25307313377E+01 -0.26465514160E+02  0.50528861638E+02  0.30000005435E+02 0.  0.
         12    1    1    2    0    0  0.30762598907E+02 -0.25307313377E+01  0.26465514160E+02  0.40659138362E+02  0.00000000000E+00 0. -1.
         11    1    3    3    0    0 -0.37137490672E+00  0.47157963410E+00 -0.50454308131E+01  0.50810116142E+01  0.51100000000E-03 0. -1.
        -11    1    3    3    0    0 -0.49219409586E+01 -0.89682563032E+01  0.25429386377E+00  0.10233268762E+02  0.51100000000E-03 0.  1.
        -12    1    3    3    0    0 -0.25469283041E+02  0.11027408007E+02 -0.21674377211E+02  0.35214581262E+02  0.00000000000E+00 0.  1.
</event>
<event>
 7    1  0.5290964E-013  0.5052888E+02  0.7816164E-02  0.1300439E+00
        -11   -1    0    0    0    0  0.00000000000E+00  0.00000000000E+00  0.45593999997E+02  0.45594000000E+02  0.51100000000E-03 0.  1.
         11   -1    0    0    0    0 -0.00000000000E+00 -0.00000000000E+00 -0.45593999997E+02  0.45594000000E+02  0.51100000000E-03 0. -1.
    9900012    2    1    2    0    0 -0.37262546790E+02  0.14331393479E+02  0.76991906988E+01  0.50528883313E+02  0.30000071320E+02 0.  0.
         12    1    1    2    0    0  0.37262546790E+02 -0.14331393479E+02 -0.76991906988E+01  0.40659116687E+02  0.00000000000E+00 0. -1.
         11    1    3    3    0    0 -0.11395612970E+02  0.67205582476E+01 -0.25440384323E+01  0.13472120469E+02  0.51100000000E-03 0. -1.
        -11    1    3    3    0    0 -0.23259355987E+02  0.12033603314E+02  0.14895951184E+02  0.30127970586E+02  0.51100000000E-03 0.  1.
        -12    1    3    3    0    0 -0.26075778325E+01 -0.44227680826E+01 -0.46527220531E+01  0.69287922590E+01  0.00000000000E+00 0.  1.
</event>
<event>
 7    1  0.5290964E-013  0.5052874E+02  0.7816164E-02  0.1300439E+00
        -11   -1    0    0    0    0  0.00000000000E+00  0.00000000000E+00  0.45593999997E+02  0.45594000000E+02  0.51100000000E-03 0.  1.
         11   -1    0    0    0    0 -0.00000000000E+00 -0.00000000000E+00 -0.45593999997E+02  0.45594000000E+02  0.51100000000E-03 0. -1.
    9900012    2    1    2    0    0  0.38358992547E+02 -0.11817560199E+02  0.64890813634E+01  0.50528742564E+02  0.29999643496E+02 0.  0.
         12    1    1    2    0    0 -0.38358992547E+02  0.11817560199E+02 -0.64890813634E+01  0.40659257436E+02  0.00000000000E+00 0. -1.
         11    1    3    3    0    0 -0.22513434783E+01 -0.71373866306E+01 -0.25924066295E+01  0.79203161405E+01  0.51100000000E-03 0. -1.
        -11    1    3    3    0    0  0.23186700379E+02 -0.28784563124E+01  0.11862408846E+01  0.23394780463E+02  0.51100000000E-03 0.  1.
        -12    1    3    3    0    0  0.17423635647E+02 -0.18017172556E+01  0.78952471083E+01  0.19213645961E+02  0.00000000000E+00 0.  1.
</event>
<event>
 7    1  0.5290964E-013  0.5052886E+02  0.7816164E-02  0.1300439E+00
        -11   -1    0    0    0    0  0.00000000000E+00  0.00000000000E+00  0.45593999997E+02  0.45594000000E+02  0.51100000000E-03 0.  1.
         11   -1    0    0    0    0 -0.00000000000E+00 -0.00000000000E+00 -0.45593999997E+02  0.45594000000E+02  0.51100000000E-03 0. -1.
    9900012    2    1    2    0    0  0.19655008775E+02  0.19174407593E+02  0.29986468474E+02  0.50528861200E+02  0.30000004102E+02 0.  0.
         12    1    1    2    0    0 -0.19655008775E+02 -0.19174407593E+02 -0.29986468474E+02  0.40659138800E+02  0.00000000000E+00 0. -1.
         11    1    3    3    0    0 -0.24208284854E+01 -0.21912148737E+01 -0.17188855329E+01  0.36900407741E+01  0.51100000000E-03 0. -1.
        -11    1    3    3    0    0  0.15246617157E+02  0.46957029533E+01  0.10917304474E+02  0.19331231161E+02  0.51100000000E-03 0.  1.
        -12    1    3    3    0    0  0.68292201037E+01  0.16669919513E+02  0.20788049532E+02  0.27507589265E+02  0.00000000000E+00 0.  1.
</event>
<event>
 7    1  0.5290964E-013  0.5052886E+02  0.7816164E-02  0.1300439E+00
        -11   -1    0    0    0    0  0.00000000000E+00  0.00000000000E+00  0.45593999997E+02  0.45594000000E+02  0.51100000000E-03 0.  1.
         11   -1    0    0    0    0 -0.00000000000E+00 -0.00000000000E+00 -0.45593999997E+02  0.45594000000E+02  0.51100000000E-03 0. -1.
    9900012    2    1    2    0    0 -0.36779095209E+02  0.17133825299E+02  0.26260239058E+01  0.50528858158E+02  0.29999994857E+02 0.  0.
         12    1    1    2    0    0  0.36779095209E+02 -0.17133825299E+02 -0.26260239058E+01  0.40659141842E+02  0.00000000000E+00 0. -1.
         11    1    3    3    0    0 -0.20849383859E+02  0.24351704969E+01 -0.17113030314E+01  0.21060755471E+02  0.51100000000E-03 0. -1.
        -11    1    3    3    0    0 -0.10278162490E+02 -0.98536427055E+00 -0.36901535066E+01  0.10964889424E+02  0.51100000000E-03 0.  1.
        -12    1    3    3    0    0 -0.56515488595E+01  0.15684019073E+02  0.80274804439E+01  0.18503213263E+02  0.00000000000E+00 0.  1.
</event>
<event>
 7    1  0.5290964E-013  0.5052886E+02  0.7816164E-02  0.1300439E+00
        -11   -1    0    0    0    0  0.00000000000E+00  0.00000000000E+00  0.45593999997E+02  0.45594000000E+02  0.51100000000E-03 0. -1.
         11   -1    0    0    0    0 -0.00000000000E+00 -0.00000000000E+00 -0.45593999997E+02  0.45594000000E+02  0.51100000000E-03 0.  1.
    9900012    2    1    2    0    0  0.72272438728E+00 -0.31317286585E+02 -0.25920469999E+02  0.50528861611E+02  0.30000005352E+02 0.  0.
         12    1    1    2    0    0 -0.72272438728E+00  0.31317286585E+02  0.25920469999E+02  0.40659138389E+02  0.00000000000E+00 0. -1.
         11    1    3    3    0    0  0.12055254482E+01 -0.15453623917E+01  0.16081583427E+01  0.25352731696E+01  0.51100000000E-03 0. -1.
        -11    1    3    3    0    0  0.97263034947E+01 -0.23841139104E+02 -0.11792801155E+02  0.28320858970E+02  0.51100000000E-03 0.  1.
         12    1    3    3    0    0 -0.10209104556E+02 -0.59307850896E+01 -0.15735827187E+02  0.19672729472E+02  0.00000000000E+00 0. -1.
</event>
<event>
 7    1  0.5290964E-013  0.5052884E+02  0.7816164E-02  0.1300439E+00
        -11   -1    0    0    0    0  0.00000000000E+00  0.00000000000E+00  0.45593999997E+02  0.45594000000E+02  0.51100000000E-03 0.  1.
         11   -1    0    0    0    0 -0.00000000000E+00 -0.00000000000E+00 -0.45593999997E+02  0.45594000000E+02  0.51100000000E-03 0. -1.
    9900012    2    1    2    0    0 -0.28199038443E+02 -0.25799668809E+02  0.13869337576E+02  0.50528841075E+02  0.29999942930E+02 0.  0.
         12    1    1    2    0    0  0.28199038443E+02  0.25799668809E+02 -0.13869337576E+02  0.40659158925E+02  0.00000000000E+00 0. -1.
         11    1    3    3    0    0 -0.71714945574E+01 -0.18160436399E+02  0.64066280998E+01  0.20549371481E+02  0.51100000000E-03 0. -1.
        -11    1    3    3    0    0 -0.20699404847E+02 -0.77304744249E+01 -0.40976925174E+00  0.22099626851E+02  0.51100000000E-03 0.  1.
         12    1    3    3    0    0 -0.32813903828E+00  0.91242015109E-01  0.78724787276E+01  0.78798427427E+01  0.00000000000E+00 0. -1.
</event>
<event>
 7    1  0.5290964E-013  0.5052885E+02  0.7816164E-02  0.1300439E+00
        -11   -1    0    0    0    0  0.00000000000E+00  0.00000000000E+00  0.45593999997E+02  0.45594000000E+02  0.51100000000E-03 0. -1.
         11   -1    0    0    0    0 -0.00000000000E+00 -0.00000000000E+00 -0.45593999997E+02  0.45594000000E+02  0.51100000000E-03 0.  1.
    9900012    2    1    2    0    0 -0.40452789689E+02 -0.34262098904E+01 -0.22360103284E+01  0.50528845434E+02  0.29999956180E+02 0.  0.
         12    1    1    2    0    0  0.40452789689E+02  0.34262098904E+01  0.22360103284E+01  0.40659154566E+02  0.00000000000E+00 0. -1.
         11    1    3    3    0    0 -0.17844000896E+02  0.38713182096E+01  0.22742360217E+01  0.18400207129E+02  0.51100000000E-03 0. -1.
        -11    1    3    3    0    0 -0.20050530990E+02  0.29052354986E+01  0.94028683336E+00  0.20281723937E+02  0.51100000000E-03 0.  1.
         12    1    3    3    0    0 -0.25582578033E+01 -0.10202763599E+02 -0.54505331835E+01  0.11846914367E+02  0.00000000000E+00 0. -1.
</event>
<event>
 7    1  0.5290964E-013  0.5052886E+02  0.7816164E-02  0.1300439E+00
        -11   -1    0    0    0    0  0.00000000000E+00  0.00000000000E+00  0.45593999997E+02  0.45594000000E+02  0.51100000000E-03 0.  1.
         11   -1    0    0    0    0 -0.00000000000E+00 -0.00000000000E+00 -0.45593999997E+02  0.45594000000E+02  0.51100000000E-03 0. -1.
    9900012    2    1    2    0    0 -0.16901994727E+01  0.22406117624E+02  0.33886203418E+02  0.50528860027E+02  0.30000000540E+02 0.  0.
         12    1    1    2    0    0  0.16901994727E+01 -0.22406117624E+02 -0.33886203418E+02  0.40659139973E+02  0.00000000000E+00 0. -1.
         11    1    3    3    0    0 -0.10042727213E+02  0.16578649228E+02  0.17859435480E+02  0.26356544083E+02  0.51100000000E-03 0. -1.
        -11    1    3    3    0    0  0.51755277469E+01  0.10463218987E+02  0.72214835258E+01  0.13726429383E+02  0.51100000000E-03 0.  1.
        -12    1    3    3    0    0  0.31769999931E+01 -0.46357505900E+01  0.88052844120E+01  0.10445886562E+02  0.00000000000E+00 0.  1.
</event>
<event>
 7    1  0.5290964E-013  0.5052885E+02  0.7816164E-02  0.1300439E+00
        -11   -1    0    0    0    0  0.00000000000E+00  0.00000000000E+00  0.45593999997E+02  0.45594000000E+02  0.51100000000E-03 0.  1.
         11   -1    0    0    0    0 -0.00000000000E+00 -0.00000000000E+00 -0.45593999997E+02  0.45594000000E+02  0.51100000000E-03 0. -1.
    9900012    2    1    2    0    0 -0.11815930573E+02 -0.62701047198E+01  0.38395781977E+02  0.50528849712E+02  0.29999969184E+02 0.  0.
         12    1    1    2    0    0  0.11815930573E+02  0.62701047198E+01 -0.38395781977E+02  0.40659150288E+02  0.00000000000E+00 0. -1.
         11    1    3    3    0    0  0.24982545416E+01  0.25771744325E+01 -0.21117716732E+01  0.41644547867E+01  0.51100000000E-03 0. -1.
        -11    1    3    3    0    0 -0.13594133748E+02 -0.29853580262E+01  0.16238019767E+02  0.21386587412E+02  0.51100000000E-03 0.  1.
        -12    1    3    3    0    0 -0.72005136717E+00 -0.58619211261E+01  0.24269533883E+02  0.24977807513E+02  0.00000000000E+00 0.  1.
</event>
<event>
 7    1  0.5290964E-013  0.5052888E+02  0.7816164E-02  0.1300439E+00
        -11   -1    0    0    0    0  0.00000000000E+00  0.00000000000E+00  0.45593999997E+02  0.45594000000E+02  0.51100000000E-03 0. -1.
         11   -1    0    0    0    0 -0.00000000000E+00 -0.00000000000E+00 -0.45593999997E+02  0.45594000000E+02  0.51100000000E-03 0.  1.
    9900012    2    1    2    0    0 -0.32735950079E+01 -0.11035185750E+02 -0.38995802616E+02  0.50528875926E+02  0.30000048864E+02 0.  0.
         12    1    1    2    0    0  0.32735950079E+01  0.11035185750E+02  0.38995802616E+02  0.40659124074E+02  0.00000000000E+00 0. -1.
         11    1    3    3    0    0 -0.78334778493E+01  0.14054126602E+01 -0.19355575840E+02  0.20927897083E+02  0.51100000000E-03 0. -1.
        -11    1    3    3    0    0 -0.45144002908E+00  0.18623969303E+00 -0.15345609311E+02  0.15353377762E+02  0.51100000000E-03 0.  1.
        -12    1    3    3    0    0  0.50113228705E+01 -0.12626838103E+02 -0.42946174656E+01  0.14247601081E+02  0.00000000000E+00 0.  1.
</event>
<event>
 7    1  0.5290964E-013  0.5052886E+02  0.7816164E-02  0.1300439E+00
        -11   -1    0    0    0    0  0.00000000000E+00  0.00000000000E+00  0.45593999997E+02  0.45594000000E+02  0.51100000000E-03 0.  1.
         11   -1    0    0    0    0 -0.00000000000E+00 -0.00000000000E+00 -0.45593999997E+02  0.45594000000E+02  0.51100000000E-03 0. -1.
    9900012    2    1    2    0    0 -0.25917526137E+02 -0.29812156780E+02  0.96272059564E+01  0.50528856533E+02  0.29999989917E+02 0.  0.
         12    1    1    2    0    0  0.25917526137E+02  0.29812156780E+02 -0.96272059564E+01  0.40659143467E+02  0.00000000000E+00 0. -1.
         11    1    3    3    0    0 -0.46591466731E+01 -0.88201569014E+00 -0.52326430583E+01  0.70615970599E+01  0.51100000000E-03 0.  1.
        -11    1    3    3    0    0 -0.39680018134E+01  0.25588577018E+01  0.31797432063E+01  0.56924123400E+01  0.51100000000E-03 0. -1.
        -12    1    3    3    0    0 -0.17290377650E+02 -0.31488998792E+02  0.11680105808E+02  0.37774847133E+02  0.00000000000E+00 0.  1.
</event>
<event>
 7    1  0.5290964E-013  0.5052886E+02  0.7816164E-02  0.1300439E+00
        -11   -1    0    0    0    0  0.00000000000E+00  0.00000000000E+00  0.45593999997E+02  0.45594000000E+02  0.51100000000E-03 0. -1.
         11   -1    0    0    0    0 -0.00000000000E+00 -0.00000000000E+00 -0.45593999997E+02  0.45594000000E+02  0.51100000000E-03 0.  1.
    9900012    2    1    2    0    0  0.31260221957E+02  0.98029808062E+01 -0.24080405659E+02  0.50528857778E+02  0.29999993703E+02 0.  0.
         12    1    1    2    0    0 -0.31260221957E+02 -0.98029808062E+01  0.24080405659E+02  0.40659142222E+02  0.00000000000E+00 0. -1.
         11    1    3    3    0    0  0.15669545831E+01  0.13532387030E+01 -0.99896621226E+01  0.10201958206E+02  0.51100000000E-03 0. -1.
        -11    1    3    3    0    0  0.68308130283E+01  0.62602420164E+01 -0.14671689552E+02  0.17352495824E+02  0.51100000000E-03 0.  1.
         12    1    3    3    0    0  0.22862454346E+02  0.21895000868E+01  0.58094601590E+00  0.22974403749E+02  0.00000000000E+00 0. -1.
</event>
<event>
 7    1  0.5290964E-013  0.5052886E+02  0.7816164E-02  0.1300439E+00
        -11   -1    0    0    0    0  0.00000000000E+00  0.00000000000E+00  0.45593999997E+02  0.45594000000E+02  0.51100000000E-03 0. -1.
         11   -1    0    0    0    0 -0.00000000000E+00 -0.00000000000E+00 -0.45593999997E+02  0.45594000000E+02  0.51100000000E-03 0.  1.
    9900012    2    1    2    0    0 -0.31724025053E+02 -0.98879844145E+01 -0.23430311136E+02  0.50528862266E+02  0.30000007343E+02 0.  0.
         12    1    1    2    0    0  0.31724025053E+02  0.98879844145E+01  0.23430311136E+02  0.40659137734E+02  0.00000000000E+00 0. -1.
         11    1    3    3    0    0 -0.13903523479E+02 -0.56527080128E+01 -0.17883680888E+02  0.23347100792E+02  0.51100000000E-03 0. -1.
        -11    1    3    3    0    0 -0.15661019391E+02 -0.56239257731E+01 -0.11814921653E+02  0.20408048496E+02  0.51100000000E-03 0.  1.
         12    1    3    3    0    0 -0.21594821826E+01  0.13886493713E+01  0.62682914048E+01  0.67737129781E+01  0.00000000000E+00 0. -1.
</event>
<event>
 7    1  0.5290964E-013  0.5052886E+02  0.7816164E-02  0.1300439E+00
        -11   -1    0    0    0    0  0.00000000000E+00  0.00000000000E+00  0.45593999997E+02  0.45594000000E+02  0.51100000000E-03 0.  1.
         11   -1    0    0    0    0 -0.00000000000E+00 -0.00000000000E+00 -0.45593999997E+02  0.45594000000E+02  0.51100000000E-03 0. -1.
    9900012    2    1    2    0    0 -0.12139679347E+02 -0.92407712934E+01  0.37688224124E+02  0.50528857038E+02  0.29999991454E+02 0.  0.
         12    1    1    2    0    0  0.12139679347E+02  0.92407712934E+01 -0.37688224124E+02  0.40659142962E+02  0.00000000000E+00 0. -1.
         11    1    3    3    0    0  0.87188838845E+01  0.31941743550E+00  0.78937323346E+01  0.11765711798E+02  0.51100000000E-03 0. -1.
        -11    1    3    3    0    0 -0.20850399502E+01  0.16948281782E+01  0.50966581302E+01  0.57615760434E+01  0.51100000000E-03 0.  1.
        -12    1    3    3    0    0 -0.18773523281E+02 -0.11255016907E+02  0.24697833659E+02  0.33001569197E+02  0.00000000000E+00 0.  1.
</event>
<event>
 7    1  0.5290964E-013  0.5052884E+02  0.7816164E-02  0.1300439E+00
        -11   -1    0    0    0    0  0.00000000000E+00  0.00000000000E+00  0.45593999997E+02  0.45594000000E+02  0.51100000000E-03 0. -1.
         11   -1    0    0    0    0 -0.00000000000E+00 -0.00000000000E+00 -0.45593999997E+02  0.45594000000E+02  0.51100000000E-03 0.  1.
    9900012    2    1    2    0    0 -0.67785438468E+01  0.14789552865E+02 -0.37262420263E+02  0.50528837509E+02  0.29999932092E+02 0.  0.
         12    1    1    2    0    0  0.67785438468E+01 -0.14789552865E+02  0.37262420263E+02  0.40659162491E+02  0.00000000000E+00 0. -1.
         11    1    3    3    0    0 -0.65972138131E+00  0.83465212218E+01 -0.28129657521E+02  0.29349229655E+02  0.51100000000E-03 0. -1.
        -11    1    3    3    0    0 -0.83077738478E+01 -0.23099834694E+01 -0.85422123022E+01  0.12137731304E+02  0.51100000000E-03 0.  1.
         12    1    3    3    0    0  0.21889513823E+01  0.87530151130E+01 -0.59055043920E+00  0.90418765499E+01  0.00000000000E+00 0. -1.
</event>
<event>
 7    1  0.5290964E-013  0.5052886E+02  0.7816164E-02  0.1300439E+00
        -11   -1    0    0    0    0  0.00000000000E+00  0.00000000000E+00  0.45593999997E+02  0.45594000000E+02  0.51100000000E-03 0.  1.
         11   -1    0    0    0    0 -0.00000000000E+00 -0.00000000000E+00 -0.45593999997E+02  0.45594000000E+02  0.51100000000E-03 0. -1.
    9900012    2    1    2    0    0  0.18623720517E+02 -0.35248231082E+02 -0.79928212863E+01  0.50528856472E+02  0.29999989732E+02 0.  0.
         12    1    1    2    0    0 -0.18623720517E+02  0.35248231082E+02  0.79928212863E+01  0.40659143528E+02  0.00000000000E+00 0. -1.
         11    1    3    3    0    0  0.17253413944E+01  0.10508083517E+01 -0.16385626265E+01  0.26011322268E+01  0.51100000000E-03 0. -1.
        -11    1    3    3    0    0 -0.54732685987E+01 -0.10094181409E+02 -0.70334825926E+01  0.13465476045E+02  0.51100000000E-03 0.  1.
        -12    1    3    3    0    0  0.22371647722E+02 -0.26204858024E+02  0.67922393288E+00  0.34462248200E+02  0.00000000000E+00 0.  1.
</event>
<event>
 7    1  0.5290964E-013  0.5052886E+02  0.7816164E-02  0.1300439E+00
        -11   -1    0    0    0    0  0.00000000000E+00  0.00000000000E+00  0.45593999997E+02  0.45594000000E+02  0.51100000000E-03 0.  1.
         11   -1    0    0    0    0 -0.00000000000E+00 -0.00000000000E+00 -0.45593999997E+02  0.45594000000E+02  0.51100000000E-03 0. -1.
    9900012    2    1    2    0    0  0.27093708505E+02  0.38156449723E+01  0.30075530065E+02  0.50528859628E+02  0.29999999325E+02 0.  0.
         12    1    1    2    0    0 -0.27093708505E+02 -0.38156449723E+01 -0.30075530065E+02  0.40659140372E+02  0.00000000000E+00 0. -1.
         11    1    3    3    0    0  0.95520063072E+01 -0.70596335773E+01  0.13350631702E+02  0.17869488460E+02  0.51100000000E-03 0. -1.
        -11    1    3    3    0    0  0.50282835804E+01 -0.39716548079E+01  0.10441984839E+02  0.12251233625E+02  0.51100000000E-03 0.  1.
        -12    1    3    3    0    0  0.12513418617E+02  0.14846933358E+02  0.62829135237E+01  0.20408137543E+02  0.00000000000E+00 0.  1.
</event>
<event>
 7    1  0.5290964E-013  0.5052887E+02  0.7816164E-02  0.1300439E+00
        -11   -1    0    0    0    0  0.00000000000E+00  0.00000000000E+00  0.45593999997E+02  0.45594000000E+02  0.51100000000E-03 0. -1.
         11   -1    0    0    0    0 -0.00000000000E+00 -0.00000000000E+00 -0.45593999997E+02  0.45594000000E+02  0.51100000000E-03 0.  1.
    9900012    2    1    2    0    0  0.19646503990E+00  0.40289454070E+01 -0.40458542708E+02  0.50528872149E+02  0.30000037383E+02 0.  0.
         12    1    1    2    0    0 -0.19646503990E+00 -0.40289454070E+01  0.40458542708E+02  0.40659127851E+02  0.00000000000E+00 0. -1.
         11    1    3    3    0    0  0.18572163073E+01 -0.19179002113E+01  0.19806277963E+01  0.33242262801E+01  0.51100000000E-03 0. -1.
        -11    1    3    3    0    0  0.29656658737E+01 -0.62683793433E+01 -0.20835340260E+02  0.21959033624E+02  0.51100000000E-03 0.  1.
         12    1    3    3    0    0 -0.46264171411E+01  0.12215224962E+02 -0.21603830244E+02  0.25245612245E+02  0.00000000000E+00 0. -1.
</event>
<event>
 7    1  0.5290964E-013  0.5052884E+02  0.7816164E-02  0.1300439E+00
        -11   -1    0    0    0    0  0.00000000000E+00  0.00000000000E+00  0.45593999997E+02  0.45594000000E+02  0.51100000000E-03 0. -1.
         11   -1    0    0    0    0 -0.00000000000E+00 -0.00000000000E+00 -0.45593999997E+02  0.45594000000E+02  0.51100000000E-03 0.  1.
    9900012    2    1    2    0    0 -0.20340519428E+02 -0.34932199560E+02 -0.43785439088E+01  0.50528844286E+02  0.29999952690E+02 0.  0.
         12    1    1    2    0    0  0.20340519428E+02  0.34932199560E+02  0.43785439088E+01  0.40659155714E+02  0.00000000000E+00 0. -1.
         11    1    3    3    0    0 -0.14383897609E+02 -0.25944830137E+02  0.52879461807E+01  0.30132923793E+02  0.51100000000E-03 0.  1.
        -11    1    3    3    0    0 -0.11020286686E+01 -0.38340086837E+01  0.35903585971E+01  0.53670070700E+01  0.51100000000E-03 0. -1.
        -12    1    3    3    0    0 -0.48545931498E+01 -0.51533607390E+01 -0.13256848687E+02  0.15028913422E+02  0.00000000000E+00 0.  1.
</event>
<event>
 7    1  0.5290964E-013  0.5052888E+02  0.7816164E-02  0.1300439E+00
        -11   -1    0    0    0    0  0.00000000000E+00  0.00000000000E+00  0.45593999997E+02  0.45594000000E+02  0.51100000000E-03 0.  1.
         11   -1    0    0    0    0 -0.00000000000E+00 -0.00000000000E+00 -0.45593999997E+02  0.45594000000E+02  0.51100000000E-03 0. -1.
    9900012    2    1    2    0    0 -0.11364373278E+02  0.30527515266E+02  0.24332817875E+02  0.50528878095E+02  0.30000055458E+02 0.  0.
         12    1    1    2    0    0  0.11364373278E+02 -0.30527515266E+02 -0.24332817875E+02  0.40659121905E+02  0.00000000000E+00 0. -1.
         11    1    3    3    0    0 -0.89163809450E+00  0.48536829128E+01  0.66346762925E+01  0.82687475519E+01  0.51100000000E-03 0. -1.
        -11    1    3    3    0    0 -0.86952379062E+01  0.21852159273E+02  0.24688390549E+02  0.34097516849E+02  0.51100000000E-03 0.  1.
         12    1    3    3    0    0 -0.17774972775E+01  0.38216730804E+01 -0.69902489664E+01  0.81626136940E+01  0.00000000000E+00 0. -1.
</event>
<event>
 7    1  0.5290964E-013  0.5052886E+02  0.7816164E-02  0.1300439E+00
        -11   -1    0    0    0    0  0.00000000000E+00  0.00000000000E+00  0.45593999997E+02  0.45594000000E+02  0.51100000000E-03 0.  1.
         11   -1    0    0    0    0 -0.00000000000E+00 -0.00000000000E+00 -0.45593999997E+02  0.45594000000E+02  0.51100000000E-03 0. -1.
    9900012    2    1    2    0    0 -0.27932952459E+02  0.21992685952E+02  0.19729106621E+02  0.50528859373E+02  0.29999998550E+02 0.  0.
         12    1    1    2    0    0  0.27932952459E+02 -0.21992685952E+02 -0.19729106621E+02  0.40659140627E+02  0.00000000000E+00 0. -1.
         11    1    3    3    0    0 -0.88168258811E+01  0.57386931131E+00  0.11264427650E+02  0.14316182282E+02  0.51100000000E-03 0. -1.
        -11    1    3    3    0    0 -0.42633054623E+01 -0.18011099376E+01  0.72758602120E+01  0.86231034181E+01  0.51100000000E-03 0.  1.
         12    1    3    3    0    0 -0.14852821115E+02  0.23219926579E+02  0.11888187592E+01  0.27589573673E+02  0.00000000000E+00 0. -1.
</event>
<event>
 7    1  0.5290964E-013  0.5052886E+02  0.7816164E-02  0.1300439E+00
        -11   -1    0    0    0    0  0.00000000000E+00  0.00000000000E+00  0.45593999997E+02  0.45594000000E+02  0.51100000000E-03 0.  1.
         11   -1    0    0    0    0 -0.00000000000E+00 -0.00000000000E+00 -0.45593999997E+02  0.45594000000E+02  0.51100000000E-03 0. -1.
    9900012    2    1    2    0    0  0.23385078357E+02  0.92472991585E+01  0.31949821813E+02  0.50528861477E+02  0.30000004947E+02 0.  0.
         12    1    1    2    0    0 -0.23385078357E+02 -0.92472991585E+01 -0.31949821813E+02  0.40659138523E+02  0.00000000000E+00 0. -1.
         11    1    3    3    0    0 -0.49634787681E+01  0.53629180365E+01  0.90093674374E+01  0.11600246257E+02  0.51100000000E-03 0. -1.
        -11    1    3    3    0    0  0.57381520926E+00 -0.24877970128E+01  0.37661532346E+00  0.25807435429E+01  0.51100000000E-03 0.  1.
        -12    1    3    3    0    0  0.27774741916E+02  0.63721781349E+01  0.22563839052E+02  0.36347871677E+02  0.00000000000E+00 0.  1.
</event>
<event>
 7    1  0.5290964E-013  0.5052886E+02  0.7816164E-02  0.1300439E+00
        -11   -1    0    0    0    0  0.00000000000E+00  0.00000000000E+00  0.45593999997E+02  0.45594000000E+02  0.51100000000E-03 0. -1.
         11   -1    0    0    0    0 -0.00000000000E+00 -0.00000000000E+00 -0.45593999997E+02  0.45594000000E+02  0.51100000000E-03 0.  1.
    9900012    2    1    2    0    0 -0.25417812425E+02 -0.31345262103E+02  0.49573268717E+01  0.50528859152E+02  0.29999997877E+02 0.  0.
         12    1    1    2    0    0  0.25417812425E+02  0.31345262103E+02 -0.49573268717E+01  0.40659140848E+02  0.00000000000E+00 0. -1.
         11    1    3    3    0    0 -0.62498926905E+01 -0.17428845406E+02  0.39329210374E+01  0.18928647045E+02  0.51100000000E-03 0. -1.
        -11    1    3    3    0    0 -0.16737676003E+02 -0.14977033308E+02  0.82312765815E+01  0.23921020863E+02  0.51100000000E-03 0.  1.
         12    1    3    3    0    0 -0.24302437318E+01  0.10606166103E+01 -0.72068707471E+01  0.76791912436E+01  0.00000000000E+00 0. -1.
</event>
<event>
 7    1  0.5290964E-013  0.5052885E+02  0.7816164E-02  0.1300439E+00
        -11   -1    0    0    0    0  0.00000000000E+00  0.00000000000E+00  0.45593999997E+02  0.45594000000E+02  0.51100000000E-03 0.  1.
         11   -1    0    0    0    0 -0.00000000000E+00 -0.00000000000E+00 -0.45593999997E+02  0.45594000000E+02  0.51100000000E-03 0. -1.
    9900012    2    1    2    0    0  0.17171535795E+02  0.90924803372E+01  0.35715985188E+02  0.50528850498E+02  0.29999971575E+02 0.  0.
         12    1    1    2    0    0 -0.17171535795E+02 -0.90924803372E+01 -0.35715985188E+02  0.40659149502E+02  0.00000000000E+00 0. -1.
         11    1    3    3    0    0  0.45497607379E+01  0.49879216447E+01  0.42539768295E+01  0.79797245712E+01  0.51100000000E-03 0. -1.
        -11    1    3    3    0    0  0.16336370321E+02  0.11454364684E+02  0.25521931161E+02  0.32395191557E+02  0.51100000000E-03 0.  1.
         12    1    3    3    0    0 -0.37145952636E+01 -0.73498059912E+01  0.59400771974E+01  0.10153934370E+02  0.00000000000E+00 0. -1.
</event>
<event>
 7    1  0.5290964E-013  0.5052885E+02  0.7816164E-02  0.1300439E+00
        -11   -1    0    0    0    0  0.00000000000E+00  0.00000000000E+00  0.45593999997E+02  0.45594000000E+02  0.51100000000E-03 0.  1.
         11   -1    0    0    0    0 -0.00000000000E+00 -0.00000000000E+00 -0.45593999997E+02  0.45594000000E+02  0.51100000000E-03 0. -1.
    9900012    2    1    2    0    0  0.13621966190E+02 -0.96121465602E+01  0.37083896793E+02  0.50528846962E+02  0.29999960826E+02 0.  0.
         12    1    1    2    0    0 -0.13621966190E+02  0.96121465602E+01 -0.37083896793E+02  0.40659153038E+02  0.00000000000E+00 0. -1.
         11    1    3    3    0    0  0.11907550566E+02 -0.79687534403E+01  0.19964475287E+02  0.24573788182E+02  0.51100000000E-03 0. -1.
        -11    1    3    3    0    0  0.85445004014E+01 -0.43739722456E+01  0.15792144828E+02  0.18480583293E+02  0.51100000000E-03 0.  1.
         12    1    3    3    0    0 -0.68300847774E+01  0.27305791257E+01  0.13272766782E+01  0.74744754872E+01  0.00000000000E+00 0. -1.
</event>
<event>
 7    1  0.5290964E-013  0.5052885E+02  0.7816164E-02  0.1300439E+00
        -11   -1    0    0    0    0  0.00000000000E+00  0.00000000000E+00  0.45593999997E+02  0.45594000000E+02  0.51100000000E-03 0.  1.
         11   -1    0    0    0    0 -0.00000000000E+00 -0.00000000000E+00 -0.45593999997E+02  0.45594000000E+02  0.51100000000E-03 0. -1.
    9900012    2    1    2    0    0 -0.22800293623E+02 -0.33347062767E+02  0.46136931340E+01  0.50528854057E+02  0.29999982391E+02 0.  0.
         12    1    1    2    0    0  0.22800293623E+02  0.33347062767E+02 -0.46136931340E+01  0.40659145943E+02  0.00000000000E+00 0. -1.
         11    1    3    3    0    0 -0.69094713547E+01 -0.18023225243E+02  0.42353892147E+01  0.19761476782E+02  0.51100000000E-03 0. -1.
        -11    1    3    3    0    0 -0.20919271112E+02 -0.98611582074E+01 -0.12702403049E+01  0.23161862095E+02  0.51100000000E-03 0.  1.
         12    1    3    3    0    0  0.50284488429E+01 -0.54626793167E+01  0.16485442243E+01  0.76055151793E+01  0.00000000000E+00 0. -1.
</event>
<event>
 7    1  0.5290964E-013  0.5052886E+02  0.7816164E-02  0.1300439E+00
        -11   -1    0    0    0    0  0.00000000000E+00  0.00000000000E+00  0.45593999997E+02  0.45594000000E+02  0.51100000000E-03 0.  1.
         11   -1    0    0    0    0 -0.00000000000E+00 -0.00000000000E+00 -0.45593999997E+02  0.45594000000E+02  0.51100000000E-03 0. -1.
    9900012    2    1    2    0    0  0.19152064640E+02  0.26812632972E+01  0.35765552436E+02  0.50528862111E+02  0.30000006872E+02 0.  0.
         12    1    1    2    0    0 -0.19152064640E+02 -0.26812632972E+01 -0.35765552436E+02  0.40659137889E+02  0.00000000000E+00 0. -1.
         11    1    3    3    0    0 -0.36220681729E+00 -0.68821359883E+01  0.23095950685E+01  0.72683711505E+01  0.51100000000E-03 0. -1.
        -11    1    3    3    0    0 -0.19035357193E+01  0.10203149590E+01 -0.49844236505E+00  0.22165143588E+01  0.51100000000E-03 0.  1.
         12    1    3    3    0    0  0.21417807177E+02  0.85430843265E+01  0.33954399733E+02  0.41043976601E+02  0.00000000000E+00 0. -1.
</event>
<event>
 7    1  0.5290964E-013  0.5052886E+02  0.7816164E-02  0.1300439E+00
        -11   -1    0    0    0    0  0.00000000000E+00  0.00000000000E+00  0.45593999997E+02  0.45594000000E+02  0.51100000000E-03 0. -1.
         11   -1    0    0    0    0 -0.00000000000E+00 -0.00000000000E+00 -0.45593999997E+02  0.45594000000E+02  0.51100000000E-03 0.  1.
    9900012    2    1    2    0    0 -0.25657319314E+02  0.25565672660E+02 -0.18473331040E+02  0.50528860650E+02  0.30000002433E+02 0.  0.
         12    1    1    2    0    0  0.25657319314E+02 -0.25565672660E+02  0.18473331040E+02  0.40659139350E+02  0.00000000000E+00 0. -1.
         11    1    3    3    0    0 -0.15788802144E+02  0.16998160714E+02 -0.19702440127E+01  0.23283161352E+02  0.51100000000E-03 0. -1.
        -11    1    3    3    0    0 -0.76446793090E+01  0.13359735107E+02 -0.82971444332E+01  0.17486173105E+02  0.51100000000E-03 0.  1.
         12    1    3    3    0    0 -0.22238378607E+01 -0.47922231611E+01 -0.82059425936E+01  0.97595261927E+01  0.00000000000E+00 0. -1.
</event>
<event>
 7    1  0.5290964E-013  0.5052886E+02  0.7816164E-02  0.1300439E+00
        -11   -1    0    0    0    0  0.00000000000E+00  0.00000000000E+00  0.45593999997E+02  0.45594000000E+02  0.51100000000E-03 0.  1.
         11   -1    0    0    0    0 -0.00000000000E+00 -0.00000000000E+00 -0.45593999997E+02  0.45594000000E+02  0.51100000000E-03 0. -1.
    9900012    2    1    2    0    0 -0.22949061458E+02  0.31633893930E+02  0.11216205012E+02  0.50528856848E+02  0.29999990875E+02 0.  0.
         12    1    1    2    0    0  0.22949061458E+02 -0.31633893930E+02 -0.11216205012E+02  0.40659143152E+02  0.00000000000E+00 0. -1.
         11    1    3    3    0    0 -0.19201319064E+02  0.15690126660E+02  0.15981579318E+02  0.29500535693E+02  0.51100000000E-03 0.  1.
        -11    1    3    3    0    0  0.22745556208E+01 -0.69302429239E+00  0.75350890521E+00  0.24943259356E+01  0.51100000000E-03 0. -1.
        -12    1    3    3    0    0 -0.60222980148E+01  0.16636791563E+02 -0.55188832117E+01  0.18533995219E+02  0.00000000000E+00 0.  1.
</event>
<event>
 7    1  0.5290964E-013  0.5052885E+02  0.7816164E-02  0.1300439E+00
        -11   -1    0    0    0    0  0.00000000000E+00  0.00000000000E+00  0.45593999997E+02  0.45594000000E+02  0.51100000000E-03 0.  1.
         11   -1    0    0    0    0 -0.00000000000E+00 -0.00000000000E+00 -0.45593999997E+02  0.45594000000E+02  0.51100000000E-03 0. -1.
    9900012    2    1    2    0    0  0.21295961432E+02 -0.28542093983E+02  0.19621344720E+02  0.50528852556E+02  0.29999977828E+02 0.  0.
         12    1    1    2    0    0 -0.21295961432E+02  0.28542093983E+02 -0.19621344720E+02  0.40659147444E+02  0.00000000000E+00 0. -1.
         11    1    3    3    0    0  0.94542139329E+01 -0.94781147779E+01 -0.21596067356E-02  0.13387188867E+02  0.51100000000E-03 0. -1.
        -11    1    3    3    0    0  0.15536081802E+02 -0.46330761758E+01  0.71762070506E+01  0.17729443886E+02  0.51100000000E-03 0.  1.
        -12    1    3    3    0    0 -0.36943343029E+01 -0.14430903030E+02  0.12447297276E+02  0.19412219803E+02  0.00000000000E+00 0.  1.
</event>
<event>
 7    1  0.5290964E-013  0.5052887E+02  0.7816164E-02  0.1300439E+00
        -11   -1    0    0    0    0  0.00000000000E+00  0.00000000000E+00  0.45593999997E+02  0.45594000000E+02  0.51100000000E-03 0.  1.
         11   -1    0    0    0    0 -0.00000000000E+00 -0.00000000000E+00 -0.45593999997E+02  0.45594000000E+02  0.51100000000E-03 0. -1.
    9900012    2    1    2    0    0 -0.31762560513E+02 -0.77652900671E+01  0.24166197445E+02  0.50528867212E+02  0.30000022377E+02 0.  0.
         12    1    1    2    0    0  0.31762560513E+02  0.77652900671E+01 -0.24166197445E+02  0.40659132788E+02  0.00000000000E+00 0. -1.
         11    1    3    3    0    0 -0.89607526197E+01 -0.35007253472E+01 -0.21649175851E+00  0.96227352873E+01  0.51100000000E-03 0. -1.
        -11    1    3    3    0    0 -0.67713190054E+00  0.73079484859E+01  0.88635376386E+01  0.11507689534E+02  0.51100000000E-03 0.  1.
         12    1    3    3    0    0 -0.22124675993E+02 -0.11572513206E+02  0.15519151565E+02  0.29398442390E+02  0.00000000000E+00 0. -1.
</event>
<event>
 7    1  0.5290964E-013  0.5052887E+02  0.7816164E-02  0.1300439E+00
        -11   -1    0    0    0    0  0.00000000000E+00  0.00000000000E+00  0.45593999997E+02  0.45594000000E+02  0.51100000000E-03 0.  1.
         11   -1    0    0    0    0 -0.00000000000E+00 -0.00000000000E+00 -0.45593999997E+02  0.45594000000E+02  0.51100000000E-03 0. -1.
    9900012    2    1    2    0    0 -0.95522605857E+01  0.39025233798E+02 -0.62410491859E+01  0.50528865107E+02  0.30000015981E+02 0.  0.
         12    1    1    2    0    0  0.95522605857E+01 -0.39025233798E+02  0.62410491859E+01  0.40659134893E+02  0.00000000000E+00 0. -1.
         11    1    3    3    0    0 -0.24421967831E+00  0.33135924789E+02 -0.96643042753E+01  0.34517356971E+02  0.51100000000E-03 0.  1.
        -11    1    3    3    0    0 -0.51718455892E+01  0.40474254648E+01 -0.37248155788E+01  0.75500921219E+01  0.51100000000E-03 0. -1.
        -12    1    3    3    0    0 -0.41361953182E+01  0.18418835444E+01  0.71480706682E+01  0.84614160150E+01  0.00000000000E+00 0.  1.
</event>
<event>
 7    1  0.5290964E-013  0.5052886E+02  0.7816164E-02  0.1300439E+00
        -11   -1    0    0    0    0  0.00000000000E+00  0.00000000000E+00  0.45593999997E+02  0.45594000000E+02  0.51100000000E-03 0.  1.
         11   -1    0    0    0    0 -0.00000000000E+00 -0.00000000000E+00 -0.45593999997E+02  0.45594000000E+02  0.51100000000E-03 0. -1.
    9900012    2    1    2    0    0 -0.26036810121E+02  0.12165186955E+02 -0.28762104317E+02  0.50528857120E+02  0.29999991703E+02 0.  0.
         12    1    1    2    0    0  0.26036810121E+02 -0.12165186955E+02  0.28762104317E+02  0.40659142880E+02  0.00000000000E+00 0. -1.
         11    1    3    3    0    0 -0.14314556326E+02  0.57693189888E+01 -0.22553424447E+02  0.27328529397E+02  0.51100000000E-03 0. -1.
        -11    1    3    3    0    0  0.40497265776E+01 -0.19522055197E+01 -0.92969189433E+00  0.45908298840E+01  0.51100000000E-03 0.  1.
         12    1    3    3    0    0 -0.15771980373E+02  0.83480734863E+01 -0.52789879754E+01  0.18609497840E+02  0.00000000000E+00 0. -1.
</event>
<event>
 7    1  0.5290964E-013  0.5052885E+02  0.7816164E-02  0.1300439E+00
        -11   -1    0    0    0    0  0.00000000000E+00  0.00000000000E+00  0.45593999997E+02  0.45594000000E+02  0.51100000000E-03 0.  1.
         11   -1    0    0    0    0 -0.00000000000E+00 -0.00000000000E+00 -0.45593999997E+02  0.45594000000E+02  0.51100000000E-03 0. -1.
    9900012    2    1    2    0    0 -0.39874666045E+02  0.54867640067E+01  0.57509125710E+01  0.50528848916E+02  0.29999966766E+02 0.  0.
         12    1    1    2    0    0  0.39874666045E+02 -0.54867640067E+01 -0.57509125710E+01  0.40659151084E+02  0.00000000000E+00 0. -1.
         11    1    3    3    0    0 -0.15254741509E+02  0.84918031724E+01  0.75540013770E+01  0.19023164739E+02  0.51100000000E-03 0. -1.
        -11    1    3    3    0    0 -0.14063804102E+02  0.61437238414E+01  0.47646684862E+01  0.16069785142E+02  0.51100000000E-03 0.  1.
         12    1    3    3    0    0 -0.10556120433E+02 -0.91487630071E+01 -0.65677572923E+01  0.15435899035E+02  0.00000000000E+00 0. -1.
</event>
<event>
 7    1  0.5290964E-013  0.5052886E+02  0.7816164E-02  0.1300439E+00
        -11   -1    0    0    0    0  0.00000000000E+00  0.00000000000E+00  0.45593999997E+02  0.45594000000E+02  0.51100000000E-03 0.  1.
         11   -1    0    0    0    0 -0.00000000000E+00 -0.00000000000E+00 -0.45593999997E+02  0.45594000000E+02  0.51100000000E-03 0. -1.
    9900012    2    1    2    0    0  0.36161842021E+02 -0.84039215468E+01  0.16578934550E+02  0.50528858512E+02  0.29999995932E+02 0.  0.
         12    1    1    2    0    0 -0.36161842021E+02  0.84039215468E+01 -0.16578934550E+02  0.40659141488E+02  0.00000000000E+00 0. -1.
         11    1    3    3    0    0  0.41487039211E+01 -0.66164318601E+01  0.10319848201E+02  0.12941722526E+02  0.51100000000E-03 0. -1.
        -11    1    3    3    0    0  0.75046493964E+01 -0.74109501540E+00  0.10258867188E+02  0.12732373723E+02  0.51100000000E-03 0.  1.
        -12    1    3    3    0    0  0.24508488704E+02 -0.10463946712E+01 -0.39997808392E+01  0.24854762262E+02  0.00000000000E+00 0.  1.
</event>
<event>
 7    1  0.5290964E-013  0.5052886E+02  0.7816164E-02  0.1300439E+00
        -11   -1    0    0    0    0  0.00000000000E+00  0.00000000000E+00  0.45593999997E+02  0.45594000000E+02  0.51100000000E-03 0.  1.
         11   -1    0    0    0    0 -0.00000000000E+00 -0.00000000000E+00 -0.45593999997E+02  0.45594000000E+02  0.51100000000E-03 0. -1.
    9900012    2    1    2    0    0 -0.16901035558E+02 -0.13797139050E+02  0.34309754188E+02  0.50528864725E+02  0.30000014819E+02 0.  0.
         12    1    1    2    0    0  0.16901035558E+02  0.13797139050E+02 -0.34309754188E+02  0.40659135275E+02  0.00000000000E+00 0. -1.
         11    1    3    3    0    0 -0.31274632811E+01  0.30292103922E+01 -0.85510186641E+00  0.44371546782E+01  0.51100000000E-03 0. -1.
        -11    1    3    3    0    0 -0.10527153262E+02  0.19258116675E+01  0.11224945410E+02  0.15509000809E+02  0.51100000000E-03 0.  1.
        -12    1    3    3    0    0 -0.32464190146E+01 -0.18752161109E+02  0.23939910644E+02  0.30582709238E+02  0.00000000000E+00 0.  1.
</event>
<event>
 7    1  0.5290964E-013  0.5052886E+02  0.7816164E-02  0.1300439E+00
        -11   -1    0    0    0    0  0.00000000000E+00  0.00000000000E+00  0.45593999997E+02  0.45594000000E+02  0.51100000000E-03 0. -1.
         11   -1    0    0    0    0 -0.00000000000E+00 -0.00000000000E+00 -0.45593999997E+02  0.45594000000E+02  0.51100000000E-03 0.  1.
    9900012    2    1    2    0    0 -0.33695438834E+02  0.47311392741E+01 -0.22257568314E+02  0.50528860507E+02  0.30000001997E+02 0.  0.
         12    1    1    2    0    0  0.33695438834E+02 -0.47311392741E+01  0.22257568314E+02  0.40659139493E+02  0.00000000000E+00 0. -1.
         11    1    3    3    0    0  0.17547192633E+01 -0.40198859885E+01 -0.43158665752E+01  0.61534728089E+01  0.51100000000E-03 0. -1.
        -11    1    3    3    0    0 -0.18120702241E+01  0.12419092000E+01  0.32446527928E+01  0.39183809112E+01  0.51100000000E-03 0.  1.
        -12    1    3    3    0    0 -0.33638087873E+02  0.75091160626E+01 -0.21186354532E+02  0.40457006787E+02  0.00000000000E+00 0.  1.
</event>
<event>
 7    1  0.5290964E-013  0.5052887E+02  0.7816164E-02  0.1300439E+00
        -11   -1    0    0    0    0  0.00000000000E+00  0.00000000000E+00  0.45593999997E+02  0.45594000000E+02  0.51100000000E-03 0. -1.
         11   -1    0    0    0    0 -0.00000000000E+00 -0.00000000000E+00 -0.45593999997E+02  0.45594000000E+02  0.51100000000E-03 0.  1.
    9900012    2    1    2    0    0 -0.26484534387E+02 -0.18785244565E+02  0.24471384892E+02  0.50528872445E+02  0.30000038283E+02 0.  0.
         12    1    1    2    0    0  0.26484534387E+02  0.18785244565E+02 -0.24471384892E+02  0.40659127555E+02  0.00000000000E+00 0. -1.
         11    1    3    3    0    0  0.12277937535E+00 -0.30927634797E+01  0.13799925624E+02  0.14142779366E+02  0.51100000000E-03 0. -1.
        -11    1    3    3    0    0 -0.26037000582E+01 -0.53178270545E+01 -0.32575749348E+01  0.67579829307E+01  0.51100000000E-03 0.  1.
         12    1    3    3    0    0 -0.24003613704E+02 -0.10374654030E+02  0.13929034203E+02  0.29628110148E+02  0.00000000000E+00 0. -1.
</event>
<event>
 7    1  0.5290964E-013  0.5052886E+02  0.7816164E-02  0.1300439E+00
        -11   -1    0    0    0    0  0.00000000000E+00  0.00000000000E+00  0.45593999997E+02  0.45594000000E+02  0.51100000000E-03 0.  1.
         11   -1    0    0    0    0 -0.00000000000E+00 -0.00000000000E+00 -0.45593999997E+02  0.45594000000E+02  0.51100000000E-03 0. -1.
    9900012    2    1    2    0    0 -0.29245888344E+02  0.28046668043E+02 -0.33508194404E+01  0.50528861246E+02  0.30000004242E+02 0.  0.
         12    1    1    2    0    0  0.29245888344E+02 -0.28046668043E+02  0.33508194404E+01  0.40659138754E+02  0.00000000000E+00 0. -1.
         11    1    3    3    0    0 -0.17194988979E+02  0.90618929988E+01 -0.10725055916E+02  0.22199377815E+02  0.51100000000E-03 0. -1.
        -11    1    3    3    0    0 -0.65481198351E+01 -0.77390625572E+00  0.34683743232E+01  0.74502634164E+01  0.51100000000E-03 0.  1.
         12    1    3    3    0    0 -0.55027795297E+01  0.19758681300E+02  0.39058621519E+01  0.20879220014E+02  0.00000000000E+00 0. -1.
</event>
<event>
 7    1  0.5290964E-013  0.5052887E+02  0.7816164E-02  0.1300439E+00
        -11   -1    0    0    0    0  0.00000000000E+00  0.00000000000E+00  0.45593999997E+02  0.45594000000E+02  0.51100000000E-03 0.  1.
         11   -1    0    0    0    0 -0.00000000000E+00 -0.00000000000E+00 -0.45593999997E+02  0.45594000000E+02  0.51100000000E-03 0. -1.
    9900012    2    1    2    0    0 -0.23720120291E+02  0.32584297683E+02 -0.53651306343E+01  0.50528865862E+02  0.30000018274E+02 0.  0.
         12    1    1    2    0    0  0.23720120291E+02 -0.32584297683E+02  0.53651306343E+01  0.40659134138E+02  0.00000000000E+00 0. -1.
         11    1    3    3    0    0  0.23725544610E+01  0.10007899092E+02  0.22716839552E+00  0.10287792020E+02  0.51100000000E-03 0. -1.
        -11    1    3    3    0    0 -0.15280874738E+02  0.20856898680E+02  0.33941072320E+01  0.26077486832E+02  0.51100000000E-03 0.  1.
         12    1    3    3    0    0 -0.10811800015E+02  0.17194999115E+01 -0.89864062618E+01  0.14163587011E+02  0.00000000000E+00 0. -1.
</event>
<event>
 7    1  0.5290964E-013  0.5052887E+02  0.7816164E-02  0.1300439E+00
        -11   -1    0    0    0    0  0.00000000000E+00  0.00000000000E+00  0.45593999997E+02  0.45594000000E+02  0.51100000000E-03 0. -1.
         11   -1    0    0    0    0 -0.00000000000E+00 -0.00000000000E+00 -0.45593999997E+02  0.45594000000E+02  0.51100000000E-03 0.  1.
    9900012    2    1    2    0    0 -0.31444819525E+02 -0.18559265811E+02 -0.17886914035E+02  0.50528871675E+02  0.30000035944E+02 0.  0.
         12    1    1    2    0    0  0.31444819525E+02  0.18559265811E+02  0.17886914035E+02  0.40659128325E+02  0.00000000000E+00 0. -1.
         11    1    3    3    0    0 -0.41945941968E+01  0.11789027934E+01 -0.77954025561E+01  0.89304385975E+01  0.51100000000E-03 0. -1.
        -11    1    3    3    0    0 -0.30566248281E+02 -0.18803157167E+02 -0.11767937499E+02  0.37766898293E+02  0.51100000000E-03 0.  1.
         12    1    3    3    0    0  0.33160229522E+01 -0.93501143763E+00  0.16764260203E+01  0.38315347851E+01  0.00000000000E+00 0. -1.
</event>
<event>
 7    1  0.5290964E-013  0.5052883E+02  0.7816164E-02  0.1300439E+00
        -11   -1    0    0    0    0  0.00000000000E+00  0.00000000000E+00  0.45593999997E+02  0.45594000000E+02  0.51100000000E-03 0. -1.
         11   -1    0    0    0    0 -0.00000000000E+00 -0.00000000000E+00 -0.45593999997E+02  0.45594000000E+02  0.51100000000E-03 0.  1.
    9900012    2    1    2    0    0  0.38796738148E+01 -0.19026750427E+02 -0.35722529560E+02  0.50528828600E+02  0.29999905013E+02 0.  0.
         12    1    1    2    0    0 -0.38796738148E+01  0.19026750427E+02  0.35722529560E+02  0.40659171400E+02  0.00000000000E+00 0. -1.
         11    1    3    3    0    0 -0.26910963643E+01 -0.66019485928E+01 -0.46083531989E+01  0.84890897234E+01  0.51100000000E-03 0.  1.
        -11    1    3    3    0    0  0.67656438745E+01 -0.13410988825E+02 -0.48908028674E+01  0.15797104521E+02  0.51100000000E-03 0. -1.
        -12    1    3    3    0    0 -0.19487369550E+00  0.98618699002E+00 -0.26223373494E+02  0.26242634356E+02  0.00000000000E+00 0.  1.
</event>
<event>
 7    1  0.5290964E-013  0.5052886E+02  0.7816164E-02  0.1300439E+00
        -11   -1    0    0    0    0  0.00000000000E+00  0.00000000000E+00  0.45593999997E+02  0.45594000000E+02  0.51100000000E-03 0.  1.
         11   -1    0    0    0    0 -0.00000000000E+00 -0.00000000000E+00 -0.45593999997E+02  0.45594000000E+02  0.51100000000E-03 0. -1.
    9900012    2    1    2    0    0  0.18356744236E+02 -0.29997997847E+02  0.20403815972E+02  0.50528860314E+02  0.30000001411E+02 0.  0.
         12    1    1    2    0    0 -0.18356744236E+02  0.29997997847E+02 -0.20403815972E+02  0.40659139686E+02  0.00000000000E+00 0. -1.
         11    1    3    3    0    0  0.31695334255E+01 -0.65465655084E+01 -0.23272807160E+01  0.76367334564E+01  0.51100000000E-03 0. -1.
        -11    1    3    3    0    0  0.34780699717E+01 -0.20511436750E+02  0.49250023502E+01  0.21379234240E+02  0.51100000000E-03 0.  1.
         12    1    3    3    0    0  0.11709140838E+02 -0.29399955888E+01  0.17806094337E+02  0.21512892618E+02  0.00000000000E+00 0. -1.
</event>
<event>
 7    1  0.5290964E-013  0.5052892E+02  0.7816164E-02  0.1300439E+00
        -11   -1    0    0    0    0  0.00000000000E+00  0.00000000000E+00  0.45593999997E+02  0.45594000000E+02  0.51100000000E-03 0.  1.
         11   -1    0    0    0    0 -0.00000000000E+00 -0.00000000000E+00 -0.45593999997E+02  0.45594000000E+02  0.51100000000E-03 0. -1.
    9900012    2    1    2    0    0  0.87787649858E+01  0.25803620139E+02  0.30170635420E+02  0.50528920219E+02  0.30000183498E+02 0.  0.
         12    1    1    2    0    0 -0.87787649858E+01 -0.25803620139E+02 -0.30170635420E+02  0.40659079781E+02  0.00000000000E+00 0. -1.
         11    1    3    3    0    0 -0.54175490331E+01 -0.25006248651E+01  0.40041207397E+01  0.71858155696E+01  0.51100000000E-03 0. -1.
        -11    1    3    3    0    0  0.19669028074E+01  0.30166841656E+00  0.69897289515E+01  0.72674632138E+01  0.51100000000E-03 0.  1.
        -12    1    3    3    0    0  0.12229411211E+02  0.28002576588E+02  0.19176785729E+02  0.36075641436E+02  0.00000000000E+00 0.  1.
</event>
<event>
 7    1  0.5290964E-013  0.5052886E+02  0.7816164E-02  0.1300439E+00
        -11   -1    0    0    0    0  0.00000000000E+00  0.00000000000E+00  0.45593999997E+02  0.45594000000E+02  0.51100000000E-03 0.  1.
         11   -1    0    0    0    0 -0.00000000000E+00 -0.00000000000E+00 -0.45593999997E+02  0.45594000000E+02  0.51100000000E-03 0. -1.
    9900012    2    1    2    0    0 -0.54321292021E+01 -0.34645197432E+02  0.20575912056E+02  0.50528857243E+02  0.29999992077E+02 0.  0.
         12    1    1    2    0    0  0.54321292021E+01  0.34645197432E+02 -0.20575912056E+02  0.40659142757E+02  0.00000000000E+00 0. -1.
         11    1    3    3    0    0 -0.21242660790E+01 -0.61386756225E+01  0.73314816656E+01  0.97952268196E+01  0.51100000000E-03 0.  1.
        -11    1    3    3    0    0 -0.37322542195E+01 -0.27019086019E+02 -0.12408637701E+00  0.27275925805E+02  0.51100000000E-03 0. -1.
         12    1    3    3    0    0  0.42439109635E+00 -0.14874357907E+01  0.13368516768E+02  0.13457704619E+02  0.00000000000E+00 0. -1.
</event>
<event>
 7    1  0.5290964E-013  0.5052886E+02  0.7816164E-02  0.1300439E+00
        -11   -1    0    0    0    0  0.00000000000E+00  0.00000000000E+00  0.45593999997E+02  0.45594000000E+02  0.51100000000E-03 0.  1.
         11   -1    0    0    0    0 -0.00000000000E+00 -0.00000000000E+00 -0.45593999997E+02  0.45594000000E+02  0.51100000000E-03 0. -1.
    9900012    2    1    2    0    0 -0.18597988290E+02 -0.34037025227E+02 -0.12196772310E+02  0.50528861918E+02  0.30000006286E+02 0.  0.
         12    1    1    2    0    0  0.18597988290E+02  0.34037025227E+02  0.12196772310E+02  0.40659138082E+02  0.00000000000E+00 0. -1.
         11    1    3    3    0    0  0.94281373896E+00 -0.24110810145E+02 -0.10163916068E+02  0.26182537190E+02  0.51100000000E-03 0. -1.
        -11    1    3    3    0    0 -0.13697674159E+02 -0.93718426470E+01  0.26890376628E+01  0.16813346954E+02  0.51100000000E-03 0.  1.
        -12    1    3    3    0    0 -0.58431278701E+01 -0.55437243518E+00 -0.47218939050E+01  0.75329777747E+01  0.00000000000E+00 0.  1.
</event>
<event>
 7    1  0.5290964E-013  0.5052886E+02  0.7816164E-02  0.1300439E+00
        -11   -1    0    0    0    0  0.00000000000E+00  0.00000000000E+00  0.45593999997E+02  0.45594000000E+02  0.51100000000E-03 0.  1.
         11   -1    0    0    0    0 -0.00000000000E+00 -0.00000000000E+00 -0.45593999997E+02  0.45594000000E+02  0.51100000000E-03 0. -1.
    9900012    2    1    2    0    0 -0.28060770635E+02  0.23370357427E+02  0.17876955848E+02  0.50528855821E+02  0.29999987755E+02 0.  0.
         12    1    1    2    0    0  0.28060770635E+02 -0.23370357427E+02 -0.17876955848E+02  0.40659144179E+02  0.00000000000E+00 0. -1.
         11    1    3    3    0    0 -0.21123015671E+02  0.10573997539E+02  0.11519093894E+02  0.26280805532E+02  0.51100000000E-03 0.  1.
        -11    1    3    3    0    0 -0.12109821109E+02  0.11852350446E+02  0.13685451331E+01  0.16999967483E+02  0.51100000000E-03 0. -1.
         12    1    3    3    0    0  0.51720661444E+01  0.94400944230E+00  0.49893168213E+01  0.72480828067E+01  0.00000000000E+00 0. -1.
</event>
<event>
 7    1  0.5290964E-013  0.5052886E+02  0.7816164E-02  0.1300439E+00
        -11   -1    0    0    0    0  0.00000000000E+00  0.00000000000E+00  0.45593999997E+02  0.45594000000E+02  0.51100000000E-03 0. -1.
         11   -1    0    0    0    0 -0.00000000000E+00 -0.00000000000E+00 -0.45593999997E+02  0.45594000000E+02  0.51100000000E-03 0.  1.
    9900012    2    1    2    0    0  0.24229985212E+02 -0.27188505184E+02 -0.18079239009E+02  0.50528857354E+02  0.29999992414E+02 0.  0.
         12    1    1    2    0    0 -0.24229985212E+02  0.27188505184E+02  0.18079239009E+02  0.40659142646E+02  0.00000000000E+00 0. -1.
         11    1    3    3    0    0  0.18668433870E+01  0.35420748384E+00 -0.40701412488E+01  0.44918389575E+01  0.51100000000E-03 0. -1.
        -11    1    3    3    0    0 -0.22300123945E+00 -0.30074545747E+01 -0.12278901993E+02  0.12643810619E+02  0.51100000000E-03 0.  1.
        -12    1    3    3    0    0  0.22586143065E+02 -0.24535258094E+02 -0.17301957674E+01  0.33393207777E+02  0.00000000000E+00 0.  1.
</event>
<event>
 7    1  0.5290964E-013  0.5052887E+02  0.7816164E-02  0.1300439E+00
        -11   -1    0    0    0    0  0.00000000000E+00  0.00000000000E+00  0.45593999997E+02  0.45594000000E+02  0.51100000000E-03 0.  1.
         11   -1    0    0    0    0 -0.00000000000E+00 -0.00000000000E+00 -0.45593999997E+02  0.45594000000E+02  0.51100000000E-03 0. -1.
    9900012    2    1    2    0    0 -0.38243916311E+01  0.52750078904E+01  0.40133690273E+02  0.50528870957E+02  0.30000033761E+02 0.  0.
         12    1    1    2    0    0  0.38243916311E+01 -0.52750078904E+01 -0.40133690273E+02  0.40659129043E+02  0.00000000000E+00 0. -1.
         11    1    3    3    0    0 -0.21414475434E+01 -0.35076959848E+01  0.99456951258E+01  0.10761346593E+02  0.51100000000E-03 0. -1.
        -11    1    3    3    0    0 -0.56019271233E+01 -0.57497072135E+01  0.20111501823E+02  0.21654404318E+02  0.51100000000E-03 0.  1.
        -12    1    3    3    0    0  0.39189830356E+01  0.14532411089E+02  0.10076493324E+02  0.18113120046E+02  0.00000000000E+00 0.  1.
</event>
<event>
 7    1  0.5290964E-013  0.5052886E+02  0.7816164E-02  0.1300439E+00
        -11   -1    0    0    0    0  0.00000000000E+00  0.00000000000E+00  0.45593999997E+02  0.45594000000E+02  0.51100000000E-03 0.  1.
         11   -1    0    0    0    0 -0.00000000000E+00 -0.00000000000E+00 -0.45593999997E+02  0.45594000000E+02  0.51100000000E-03 0. -1.
    9900012    2    1    2    0    0 -0.37795769209E+02  0.14794663191E+02  0.24007682200E+01  0.50528856907E+02  0.29999991054E+02 0.  0.
         12    1    1    2    0    0  0.37795769209E+02 -0.14794663191E+02 -0.24007682200E+01  0.40659143093E+02  0.00000000000E+00 0. -1.
         11    1    3    3    0    0 -0.12538111451E+02  0.99070511303E+01 -0.90627429637E+01  0.18370824999E+02  0.51100000000E-03 0. -1.
        -11    1    3    3    0    0 -0.76279915622E+01 -0.93624021570E+00 -0.33717579483E+01  0.83923508588E+01  0.51100000000E-03 0.  1.
        -12    1    3    3    0    0 -0.17629666196E+02  0.58238522767E+01  0.14835269132E+02  0.23765681049E+02  0.00000000000E+00 0.  1.
</event>
<event>
 7    1  0.5290964E-013  0.5052886E+02  0.7816164E-02  0.1300439E+00
        -11   -1    0    0    0    0  0.00000000000E+00  0.00000000000E+00  0.45593999997E+02  0.45594000000E+02  0.51100000000E-03 0.  1.
         11   -1    0    0    0    0 -0.00000000000E+00 -0.00000000000E+00 -0.45593999997E+02  0.45594000000E+02  0.51100000000E-03 0. -1.
    9900012    2    1    2    0    0 -0.15825945693E+02 -0.64675689680E+01  0.36890046131E+02  0.50528861926E+02  0.30000006309E+02 0.  0.
         12    1    1    2    0    0  0.15825945693E+02  0.64675689680E+01 -0.36890046131E+02  0.40659138074E+02  0.00000000000E+00 0. -1.
         11    1    3    3    0    0 -0.34847490955E+01 -0.76489035805E+01  0.14996118485E+02  0.17191066637E+02  0.51100000000E-03 0. -1.
        -11    1    3    3    0    0  0.22146188066E+01  0.62374945633E+01  0.15120574403E+02  0.16505836708E+02  0.51100000000E-03 0.  1.
         12    1    3    3    0    0 -0.14555815404E+02 -0.50561599508E+01  0.67733532430E+01  0.16831958581E+02  0.00000000000E+00 0. -1.
</event>
<event>
 7    1  0.5290964E-013  0.5052886E+02  0.7816164E-02  0.1300439E+00
        -11   -1    0    0    0    0  0.00000000000E+00  0.00000000000E+00  0.45593999997E+02  0.45594000000E+02  0.51100000000E-03 0.  1.
         11   -1    0    0    0    0 -0.00000000000E+00 -0.00000000000E+00 -0.45593999997E+02  0.45594000000E+02  0.51100000000E-03 0. -1.
    9900012    2    1    2    0    0  0.27017767402E+02 -0.26082067555E+02  0.15586277061E+02  0.50528855445E+02  0.29999986611E+02 0.  0.
         12    1    1    2    0    0 -0.27017767402E+02  0.26082067555E+02 -0.15586277061E+02  0.40659144555E+02  0.00000000000E+00 0. -1.
         11    1    3    3    0    0 -0.32661489057E+01 -0.21460002490E+01  0.65747971284E+00  0.39629945215E+01  0.51100000000E-03 0. -1.
        -11    1    3    3    0    0 -0.11321305252E+01  0.25630491287E+01  0.21298890263E+01  0.35195692759E+01  0.51100000000E-03 0.  1.
        -12    1    3    3    0    0  0.31416046833E+02 -0.26499116434E+02  0.12798908322E+02  0.43046291648E+02  0.00000000000E+00 0.  1.
</event>
<event>
 7    1  0.5290964E-013  0.5052886E+02  0.7816164E-02  0.1300439E+00
        -11   -1    0    0    0    0  0.00000000000E+00  0.00000000000E+00  0.45593999997E+02  0.45594000000E+02  0.51100000000E-03 0. -1.
         11   -1    0    0    0    0 -0.00000000000E+00 -0.00000000000E+00 -0.45593999997E+02  0.45594000000E+02  0.51100000000E-03 0.  1.
    9900012    2    1    2    0    0 -0.57635750617E+01 -0.28041293016E+02  0.28872695058E+02  0.50528862879E+02  0.30000009207E+02 0.  0.
         12    1    1    2    0    0  0.57635750617E+01  0.28041293016E+02 -0.28872695058E+02  0.40659137121E+02  0.00000000000E+00 0. -1.
         11    1    3    3    0    0 -0.61791594336E-01 -0.89776764842E+01  0.13827805501E+01  0.90837533854E+01  0.51100000000E-03 0. -1.
        -11    1    3    3    0    0  0.51355304002E+01 -0.18268126687E+02  0.11753229162E+02  0.22321212359E+02  0.51100000000E-03 0.  1.
         12    1    3    3    0    0 -0.10837313868E+02 -0.79548984464E+00  0.15736685346E+02  0.19123897135E+02  0.00000000000E+00 0. -1.
</event>
<event>
 7    1  0.5290964E-013  0.5052886E+02  0.7816164E-02  0.1300439E+00
        -11   -1    0    0    0    0  0.00000000000E+00  0.00000000000E+00  0.45593999997E+02  0.45594000000E+02  0.51100000000E-03 0.  1.
         11   -1    0    0    0    0 -0.00000000000E+00 -0.00000000000E+00 -0.45593999997E+02  0.45594000000E+02  0.51100000000E-03 0. -1.
    9900012    2    1    2    0    0  0.41439402500E+01  0.87325278673E+01  0.39493499159E+02  0.50528858843E+02  0.29999996941E+02 0.  0.
         12    1    1    2    0    0 -0.41439402500E+01 -0.87325278673E+01 -0.39493499159E+02  0.40659141157E+02  0.00000000000E+00 0. -1.
         11    1    3    3    0    0 -0.44598177243E+01  0.71641699086E+01  0.20472793569E+02  0.22143861032E+02  0.51100000000E-03 0. -1.
        -11    1    3    3    0    0  0.73504997315E+01 -0.66248894003E+00  0.22719066978E+02  0.23887752981E+02  0.51100000000E-03 0.  1.
         12    1    3    3    0    0  0.12532582428E+01  0.22308468988E+01 -0.36983613877E+01  0.44972448303E+01  0.00000000000E+00 0. -1.
</event>
<event>
 7    1  0.5290964E-013  0.5052887E+02  0.7816164E-02  0.1300439E+00
        -11   -1    0    0    0    0  0.00000000000E+00  0.00000000000E+00  0.45593999997E+02  0.45594000000E+02  0.51100000000E-03 0. -1.
         11   -1    0    0    0    0 -0.00000000000E+00 -0.00000000000E+00 -0.45593999997E+02  0.45594000000E+02  0.51100000000E-03 0.  1.
    9900012    2    1    2    0    0  0.19069903391E+02  0.30980281556E+02 -0.18158344277E+02  0.50528873995E+02  0.30000042995E+02 0.  0.
         12    1    1    2    0    0 -0.19069903391E+02 -0.30980281556E+02  0.18158344277E+02  0.40659126005E+02  0.00000000000E+00 0. -1.
         11    1    3    3    0    0  0.19514192426E+02  0.15376132516E+02 -0.16566373546E+02  0.29860909061E+02  0.51100000000E-03 0.  1.
        -11    1    3    3    0    0  0.56652261535E+01  0.29467547889E+01  0.71303689190E+00  0.64254628648E+01  0.51100000000E-03 0. -1.
         12    1    3    3    0    0 -0.61095151882E+01  0.12657394251E+02 -0.23050076224E+01  0.14242502069E+02  0.00000000000E+00 0. -1.
</event>
<event>
 7    1  0.5290964E-013  0.5052886E+02  0.7816164E-02  0.1300439E+00
        -11   -1    0    0    0    0  0.00000000000E+00  0.00000000000E+00  0.45593999997E+02  0.45594000000E+02  0.51100000000E-03 0. -1.
         11   -1    0    0    0    0 -0.00000000000E+00 -0.00000000000E+00 -0.45593999997E+02  0.45594000000E+02  0.51100000000E-03 0.  1.
    9900012    2    1    2    0    0 -0.59697804985E+01  0.38560550705E+02 -0.11428526421E+02  0.50528861224E+02  0.30000004175E+02 0.  0.
         12    1    1    2    0    0  0.59697804985E+01 -0.38560550705E+02  0.11428526421E+02  0.40659138776E+02  0.00000000000E+00 0. -1.
         11    1    3    3    0    0  0.57516295785E+01  0.81004302864E+01  0.41216512154E+01  0.10755753002E+02  0.51100000000E-03 0. -1.
        -11    1    3    3    0    0 -0.10230729454E+01  0.22168137040E+02 -0.13780599989E+02  0.26122364257E+02  0.51100000000E-03 0.  1.
        -12    1    3    3    0    0 -0.10698337132E+02  0.82919833786E+01 -0.17695776480E+01  0.13650743964E+02  0.00000000000E+00 0.  1.
</event>
<event>
 7    1  0.5290964E-013  0.5052886E+02  0.7816164E-02  0.1300439E+00
        -11   -1    0    0    0    0  0.00000000000E+00  0.00000000000E+00  0.45593999997E+02  0.45594000000E+02  0.51100000000E-03 0.  1.
         11   -1    0    0    0    0 -0.00000000000E+00 -0.00000000000E+00 -0.45593999997E+02  0.45594000000E+02  0.51100000000E-03 0. -1.
    9900012    2    1    2    0    0  0.13472911251E+02  0.18843085985E+02  0.33415334729E+02  0.50528858076E+02  0.29999994607E+02 0.  0.
         12    1    1    2    0    0 -0.13472911251E+02 -0.18843085985E+02 -0.33415334729E+02  0.40659141924E+02  0.00000000000E+00 0. -1.
         11    1    3    3    0    0  0.84055935289E+01  0.17273387188E+02  0.32179371982E+02  0.37477138218E+02  0.51100000000E-03 0. -1.
        -11    1    3    3    0    0  0.30931172389E+01  0.56410585313E+01  0.41628960304E+01  0.76628075291E+01  0.51100000000E-03 0.  1.
         12    1    3    3    0    0  0.19742004831E+01 -0.40713597351E+01 -0.29269332841E+01  0.53889123290E+01  0.00000000000E+00 0. -1.
</event>
<event>
 7    1  0.5290964E-013  0.5052886E+02  0.7816164E-02  0.1300439E+00
        -11   -1    0    0    0    0  0.00000000000E+00  0.00000000000E+00  0.45593999997E+02  0.45594000000E+02  0.51100000000E-03 0.  1.
         11   -1    0    0    0    0 -0.00000000000E+00 -0.00000000000E+00 -0.45593999997E+02  0.45594000000E+02  0.51100000000E-03 0. -1.
    9900012    2    1    2    0    0  0.16348146857E+02 -0.14500293701E+02  0.34287687916E+02  0.50528856309E+02  0.29999989238E+02 0.  0.
         12    1    1    2    0    0 -0.16348146857E+02  0.14500293701E+02 -0.34287687916E+02  0.40659143691E+02  0.00000000000E+00 0. -1.
         11    1    3    3    0    0 -0.31484218936E+01 -0.56630005720E+01  0.59245949609E+01  0.87796902913E+01  0.51100000000E-03 0. -1.
        -11    1    3    3    0    0 -0.45096552690E+01 -0.34359375174E+01  0.30115773021E+01  0.64196772019E+01  0.51100000000E-03 0.  1.
        -12    1    3    3    0    0  0.24006224019E+02 -0.54013556112E+01  0.25351515653E+02  0.35329488816E+02  0.00000000000E+00 0.  1.
</event>
<event>
 7    1  0.5290964E-013  0.5052887E+02  0.7816164E-02  0.1300439E+00
        -11   -1    0    0    0    0  0.00000000000E+00  0.00000000000E+00  0.45593999997E+02  0.45594000000E+02  0.51100000000E-03 0. -1.
         11   -1    0    0    0    0 -0.00000000000E+00 -0.00000000000E+00 -0.45593999997E+02  0.45594000000E+02  0.51100000000E-03 0.  1.
    9900012    2    1    2    0    0 -0.38864806414E+01 -0.21900956458E+02 -0.34035399259E+02  0.50528867836E+02  0.30000024275E+02 0.  0.
         12    1    1    2    0    0  0.38864806414E+01  0.21900956458E+02  0.34035399259E+02  0.40659132164E+02  0.00000000000E+00 0. -1.
         11    1    3    3    0    0  0.48371877520E+01 -0.24277112082E+01 -0.54119374979E+00  0.54392148326E+01  0.51100000000E-03 0. -1.
        -11    1    3    3    0    0 -0.44210902655E+01 -0.42059524142E+01  0.18274217669E+01  0.63698936743E+01  0.51100000000E-03 0.  1.
        -12    1    3    3    0    0 -0.43025781279E+01 -0.15267292836E+02 -0.35321627276E+02  0.38719759330E+02  0.00000000000E+00 0.  1.
</event>
<event>
 7    1  0.5290964E-013  0.5052885E+02  0.7816164E-02  0.1300439E+00
        -11   -1    0    0    0    0  0.00000000000E+00  0.00000000000E+00  0.45593999997E+02  0.45594000000E+02  0.51100000000E-03 0.  1.
         11   -1    0    0    0    0 -0.00000000000E+00 -0.00000000000E+00 -0.45593999997E+02  0.45594000000E+02  0.51100000000E-03 0. -1.
    9900012    2    1    2    0    0 -0.18984816224E+02 -0.21318267970E+02  0.28952966744E+02  0.50528854909E+02  0.29999984981E+02 0.  0.
         12    1    1    2    0    0  0.18984816224E+02  0.21318267970E+02 -0.28952966744E+02  0.40659145091E+02  0.00000000000E+00 0. -1.
         11    1    3    3    0    0 -0.59718592339E+01  0.27589047698E+00  0.44580913153E+01  0.74574658364E+01  0.51100000000E-03 0. -1.
        -11    1    3    3    0    0 -0.17177170337E+02 -0.65570347105E+01  0.19226753723E+02  0.26602968706E+02  0.51100000000E-03 0.  1.
         12    1    3    3    0    0  0.41642133470E+01 -0.15037123737E+02  0.52681217051E+01  0.16468420367E+02  0.00000000000E+00 0. -1.
</event>
<event>
 7    1  0.5290964E-013  0.5052885E+02  0.7816164E-02  0.1300439E+00
        -11   -1    0    0    0    0  0.00000000000E+00  0.00000000000E+00  0.45593999997E+02  0.45594000000E+02  0.51100000000E-03 0.  1.
         11   -1    0    0    0    0 -0.00000000000E+00 -0.00000000000E+00 -0.45593999997E+02  0.45594000000E+02  0.51100000000E-03 0. -1.
    9900012    2    1    2    0    0 -0.65546512742E+01  0.22692729892E+02  0.33094454963E+02  0.50528851059E+02  0.29999973279E+02 0.  0.
         12    1    1    2    0    0  0.65546512742E+01 -0.22692729892E+02 -0.33094454963E+02  0.40659148941E+02  0.00000000000E+00 0. -1.
         11    1    3    3    0    0 -0.24416370505E+01  0.40638280012E+01  0.23822873071E+02  0.24290030283E+02  0.51100000000E-03 0.  1.
        -11    1    3    3    0    0  0.19292285491E+01 -0.73396722590E+00 -0.21334808840E+01  0.29685638998E+01  0.51100000000E-03 0. -1.
        -12    1    3    3    0    0 -0.60422427728E+01  0.19362869117E+02  0.11405062776E+02  0.23270256877E+02  0.00000000000E+00 0.  1.
</event>
<event>
 7    1  0.5290964E-013  0.5052882E+02  0.7816164E-02  0.1300439E+00
        -11   -1    0    0    0    0  0.00000000000E+00  0.00000000000E+00  0.45593999997E+02  0.45594000000E+02  0.51100000000E-03 0. -1.
         11   -1    0    0    0    0 -0.00000000000E+00 -0.00000000000E+00 -0.45593999997E+02  0.45594000000E+02  0.51100000000E-03 0.  1.
    9900012    2    1    2    0    0  0.22018972850E+02  0.26400133102E+02 -0.21710978887E+02  0.50528821486E+02  0.29999883390E+02 0.  0.
         12    1    1    2    0    0 -0.22018972850E+02 -0.26400133102E+02  0.21710978887E+02  0.40659178514E+02  0.00000000000E+00 0. -1.
         11    1    3    3    0    0  0.10225268239E+02  0.19993899185E+02 -0.16921768579E+02  0.28118648034E+02  0.51100000000E-03 0. -1.
        -11    1    3    3    0    0  0.40576203587E+01  0.84424630540E+01 -0.93224432610E+01  0.13215423338E+02  0.51100000000E-03 0.  1.
         12    1    3    3    0    0  0.77360842521E+01 -0.20362291372E+01  0.45332329524E+01  0.91947501138E+01  0.00000000000E+00 0. -1.
</event>
<event>
 7    1  0.5290964E-013  0.5052886E+02  0.7816164E-02  0.1300439E+00
        -11   -1    0    0    0    0  0.00000000000E+00  0.00000000000E+00  0.45593999997E+02  0.45594000000E+02  0.51100000000E-03 0. -1.
         11   -1    0    0    0    0 -0.00000000000E+00 -0.00000000000E+00 -0.45593999997E+02  0.45594000000E+02  0.51100000000E-03 0.  1.
    9900012    2    1    2    0    0 -0.11674803507E+02  0.26755772798E+02 -0.28301825258E+02  0.50528859233E+02  0.29999998125E+02 0.  0.
         12    1    1    2    0    0  0.11674803507E+02 -0.26755772798E+02  0.28301825258E+02  0.40659140767E+02  0.00000000000E+00 0. -1.
         11    1    3    3    0    0  0.21570808652E+01  0.24344119934E+02 -0.14927605190E+02  0.28637782215E+02  0.51100000000E-03 0. -1.
        -11    1    3    3    0    0  0.27963282167E+00  0.22241667786E+01  0.27398779918E+00  0.22583582420E+01  0.51100000000E-03 0.  1.
        -12    1    3    3    0    0 -0.14111517194E+02  0.18748608499E+00 -0.13648207867E+02  0.19632718776E+02  0.00000000000E+00 0.  1.
</event>
<event>
 7    1  0.5290964E-013  0.5052886E+02  0.7816164E-02  0.1300439E+00
        -11   -1    0    0    0    0  0.00000000000E+00  0.00000000000E+00  0.45593999997E+02  0.45594000000E+02  0.51100000000E-03 0.  1.
         11   -1    0    0    0    0 -0.00000000000E+00 -0.00000000000E+00 -0.45593999997E+02  0.45594000000E+02  0.51100000000E-03 0. -1.
    9900012    2    1    2    0    0  0.43379340652E+01 -0.31260407821E+02  0.25634649455E+02  0.50528855619E+02  0.29999987141E+02 0.  0.
         12    1    1    2    0    0 -0.43379340652E+01  0.31260407821E+02 -0.25634649455E+02  0.40659144381E+02  0.00000000000E+00 0. -1.
         11    1    3    3    0    0 -0.11245138316E+02 -0.94599411341E+01  0.44666056912E+01  0.15358847244E+02  0.51100000000E-03 0. -1.
        -11    1    3    3    0    0  0.51970134595E+00 -0.62458892279E+00 -0.80115193028E+00  0.11410720783E+01  0.51100000000E-03 0.  1.
        -12    1    3    3    0    0  0.15063371036E+02 -0.21175877764E+02  0.21969195694E+02  0.34028936297E+02  0.00000000000E+00 0.  1.
</event>
<event>
 7    1  0.5290964E-013  0.5052887E+02  0.7816164E-02  0.1300439E+00
        -11   -1    0    0    0    0  0.00000000000E+00  0.00000000000E+00  0.45593999997E+02  0.45594000000E+02  0.51100000000E-03 0. -1.
         11   -1    0    0    0    0 -0.00000000000E+00 -0.00000000000E+00 -0.45593999997E+02  0.45594000000E+02  0.51100000000E-03 0.  1.
    9900012    2    1    2    0    0 -0.39023749682E+02  0.28994046153E+01 -0.11041078906E+02  0.50528868064E+02  0.30000024969E+02 0.  0.
         12    1    1    2    0    0  0.39023749682E+02 -0.28994046153E+01  0.11041078906E+02  0.40659131936E+02  0.00000000000E+00 0. -1.
         11    1    3    3    0    0 -0.66623570842E+01 -0.77105962753E+01  0.15761314561E+00  0.10191424778E+02  0.51100000000E-03 0. -1.
        -11    1    3    3    0    0  0.76730587753E+00  0.16030093389E+01  0.27552747006E+01  0.32787095308E+01  0.51100000000E-03 0.  1.
        -12    1    3    3    0    0 -0.33128698475E+02  0.90069915517E+01 -0.13953966752E+02  0.37058733756E+02  0.00000000000E+00 0.  1.
</event>
<event>
 7    1  0.5290964E-013  0.5052887E+02  0.7816164E-02  0.1300439E+00
        -11   -1    0    0    0    0  0.00000000000E+00  0.00000000000E+00  0.45593999997E+02  0.45594000000E+02  0.51100000000E-03 0.  1.
         11   -1    0    0    0    0 -0.00000000000E+00 -0.00000000000E+00 -0.45593999997E+02  0.45594000000E+02  0.51100000000E-03 0. -1.
    9900012    2    1    2    0    0  0.22391293630E+02  0.26397113456E+02  0.21330434253E+02  0.50528867512E+02  0.30000023290E+02 0.  0.
         12    1    1    2    0    0 -0.22391293630E+02 -0.26397113456E+02 -0.21330434253E+02  0.40659132488E+02  0.00000000000E+00 0. -1.
         11    1    3    3    0    0  0.97807100984E+00  0.48287436862E+01 -0.10238749407E+01  0.50320680284E+01  0.51100000000E-03 0. -1.
        -11    1    3    3    0    0  0.94933830327E+01  0.58462505334E+01 -0.46272130566E+01  0.12071208210E+02  0.51100000000E-03 0.  1.
        -12    1    3    3    0    0  0.11919839587E+02  0.15722119236E+02  0.26981522251E+02  0.33425591274E+02  0.00000000000E+00 0.  1.
</event>
<event>
 7    1  0.5290964E-013  0.5052886E+02  0.7816164E-02  0.1300439E+00
        -11   -1    0    0    0    0  0.00000000000E+00  0.00000000000E+00  0.45593999997E+02  0.45594000000E+02  0.51100000000E-03 0.  1.
         11   -1    0    0    0    0 -0.00000000000E+00 -0.00000000000E+00 -0.45593999997E+02  0.45594000000E+02  0.51100000000E-03 0. -1.
    9900012    2    1    2    0    0 -0.31594443780E+02 -0.74864368269E+01  0.24472636320E+02  0.50528861512E+02  0.30000005052E+02 0.  0.
         12    1    1    2    0    0  0.31594443780E+02  0.74864368269E+01 -0.24472636320E+02  0.40659138488E+02  0.00000000000E+00 0. -1.
         11    1    3    3    0    0 -0.33489220794E+01 -0.19951486386E+01  0.28651024260E+00  0.39087063799E+01  0.51100000000E-03 0. -1.
        -11    1    3    3    0    0 -0.34675974108E+01 -0.58723948718E+01 -0.49084835149E+01  0.84025272396E+01  0.51100000000E-03 0.  1.
        -12    1    3    3    0    0 -0.24777924290E+02  0.38110668348E+00  0.29094609592E+02  0.38217627893E+02  0.00000000000E+00 0.  1.
</event>
<event>
 7    1  0.5290964E-013  0.5052886E+02  0.7816164E-02  0.1300439E+00
        -11   -1    0    0    0    0  0.00000000000E+00  0.00000000000E+00  0.45593999997E+02  0.45594000000E+02  0.51100000000E-03 0.  1.
         11   -1    0    0    0    0 -0.00000000000E+00 -0.00000000000E+00 -0.45593999997E+02  0.45594000000E+02  0.51100000000E-03 0. -1.
    9900012    2    1    2    0    0 -0.29731697437E+02  0.13667758288E+01  0.27700613886E+02  0.50528856892E+02  0.29999991008E+02 0.  0.
         12    1    1    2    0    0  0.29731697437E+02 -0.13667758288E+01 -0.27700613886E+02  0.40659143108E+02  0.00000000000E+00 0. -1.
         11    1    3    3    0    0 -0.11295742463E+02 -0.69094163683E+01  0.11932328486E+02  0.17824541949E+02  0.51100000000E-03 0. -1.
        -11    1    3    3    0    0 -0.83810106366E+01 -0.53069881506E+00  0.17319541092E+02  0.19248103398E+02  0.51100000000E-03 0.  1.
        -12    1    3    3    0    0 -0.10054944337E+02  0.88068910121E+01 -0.15512556915E+01  0.13456211545E+02  0.00000000000E+00 0.  1.
</event>
<event>
 7    1  0.5290964E-013  0.5052886E+02  0.7816164E-02  0.1300439E+00
        -11   -1    0    0    0    0  0.00000000000E+00  0.00000000000E+00  0.45593999997E+02  0.45594000000E+02  0.51100000000E-03 0. -1.
         11   -1    0    0    0    0 -0.00000000000E+00 -0.00000000000E+00 -0.45593999997E+02  0.45594000000E+02  0.51100000000E-03 0.  1.
    9900012    2    1    2    0    0  0.31953843916E+02 -0.18177322908E+01 -0.25076150341E+02  0.50528860713E+02  0.30000002622E+02 0.  0.
         12    1    1    2    0    0 -0.31953843916E+02  0.18177322908E+01  0.25076150341E+02  0.40659139287E+02  0.00000000000E+00 0. -1.
         11    1    3    3    0    0  0.14975753469E+02 -0.71117937179E+01 -0.34470829936E-01  0.16578660693E+02  0.51100000000E-03 0. -1.
        -11    1    3    3    0    0  0.24261311875E+01  0.25346058227E+01  0.12904224729E+01  0.37383859665E+01  0.51100000000E-03 0.  1.
         12    1    3    3    0    0  0.14551959259E+02  0.27594556044E+01 -0.26332101984E+02  0.30211814053E+02  0.00000000000E+00 0. -1.
</event>
<event>
 7    1  0.5290964E-013  0.5052886E+02  0.7816164E-02  0.1300439E+00
        -11   -1    0    0    0    0  0.00000000000E+00  0.00000000000E+00  0.45593999997E+02  0.45594000000E+02  0.51100000000E-03 0.  1.
         11   -1    0    0    0    0 -0.00000000000E+00 -0.00000000000E+00 -0.45593999997E+02  0.45594000000E+02  0.51100000000E-03 0. -1.
    9900012    2    1    2    0    0  0.21098583564E+02 -0.20178857668E+01  0.34697887416E+02  0.50528862251E+02  0.30000007299E+02 0.  0.
         12    1    1    2    0    0 -0.21098583564E+02  0.20178857668E+01 -0.34697887416E+02  0.40659137749E+02  0.00000000000E+00 0. -1.
         11    1    3    3    0    0  0.18521835487E+02 -0.50076517406E+01  0.20242610878E+02  0.27890827546E+02  0.51100000000E-03 0. -1.
        -11    1    3    3    0    0  0.82064650757E+01  0.25690361476E+01  0.14652180888E+02  0.16989185407E+02  0.51100000000E-03 0.  1.
         12    1    3    3    0    0 -0.56297169987E+01  0.42072982621E+00 -0.19690435042E+00  0.56488492983E+01  0.00000000000E+00 0. -1.
</event>
<event>
 7    1  0.5290964E-013  0.5052886E+02  0.7816164E-02  0.1300439E+00
        -11   -1    0    0    0    0  0.00000000000E+00  0.00000000000E+00  0.45593999997E+02  0.45594000000E+02  0.51100000000E-03 0.  1.
         11   -1    0    0    0    0 -0.00000000000E+00 -0.00000000000E+00 -0.45593999997E+02  0.45594000000E+02  0.51100000000E-03 0. -1.
    9900012    2    1    2    0    0 -0.27795898752E+02 -0.29577264345E+02  0.23955847643E+01  0.50528863512E+02  0.30000011133E+02 0.  0.
         12    1    1    2    0    0  0.27795898752E+02  0.29577264345E+02 -0.23955847643E+01  0.40659136488E+02  0.00000000000E+00 0. -1.
         11    1    3    3    0    0 -0.13073502038E+02 -0.13898639992E+02 -0.42736723275E+01  0.19553846798E+02  0.51100000000E-03 0. -1.
        -11    1    3    3    0    0 -0.69929443420E+01 -0.96997047070E+01 -0.72381626110E+01  0.13977715844E+02  0.51100000000E-03 0.  1.
        -12    1    3    3    0    0 -0.77294523721E+01 -0.59789196455E+01  0.13907419703E+02  0.16997300871E+02  0.00000000000E+00 0.  1.
</event>
<event>
 7    1  0.5290964E-013  0.5052886E+02  0.7816164E-02  0.1300439E+00
        -11   -1    0    0    0    0  0.00000000000E+00  0.00000000000E+00  0.45593999997E+02  0.45594000000E+02  0.51100000000E-03 0.  1.
         11   -1    0    0    0    0 -0.00000000000E+00 -0.00000000000E+00 -0.45593999997E+02  0.45594000000E+02  0.51100000000E-03 0. -1.
    9900012    2    1    2    0    0  0.82014062805E+01 -0.20653215253E+02  0.34049192981E+02  0.50528857020E+02  0.29999991397E+02 0.  0.
         12    1    1    2    0    0 -0.82014062805E+01  0.20653215253E+02 -0.34049192981E+02  0.40659142980E+02  0.00000000000E+00 0. -1.
         11    1    3    3    0    0 -0.48973654588E+01  0.25284632331E+01  0.39715784297E+01  0.67934343481E+01  0.51100000000E-03 0. -1.
        -11    1    3    3    0    0 -0.29097437555E+01 -0.73198716782E+00  0.75686574075E+01  0.81416822063E+01  0.51100000000E-03 0.  1.
        -12    1    3    3    0    0  0.16008515495E+02 -0.22449691318E+02  0.22508957143E+02  0.35593740465E+02  0.00000000000E+00 0.  1.
</event>
<event>
 7    1  0.5290964E-013  0.5052884E+02  0.7816164E-02  0.1300439E+00
        -11   -1    0    0    0    0  0.00000000000E+00  0.00000000000E+00  0.45593999997E+02  0.45594000000E+02  0.51100000000E-03 0.  1.
         11   -1    0    0    0    0 -0.00000000000E+00 -0.00000000000E+00 -0.45593999997E+02  0.45594000000E+02  0.51100000000E-03 0. -1.
    9900012    2    1    2    0    0 -0.57705339159E+01  0.33343837288E+02  0.22540110443E+02  0.50528842045E+02  0.29999945881E+02 0.  0.
         12    1    1    2    0    0  0.57705339159E+01 -0.33343837288E+02 -0.22540110443E+02  0.40659157955E+02  0.00000000000E+00 0. -1.
         11    1    3    3    0    0 -0.50438151944E+01  0.12370570390E+02  0.10521552033E+02  0.17005121021E+02  0.51100000000E-03 0. -1.
        -11    1    3    3    0    0 -0.10910618170E+02  0.10747732035E+02  0.11375601341E+02  0.19077726250E+02  0.51100000000E-03 0.  1.
         12    1    3    3    0    0  0.10183899449E+02  0.10225534864E+02  0.64295706873E+00  0.14445994774E+02  0.00000000000E+00 0. -1.
</event>
<event>
 7    1  0.5290964E-013  0.5052885E+02  0.7816164E-02  0.1300439E+00
        -11   -1    0    0    0    0  0.00000000000E+00  0.00000000000E+00  0.45593999997E+02  0.45594000000E+02  0.51100000000E-03 0.  1.
         11   -1    0    0    0    0 -0.00000000000E+00 -0.00000000000E+00 -0.45593999997E+02  0.45594000000E+02  0.51100000000E-03 0. -1.
    9900012    2    1    2    0    0  0.14109866672E+02 -0.33668738333E+02  0.17902342464E+02  0.50528854115E+02  0.29999982567E+02 0.  0.
         12    1    1    2    0    0 -0.14109866672E+02  0.33668738333E+02 -0.17902342464E+02  0.40659145885E+02  0.00000000000E+00 0. -1.
         11    1    3    3    0    0  0.15043351478E+02 -0.14980099511E+02 -0.21785466904E+01  0.21341318398E+02  0.51100000000E-03 0. -1.
        -11    1    3    3    0    0  0.21114038061E+01 -0.25011738529E+01  0.75854415787E-01  0.32740877857E+01  0.51100000000E-03 0.  1.
        -12    1    3    3    0    0 -0.30448886115E+01 -0.16187464969E+02  0.20005034738E+02  0.25913447931E+02  0.00000000000E+00 0.  1.
</event>
<event>
 7    1  0.5290964E-013  0.5052886E+02  0.7816164E-02  0.1300439E+00
        -11   -1    0    0    0    0  0.00000000000E+00  0.00000000000E+00  0.45593999997E+02  0.45594000000E+02  0.51100000000E-03 0. -1.
         11   -1    0    0    0    0 -0.00000000000E+00 -0.00000000000E+00 -0.45593999997E+02  0.45594000000E+02  0.51100000000E-03 0.  1.
    9900012    2    1    2    0    0 -0.37490552980E+02 -0.54961559012E+01 -0.14745047923E+02  0.50528859199E+02  0.29999998021E+02 0.  0.
         12    1    1    2    0    0  0.37490552980E+02  0.54961559012E+01  0.14745047923E+02  0.40659140801E+02  0.00000000000E+00 0. -1.
         11    1    3    3    0    0 -0.56281798824E+01 -0.99068999812E+01 -0.94356238581E+01  0.14793717379E+02  0.51100000000E-03 0. -1.
        -11    1    3    3    0    0 -0.95585285520E+01  0.45389666585E+01 -0.80054631576E+01  0.13268576677E+02  0.51100000000E-03 0.  1.
         12    1    3    3    0    0 -0.22303844546E+02 -0.12822257850E+00  0.26960390923E+01  0.22466565143E+02  0.00000000000E+00 0. -1.
</event>
<event>
 7    1  0.5290964E-013  0.5052886E+02  0.7816164E-02  0.1300439E+00
        -11   -1    0    0    0    0  0.00000000000E+00  0.00000000000E+00  0.45593999997E+02  0.45594000000E+02  0.51100000000E-03 0. -1.
         11   -1    0    0    0    0 -0.00000000000E+00 -0.00000000000E+00 -0.45593999997E+02  0.45594000000E+02  0.51100000000E-03 0.  1.
    9900012    2    1    2    0    0  0.37897646225E+02 -0.14720066789E+02  0.50403004254E+00  0.50528855863E+02  0.29999987882E+02 0.  0.
         12    1    1    2    0    0 -0.37897646225E+02  0.14720066789E+02 -0.50403004254E+00  0.40659144137E+02  0.00000000000E+00 0. -1.
         11    1    3    3    0    0  0.20550235969E+01  0.38730521010E+01  0.11201196121E-01  0.43844931622E+01  0.51100000000E-03 0. -1.
        -11    1    3    3    0    0  0.45029231369E+01  0.99405948357E+00  0.72326508731E+01  0.85776284571E+01  0.51100000000E-03 0.  1.
        -12    1    3    3    0    0  0.31339699491E+02 -0.19587178373E+02 -0.67398220267E+01  0.37566734244E+02  0.00000000000E+00 0.  1.
</event>
<event>
 7    1  0.5290964E-013  0.5052897E+02  0.7816164E-02  0.1300438E+00
        -11   -1    0    0    0    0  0.00000000000E+00  0.00000000000E+00  0.45593999997E+02  0.45594000000E+02  0.51100000000E-03 0. -1.
         11   -1    0    0    0    0 -0.00000000000E+00 -0.00000000000E+00 -0.45593999997E+02  0.45594000000E+02  0.51100000000E-03 0.  1.
    9900012    2    1    2    0    0 -0.15244089570E+02 -0.37648131284E+02  0.18419341571E+01  0.50528969301E+02  0.30000332685E+02 0.  0.
         12    1    1    2    0    0  0.15244089570E+02  0.37648131284E+02 -0.18419341571E+01  0.40659030699E+02  0.00000000000E+00 0. -1.
         11    1    3    3    0    0  0.52371218851E+01 -0.10409529305E+02 -0.15108396625E+01  0.11750250327E+02  0.51100000000E-03 0. -1.
        -11    1    3    3    0    0  0.30844776786E+01 -0.28292829276E+01  0.24250810564E+01  0.48373404703E+01  0.51100000000E-03 0.  1.
        -12    1    3    3    0    0 -0.23565689133E+02 -0.24409319051E+02  0.92769276311E+00  0.33941378504E+02  0.00000000000E+00 0.  1.
</event>
<event>
 7    1  0.5290964E-013  0.5052887E+02  0.7816164E-02  0.1300439E+00
        -11   -1    0    0    0    0  0.00000000000E+00  0.00000000000E+00  0.45593999997E+02  0.45594000000E+02  0.51100000000E-03 0.  1.
         11   -1    0    0    0    0 -0.00000000000E+00 -0.00000000000E+00 -0.45593999997E+02  0.45594000000E+02  0.51100000000E-03 0. -1.
    9900012    2    1    2    0    0  0.39091489456E+02 -0.11181225944E+02 -0.13826890273E-01  0.50528873686E+02  0.30000042054E+02 0.  0.
         12    1    1    2    0    0 -0.39091489456E+02  0.11181225944E+02  0.13826890273E-01  0.40659126314E+02  0.00000000000E+00 0. -1.
         11    1    3    3    0    0  0.95360957750E+01  0.36972258826E+01 -0.58550532101E+01  0.11785085923E+02  0.51100000000E-03 0. -1.
        -11    1    3    3    0    0  0.12860323249E+02  0.30132062643E+01 -0.12453959053E+01  0.13267190256E+02  0.51100000000E-03 0.  1.
         12    1    3    3    0    0  0.16695070431E+02 -0.17891658091E+02  0.70866222251E+01  0.25476597507E+02  0.00000000000E+00 0. -1.
</event>
<event>
 7    1  0.5290964E-013  0.5052886E+02  0.7816164E-02  0.1300439E+00
        -11   -1    0    0    0    0  0.00000000000E+00  0.00000000000E+00  0.45593999997E+02  0.45594000000E+02  0.51100000000E-03 0.  1.
         11   -1    0    0    0    0 -0.00000000000E+00 -0.00000000000E+00 -0.45593999997E+02  0.45594000000E+02  0.51100000000E-03 0. -1.
    9900012    2    1    2    0    0 -0.12632192626E+02 -0.36573287713E+02 -0.12489523145E+02  0.50528857693E+02  0.29999993445E+02 0.  0.
         12    1    1    2    0    0  0.12632192626E+02  0.36573287713E+02  0.12489523145E+02  0.40659142307E+02  0.00000000000E+00 0. -1.
         11    1    3    3    0    0  0.54257557317E+01  0.61318042924E-01 -0.24894543291E+01  0.59699219660E+01  0.51100000000E-03 0. -1.
        -11    1    3    3    0    0 -0.13723251403E+00  0.18216781771E+00  0.19035280343E+01  0.19171429564E+01  0.51100000000E-03 0.  1.
        -12    1    3    3    0    0 -0.17920715844E+02 -0.36816773574E+02 -0.11903596850E+02  0.42641792771E+02  0.00000000000E+00 0.  1.
</event>
<event>
 7    1  0.5290964E-013  0.5052886E+02  0.7816164E-02  0.1300439E+00
        -11   -1    0    0    0    0  0.00000000000E+00  0.00000000000E+00  0.45593999997E+02  0.45594000000E+02  0.51100000000E-03 0. -1.
         11   -1    0    0    0    0 -0.00000000000E+00 -0.00000000000E+00 -0.45593999997E+02  0.45594000000E+02  0.51100000000E-03 0.  1.
    9900012    2    1    2    0    0  0.22609367925E+02 -0.31368960334E+02 -0.12568615988E+02  0.50528864517E+02  0.30000014185E+02 0.  0.
         12    1    1    2    0    0 -0.22609367925E+02  0.31368960334E+02  0.12568615988E+02  0.40659135483E+02  0.00000000000E+00 0. -1.
         11    1    3    3    0    0  0.49115423261E+01  0.25077717113E+01 -0.55575609703E+01  0.78293455139E+01  0.51100000000E-03 0. -1.
        -11    1    3    3    0    0  0.20503749606E+02 -0.25591540029E+02 -0.25793536037E+01  0.32893521159E+02  0.51100000000E-03 0.  1.
         12    1    3    3    0    0 -0.28059240076E+01 -0.82851920167E+01 -0.44317014139E+01  0.98059978438E+01  0.00000000000E+00 0. -1.
</event>
<event>
 7    1  0.5290964E-013  0.5052885E+02  0.7816164E-02  0.1300439E+00
        -11   -1    0    0    0    0  0.00000000000E+00  0.00000000000E+00  0.45593999997E+02  0.45594000000E+02  0.51100000000E-03 0.  1.
         11   -1    0    0    0    0 -0.00000000000E+00 -0.00000000000E+00 -0.45593999997E+02  0.45594000000E+02  0.51100000000E-03 0. -1.
    9900012    2    1    2    0    0  0.14927544926E+02  0.33035192207E+02  0.18412253478E+02  0.50528848511E+02  0.29999965535E+02 0.  0.
         12    1    1    2    0    0 -0.14927544926E+02 -0.33035192207E+02 -0.18412253478E+02  0.40659151489E+02  0.00000000000E+00 0. -1.
         11    1    3    3    0    0 -0.70481696920E+00 -0.19040304898E+01  0.88431076722E+00  0.22145213614E+01  0.51100000000E-03 0. -1.
        -11    1    3    3    0    0  0.39687599673E+00  0.36874470630E+01  0.12678783654E+02  0.13210084467E+02  0.51100000000E-03 0.  1.
        -12    1    3    3    0    0  0.15235485898E+02  0.31251775633E+02  0.48491590566E+01  0.35104242683E+02  0.00000000000E+00 0.  1.
</event>
<event>
 7    1  0.5290964E-013  0.5052886E+02  0.7816164E-02  0.1300439E+00
        -11   -1    0    0    0    0  0.00000000000E+00  0.00000000000E+00  0.45593999997E+02  0.45594000000E+02  0.51100000000E-03 0.  1.
         11   -1    0    0    0    0 -0.00000000000E+00 -0.00000000000E+00 -0.45593999997E+02  0.45594000000E+02  0.51100000000E-03 0. -1.
    9900012    2    1    2    0    0 -0.94363019461E+01 -0.11633022337E+02  0.37799395012E+02  0.50528864908E+02  0.30000015375E+02 0.  0.
         12    1    1    2    0    0  0.94363019461E+01  0.11633022337E+02 -0.37799395012E+02  0.40659135092E+02  0.00000000000E+00 0. -1.
         11    1    3    3    0    0 -0.35685822218E+01 -0.48413384616E+01  0.89798471440E+01  0.10807913405E+02  0.51100000000E-03 0. -1.
        -11    1    3    3    0    0 -0.97302536906E+01 -0.15010798074E+02  0.15929731302E+02  0.23953251039E+02  0.51100000000E-03 0.  1.
         12    1    3    3    0    0  0.38625339662E+01  0.82191141984E+01  0.12889816566E+02  0.15767700465E+02  0.00000000000E+00 0. -1.
</event>
<event>
 7    1  0.5290964E-013  0.5052887E+02  0.7816164E-02  0.1300439E+00
        -11   -1    0    0    0    0  0.00000000000E+00  0.00000000000E+00  0.45593999997E+02  0.45594000000E+02  0.51100000000E-03 0.  1.
         11   -1    0    0    0    0 -0.00000000000E+00 -0.00000000000E+00 -0.45593999997E+02  0.45594000000E+02  0.51100000000E-03 0. -1.
    9900012    2    1    2    0    0 -0.29562497355E+02  0.27687138587E+02 -0.35561641813E+01  0.50528865766E+02  0.30000017982E+02 0.  0.
         12    1    1    2    0    0  0.29562497355E+02 -0.27687138587E+02  0.35561641813E+01  0.40659134234E+02  0.00000000000E+00 0. -1.
         11    1    3    3    0    0 -0.18420288588E+02  0.87515281225E+00  0.65916440942E+00  0.18452843198E+02  0.51100000000E-03 0. -1.
        -11    1    3    3    0    0 -0.40197029566E+01  0.12635146533E+02  0.44655541134E+01  0.13990929690E+02  0.51100000000E-03 0.  1.
         12    1    3    3    0    0 -0.71225058102E+01  0.14176839241E+02 -0.86808827041E+01  0.18085092878E+02  0.00000000000E+00 0. -1.
</event>
<event>
 7    1  0.5290964E-013  0.5052886E+02  0.7816164E-02  0.1300439E+00
        -11   -1    0    0    0    0  0.00000000000E+00  0.00000000000E+00  0.45593999997E+02  0.45594000000E+02  0.51100000000E-03 0.  1.
         11   -1    0    0    0    0 -0.00000000000E+00 -0.00000000000E+00 -0.45593999997E+02  0.45594000000E+02  0.51100000000E-03 0. -1.
    9900012    2    1    2    0    0  0.17574495858E+02  0.12785173758E+02  0.34363381997E+02  0.50528860869E+02  0.30000003096E+02 0.  0.
         12    1    1    2    0    0 -0.17574495858E+02 -0.12785173758E+02 -0.34363381997E+02  0.40659139131E+02  0.00000000000E+00 0. -1.
         11    1    3    3    0    0 -0.21714143354E+01 -0.16321795352E+01  0.76928241530E+01  0.81583450504E+01  0.51100000000E-03 0. -1.
        -11    1    3    3    0    0  0.46700315874E+01 -0.22219953740E+01  0.17271805975E+02  0.18029468666E+02  0.51100000000E-03 0.  1.
         12    1    3    3    0    0  0.15075878606E+02  0.16639348667E+02  0.93987518687E+01  0.24341047153E+02  0.00000000000E+00 0. -1.
</event>
<event>
 7    1  0.5290964E-013  0.5052886E+02  0.7816164E-02  0.1300439E+00
        -11   -1    0    0    0    0  0.00000000000E+00  0.00000000000E+00  0.45593999997E+02  0.45594000000E+02  0.51100000000E-03 0. -1.
         11   -1    0    0    0    0 -0.00000000000E+00 -0.00000000000E+00 -0.45593999997E+02  0.45594000000E+02  0.51100000000E-03 0.  1.
    9900012    2    1    2    0    0  0.29377256854E+02  0.16756875536E+02  0.22568775085E+02  0.50528859492E+02  0.29999998912E+02 0.  0.
         12    1    1    2    0    0 -0.29377256854E+02 -0.16756875536E+02 -0.22568775085E+02  0.40659140508E+02  0.00000000000E+00 0. -1.
         11    1    3    3    0    0 -0.50525535785E-01  0.97691730030E+01  0.53582550204E+01  0.11142270465E+02  0.51100000000E-03 0. -1.
        -11    1    3    3    0    0  0.41849339941E+01  0.88488089841E+01  0.72711979075E+01  0.12193662790E+02  0.51100000000E-03 0.  1.
        -12    1    3    3    0    0  0.25242848396E+02 -0.18611064510E+01  0.99393221572E+01  0.27192926237E+02  0.00000000000E+00 0.  1.
</event>
<event>
 7    1  0.5290964E-013  0.5052887E+02  0.7816164E-02  0.1300439E+00
        -11   -1    0    0    0    0  0.00000000000E+00  0.00000000000E+00  0.45593999997E+02  0.45594000000E+02  0.51100000000E-03 0.  1.
         11   -1    0    0    0    0 -0.00000000000E+00 -0.00000000000E+00 -0.45593999997E+02  0.45594000000E+02  0.51100000000E-03 0. -1.
    9900012    2    1    2    0    0  0.39379593557E+02  0.99887519748E+01 -0.16240770929E+01  0.50528865957E+02  0.30000018563E+02 0.  0.
         12    1    1    2    0    0 -0.39379593557E+02 -0.99887519748E+01  0.16240770929E+01  0.40659134043E+02  0.00000000000E+00 0. -1.
         11    1    3    3    0    0 -0.33612364963E+01  0.19860721081E+00 -0.10309242042E+01  0.35213861737E+01  0.51100000000E-03 0. -1.
        -11    1    3    3    0    0  0.36600545199E+01 -0.32301288380E+01 -0.30254350712E+01  0.57430818407E+01  0.51100000000E-03 0.  1.
        -12    1    3    3    0    0  0.39080775533E+02  0.13020273602E+02  0.24322821825E+01  0.41264397943E+02  0.00000000000E+00 0.  1.
</event>
<event>
 7    1  0.5290964E-013  0.5052884E+02  0.7816164E-02  0.1300439E+00
        -11   -1    0    0    0    0  0.00000000000E+00  0.00000000000E+00  0.45593999997E+02  0.45594000000E+02  0.51100000000E-03 0.  1.
         11   -1    0    0    0    0 -0.00000000000E+00 -0.00000000000E+00 -0.45593999997E+02  0.45594000000E+02  0.51100000000E-03 0. -1.
    9900012    2    1    2    0    0 -0.27270666309E+01 -0.31909466048E+02  0.25050272875E+02  0.50528842520E+02  0.29999947325E+02 0.  0.
         12    1    1    2    0    0  0.27270666309E+01  0.31909466048E+02 -0.25050272875E+02  0.40659157480E+02  0.00000000000E+00 0. -1.
         11    1    3    3    0    0 -0.79807845664E+00 -0.16080922947E+02  0.69110563221E+01  0.17521293097E+02  0.51100000000E-03 0.  1.
        -11    1    3    3    0    0  0.53561236930E+01 -0.98488943220E+00 -0.29621940081E+01  0.61994081823E+01  0.51100000000E-03 0. -1.
         12    1    3    3    0    0 -0.72851118672E+01 -0.14843653668E+02  0.21101410561E+02  0.26808141241E+02  0.00000000000E+00 0. -1.
</event>
<event>
 7    1  0.5290964E-013  0.5052887E+02  0.7816164E-02  0.1300439E+00
        -11   -1    0    0    0    0  0.00000000000E+00  0.00000000000E+00  0.45593999997E+02  0.45594000000E+02  0.51100000000E-03 0.  1.
         11   -1    0    0    0    0 -0.00000000000E+00 -0.00000000000E+00 -0.45593999997E+02  0.45594000000E+02  0.51100000000E-03 0. -1.
    9900012    2    1    2    0    0 -0.32050266921E+02 -0.21445162482E+02  0.12886062997E+02  0.50528865440E+02  0.30000016991E+02 0.  0.
         12    1    1    2    0    0  0.32050266921E+02  0.21445162482E+02 -0.12886062997E+02  0.40659134560E+02  0.00000000000E+00 0. -1.
         11    1    3    3    0    0  0.14208423233E+01  0.87317153997E+00  0.11600384185E+01  0.20314799629E+01  0.51100000000E-03 0. -1.
        -11    1    3    3    0    0 -0.78288471548E+01  0.44321657785E+01 -0.15626862362E+01  0.91310968561E+01  0.51100000000E-03 0.  1.
        -12    1    3    3    0    0 -0.25642262090E+02 -0.26750499801E+02  0.13288710815E+02  0.39366288621E+02  0.00000000000E+00 0.  1.
</event>
<event>
 7    1  0.5290964E-013  0.5052885E+02  0.7816164E-02  0.1300439E+00
        -11   -1    0    0    0    0  0.00000000000E+00  0.00000000000E+00  0.45593999997E+02  0.45594000000E+02  0.51100000000E-03 0. -1.
         11   -1    0    0    0    0 -0.00000000000E+00 -0.00000000000E+00 -0.45593999997E+02  0.45594000000E+02  0.51100000000E-03 0.  1.
    9900012    2    1    2    0    0 -0.20417147499E+02  0.31819344425E+02 -0.14961134221E+02  0.50528854303E+02  0.29999983139E+02 0.  0.
         12    1    1    2    0    0  0.20417147499E+02 -0.31819344425E+02  0.14961134221E+02  0.40659145697E+02  0.00000000000E+00 0. -1.
         11    1    3    3    0    0 -0.20771962630E+01  0.95219680191E+01  0.66952629310E+01  0.11824092576E+02  0.51100000000E-03 0. -1.
        -11    1    3    3    0    0  0.83031031320E+00  0.70467378543E+01 -0.22217757268E+01  0.74352012242E+01  0.51100000000E-03 0.  1.
         12    1    3    3    0    0 -0.19170261549E+02  0.15250638552E+02 -0.19434621425E+02  0.31269560503E+02  0.00000000000E+00 0. -1.
</event>
<event>
 7    1  0.5290964E-013  0.5052886E+02  0.7816164E-02  0.1300439E+00
        -11   -1    0    0    0    0  0.00000000000E+00  0.00000000000E+00  0.45593999997E+02  0.45594000000E+02  0.51100000000E-03 0. -1.
         11   -1    0    0    0    0 -0.00000000000E+00 -0.00000000000E+00 -0.45593999997E+02  0.45594000000E+02  0.51100000000E-03 0.  1.
    9900012    2    1    2    0    0 -0.39449912483E+02  0.81360484287E+01  0.55384488377E+01  0.50528864563E+02  0.30000014325E+02 0.  0.
         12    1    1    2    0    0  0.39449912483E+02 -0.81360484287E+01 -0.55384488377E+01  0.40659135437E+02  0.00000000000E+00 0. -1.
         11    1    3    3    0    0 -0.22104920025E+02 -0.12937602911E+01  0.20027080538E+01  0.22233131692E+02  0.51100000000E-03 0. -1.
        -11    1    3    3    0    0 -0.19579255075E+02  0.12787092713E+01  0.25923832311E+01  0.19791482455E+02  0.51100000000E-03 0.  1.
         12    1    3    3    0    0  0.22342626168E+01  0.81510994485E+01  0.94335755274E+00  0.85042504157E+01  0.00000000000E+00 0. -1.
</event>
<event>
 7    1  0.5290964E-013  0.5052886E+02  0.7816164E-02  0.1300439E+00
        -11   -1    0    0    0    0  0.00000000000E+00  0.00000000000E+00  0.45593999997E+02  0.45594000000E+02  0.51100000000E-03 0. -1.
         11   -1    0    0    0    0 -0.00000000000E+00 -0.00000000000E+00 -0.45593999997E+02  0.45594000000E+02  0.51100000000E-03 0.  1.
    9900012    2    1    2    0    0  0.49798093412E+01  0.97173264849E+01 -0.39165555440E+02  0.50528859969E+02  0.30000000363E+02 0.  0.
         12    1    1    2    0    0 -0.49798093412E+01 -0.97173264849E+01  0.39165555440E+02  0.40659140031E+02  0.00000000000E+00 0. -1.
         11    1    3    3    0    0  0.51201726187E+01  0.75005214811E+01 -0.91382394155E+01  0.12883377275E+02  0.51100000000E-03 0. -1.
        -11    1    3    3    0    0  0.28514683150E+01  0.10803417493E+02 -0.24693197557E+02  0.27103481454E+02  0.51100000000E-03 0.  1.
         12    1    3    3    0    0 -0.29918315925E+01 -0.85866124895E+01 -0.53341184678E+01  0.10542001240E+02  0.00000000000E+00 0. -1.
</event>
<event>
 7    1  0.5290964E-013  0.5052886E+02  0.7816164E-02  0.1300439E+00
        -11   -1    0    0    0    0  0.00000000000E+00  0.00000000000E+00  0.45593999997E+02  0.45594000000E+02  0.51100000000E-03 0.  1.
         11   -1    0    0    0    0 -0.00000000000E+00 -0.00000000000E+00 -0.45593999997E+02  0.45594000000E+02  0.51100000000E-03 0. -1.
    9900012    2    1    2    0    0  0.15592818604E+02 -0.26236184172E+02  0.26864326599E+02  0.50528863320E+02  0.30000010547E+02 0.  0.
         12    1    1    2    0    0 -0.15592818604E+02  0.26236184172E+02 -0.26864326599E+02  0.40659136680E+02  0.00000000000E+00 0. -1.
         11    1    3    3    0    0  0.11461627089E+02 -0.18935984525E+02  0.15176685998E+02  0.26837887465E+02  0.51100000000E-03 0. -1.
        -11    1    3    3    0    0  0.61545815013E+01 -0.83643226782E+01  0.15845999561E+02  0.18945618746E+02  0.51100000000E-03 0.  1.
        -12    1    3    3    0    0 -0.20233899860E+01  0.10641230309E+01 -0.41583589589E+01  0.47453571090E+01  0.00000000000E+00 0.  1.
</event>
<event>
 7    1  0.5290964E-013  0.5052886E+02  0.7816164E-02  0.1300439E+00
        -11   -1    0    0    0    0  0.00000000000E+00  0.00000000000E+00  0.45593999997E+02  0.45594000000E+02  0.51100000000E-03 0.  1.
         11   -1    0    0    0    0 -0.00000000000E+00 -0.00000000000E+00 -0.45593999997E+02  0.45594000000E+02  0.51100000000E-03 0. -1.
    9900012    2    1    2    0    0 -0.22237158917E+02  0.32094067491E+02  0.11342181174E+02  0.50528862298E+02  0.30000007442E+02 0.  0.
         12    1    1    2    0    0  0.22237158917E+02 -0.32094067491E+02 -0.11342181174E+02  0.40659137702E+02  0.00000000000E+00 0. -1.
         11    1    3    3    0    0 -0.20454454243E+01  0.19478015682E+02  0.12474840718E+02  0.23220650144E+02  0.51100000000E-03 0. -1.
        -11    1    3    3    0    0 -0.59836229821E+01  0.95293124885E+01  0.39204928741E+01  0.11915611824E+02  0.51100000000E-03 0.  1.
        -12    1    3    3    0    0 -0.14208090511E+02  0.30867393207E+01 -0.50531524177E+01  0.15392600331E+02  0.00000000000E+00 0.  1.
</event>
<event>
 7    1  0.5290964E-013  0.5052885E+02  0.7816164E-02  0.1300439E+00
        -11   -1    0    0    0    0  0.00000000000E+00  0.00000000000E+00  0.45593999997E+02  0.45594000000E+02  0.51100000000E-03 0. -1.
         11   -1    0    0    0    0 -0.00000000000E+00 -0.00000000000E+00 -0.45593999997E+02  0.45594000000E+02  0.51100000000E-03 0.  1.
    9900012    2    1    2    0    0 -0.39142365419E+02 -0.58974226734E+01 -0.92877302822E+01  0.50528852215E+02  0.29999976794E+02 0.  0.
         12    1    1    2    0    0  0.39142365419E+02  0.58974226734E+01  0.92877302822E+01  0.40659147785E+02  0.00000000000E+00 0. -1.
         11    1    3    3    0    0 -0.16241826885E+02 -0.99321087106E+01  0.42135824846E+01  0.19498666663E+02  0.51100000000E-03 0. -1.
        -11    1    3    3    0    0 -0.12622459166E+02  0.57394895476E+00  0.12765918715E+01  0.12699825978E+02  0.51100000000E-03 0.  1.
        -12    1    3    3    0    0 -0.10278079368E+02  0.34607370825E+01 -0.14777904638E+02  0.18330359575E+02  0.00000000000E+00 0.  1.
</event>
<event>
 7    1  0.5290964E-013  0.5052887E+02  0.7816164E-02  0.1300439E+00
        -11   -1    0    0    0    0  0.00000000000E+00  0.00000000000E+00  0.45593999997E+02  0.45594000000E+02  0.51100000000E-03 0.  1.
         11   -1    0    0    0    0 -0.00000000000E+00 -0.00000000000E+00 -0.45593999997E+02  0.45594000000E+02  0.51100000000E-03 0. -1.
    9900012    2    1    2    0    0  0.63946550124E+01 -0.83922355979E+01  0.39266319309E+02  0.50528867408E+02  0.30000022973E+02 0.  0.
         12    1    1    2    0    0 -0.63946550124E+01  0.83922355979E+01 -0.39266319309E+02  0.40659132592E+02  0.00000000000E+00 0. -1.
         11    1    3    3    0    0  0.10973931215E+01 -0.17737189275E+01  0.21484325169E+02  0.21585332491E+02  0.51100000000E-03 0.  1.
        -11    1    3    3    0    0 -0.21115164896E+01 -0.92626473349E+01  0.18748290680E+02  0.21017933800E+02  0.51100000000E-03 0. -1.
         12    1    3    3    0    0  0.74087783805E+01  0.26441306646E+01 -0.96629654009E+00  0.79256011171E+01  0.00000000000E+00 0. -1.
</event>
<event>
 7    1  0.5290964E-013  0.5052886E+02  0.7816164E-02  0.1300439E+00
        -11   -1    0    0    0    0  0.00000000000E+00  0.00000000000E+00  0.45593999997E+02  0.45594000000E+02  0.51100000000E-03 0.  1.
         11   -1    0    0    0    0 -0.00000000000E+00 -0.00000000000E+00 -0.45593999997E+02  0.45594000000E+02  0.51100000000E-03 0. -1.
    9900012    2    1    2    0    0 -0.40389855086E+02 -0.50777516751E+00 -0.46440790009E+01  0.50528859585E+02  0.29999999195E+02 0.  0.
         12    1    1    2    0    0  0.40389855086E+02  0.50777516751E+00  0.46440790009E+01  0.40659140415E+02  0.00000000000E+00 0. -1.
         11    1    3    3    0    0 -0.37530738208E+01  0.21199470882E+01 -0.85021991845E+01  0.95324251896E+01  0.51100000000E-03 0. -1.
        -11    1    3    3    0    0 -0.24197897261E+02 -0.69207046851E+01 -0.42726852469E+01  0.25528224080E+02  0.51100000000E-03 0.  1.
        -12    1    3    3    0    0 -0.12438884005E+02  0.42929824293E+01  0.81308054306E+01  0.15468210316E+02  0.00000000000E+00 0.  1.
</event>
<event>
 7    1  0.5290964E-013  0.5052886E+02  0.7816164E-02  0.1300439E+00
        -11   -1    0    0    0    0  0.00000000000E+00  0.00000000000E+00  0.45593999997E+02  0.45594000000E+02  0.51100000000E-03 0. -1.
         11   -1    0    0    0    0 -0.00000000000E+00 -0.00000000000E+00 -0.45593999997E+02  0.45594000000E+02  0.51100000000E-03 0.  1.
    9900012    2    1    2    0    0 -0.27583213229E+01  0.31283769781E+02 -0.25824084012E+02  0.50528857077E+02  0.29999991570E+02 0.  0.
         12    1    1    2    0    0  0.27583213229E+01 -0.31283769781E+02  0.25824084012E+02  0.40659142923E+02  0.00000000000E+00 0. -1.
         11    1    3    3    0    0  0.15247944873E+01  0.10232593459E+01 -0.26457310787E+01  0.32205513689E+01  0.51100000000E-03 0. -1.
        -11    1    3    3    0    0  0.11201188615E+02  0.68093056027E+01 -0.82292849522E+01  0.15477545034E+02  0.51100000000E-03 0.  1.
         12    1    3    3    0    0 -0.15484304425E+02  0.23451204832E+02 -0.14949067981E+02  0.31830760674E+02  0.00000000000E+00 0. -1.
</event>
<event>
 7    1  0.5290964E-013  0.5052885E+02  0.7816164E-02  0.1300439E+00
        -11   -1    0    0    0    0  0.00000000000E+00  0.00000000000E+00  0.45593999997E+02  0.45594000000E+02  0.51100000000E-03 0.  1.
         11   -1    0    0    0    0 -0.00000000000E+00 -0.00000000000E+00 -0.45593999997E+02  0.45594000000E+02  0.51100000000E-03 0. -1.
    9900012    2    1    2    0    0  0.25671522890E+02  0.44753624453E+01  0.31210737257E+02  0.50528854945E+02  0.29999985089E+02 0.  0.
         12    1    1    2    0    0 -0.25671522890E+02 -0.44753624453E+01 -0.31210737257E+02  0.40659145055E+02  0.00000000000E+00 0. -1.
         11    1    3    3    0    0 -0.34282727047E+01  0.85994437969E+01  0.50644682188E+01  0.10552361155E+02  0.51100000000E-03 0. -1.
        -11    1    3    3    0    0  0.36023606422E+01  0.18311051308E+01  0.30644406828E+01  0.50715623980E+01  0.51100000000E-03 0.  1.
         12    1    3    3    0    0  0.25497434952E+02 -0.59551864823E+01  0.23081828355E+02  0.34904931391E+02  0.00000000000E+00 0. -1.
</event>
<event>
 7    1  0.5311747E-013  0.5052886E+02  0.7816164E-02  0.1300439E+00
        -11   -1    0    0    0    0  0.00000000000E+00  0.00000000000E+00  0.45593999997E+02  0.45594000000E+02  0.51100000000E-03 0. -1.
         11   -1    0    0    0    0 -0.00000000000E+00 -0.00000000000E+00 -0.45593999997E+02  0.45594000000E+02  0.51100000000E-03 0.  1.
    9900012    2    1    2    0    0  0.14194305085E+02 -0.16473467435E+02 -0.34355669433E+02  0.50528862671E+02  0.30000008574E+02 0.  0.
         12    1    1    2    0    0 -0.14194305085E+02  0.16473467435E+02  0.34355669433E+02  0.40659137329E+02  0.00000000000E+00 0. -1.
         11    1    3    3    0    0 -0.57355741859E+01 -0.18889210776E+01 -0.49957053769E+01  0.78372129327E+01  0.51100000000E-03 0. -1.
        -11    1    3    3    0    0  0.93775542128E+01 -0.80807713442E+01 -0.27499454523E+02  0.30157211208E+02  0.51100000000E-03 0.  1.
         12    1    3    3    0    0  0.10552325058E+02 -0.65037750126E+01 -0.18605095332E+01  0.12534438530E+02  0.00000000000E+00 0. -1.
</event>
<event>
 7    1  0.5290964E-013  0.5052886E+02  0.7816164E-02  0.1300439E+00
        -11   -1    0    0    0    0  0.00000000000E+00  0.00000000000E+00  0.45593999997E+02  0.45594000000E+02  0.51100000000E-03 0. -1.
         11   -1    0    0    0    0 -0.00000000000E+00 -0.00000000000E+00 -0.45593999997E+02  0.45594000000E+02  0.51100000000E-03 0.  1.
    9900012    2    1    2    0    0  0.11747295556E+02  0.33208452119E+02 -0.20306781501E+02  0.50528860560E+02  0.30000002159E+02 0.  0.
         12    1    1    2    0    0 -0.11747295556E+02 -0.33208452119E+02  0.20306781501E+02  0.40659139440E+02  0.00000000000E+00 0. -1.
         11    1    3    3    0    0  0.50544315495E+01  0.13404965894E+02 -0.26825754374E+01  0.14575204978E+02  0.51100000000E-03 0. -1.
        -11    1    3    3    0    0  0.50160318004E+00  0.99623058800E+01  0.45134468716E+01  0.10948531734E+02  0.51100000000E-03 0.  1.
        -12    1    3    3    0    0  0.61912608268E+01  0.98411803454E+01 -0.22137652935E+02  0.25005123849E+02  0.00000000000E+00 0.  1.
</event>
<event>
 7    1  0.5290964E-013  0.5052886E+02  0.7816164E-02  0.1300439E+00
        -11   -1    0    0    0    0  0.00000000000E+00  0.00000000000E+00  0.45593999997E+02  0.45594000000E+02  0.51100000000E-03 0.  1.
         11   -1    0    0    0    0 -0.00000000000E+00 -0.00000000000E+00 -0.45593999997E+02  0.45594000000E+02  0.51100000000E-03 0. -1.
    9900012    2    1    2    0    0  0.26283956277E+02 -0.27712214625E+02  0.13941046327E+02  0.50528856260E+02  0.29999989087E+02 0.  0.
         12    1    1    2    0    0 -0.26283956277E+02  0.27712214625E+02 -0.13941046327E+02  0.40659143740E+02  0.00000000000E+00 0. -1.
         11    1    3    3    0    0  0.10082460277E+01  0.25042960982E+01  0.35442357829E+01  0.44552964599E+01  0.51100000000E-03 0. -1.
        -11    1    3    3    0    0  0.24673138264E+02 -0.14735679586E+02  0.29662222022E+01  0.28891218027E+02  0.51100000000E-03 0.  1.
         12    1    3    3    0    0  0.60257198505E+00 -0.15480831137E+02  0.74305883423E+01  0.17182341773E+02  0.00000000000E+00 0. -1.
</event>
<event>
 7    1  0.5290964E-013  0.5052884E+02  0.7816164E-02  0.1300439E+00
        -11   -1    0    0    0    0  0.00000000000E+00  0.00000000000E+00  0.45593999997E+02  0.45594000000E+02  0.51100000000E-03 0.  1.
         11   -1    0    0    0    0 -0.00000000000E+00 -0.00000000000E+00 -0.45593999997E+02  0.45594000000E+02  0.51100000000E-03 0. -1.
    9900012    2    1    2    0    0 -0.29903945206E+02 -0.10007431872E+02  0.25666571737E+02  0.50528836995E+02  0.29999930530E+02 0.  0.
         12    1    1    2    0    0  0.29903945206E+02  0.10007431872E+02 -0.25666571737E+02  0.40659163005E+02  0.00000000000E+00 0. -1.
         11    1    3    3    0    0 -0.27613085838E+00 -0.68818600859E+00 -0.31982566953E+01  0.32830921984E+01  0.51100000000E-03 0.  1.
        -11    1    3    3    0    0 -0.14544980525E+02 -0.64844661661E+00  0.12571865024E+01  0.14613605293E+02  0.51100000000E-03 0. -1.
        -12    1    3    3    0    0 -0.15082833822E+02 -0.86707992467E+01  0.27607641930E+02  0.32632139504E+02  0.00000000000E+00 0.  1.
</event>
<event>
 7    1  0.5290964E-013  0.5052886E+02  0.7816164E-02  0.1300439E+00
        -11   -1    0    0    0    0  0.00000000000E+00  0.00000000000E+00  0.45593999997E+02  0.45594000000E+02  0.51100000000E-03 0. -1.
         11   -1    0    0    0    0 -0.00000000000E+00 -0.00000000000E+00 -0.45593999997E+02  0.45594000000E+02  0.51100000000E-03 0.  1.
    9900012    2    1    2    0    0 -0.23202442813E+02 -0.12046448806E+02 -0.31139932150E+02  0.50528860122E+02  0.30000000827E+02 0.  0.
         12    1    1    2    0    0  0.23202442813E+02  0.12046448806E+02  0.31139932150E+02  0.40659139878E+02  0.00000000000E+00 0. -1.
         11    1    3    3    0    0 -0.59403937905E+01 -0.12952046515E+02 -0.19373338658E+02  0.24049325112E+02  0.51100000000E-03 0. -1.
        -11    1    3    3    0    0  0.74802021721E+00 -0.30794829153E+01 -0.66040220452E+01  0.73250158161E+01  0.51100000000E-03 0.  1.
        -12    1    3    3    0    0 -0.18010069240E+02  0.39850806251E+01 -0.51625714470E+01  0.19154519194E+02  0.00000000000E+00 0.  1.
</event>
<event>
 7    1  0.5290964E-013  0.5052887E+02  0.7816164E-02  0.1300439E+00
        -11   -1    0    0    0    0  0.00000000000E+00  0.00000000000E+00  0.45593999997E+02  0.45594000000E+02  0.51100000000E-03 0.  1.
         11   -1    0    0    0    0 -0.00000000000E+00 -0.00000000000E+00 -0.45593999997E+02  0.45594000000E+02  0.51100000000E-03 0. -1.
    9900012    2    1    2    0    0 -0.29347193340E+02 -0.26639469164E+02  0.90689659227E+01  0.50528865513E+02  0.30000017214E+02 0.  0.
         12    1    1    2    0    0  0.29347193340E+02  0.26639469164E+02 -0.90689659227E+01  0.40659134487E+02  0.00000000000E+00 0. -1.
         11    1    3    3    0    0 -0.63394283832E+01 -0.19377185390E+01  0.87166748461E+01  0.10950960049E+02  0.51100000000E-03 0. -1.
        -11    1    3    3    0    0 -0.13222362144E+02 -0.11579738123E+02  0.10350149677E+02  0.20397225161E+02  0.51100000000E-03 0.  1.
         12    1    3    3    0    0 -0.97854028128E+01 -0.13122012503E+02 -0.99978585999E+01  0.19180680304E+02  0.00000000000E+00 0. -1.
</event>
<event>
 7    1  0.5290964E-013  0.5052886E+02  0.7816164E-02  0.1300439E+00
        -11   -1    0    0    0    0  0.00000000000E+00  0.00000000000E+00  0.45593999997E+02  0.45594000000E+02  0.51100000000E-03 0. -1.
         11   -1    0    0    0    0 -0.00000000000E+00 -0.00000000000E+00 -0.45593999997E+02  0.45594000000E+02  0.51100000000E-03 0.  1.
    9900012    2    1    2    0    0  0.65117470960E+00 -0.40454153603E+02 -0.40253242236E+01  0.50528858257E+02  0.29999995156E+02 0.  0.
         12    1    1    2    0    0 -0.65117470960E+00  0.40454153603E+02  0.40253242236E+01  0.40659141743E+02  0.00000000000E+00 0. -1.
         11    1    3    3    0    0  0.10062572586E+02 -0.23780759388E+02  0.40805763350E+01  0.26142513031E+02  0.51100000000E-03 0.  1.
        -11    1    3    3    0    0  0.85253571473E+00 -0.11055353074E+02 -0.22999568314E+01  0.11324197562E+02  0.51100000000E-03 0. -1.
         12    1    3    3    0    0 -0.10263933591E+02 -0.56180411408E+01 -0.58059437272E+01  0.13062147663E+02  0.00000000000E+00 0. -1.
</event>
<event>
 7    1  0.5290964E-013  0.5052886E+02  0.7816164E-02  0.1300439E+00
        -11   -1    0    0    0    0  0.00000000000E+00  0.00000000000E+00  0.45593999997E+02  0.45594000000E+02  0.51100000000E-03 0.  1.
         11   -1    0    0    0    0 -0.00000000000E+00 -0.00000000000E+00 -0.45593999997E+02  0.45594000000E+02  0.51100000000E-03 0. -1.
    9900012    2    1    2    0    0 -0.28938870873E+02 -0.12215248143E+02  0.25816567138E+02  0.50528859904E+02  0.30000000163E+02 0.  0.
         12    1    1    2    0    0  0.28938870873E+02  0.12215248143E+02 -0.25816567138E+02  0.40659140096E+02  0.00000000000E+00 0. -1.
         11    1    3    3    0    0 -0.15226211158E+02 -0.14311973063E+02  0.20654644013E+01  0.20998481436E+02  0.51100000000E-03 0. -1.
        -11    1    3    3    0    0 -0.28777717873E+01 -0.24413658451E+01  0.96610535918E+00  0.38955355826E+01  0.51100000000E-03 0.  1.
        -12    1    3    3    0    0 -0.10834887928E+02  0.45380907659E+01  0.22784997378E+02  0.25634842885E+02  0.00000000000E+00 0.  1.
</event>
<event>
 7    1  0.5290964E-013  0.5052887E+02  0.7816164E-02  0.1300439E+00
        -11   -1    0    0    0    0  0.00000000000E+00  0.00000000000E+00  0.45593999997E+02  0.45594000000E+02  0.51100000000E-03 0. -1.
         11   -1    0    0    0    0 -0.00000000000E+00 -0.00000000000E+00 -0.45593999997E+02  0.45594000000E+02  0.51100000000E-03 0.  1.
    9900012    2    1    2    0    0  0.11746465846E+02  0.69378954288E+01 -0.38302100341E+02  0.50528871341E+02  0.30000034927E+02 0.  0.
         12    1    1    2    0    0 -0.11746465846E+02 -0.69378954288E+01  0.38302100341E+02  0.40659128659E+02  0.00000000000E+00 0. -1.
         11    1    3    3    0    0 -0.77534728380E+00 -0.29003428586E+00  0.38150393847E+01  0.39038198045E+01  0.51100000000E-03 0. -1.
        -11    1    3    3    0    0  0.31107608462E+01  0.87630236096E+00 -0.24526401178E+00  0.32411253550E+01  0.51100000000E-03 0.  1.
        -12    1    3    3    0    0  0.94110522831E+01  0.63516273537E+01 -0.41871875714E+02  0.43383926181E+02  0.00000000000E+00 0.  1.
</event>
<event>
 7    1  0.5290964E-013  0.5052887E+02  0.7816164E-02  0.1300439E+00
        -11   -1    0    0    0    0  0.00000000000E+00  0.00000000000E+00  0.45593999997E+02  0.45594000000E+02  0.51100000000E-03 0. -1.
         11   -1    0    0    0    0 -0.00000000000E+00 -0.00000000000E+00 -0.45593999997E+02  0.45594000000E+02  0.51100000000E-03 0.  1.
    9900012    2    1    2    0    0  0.40484769556E+02  0.30758780765E+00  0.37488269093E+01  0.50528869667E+02  0.30000029839E+02 0.  0.
         12    1    1    2    0    0 -0.40484769556E+02 -0.30758780765E+00 -0.37488269093E+01  0.40659130333E+02  0.00000000000E+00 0. -1.
         11    1    3    3    0    0  0.13456700393E+02  0.10275389628E+02 -0.21842193148E+01  0.17071532789E+02  0.51100000000E-03 0. -1.
        -11    1    3    3    0    0  0.60532389232E+01 -0.83790275624E+01 -0.27568296221E+01  0.10698126667E+02  0.51100000000E-03 0.  1.
        -12    1    3    3    0    0  0.20974830240E+02 -0.15887742581E+01  0.86898758461E+01  0.22759210211E+02  0.00000000000E+00 0.  1.
</event>
<event>
 7    1  0.5290964E-013  0.5052886E+02  0.7816164E-02  0.1300439E+00
        -11   -1    0    0    0    0  0.00000000000E+00  0.00000000000E+00  0.45593999997E+02  0.45594000000E+02  0.51100000000E-03 0.  1.
         11   -1    0    0    0    0 -0.00000000000E+00 -0.00000000000E+00 -0.45593999997E+02  0.45594000000E+02  0.51100000000E-03 0. -1.
    9900012    2    1    2    0    0  0.39479930431E+02  0.93764461859E+01  0.25657254263E+01  0.50528860844E+02  0.30000003022E+02 0.  0.
         12    1    1    2    0    0 -0.39479930431E+02 -0.93764461859E+01 -0.25657254263E+01  0.40659139156E+02  0.00000000000E+00 0. -1.
         11    1    3    3    0    0  0.22589833948E+02  0.31616677240E+00  0.48246815112E+01  0.23101474221E+02  0.51100000000E-03 0.  1.
        -11    1    3    3    0    0  0.18587789780E+02  0.74007183727E+01 -0.77418493795E+01  0.21452570788E+02  0.51100000000E-03 0. -1.
         12    1    3    3    0    0 -0.16976932974E+01  0.16595610408E+01  0.54828932945E+01  0.59748158348E+01  0.00000000000E+00 0. -1.
</event>
<event>
 7    1  0.5290964E-013  0.5052886E+02  0.7816164E-02  0.1300439E+00
        -11   -1    0    0    0    0  0.00000000000E+00  0.00000000000E+00  0.45593999997E+02  0.45594000000E+02  0.51100000000E-03 0.  1.
         11   -1    0    0    0    0 -0.00000000000E+00 -0.00000000000E+00 -0.45593999997E+02  0.45594000000E+02  0.51100000000E-03 0. -1.
    9900012    2    1    2    0    0  0.14421312594E+02  0.35455688500E+02 -0.13714434357E+02  0.50528858178E+02  0.29999994919E+02 0.  0.
         12    1    1    2    0    0 -0.14421312594E+02 -0.35455688500E+02  0.13714434357E+02  0.40659141822E+02  0.00000000000E+00 0. -1.
         11    1    3    3    0    0 -0.12848206081E+01  0.19672613115E+02 -0.70087549602E+01  0.20923315156E+02  0.51100000000E-03 0. -1.
        -11    1    3    3    0    0 -0.11065602940E+01 -0.32479446811E+01 -0.53492878843E+00  0.34727178701E+01  0.51100000000E-03 0.  1.
        -12    1    3    3    0    0  0.16812693496E+02  0.19031020066E+02 -0.61707506086E+01  0.26132825152E+02  0.00000000000E+00 0.  1.
</event>
<event>
 7    1  0.5290964E-013  0.5052886E+02  0.7816164E-02  0.1300439E+00
        -11   -1    0    0    0    0  0.00000000000E+00  0.00000000000E+00  0.45593999997E+02  0.45594000000E+02  0.51100000000E-03 0.  1.
         11   -1    0    0    0    0 -0.00000000000E+00 -0.00000000000E+00 -0.45593999997E+02  0.45594000000E+02  0.51100000000E-03 0. -1.
    9900012    2    1    2    0    0  0.39111995915E+02  0.11082212140E+02  0.77592051577E+00  0.50528859539E+02  0.29999999055E+02 0.  0.
         12    1    1    2    0    0 -0.39111995915E+02 -0.11082212140E+02 -0.77592051577E+00  0.40659140461E+02  0.00000000000E+00 0. -1.
         11    1    3    3    0    0  0.10026496202E+02 -0.38004973111E+01  0.12071709948E-01  0.10722618705E+02  0.51100000000E-03 0. -1.
        -11    1    3    3    0    0  0.27907759484E+02  0.15262029585E+02  0.77274552620E+01  0.32733563075E+02  0.51100000000E-03 0.  1.
         12    1    3    3    0    0  0.11777402292E+01 -0.37932013445E+00 -0.69636064562E+01  0.70726777594E+01  0.00000000000E+00 0. -1.
</event>
<event>
 7    1  0.5290964E-013  0.5052885E+02  0.7816164E-02  0.1300439E+00
        -11   -1    0    0    0    0  0.00000000000E+00  0.00000000000E+00  0.45593999997E+02  0.45594000000E+02  0.51100000000E-03 0.  1.
         11   -1    0    0    0    0 -0.00000000000E+00 -0.00000000000E+00 -0.45593999997E+02  0.45594000000E+02  0.51100000000E-03 0. -1.
    9900012    2    1    2    0    0 -0.59422816483E+01  0.29606238549E+02  0.27227312869E+02  0.50528848038E+02  0.29999964096E+02 0.  0.
         12    1    1    2    0    0  0.59422816483E+01 -0.29606238549E+02 -0.27227312869E+02  0.40659151962E+02  0.00000000000E+00 0. -1.
         11    1    3    3    0    0  0.90137744767E+01  0.12161871721E+02  0.11860899801E+02  0.19231229769E+02  0.51100000000E-03 0. -1.
        -11    1    3    3    0    0 -0.14785618908E+01  0.11101045375E+02  0.11181018043E+02  0.15825123014E+02  0.51100000000E-03 0.  1.
         12    1    3    3    0    0 -0.13477494234E+02  0.63433214534E+01  0.41853950254E+01  0.15472495255E+02  0.00000000000E+00 0. -1.
</event>
<event>
 7    1  0.5290964E-013  0.5052885E+02  0.7816164E-02  0.1300439E+00
        -11   -1    0    0    0    0  0.00000000000E+00  0.00000000000E+00  0.45593999997E+02  0.45594000000E+02  0.51100000000E-03 0.  1.
         11   -1    0    0    0    0 -0.00000000000E+00 -0.00000000000E+00 -0.45593999997E+02  0.45594000000E+02  0.51100000000E-03 0. -1.
    9900012    2    1    2    0    0  0.17002837926E+02  0.60380073230E+01  0.36436416192E+02  0.50528850293E+02  0.29999970951E+02 0.  0.
         12    1    1    2    0    0 -0.17002837926E+02 -0.60380073230E+01 -0.36436416192E+02  0.40659149707E+02  0.00000000000E+00 0. -1.
         11    1    3    3    0    0  0.95290502190E+01  0.58642128975E+01  0.21971764609E+01  0.11402603898E+02  0.51100000000E-03 0. -1.
        -11    1    3    3    0    0  0.58708621794E+01  0.59197744659E+01  0.60204110261E+01  0.10283778568E+02  0.51100000000E-03 0.  1.
        -12    1    3    3    0    0  0.16029255275E+01 -0.57459800405E+01  0.28218828705E+02  0.28842467827E+02  0.00000000000E+00 0.  1.
</event>
<event>
 7    1  0.5290964E-013  0.5052884E+02  0.7816164E-02  0.1300439E+00
        -11   -1    0    0    0    0  0.00000000000E+00  0.00000000000E+00  0.45593999997E+02  0.45594000000E+02  0.51100000000E-03 0.  1.
         11   -1    0    0    0    0 -0.00000000000E+00 -0.00000000000E+00 -0.45593999997E+02  0.45594000000E+02  0.51100000000E-03 0. -1.
    9900012    2    1    2    0    0  0.34222477696E+02 -0.10528828600E+02  0.19264806507E+02  0.50528843822E+02  0.29999951283E+02 0.  0.
         12    1    1    2    0    0 -0.34222477696E+02  0.10528828600E+02 -0.19264806507E+02  0.40659156178E+02  0.00000000000E+00 0. -1.
         11    1    3    3    0    0  0.38088212969E+01  0.16784507668E+01 -0.33905989239E+01  0.53684707294E+01  0.51100000000E-03 0. -1.
        -11    1    3    3    0    0  0.27603514275E+02 -0.10327348393E+02  0.85959965177E+01  0.30700151165E+02  0.51100000000E-03 0.  1.
        -12    1    3    3    0    0  0.28101421241E+01 -0.18799309733E+01  0.14059408913E+02  0.14460221928E+02  0.00000000000E+00 0.  1.
</event>
<event>
 7    1  0.5290964E-013  0.5052886E+02  0.7816164E-02  0.1300439E+00
        -11   -1    0    0    0    0  0.00000000000E+00  0.00000000000E+00  0.45593999997E+02  0.45594000000E+02  0.51100000000E-03 0.  1.
         11   -1    0    0    0    0 -0.00000000000E+00 -0.00000000000E+00 -0.45593999997E+02  0.45594000000E+02  0.51100000000E-03 0. -1.
    9900012    2    1    2    0    0  0.76808623168E+01 -0.24066061318E+02  0.31858984643E+02  0.50528857661E+02  0.29999993346E+02 0.  0.
         12    1    1    2    0    0 -0.76808623168E+01  0.24066061318E+02 -0.31858984643E+02  0.40659142339E+02  0.00000000000E+00 0. -1.
         11    1    3    3    0    0  0.66969249417E+01 -0.19192548422E+01 -0.12824910622E+01  0.70835814677E+01  0.51100000000E-03 0. -1.
        -11    1    3    3    0    0  0.30187363230E+01  0.14943728429E+01  0.10386108588E+01  0.35248591402E+01  0.51100000000E-03 0.  1.
        -12    1    3    3    0    0 -0.20347989479E+01 -0.23641179319E+02  0.32102864846E+02  0.39920417053E+02  0.00000000000E+00 0.  1.
</event>
<event>
 7    1  0.5290964E-013  0.5052889E+02  0.7816164E-02  0.1300439E+00
        -11   -1    0    0    0    0  0.00000000000E+00  0.00000000000E+00  0.45593999997E+02  0.45594000000E+02  0.51100000000E-03 0. -1.
         11   -1    0    0    0    0 -0.00000000000E+00 -0.00000000000E+00 -0.45593999997E+02  0.45594000000E+02  0.51100000000E-03 0.  1.
    9900012    2    1    2    0    0  0.34136785658E+02  0.17877023269E+02  0.12971324387E+02  0.50528888446E+02  0.30000086921E+02 0.  0.
         12    1    1    2    0    0 -0.34136785658E+02 -0.17877023269E+02 -0.12971324387E+02  0.40659111554E+02  0.00000000000E+00 0. -1.
         11    1    3    3    0    0  0.44468203558E+01 -0.28840949926E+01 -0.10371554144E+01  0.54007320631E+01  0.51100000000E-03 0. -1.
        -11    1    3    3    0    0  0.13887605253E+02 -0.19568819466E+01  0.98635378033E+01  0.17145971681E+02  0.51100000000E-03 0.  1.
         12    1    3    3    0    0  0.15802360049E+02  0.22718000208E+02  0.41449419978E+01  0.27982184702E+02  0.00000000000E+00 0. -1.
</event>
<event>
 7    1  0.5290964E-013  0.5052885E+02  0.7816164E-02  0.1300439E+00
        -11   -1    0    0    0    0  0.00000000000E+00  0.00000000000E+00  0.45593999997E+02  0.45594000000E+02  0.51100000000E-03 0.  1.
         11   -1    0    0    0    0 -0.00000000000E+00 -0.00000000000E+00 -0.45593999997E+02  0.45594000000E+02  0.51100000000E-03 0. -1.
    9900012    2    1    2    0    0 -0.18392504814E+01  0.41049796864E+01  0.40409559503E+02  0.50528853430E+02  0.29999980487E+02 0.  0.
         12    1    1    2    0    0  0.18392504814E+01 -0.41049796864E+01 -0.40409559503E+02  0.40659146570E+02  0.00000000000E+00 0. -1.
         11    1    3    3    0    0  0.93223138695E+01  0.13559745815E+01  0.10616582304E+02  0.14193520459E+02  0.51100000000E-03 0. -1.
        -11    1    3    3    0    0 -0.16506857864E+01  0.90275417388E+01  0.15981935250E+02  0.18429420176E+02  0.51100000000E-03 0.  1.
         12    1    3    3    0    0 -0.95108785644E+01 -0.62785366339E+01  0.13811041948E+02  0.17905912795E+02  0.00000000000E+00 0. -1.
</event>
<event>
 7    1  0.5290964E-013  0.5052887E+02  0.7816164E-02  0.1300439E+00
        -11   -1    0    0    0    0  0.00000000000E+00  0.00000000000E+00  0.45593999997E+02  0.45594000000E+02  0.51100000000E-03 0.  1.
         11   -1    0    0    0    0 -0.00000000000E+00 -0.00000000000E+00 -0.45593999997E+02  0.45594000000E+02  0.51100000000E-03 0. -1.
    9900012    2    1    2    0    0  0.30324682187E+02  0.19164144138E+02  0.19139335441E+02  0.50528869027E+02  0.30000027896E+02 0.  0.
         12    1    1    2    0    0 -0.30324682187E+02 -0.19164144138E+02 -0.19139335441E+02  0.40659130973E+02  0.00000000000E+00 0. -1.
         11    1    3    3    0    0  0.47762074973E+01  0.16545766860E+02  0.57332258359E+01  0.18150604337E+02  0.51100000000E-03 0. -1.
        -11    1    3    3    0    0 -0.15341995893E+01  0.18167954691E+01  0.10968054658E+01  0.26186822349E+01  0.51100000000E-03 0.  1.
        -12    1    3    3    0    0  0.27082674279E+02  0.80158180851E+00  0.12309304139E+02  0.29759582455E+02  0.00000000000E+00 0.  1.
</event>
<event>
 7    1  0.5290964E-013  0.5052886E+02  0.7816164E-02  0.1300439E+00
        -11   -1    0    0    0    0  0.00000000000E+00  0.00000000000E+00  0.45593999997E+02  0.45594000000E+02  0.51100000000E-03 0. -1.
         11   -1    0    0    0    0 -0.00000000000E+00 -0.00000000000E+00 -0.45593999997E+02  0.45594000000E+02  0.51100000000E-03 0.  1.
    9900012    2    1    2    0    0  0.30932430993E+02 -0.23966885313E+02  0.11042597800E+02  0.50528857794E+02  0.29999993751E+02 0.  0.
         12    1    1    2    0    0 -0.30932430993E+02  0.23966885313E+02 -0.11042597800E+02  0.40659142206E+02  0.00000000000E+00 0. -1.
         11    1    3    3    0    0  0.11002960524E+02 -0.68100255400E+01 -0.51515955238E+01  0.13927689143E+02  0.51100000000E-03 0. -1.
        -11    1    3    3    0    0  0.27252129398E+01  0.25288314071E+00 -0.40156578372E+01  0.48596546767E+01  0.51100000000E-03 0.  1.
         12    1    3    3    0    0  0.17204257529E+02 -0.17409742914E+02  0.20209851161E+02  0.31741513974E+02  0.00000000000E+00 0. -1.
</event>
<event>
 7    1  0.5290964E-013  0.5052886E+02  0.7816164E-02  0.1300439E+00
        -11   -1    0    0    0    0  0.00000000000E+00  0.00000000000E+00  0.45593999997E+02  0.45594000000E+02  0.51100000000E-03 0. -1.
         11   -1    0    0    0    0 -0.00000000000E+00 -0.00000000000E+00 -0.45593999997E+02  0.45594000000E+02  0.51100000000E-03 0.  1.
    9900012    2    1    2    0    0 -0.17196073205E+02 -0.32930934118E+02  0.16523145441E+02  0.50528859689E+02  0.29999999512E+02 0.  0.
         12    1    1    2    0    0  0.17196073205E+02  0.32930934118E+02 -0.16523145441E+02  0.40659140311E+02  0.00000000000E+00 0. -1.
         11    1    3    3    0    0 -0.14506584222E+02 -0.13884597660E+02  0.11408391709E+02  0.23094900728E+02  0.51100000000E-03 0. -1.
        -11    1    3    3    0    0 -0.55025798910E+01 -0.16242089130E+01  0.76951523914E+01  0.95985316918E+01  0.51100000000E-03 0.  1.
         12    1    3    3    0    0  0.28130909089E+01 -0.17422127545E+02 -0.25803986590E+01  0.17835427270E+02  0.00000000000E+00 0. -1.
</event>
<event>
 7    1  0.5290964E-013  0.5052898E+02  0.7816164E-02  0.1300438E+00
        -11   -1    0    0    0    0  0.00000000000E+00  0.00000000000E+00  0.45593999997E+02  0.45594000000E+02  0.51100000000E-03 0.  1.
         11   -1    0    0    0    0 -0.00000000000E+00 -0.00000000000E+00 -0.45593999997E+02  0.45594000000E+02  0.51100000000E-03 0. -1.
    9900012    2    1    2    0    0 -0.38079644245E+02  0.13566052858E+02  0.43655993600E+01  0.50528984348E+02  0.30000378423E+02 0.  0.
         12    1    1    2    0    0  0.38079644245E+02 -0.13566052858E+02 -0.43655993600E+01  0.40659015652E+02  0.00000000000E+00 0. -1.
         11    1    3    3    0    0 -0.27821193425E+02  0.15453451655E+02  0.72149086292E+01  0.32632543242E+02  0.51100000000E-03 0.  1.
        -11    1    3    3    0    0 -0.95517823918E+01  0.30284437864E+01 -0.63114586557E+01  0.11842403863E+02  0.51100000000E-03 0. -1.
        -12    1    3    3    0    0 -0.70666842788E+00 -0.49158425829E+01  0.34621493866E+01  0.60540372432E+01  0.00000000000E+00 0.  1.
</event>
<event>
 7    1  0.5290964E-013  0.5052887E+02  0.7816164E-02  0.1300439E+00
        -11   -1    0    0    0    0  0.00000000000E+00  0.00000000000E+00  0.45593999997E+02  0.45594000000E+02  0.51100000000E-03 0. -1.
         11   -1    0    0    0    0 -0.00000000000E+00 -0.00000000000E+00 -0.45593999997E+02  0.45594000000E+02  0.51100000000E-03 0.  1.
    9900012    2    1    2    0    0  0.24804883800E+02 -0.20205240158E+02 -0.25092445197E+02  0.50528870692E+02  0.30000032955E+02 0.  0.
         12    1    1    2    0    0 -0.24804883800E+02  0.20205240158E+02  0.25092445197E+02  0.40659129308E+02  0.00000000000E+00 0. -1.
         11    1    3    3    0    0  0.70881945218E+01 -0.81305563718E+01 -0.18997642553E+01  0.10952513546E+02  0.51100000000E-03 0. -1.
        -11    1    3    3    0    0  0.22653299476E+02 -0.61783500608E+01 -0.21193206874E+02  0.31630618149E+02  0.51100000000E-03 0.  1.
         12    1    3    3    0    0 -0.49366101983E+01 -0.58963337255E+01 -0.19994740675E+01  0.79457389964E+01  0.00000000000E+00 0. -1.
</event>
<event>
 7    1  0.5290964E-013  0.5052882E+02  0.7816164E-02  0.1300439E+00
        -11   -1    0    0    0    0  0.00000000000E+00  0.00000000000E+00  0.45593999997E+02  0.45594000000E+02  0.51100000000E-03 0.  1.
         11   -1    0    0    0    0 -0.00000000000E+00 -0.00000000000E+00 -0.45593999997E+02  0.45594000000E+02  0.51100000000E-03 0. -1.
    9900012    2    1    2    0    0  0.30727673508E+02  0.25899095747E+02 -0.61818712622E+01  0.50528823766E+02  0.29999890319E+02 0.  0.
         12    1    1    2    0    0 -0.30727673508E+02 -0.25899095747E+02  0.61818712622E+01  0.40659176234E+02  0.00000000000E+00 0. -1.
         11    1    3    3    0    0 -0.97998662848E+00 -0.25985901839E+01  0.40572811256E+01  0.49167647015E+01  0.51100000000E-03 0. -1.
        -11    1    3    3    0    0  0.16423111432E+02  0.72712077869E+01 -0.14548842076E+01  0.18019593228E+02  0.51100000000E-03 0.  1.
        -12    1    3    3    0    0  0.15284548705E+02  0.21226478144E+02 -0.87842681802E+01  0.27592465837E+02  0.00000000000E+00 0.  1.
</event>
<event>
 7    1  0.5290964E-013  0.5052886E+02  0.7816164E-02  0.1300439E+00
        -11   -1    0    0    0    0  0.00000000000E+00  0.00000000000E+00  0.45593999997E+02  0.45594000000E+02  0.51100000000E-03 0.  1.
         11   -1    0    0    0    0 -0.00000000000E+00 -0.00000000000E+00 -0.45593999997E+02  0.45594000000E+02  0.51100000000E-03 0. -1.
    9900012    2    1    2    0    0 -0.20933575779E+02 -0.26508332581E+02 -0.22633151670E+02  0.50528857785E+02  0.29999993723E+02 0.  0.
         12    1    1    2    0    0  0.20933575779E+02  0.26508332581E+02  0.22633151670E+02  0.40659142215E+02  0.00000000000E+00 0. -1.
         11    1    3    3    0    0 -0.51842884518E+01  0.16761610285E+01 -0.70584083320E+01  0.89166973139E+01  0.51100000000E-03 0. -1.
        -11    1    3    3    0    0 -0.98511869908E+00  0.86607601135E+00  0.35797814779E+01  0.38125296326E+01  0.51100000000E-03 0.  1.
        -12    1    3    3    0    0 -0.14764168628E+02 -0.29050569621E+02 -0.19154524816E+02  0.37799630838E+02  0.00000000000E+00 0.  1.
</event>
<event>
 7    1  0.5290964E-013  0.5052886E+02  0.7816164E-02  0.1300439E+00
        -11   -1    0    0    0    0  0.00000000000E+00  0.00000000000E+00  0.45593999997E+02  0.45594000000E+02  0.51100000000E-03 0. -1.
         11   -1    0    0    0    0 -0.00000000000E+00 -0.00000000000E+00 -0.45593999997E+02  0.45594000000E+02  0.51100000000E-03 0.  1.
    9900012    2    1    2    0    0  0.40344118936E+02 -0.46221165699E+01 -0.20380101160E+01  0.50528863517E+02  0.30000011147E+02 0.  0.
         12    1    1    2    0    0 -0.40344118936E+02  0.46221165699E+01  0.20380101160E+01  0.40659136483E+02  0.00000000000E+00 0. -1.
         11    1    3    3    0    0 -0.28275477894E+01  0.23078487146E+00 -0.20611898732E+01  0.35066782163E+01  0.51100000000E-03 0. -1.
        -11    1    3    3    0    0  0.43251819632E+01 -0.66604876579E+01 -0.15942081366E+01  0.81000490554E+01  0.51100000000E-03 0.  1.
        -12    1    3    3    0    0  0.38846484762E+02  0.18075862166E+01  0.16173878938E+01  0.38922136245E+02  0.00000000000E+00 0.  1.
</event>
<event>
 7    1  0.5290964E-013  0.5052886E+02  0.7816164E-02  0.1300439E+00
        -11   -1    0    0    0    0  0.00000000000E+00  0.00000000000E+00  0.45593999997E+02  0.45594000000E+02  0.51100000000E-03 0.  1.
         11   -1    0    0    0    0 -0.00000000000E+00 -0.00000000000E+00 -0.45593999997E+02  0.45594000000E+02  0.51100000000E-03 0. -1.
    9900012    2    1    2    0    0  0.18287302092E+02 -0.30207428282E+02 -0.20155679209E+02  0.50528861475E+02  0.30000004940E+02 0.  0.
         12    1    1    2    0    0 -0.18287302092E+02  0.30207428282E+02  0.20155679209E+02  0.40659138525E+02  0.00000000000E+00 0. -1.
         11    1    3    3    0    0  0.12631630415E+02 -0.81071959792E+01  0.28030450684E+01  0.15268980827E+02  0.51100000000E-03 0. -1.
        -11    1    3    3    0    0  0.22132481961E+00  0.77641809998E+00  0.12652057057E+01  0.15008515851E+01  0.51100000000E-03 0.  1.
        -12    1    3    3    0    0  0.54343468570E+01 -0.22876650403E+02 -0.24223929983E+02  0.33759029063E+02  0.00000000000E+00 0.  1.
</event>
<event>
 7    1  0.5290964E-013  0.5052887E+02  0.7816164E-02  0.1300439E+00
        -11   -1    0    0    0    0  0.00000000000E+00  0.00000000000E+00  0.45593999997E+02  0.45594000000E+02  0.51100000000E-03 0.  1.
         11   -1    0    0    0    0 -0.00000000000E+00 -0.00000000000E+00 -0.45593999997E+02  0.45594000000E+02  0.51100000000E-03 0. -1.
    9900012    2    1    2    0    0  0.17898823099E+02  0.33543331775E+02  0.14409781262E+02  0.50528871002E+02  0.30000033897E+02 0.  0.
         12    1    1    2    0    0 -0.17898823099E+02 -0.33543331775E+02 -0.14409781262E+02  0.40659128998E+02  0.00000000000E+00 0. -1.
         11    1    3    3    0    0  0.35829919131E+01  0.29028472630E+01 -0.56403792796E+01  0.72854809011E+01  0.51100000000E-03 0. -1.
        -11    1    3    3    0    0  0.49408705116E+01  0.30577995652E+01 -0.25766068736E+01  0.63561971992E+01  0.51100000000E-03 0.  1.
        -12    1    3    3    0    0  0.93749606741E+01  0.27582684947E+02  0.22626767415E+02  0.36887192902E+02  0.00000000000E+00 0.  1.
</event>
<event>
 7    1  0.5290964E-013  0.5052886E+02  0.7816164E-02  0.1300439E+00
        -11   -1    0    0    0    0  0.00000000000E+00  0.00000000000E+00  0.45593999997E+02  0.45594000000E+02  0.51100000000E-03 0.  1.
         11   -1    0    0    0    0 -0.00000000000E+00 -0.00000000000E+00 -0.45593999997E+02  0.45594000000E+02  0.51100000000E-03 0. -1.
    9900012    2    1    2    0    0  0.12620204162E+02  0.12577048203E+02  0.36547422653E+02  0.50528858381E+02  0.29999995536E+02 0.  0.
         12    1    1    2    0    0 -0.12620204162E+02 -0.12577048203E+02 -0.36547422653E+02  0.40659141619E+02  0.00000000000E+00 0. -1.
         11    1    3    3    0    0  0.17544913700E+01 -0.56457535358E+00  0.15349082297E+01  0.23985263876E+01  0.51100000000E-03 0. -1.
        -11    1    3    3    0    0  0.12473618803E+02  0.19864355518E+02  0.17385860840E+02  0.29196779679E+02  0.51100000000E-03 0.  1.
        -12    1    3    3    0    0 -0.16079060106E+01 -0.67227319609E+01  0.17626653583E+02  0.18933552315E+02  0.00000000000E+00 0.  1.
</event>
<event>
 7    1  0.5290964E-013  0.5052884E+02  0.7816164E-02  0.1300439E+00
        -11   -1    0    0    0    0  0.00000000000E+00  0.00000000000E+00  0.45593999997E+02  0.45594000000E+02  0.51100000000E-03 0.  1.
         11   -1    0    0    0    0 -0.00000000000E+00 -0.00000000000E+00 -0.45593999997E+02  0.45594000000E+02  0.51100000000E-03 0. -1.
    9900012    2    1    2    0    0 -0.51496857423E+01 -0.25921296202E+02  0.30898771028E+02  0.50528844683E+02  0.29999953899E+02 0.  0.
         12    1    1    2    0    0  0.51496857423E+01  0.25921296202E+02 -0.30898771028E+02  0.40659155317E+02  0.00000000000E+00 0. -1.
         11    1    3    3    0    0 -0.55431002807E+01 -0.13391412623E+01  0.17311015484E+02  0.18226094408E+02  0.51100000000E-03 0.  1.
        -11    1    3    3    0    0 -0.61375551402E+01 -0.85698117062E+01  0.10225736516E+02  0.14685943733E+02  0.51100000000E-03 0. -1.
         12    1    3    3    0    0  0.65309696786E+01 -0.16012343234E+02  0.33620190280E+01  0.17616806541E+02  0.00000000000E+00 0. -1.
</event>
<event>
 7    1  0.5290964E-013  0.5052886E+02  0.7816164E-02  0.1300439E+00
        -11   -1    0    0    0    0  0.00000000000E+00  0.00000000000E+00  0.45593999997E+02  0.45594000000E+02  0.51100000000E-03 0. -1.
         11   -1    0    0    0    0 -0.00000000000E+00 -0.00000000000E+00 -0.45593999997E+02  0.45594000000E+02  0.51100000000E-03 0.  1.
    9900012    2    1    2    0    0 -0.34770460407E+02 -0.19817095184E+02 -0.71738093290E+01  0.50528859346E+02  0.29999998467E+02 0.  0.
         12    1    1    2    0    0  0.34770460407E+02  0.19817095184E+02  0.71738093290E+01  0.40659140654E+02  0.00000000000E+00 0. -1.
         11    1    3    3    0    0 -0.14106944071E+02  0.20030548003E+01 -0.45450996979E+01  0.14955802589E+02  0.51100000000E-03 0. -1.
        -11    1    3    3    0    0 -0.89305209038E+01 -0.28052023331E+01 -0.83115624023E+01  0.12518204087E+02  0.51100000000E-03 0.  1.
         12    1    3    3    0    0 -0.11732995432E+02 -0.19014947652E+02  0.56828527712E+01  0.23054852670E+02  0.00000000000E+00 0. -1.
</event>
<event>
 7    1  0.5290964E-013  0.5052885E+02  0.7816164E-02  0.1300439E+00
        -11   -1    0    0    0    0  0.00000000000E+00  0.00000000000E+00  0.45593999997E+02  0.45594000000E+02  0.51100000000E-03 0.  1.
         11   -1    0    0    0    0 -0.00000000000E+00 -0.00000000000E+00 -0.45593999997E+02  0.45594000000E+02  0.51100000000E-03 0. -1.
    9900012    2    1    2    0    0 -0.36063360226E+02 -0.45116440637E+01  0.18227604086E+02  0.50528850554E+02  0.29999971745E+02 0.  0.
         12    1    1    2    0    0  0.36063360226E+02  0.45116440637E+01 -0.18227604086E+02  0.40659149446E+02  0.00000000000E+00 0. -1.
         11    1    3    3    0    0 -0.14941131589E+02 -0.90684569271E+01  0.34572165860E+01  0.17816471901E+02  0.51100000000E-03 0. -1.
        -11    1    3    3    0    0 -0.16577946807E+02 -0.22543300345E+01  0.10863572838E+01  0.16765753685E+02  0.51100000000E-03 0.  1.
        -12    1    3    3    0    0 -0.45442818299E+01  0.68111428980E+01  0.13684030216E+02  0.15946624968E+02  0.00000000000E+00 0.  1.
</event>
<event>
 7    1  0.5290964E-013  0.5052886E+02  0.7816164E-02  0.1300439E+00
        -11   -1    0    0    0    0  0.00000000000E+00  0.00000000000E+00  0.45593999997E+02  0.45594000000E+02  0.51100000000E-03 0.  1.
         11   -1    0    0    0    0 -0.00000000000E+00 -0.00000000000E+00 -0.45593999997E+02  0.45594000000E+02  0.51100000000E-03 0. -1.
    9900012    2    1    2    0    0 -0.36431605809E+01 -0.13797965910E+02  0.38072421669E+02  0.50528858666E+02  0.29999996402E+02 0.  0.
         12    1    1    2    0    0  0.36431605809E+01  0.13797965910E+02 -0.38072421669E+02  0.40659141334E+02  0.00000000000E+00 0. -1.
         11    1    3    3    0    0  0.33745267327E+01 -0.11554451439E+02  0.39355033161E+02  0.41154725295E+02  0.51100000000E-03 0.  1.
        -11    1    3    3    0    0  0.11549393374E-01  0.97395769375E+00 -0.13236657415E+01  0.16434166344E+01  0.51100000000E-03 0. -1.
        -12    1    3    3    0    0 -0.70292367070E+01 -0.32174721651E+01  0.41054248797E-01  0.77307167370E+01  0.00000000000E+00 0.  1.
</event>
<event>
 7    1  0.5290964E-013  0.5052892E+02  0.7816164E-02  0.1300439E+00
        -11   -1    0    0    0    0  0.00000000000E+00  0.00000000000E+00  0.45593999997E+02  0.45594000000E+02  0.51100000000E-03 0.  1.
         11   -1    0    0    0    0 -0.00000000000E+00 -0.00000000000E+00 -0.45593999997E+02  0.45594000000E+02  0.51100000000E-03 0. -1.
    9900012    2    1    2    0    0 -0.14390556671E+02  0.16134551338E+02  0.34434708198E+02  0.50528917412E+02  0.30000174965E+02 0.  0.
         12    1    1    2    0    0  0.14390556671E+02 -0.16134551338E+02 -0.34434708198E+02  0.40659082588E+02  0.00000000000E+00 0. -1.
         11    1    3    3    0    0  0.45186108198E+01 -0.28872280634E+01  0.12934826048E+02  0.14002273200E+02  0.51100000000E-03 0. -1.
        -11    1    3    3    0    0 -0.62985859704E+01  0.10840330207E+02  0.33834368347E+01  0.12985861130E+02  0.51100000000E-03 0.  1.
        -12    1    3    3    0    0 -0.12610581520E+02  0.81814491950E+01  0.18116445316E+02  0.23540783082E+02  0.00000000000E+00 0.  1.
</event>
<event>
 7    1  0.5290964E-013  0.5052883E+02  0.7816164E-02  0.1300439E+00
        -11   -1    0    0    0    0  0.00000000000E+00  0.00000000000E+00  0.45593999997E+02  0.45594000000E+02  0.51100000000E-03 0.  1.
         11   -1    0    0    0    0 -0.00000000000E+00 -0.00000000000E+00 -0.45593999997E+02  0.45594000000E+02  0.51100000000E-03 0. -1.
    9900012    2    1    2    0    0  0.37989016494E+01 -0.18265246638E+02  0.36126400508E+02  0.50528834955E+02  0.29999924330E+02 0.  0.
         12    1    1    2    0    0 -0.37989016494E+01  0.18265246638E+02 -0.36126400508E+02  0.40659165045E+02  0.00000000000E+00 0. -1.
         11    1    3    3    0    0  0.26363736306E+01  0.36218161850E+01  0.39891308290E+01  0.59984317476E+01  0.51100000000E-03 0. -1.
        -11    1    3    3    0    0 -0.88531438923E+00  0.32628388121E+01  0.11333690140E+02  0.11827190332E+02  0.51100000000E-03 0.  1.
        -12    1    3    3    0    0  0.20478424080E+01 -0.25149901636E+02  0.20803579538E+02  0.32703212876E+02  0.00000000000E+00 0.  1.
</event>
<event>
 7    1  0.5290964E-013  0.5052886E+02  0.7816164E-02  0.1300439E+00
        -11   -1    0    0    0    0  0.00000000000E+00  0.00000000000E+00  0.45593999997E+02  0.45594000000E+02  0.51100000000E-03 0. -1.
         11   -1    0    0    0    0 -0.00000000000E+00 -0.00000000000E+00 -0.45593999997E+02  0.45594000000E+02  0.51100000000E-03 0.  1.
    9900012    2    1    2    0    0 -0.80493124568E+01  0.16861264022E+02 -0.36111934810E+02  0.50528862144E+02  0.30000006973E+02 0.  0.
         12    1    1    2    0    0  0.80493124568E+01 -0.16861264022E+02  0.36111934810E+02  0.40659137856E+02  0.00000000000E+00 0. -1.
         11    1    3    3    0    0 -0.15462358749E+01  0.57177924847E+01  0.10096369593E+01  0.60086074368E+01  0.51100000000E-03 0. -1.
        -11    1    3    3    0    0 -0.10102970798E+00  0.43570239746E+01  0.16363377533E+01  0.46552622291E+01  0.51100000000E-03 0.  1.
        -12    1    3    3    0    0 -0.64020468738E+01  0.67864475625E+01 -0.38757909523E+02  0.39864992478E+02  0.00000000000E+00 0.  1.
</event>
<event>
 7    1  0.5290964E-013  0.5052886E+02  0.7816164E-02  0.1300439E+00
        -11   -1    0    0    0    0  0.00000000000E+00  0.00000000000E+00  0.45593999997E+02  0.45594000000E+02  0.51100000000E-03 0. -1.
         11   -1    0    0    0    0 -0.00000000000E+00 -0.00000000000E+00 -0.45593999997E+02  0.45594000000E+02  0.51100000000E-03 0.  1.
    9900012    2    1    2    0    0  0.49612498669E+01  0.38137545133E+02  0.13193920351E+02  0.50528857323E+02  0.29999992318E+02 0.  0.
         12    1    1    2    0    0 -0.49612498669E+01 -0.38137545133E+02 -0.13193920351E+02  0.40659142677E+02  0.00000000000E+00 0. -1.
         11    1    3    3    0    0 -0.25675052911E+01 -0.12320586923E+01  0.30877843950E+01  0.42005314869E+01  0.51100000000E-03 0. -1.
        -11    1    3    3    0    0 -0.21064459842E+01  0.47223217924E+01 -0.51190058209E+01  0.72761018857E+01  0.51100000000E-03 0.  1.
        -12    1    3    3    0    0  0.96352011422E+01  0.34647282033E+02  0.15225141777E+02  0.39052223950E+02  0.00000000000E+00 0.  1.
</event>
<event>
 7    1  0.5290964E-013  0.5052886E+02  0.7816164E-02  0.1300439E+00
        -11   -1    0    0    0    0  0.00000000000E+00  0.00000000000E+00  0.45593999997E+02  0.45594000000E+02  0.51100000000E-03 0. -1.
         11   -1    0    0    0    0 -0.00000000000E+00 -0.00000000000E+00 -0.45593999997E+02  0.45594000000E+02  0.51100000000E-03 0.  1.
    9900012    2    1    2    0    0 -0.21729795180E+02  0.23827571440E+01 -0.34282707047E+02  0.50528861634E+02  0.30000005423E+02 0.  0.
         12    1    1    2    0    0  0.21729795180E+02 -0.23827571440E+01  0.34282707047E+02  0.40659138366E+02  0.00000000000E+00 0. -1.
         11    1    3    3    0    0 -0.18696491076E+02  0.37739262524E+01 -0.31905848378E+02  0.37172361492E+02  0.51100000000E-03 0. -1.
        -11    1    3    3    0    0 -0.58342850240E+01 -0.52061004658E+00 -0.62055591392E+01  0.85333979781E+01  0.51100000000E-03 0.  1.
         12    1    3    3    0    0  0.28009809200E+01 -0.87055906179E+00  0.38287004701E+01  0.48231021639E+01  0.00000000000E+00 0. -1.
</event>
<event>
 7    1  0.5290964E-013  0.5052883E+02  0.7816164E-02  0.1300439E+00
        -11   -1    0    0    0    0  0.00000000000E+00  0.00000000000E+00  0.45593999997E+02  0.45594000000E+02  0.51100000000E-03 0.  1.
         11   -1    0    0    0    0 -0.00000000000E+00 -0.00000000000E+00 -0.45593999997E+02  0.45594000000E+02  0.51100000000E-03 0. -1.
    9900012    2    1    2    0    0  0.66859902891E+00  0.40569467097E+02  0.26151800726E+01  0.50528833112E+02  0.29999918727E+02 0.  0.
         12    1    1    2    0    0 -0.66859902891E+00 -0.40569467097E+02 -0.26151800726E+01  0.40659166888E+02  0.00000000000E+00 0. -1.
         11    1    3    3    0    0  0.49578742575E+01  0.52310272093E+01 -0.17260730163E+01  0.74110384654E+01  0.51100000000E-03 0. -1.
        -11    1    3    3    0    0  0.47304845825E+01  0.28651327289E+02 -0.37466090683E+01  0.29279909829E+02  0.51100000000E-03 0.  1.
         12    1    3    3    0    0 -0.90197598111E+01  0.66871125988E+01  0.80878621572E+01  0.13837884818E+02  0.00000000000E+00 0. -1.
</event>
<event>
 7    1  0.5290964E-013  0.5052887E+02  0.7816164E-02  0.1300439E+00
        -11   -1    0    0    0    0  0.00000000000E+00  0.00000000000E+00  0.45593999997E+02  0.45594000000E+02  0.51100000000E-03 0. -1.
         11   -1    0    0    0    0 -0.00000000000E+00 -0.00000000000E+00 -0.45593999997E+02  0.45594000000E+02  0.51100000000E-03 0.  1.
    9900012    2    1    2    0    0 -0.60656579065E+01  0.19782160975E+02 -0.35000551033E+02  0.50528872226E+02  0.30000037619E+02 0.  0.
         12    1    1    2    0    0  0.60656579065E+01 -0.19782160975E+02  0.35000551033E+02  0.40659127774E+02  0.00000000000E+00 0. -1.
         11    1    3    3    0    0 -0.93288882752E+01  0.13654912811E+01 -0.94160135476E+01  0.13324940311E+02  0.51100000000E-03 0. -1.
        -11    1    3    3    0    0 -0.70562604383E+01  0.78034272579E+01 -0.45021456506E+01  0.11443496147E+02  0.51100000000E-03 0.  1.
        -12    1    3    3    0    0  0.10319490807E+02  0.10613242436E+02 -0.21082391835E+02  0.25760435769E+02  0.00000000000E+00 0.  1.
</event>
<event>
 7    1  0.5290964E-013  0.5052887E+02  0.7816164E-02  0.1300439E+00
        -11   -1    0    0    0    0  0.00000000000E+00  0.00000000000E+00  0.45593999997E+02  0.45594000000E+02  0.51100000000E-03 0.  1.
         11   -1    0    0    0    0 -0.00000000000E+00 -0.00000000000E+00 -0.45593999997E+02  0.45594000000E+02  0.51100000000E-03 0. -1.
    9900012    2    1    2    0    0  0.30902013337E+02  0.24564711303E+02 -0.97367956985E+01  0.50528872364E+02  0.30000038036E+02 0.  0.
         12    1    1    2    0    0 -0.30902013337E+02 -0.24564711303E+02  0.97367956985E+01  0.40659127636E+02  0.00000000000E+00 0. -1.
         11    1    3    3    0    0  0.18951324852E+02  0.16813215878E+02 -0.81189216763E+01  0.26603643196E+02  0.51100000000E-03 0. -1.
        -11    1    3    3    0    0  0.84226047283E+01  0.12990413913E+02 -0.55942059962E+01  0.16461660458E+02  0.51100000000E-03 0.  1.
         12    1    3    3    0    0  0.35280837567E+01 -0.52389184887E+01  0.39763319740E+01  0.74635687102E+01  0.00000000000E+00 0. -1.
</event>
<event>
 7    1  0.5290964E-013  0.5052886E+02  0.7816164E-02  0.1300439E+00
        -11   -1    0    0    0    0  0.00000000000E+00  0.00000000000E+00  0.45593999997E+02  0.45594000000E+02  0.51100000000E-03 0. -1.
         11   -1    0    0    0    0 -0.00000000000E+00 -0.00000000000E+00 -0.45593999997E+02  0.45594000000E+02  0.51100000000E-03 0.  1.
    9900012    2    1    2    0    0  0.89912721137E+01  0.39428724754E+02 -0.42069821375E+01  0.50528855780E+02  0.29999987630E+02 0.  0.
         12    1    1    2    0    0 -0.89912721137E+01 -0.39428724754E+02  0.42069821375E+01  0.40659144220E+02  0.00000000000E+00 0. -1.
         11    1    3    3    0    0 -0.50009518446E+01 -0.13509321933E+01  0.21770767114E+01  0.56190924900E+01  0.51100000000E-03 0. -1.
        -11    1    3    3    0    0  0.80205800228E+01  0.18733865791E+02 -0.82679068257E+01  0.21991946592E+02  0.51100000000E-03 0.  1.
        -12    1    3    3    0    0  0.59716439354E+01  0.22045791157E+02  0.18838479769E+01  0.22917816698E+02  0.00000000000E+00 0.  1.
</event>
<event>
 7    1  0.5290964E-013  0.5052886E+02  0.7816164E-02  0.1300439E+00
        -11   -1    0    0    0    0  0.00000000000E+00  0.00000000000E+00  0.45593999997E+02  0.45594000000E+02  0.51100000000E-03 0. -1.
         11   -1    0    0    0    0 -0.00000000000E+00 -0.00000000000E+00 -0.45593999997E+02  0.45594000000E+02  0.51100000000E-03 0.  1.
    9900012    2    1    2    0    0  0.31218523652E+01  0.26219699922E+02 -0.30918391358E+02  0.50528861416E+02  0.30000004760E+02 0.  0.
         12    1    1    2    0    0 -0.31218523652E+01 -0.26219699922E+02  0.30918391358E+02  0.40659138584E+02  0.00000000000E+00 0. -1.
         11    1    3    3    0    0  0.36130545437E+01 -0.22222833185E+01 -0.35217846126E+01  0.55132271314E+01  0.51100000000E-03 0. -1.
        -11    1    3    3    0    0 -0.91036987912E+01  0.45219856254E+01 -0.96070318458E+01  0.13986448685E+02  0.51100000000E-03 0.  1.
         12    1    3    3    0    0  0.86124966127E+01  0.23919997616E+02 -0.17789574900E+02  0.31029185599E+02  0.00000000000E+00 0. -1.
</event>
<event>
 7    1  0.5290964E-013  0.5052886E+02  0.7816164E-02  0.1300439E+00
        -11   -1    0    0    0    0  0.00000000000E+00  0.00000000000E+00  0.45593999997E+02  0.45594000000E+02  0.51100000000E-03 0. -1.
         11   -1    0    0    0    0 -0.00000000000E+00 -0.00000000000E+00 -0.45593999997E+02  0.45594000000E+02  0.51100000000E-03 0.  1.
    9900012    2    1    2    0    0  0.32886393520E+02  0.72924019579E+01 -0.22769971915E+02  0.50528860485E+02  0.30000001931E+02 0.  0.
         12    1    1    2    0    0 -0.32886393520E+02 -0.72924019579E+01  0.22769971915E+02  0.40659139515E+02  0.00000000000E+00 0. -1.
         11    1    3    3    0    0  0.17030842499E+02  0.69043603138E+01 -0.12485112914E+02  0.22217061739E+02  0.51100000000E-03 0. -1.
        -11    1    3    3    0    0  0.20435451684E+02 -0.10998125593E+01 -0.11318721713E+02  0.23386550294E+02  0.51100000000E-03 0.  1.
         12    1    3    3    0    0 -0.45799006628E+01  0.14878542035E+01  0.10338627119E+01  0.49252484525E+01  0.00000000000E+00 0. -1.
</event>
<event>
 7    1  0.5601528E-013  0.5052886E+02  0.7816164E-02  0.1300439E+00
        -11   -1    0    0    0    0  0.00000000000E+00  0.00000000000E+00  0.45593999997E+02  0.45594000000E+02  0.51100000000E-03 0. -1.
         11   -1    0    0    0    0 -0.00000000000E+00 -0.00000000000E+00 -0.45593999997E+02  0.45594000000E+02  0.51100000000E-03 0.  1.
    9900012    2    1    2    0    0 -0.20116396492E+02  0.12480741889E+02 -0.33056429379E+02  0.50528857741E+02  0.29999993589E+02 0.  0.
         12    1    1    2    0    0  0.20116396492E+02 -0.12480741889E+02  0.33056429379E+02  0.40659142259E+02  0.00000000000E+00 0. -1.
         11    1    3    3    0    0 -0.48375816645E+01  0.31960350885E+01  0.23239497224E+01  0.62464053039E+01  0.51100000000E-03 0. -1.
        -11    1    3    3    0    0 -0.18523435023E+02  0.20463303929E+01 -0.23404881129E+02  0.29918114481E+02  0.51100000000E-03 0.  1.
         12    1    3    3    0    0  0.32446201955E+01  0.72383764075E+01 -0.11975497973E+02  0.14364337956E+02  0.00000000000E+00 0. -1.
</event>
<event>
 7    1  0.5290964E-013  0.5052886E+02  0.7816164E-02  0.1300439E+00
        -11   -1    0    0    0    0  0.00000000000E+00  0.00000000000E+00  0.45593999997E+02  0.45594000000E+02  0.51100000000E-03 0. -1.
         11   -1    0    0    0    0 -0.00000000000E+00 -0.00000000000E+00 -0.45593999997E+02  0.45594000000E+02  0.51100000000E-03 0.  1.
    9900012    2    1    2    0    0 -0.33841380639E+02 -0.19909644314E+02  0.10560886987E+02  0.50528864320E+02  0.30000013587E+02 0.  0.
         12    1    1    2    0    0  0.33841380639E+02  0.19909644314E+02 -0.10560886987E+02  0.40659135680E+02  0.00000000000E+00 0. -1.
         11    1    3    3    0    0 -0.21677021374E+01 -0.63437390515E+01 -0.77863532543E+01  0.10274690018E+02  0.51100000000E-03 0. -1.
        -11    1    3    3    0    0 -0.57094334467E+01 -0.70275704376E+01  0.47272447393E+01  0.10214265496E+02  0.51100000000E-03 0.  1.
        -12    1    3    3    0    0 -0.25964245055E+02 -0.65383348252E+01  0.13619995502E+02  0.30039908806E+02  0.00000000000E+00 0.  1.
</event>
<event>
 7    1  0.5290964E-013  0.5052886E+02  0.7816164E-02  0.1300439E+00
        -11   -1    0    0    0    0  0.00000000000E+00  0.00000000000E+00  0.45593999997E+02  0.45594000000E+02  0.51100000000E-03 0.  1.
         11   -1    0    0    0    0 -0.00000000000E+00 -0.00000000000E+00 -0.45593999997E+02  0.45594000000E+02  0.51100000000E-03 0. -1.
    9900012    2    1    2    0    0 -0.14443540383E+02  0.31315457099E+02  0.21538152158E+02  0.50528859447E+02  0.29999998775E+02 0.  0.
         12    1    1    2    0    0  0.14443540383E+02 -0.31315457099E+02 -0.21538152158E+02  0.40659140553E+02  0.00000000000E+00 0. -1.
         11    1    3    3    0    0  0.12473663516E+01 -0.13429594317E+01 -0.15272791511E+01  0.23858006448E+01  0.51100000000E-03 0. -1.
        -11    1    3    3    0    0 -0.17161631203E+02  0.20565574699E+02  0.64689537175E+01  0.27555613052E+02  0.51100000000E-03 0.  1.
         12    1    3    3    0    0  0.14707244681E+01  0.12092841832E+02  0.16596477592E+02  0.20587445750E+02  0.00000000000E+00 0. -1.
</event>
<event>
 7    1  0.5290964E-013  0.5052887E+02  0.7816164E-02  0.1300439E+00
        -11   -1    0    0    0    0  0.00000000000E+00  0.00000000000E+00  0.45593999997E+02  0.45594000000E+02  0.51100000000E-03 0.  1.
         11   -1    0    0    0    0 -0.00000000000E+00 -0.00000000000E+00 -0.45593999997E+02  0.45594000000E+02  0.51100000000E-03 0. -1.
    9900012    2    1    2    0    0  0.75435896316E+01  0.78511051928E+01  0.39174216302E+02  0.50528870396E+02  0.30000032057E+02 0.  0.
         12    1    1    2    0    0 -0.75435896316E+01 -0.78511051928E+01 -0.39174216302E+02  0.40659129604E+02  0.00000000000E+00 0. -1.
         11    1    3    3    0    0  0.44016539363E+01  0.11986053474E+02  0.43636829213E+01  0.13493767604E+02  0.51100000000E-03 0.  1.
        -11    1    3    3    0    0  0.52399945182E+00  0.16336217025E+01  0.65029955501E-01  0.17168355917E+01  0.51100000000E-03 0. -1.
        -12    1    3    3    0    0  0.26179362434E+01 -0.57685699835E+01  0.34745503425E+02  0.35318267201E+02  0.00000000000E+00 0.  1.
</event>
<event>
 7    1  0.5290964E-013  0.5052889E+02  0.7816164E-02  0.1300439E+00
        -11   -1    0    0    0    0  0.00000000000E+00  0.00000000000E+00  0.45593999997E+02  0.45594000000E+02  0.51100000000E-03 0.  1.
         11   -1    0    0    0    0 -0.00000000000E+00 -0.00000000000E+00 -0.45593999997E+02  0.45594000000E+02  0.51100000000E-03 0. -1.
    9900012    2    1    2    0    0 -0.53540982844E+01  0.80953830727E+01  0.39483689546E+02  0.50528888650E+02  0.30000087542E+02 0.  0.
         12    1    1    2    0    0  0.53540982844E+01 -0.80953830727E+01 -0.39483689546E+02  0.40659111350E+02  0.00000000000E+00 0. -1.
         11    1    3    3    0    0  0.56556564454E+01  0.50043600309E+00  0.23255821182E+02  0.23938882705E+02  0.51100000000E-03 0. -1.
        -11    1    3    3    0    0 -0.90979670504E+01  0.11953631284E+02  0.15815480421E+02  0.21812650608E+02  0.51100000000E-03 0.  1.
         12    1    3    3    0    0 -0.19117876795E+01 -0.43586842142E+01  0.41238794287E+00  0.47773553380E+01  0.00000000000E+00 0. -1.
</event>
<event>
 7    1  0.5290964E-013  0.5052887E+02  0.7816164E-02  0.1300439E+00
        -11   -1    0    0    0    0  0.00000000000E+00  0.00000000000E+00  0.45593999997E+02  0.45594000000E+02  0.51100000000E-03 0. -1.
         11   -1    0    0    0    0 -0.00000000000E+00 -0.00000000000E+00 -0.45593999997E+02  0.45594000000E+02  0.51100000000E-03 0.  1.
    9900012    2    1    2    0    0  0.25528092872E+02 -0.22295777950E+02 -0.22458402432E+02  0.50528867202E+02  0.30000022347E+02 0.  0.
         12    1    1    2    0    0 -0.25528092872E+02  0.22295777950E+02  0.22458402432E+02  0.40659132798E+02  0.00000000000E+00 0. -1.
         11    1    3    3    0    0  0.82745520885E+01 -0.93326034665E+01  0.13790122960E+01  0.12548600516E+02  0.51100000000E-03 0. -1.
        -11    1    3    3    0    0  0.20806551449E+02 -0.13535336030E+02 -0.16493271338E+02  0.29801776865E+02  0.51100000000E-03 0.  1.
        -12    1    3    3    0    0 -0.35530106653E+01  0.57216154614E+00 -0.73441433901E+01  0.81784898213E+01  0.00000000000E+00 0.  1.
</event>
<event>
 7    1  0.5290964E-013  0.5052886E+02  0.7816164E-02  0.1300439E+00
        -11   -1    0    0    0    0  0.00000000000E+00  0.00000000000E+00  0.45593999997E+02  0.45594000000E+02  0.51100000000E-03 0.  1.
         11   -1    0    0    0    0 -0.00000000000E+00 -0.00000000000E+00 -0.45593999997E+02  0.45594000000E+02  0.51100000000E-03 0. -1.
    9900012    2    1    2    0    0 -0.25265615845E+02  0.12014520660E+02  0.29503650324E+02  0.50528862858E+02  0.30000009143E+02 0.  0.
         12    1    1    2    0    0  0.25265615845E+02 -0.12014520660E+02 -0.29503650324E+02  0.40659137142E+02  0.00000000000E+00 0. -1.
         11    1    3    3    0    0  0.22983911339E+01  0.39765993289E+01  0.38896029373E+01  0.60187170807E+01  0.51100000000E-03 0. -1.
        -11    1    3    3    0    0 -0.22414887289E+01  0.54381085482E+01  0.16425526695E+02  0.17446925911E+02  0.51100000000E-03 0.  1.
        -12    1    3    3    0    0 -0.25322518250E+02  0.25998127833E+01  0.91885206919E+01  0.27063219866E+02  0.00000000000E+00 0.  1.
</event>
<event>
 7    1  0.5290964E-013  0.5052886E+02  0.7816164E-02  0.1300439E+00
        -11   -1    0    0    0    0  0.00000000000E+00  0.00000000000E+00  0.45593999997E+02  0.45594000000E+02  0.51100000000E-03 0.  1.
         11   -1    0    0    0    0 -0.00000000000E+00 -0.00000000000E+00 -0.45593999997E+02  0.45594000000E+02  0.51100000000E-03 0. -1.
    9900012    2    1    2    0    0 -0.32087043948E+02  0.15770831215E+02  0.19361511865E+02  0.50528860213E+02  0.30000001103E+02 0.  0.
         12    1    1    2    0    0  0.32087043948E+02 -0.15770831215E+02 -0.19361511865E+02  0.40659139787E+02  0.00000000000E+00 0. -1.
         11    1    3    3    0    0 -0.13954756231E+01  0.13641119518E+02  0.12314746892E+02  0.18430422817E+02  0.51100000000E-03 0. -1.
        -11    1    3    3    0    0 -0.44216593893E+01  0.22528139691E+01  0.19864839772E+01  0.53453120945E+01  0.51100000000E-03 0.  1.
         12    1    3    3    0    0 -0.26269908936E+02 -0.12310227256E+00  0.50602809955E+01  0.26753125302E+02  0.00000000000E+00 0. -1.
</event>
<event>
 7    1  0.5290964E-013  0.5052885E+02  0.7816164E-02  0.1300439E+00
        -11   -1    0    0    0    0  0.00000000000E+00  0.00000000000E+00  0.45593999997E+02  0.45594000000E+02  0.51100000000E-03 0. -1.
         11   -1    0    0    0    0 -0.00000000000E+00 -0.00000000000E+00 -0.45593999997E+02  0.45594000000E+02  0.51100000000E-03 0.  1.
    9900012    2    1    2    0    0  0.12839232507E+00 -0.59489404844E+01 -0.40221391345E+02  0.50528847288E+02  0.29999961818E+02 0.  0.
         12    1    1    2    0    0 -0.12839232507E+00  0.59489404844E+01  0.40221391345E+02  0.40659152712E+02  0.00000000000E+00 0. -1.
         11    1    3    3    0    0  0.64654475490E+01  0.35581237330E+01 -0.73251181209E+01  0.10398058100E+02  0.51100000000E-03 0. -1.
        -11    1    3    3    0    0  0.56526670615E+01 -0.60759804874E+01 -0.52983301423E+01  0.98459375556E+01  0.51100000000E-03 0.  1.
        -12    1    3    3    0    0 -0.11989722285E+02 -0.34310837300E+01 -0.27597943082E+02  0.30284851633E+02  0.00000000000E+00 0.  1.
</event>
<event>
 7    1  0.5290964E-013  0.5052886E+02  0.7816164E-02  0.1300439E+00
        -11   -1    0    0    0    0  0.00000000000E+00  0.00000000000E+00  0.45593999997E+02  0.45594000000E+02  0.51100000000E-03 0.  1.
         11   -1    0    0    0    0 -0.00000000000E+00 -0.00000000000E+00 -0.45593999997E+02  0.45594000000E+02  0.51100000000E-03 0. -1.
    9900012    2    1    2    0    0 -0.33760024835E+02  0.96679800753E+01  0.20492843820E+02  0.50528858796E+02  0.29999996797E+02 0.  0.
         12    1    1    2    0    0  0.33760024835E+02 -0.96679800753E+01 -0.20492843820E+02  0.40659141204E+02  0.00000000000E+00 0. -1.
         11    1    3    3    0    0 -0.10930904831E+02  0.64119442100E+01  0.42907451386E+01  0.13379394720E+02  0.51100000000E-03 0. -1.
        -11    1    3    3    0    0 -0.17309465664E+02  0.10018361253E+02  0.15057393663E+01  0.20056231328E+02  0.51100000000E-03 0.  1.
        -12    1    3    3    0    0 -0.55196543403E+01 -0.67623253877E+01  0.14696359315E+02  0.17093232748E+02  0.00000000000E+00 0.  1.
</event>
<event>
 7    1  0.5290964E-013  0.5052886E+02  0.7816164E-02  0.1300439E+00
        -11   -1    0    0    0    0  0.00000000000E+00  0.00000000000E+00  0.45593999997E+02  0.45594000000E+02  0.51100000000E-03 0.  1.
         11   -1    0    0    0    0 -0.00000000000E+00 -0.00000000000E+00 -0.45593999997E+02  0.45594000000E+02  0.51100000000E-03 0. -1.
    9900012    2    1    2    0    0 -0.10319319109E+01 -0.27707387979E+02  0.29738887102E+02  0.50528860336E+02  0.30000001479E+02 0.  0.
         12    1    1    2    0    0  0.10319319109E+01  0.27707387979E+02 -0.29738887102E+02  0.40659139664E+02  0.00000000000E+00 0. -1.
         11    1    3    3    0    0 -0.64974764009E+00 -0.12199179359E+02 -0.21742016420E+01  0.12408436729E+02  0.51100000000E-03 0. -1.
        -11    1    3    3    0    0  0.39125482794E+01  0.29039336110E+00  0.31795474437E+01  0.50499390640E+01  0.51100000000E-03 0.  1.
        -12    1    3    3    0    0 -0.42947325502E+01 -0.15798601981E+02  0.28733541300E+02  0.33070484543E+02  0.00000000000E+00 0.  1.
</event>
<event>
 7    1  0.5290964E-013  0.5052886E+02  0.7816164E-02  0.1300439E+00
        -11   -1    0    0    0    0  0.00000000000E+00  0.00000000000E+00  0.45593999997E+02  0.45594000000E+02  0.51100000000E-03 0. -1.
         11   -1    0    0    0    0 -0.00000000000E+00 -0.00000000000E+00 -0.45593999997E+02  0.45594000000E+02  0.51100000000E-03 0.  1.
    9900012    2    1    2    0    0  0.36348068669E+02  0.15540967186E+02 -0.95111599818E+01  0.50528856855E+02  0.29999990898E+02 0.  0.
         12    1    1    2    0    0 -0.36348068669E+02 -0.15540967186E+02  0.95111599818E+01  0.40659143145E+02  0.00000000000E+00 0. -1.
         11    1    3    3    0    0  0.24801943384E+01  0.25722462174E+01  0.29862447246E+01  0.46567663002E+01  0.51100000000E-03 0. -1.
        -11    1    3    3    0    0  0.26821042100E+01 -0.51335402268E+01  0.31172404349E+01  0.65775456246E+01  0.51100000000E-03 0.  1.
        -12    1    3    3    0    0  0.31185770121E+02  0.18102261196E+02 -0.15614645141E+02  0.39294544931E+02  0.00000000000E+00 0.  1.
</event>
<event>
 7    1  0.5290964E-013  0.5052886E+02  0.7816164E-02  0.1300439E+00
        -11   -1    0    0    0    0  0.00000000000E+00  0.00000000000E+00  0.45593999997E+02  0.45594000000E+02  0.51100000000E-03 0.  1.
         11   -1    0    0    0    0 -0.00000000000E+00 -0.00000000000E+00 -0.45593999997E+02  0.45594000000E+02  0.51100000000E-03 0. -1.
    9900012    2    1    2    0    0  0.48458548341E+01  0.34099223852E+02  0.21608468924E+02  0.50528864427E+02  0.30000013911E+02 0.  0.
         12    1    1    2    0    0 -0.48458548341E+01 -0.34099223852E+02 -0.21608468924E+02  0.40659135573E+02  0.00000000000E+00 0. -1.
         11    1    3    3    0    0  0.90350836099E+01  0.81520633653E+01 -0.86471920409E+00  0.12199861168E+02  0.51100000000E-03 0. -1.
        -11    1    3    3    0    0  0.62794436345E+01  0.12337549637E+02  0.91214818669E+01  0.16578539595E+02  0.51100000000E-03 0.  1.
         12    1    3    3    0    0 -0.10468672410E+02  0.13609610849E+02  0.13351706261E+02  0.21750463663E+02  0.00000000000E+00 0. -1.
</event>
<event>
 7    1  0.5290964E-013  0.5052885E+02  0.7816164E-02  0.1300439E+00
        -11   -1    0    0    0    0  0.00000000000E+00  0.00000000000E+00  0.45593999997E+02  0.45594000000E+02  0.51100000000E-03 0.  1.
         11   -1    0    0    0    0 -0.00000000000E+00 -0.00000000000E+00 -0.45593999997E+02  0.45594000000E+02  0.51100000000E-03 0. -1.
    9900012    2    1    2    0    0  0.18400873240E+02  0.24052305614E+02  0.27130441380E+02  0.50528851082E+02  0.29999973348E+02 0.  0.
         12    1    1    2    0    0 -0.18400873240E+02 -0.24052305614E+02 -0.27130441380E+02  0.40659148918E+02  0.00000000000E+00 0. -1.
         11    1    3    3    0    0  0.77851022286E+01 -0.39474325637E+01  0.17928895817E+01  0.89109199226E+01  0.51100000000E-03 0. -1.
        -11    1    3    3    0    0  0.41650737286E+01  0.12127714035E+01  0.78946222633E+01  0.90079806052E+01  0.51100000000E-03 0.  1.
        -12    1    3    3    0    0  0.64506972824E+01  0.26786966774E+02  0.17442929535E+02  0.32609950554E+02  0.00000000000E+00 0.  1.
</event>
<event>
 7    1  0.5290964E-013  0.5052886E+02  0.7816164E-02  0.1300439E+00
        -11   -1    0    0    0    0  0.00000000000E+00  0.00000000000E+00  0.45593999997E+02  0.45594000000E+02  0.51100000000E-03 0.  1.
         11   -1    0    0    0    0 -0.00000000000E+00 -0.00000000000E+00 -0.45593999997E+02  0.45594000000E+02  0.51100000000E-03 0. -1.
    9900012    2    1    2    0    0 -0.19709700961E+02 -0.34253036358E+02 -0.95615231029E+01  0.50528861596E+02  0.30000005306E+02 0.  0.
         12    1    1    2    0    0  0.19709700961E+02  0.34253036358E+02  0.95615231029E+01  0.40659138404E+02  0.00000000000E+00 0. -1.
         11    1    3    3    0    0 -0.47007703998E+01 -0.29917662711E+01  0.86182727864E+01  0.10262676739E+02  0.51100000000E-03 0. -1.
        -11    1    3    3    0    0 -0.11247933787E+02 -0.17286518501E+02 -0.63642244397E+01  0.21583398466E+02  0.51100000000E-03 0.  1.
        -12    1    3    3    0    0 -0.37609967741E+01 -0.13974751586E+02 -0.11815571450E+02  0.18682786391E+02  0.00000000000E+00 0.  1.
</event>
<event>
 7    1  0.5290964E-013  0.5052886E+02  0.7816164E-02  0.1300439E+00
        -11   -1    0    0    0    0  0.00000000000E+00  0.00000000000E+00  0.45593999997E+02  0.45594000000E+02  0.51100000000E-03 0. -1.
         11   -1    0    0    0    0 -0.00000000000E+00 -0.00000000000E+00 -0.45593999997E+02  0.45594000000E+02  0.51100000000E-03 0.  1.
    9900012    2    1    2    0    0 -0.38600146745E+02  0.10321440892E+02 -0.75274457479E+01  0.50528856990E+02  0.29999991308E+02 0.  0.
         12    1    1    2    0    0  0.38600146745E+02 -0.10321440892E+02  0.75274457479E+01  0.40659143010E+02  0.00000000000E+00 0. -1.
         11    1    3    3    0    0 -0.42945209430E+01  0.34288399435E+01 -0.10212734905E+02  0.11597405227E+02  0.51100000000E-03 0. -1.
        -11    1    3    3    0    0 -0.14507636329E+02  0.57710424867E+01 -0.67032476343E+01  0.16991467633E+02  0.51100000000E-03 0.  1.
         12    1    3    3    0    0 -0.19797989473E+02  0.11215584618E+01  0.93885367915E+01  0.21939984130E+02  0.00000000000E+00 0. -1.
</event>
<event>
 7    1  0.5290964E-013  0.5052885E+02  0.7816164E-02  0.1300439E+00
        -11   -1    0    0    0    0  0.00000000000E+00  0.00000000000E+00  0.45593999997E+02  0.45594000000E+02  0.51100000000E-03 0.  1.
         11   -1    0    0    0    0 -0.00000000000E+00 -0.00000000000E+00 -0.45593999997E+02  0.45594000000E+02  0.51100000000E-03 0. -1.
    9900012    2    1    2    0    0  0.18800433099E+02 -0.35304279629E+02  0.73019368659E+01  0.50528846949E+02  0.29999960786E+02 0.  0.
         12    1    1    2    0    0 -0.18800433099E+02  0.35304279629E+02 -0.73019368659E+01  0.40659153051E+02  0.00000000000E+00 0. -1.
         11    1    3    3    0    0  0.55100753392E+01 -0.23833338470E+02 -0.13985942975E+01  0.24501939089E+02  0.51100000000E-03 0. -1.
        -11    1    3    3    0    0  0.90500047895E+01 -0.11186455869E+02 -0.19869834203E+01  0.14525408255E+02  0.51100000000E-03 0.  1.
        -12    1    3    3    0    0  0.42403529700E+01 -0.28448529066E+00  0.10687514584E+02  0.11501499605E+02  0.00000000000E+00 0.  1.
</event>
<event>
 7    1  0.5290964E-013  0.5052886E+02  0.7816164E-02  0.1300439E+00
        -11   -1    0    0    0    0  0.00000000000E+00  0.00000000000E+00  0.45593999997E+02  0.45594000000E+02  0.51100000000E-03 0.  1.
         11   -1    0    0    0    0 -0.00000000000E+00 -0.00000000000E+00 -0.45593999997E+02  0.45594000000E+02  0.51100000000E-03 0. -1.
    9900012    2    1    2    0    0 -0.31633879888E+02  0.29675729985E+01  0.25370393101E+02  0.50528859670E+02  0.29999999454E+02 0.  0.
         12    1    1    2    0    0  0.31633879888E+02 -0.29675729985E+01 -0.25370393101E+02  0.40659140330E+02  0.00000000000E+00 0. -1.
         11    1    3    3    0    0 -0.81816018943E+01  0.14550040598E+01  0.22098639897E+02  0.23609437349E+02  0.51100000000E-03 0. -1.
        -11    1    3    3    0    0 -0.11810109821E+02 -0.19946229314E+01  0.73997464884E+01  0.14078830312E+02  0.51100000000E-03 0.  1.
         12    1    3    3    0    0 -0.11642168173E+02  0.35071918701E+01 -0.41279932848E+01  0.12840592009E+02  0.00000000000E+00 0. -1.
</event>
<event>
 7    1  0.5290964E-013  0.5052887E+02  0.7816164E-02  0.1300439E+00
        -11   -1    0    0    0    0  0.00000000000E+00  0.00000000000E+00  0.45593999997E+02  0.45594000000E+02  0.51100000000E-03 0. -1.
         11   -1    0    0    0    0 -0.00000000000E+00 -0.00000000000E+00 -0.45593999997E+02  0.45594000000E+02  0.51100000000E-03 0.  1.
    9900012    2    1    2    0    0 -0.19431982097E+02 -0.25152471146E+02  0.25355793434E+02  0.50528868263E+02  0.30000025571E+02 0.  0.
         12    1    1    2    0    0  0.19431982097E+02  0.25152471146E+02 -0.25355793434E+02  0.40659131737E+02  0.00000000000E+00 0. -1.
         11    1    3    3    0    0 -0.46735993044E+01  0.87848248765E+00  0.41245867983E+01  0.62949565890E+01  0.51100000000E-03 0. -1.
        -11    1    3    3    0    0 -0.19993900192E+02 -0.17068169667E+02  0.21330358324E+02  0.33853547039E+02  0.51100000000E-03 0.  1.
         12    1    3    3    0    0  0.52355173999E+01 -0.89627839671E+01 -0.99151687996E-01  0.10380364634E+02  0.00000000000E+00 0. -1.
</event>
<event>
 7    1  0.5290964E-013  0.5052887E+02  0.7816164E-02  0.1300439E+00
        -11   -1    0    0    0    0  0.00000000000E+00  0.00000000000E+00  0.45593999997E+02  0.45594000000E+02  0.51100000000E-03 0. -1.
         11   -1    0    0    0    0 -0.00000000000E+00 -0.00000000000E+00 -0.45593999997E+02  0.45594000000E+02  0.51100000000E-03 0.  1.
    9900012    2    1    2    0    0 -0.23959117615E+00  0.33670925198E+02  0.22789823599E+02  0.50528872276E+02  0.30000037769E+02 0.  0.
         12    1    1    2    0    0  0.23959117615E+00 -0.33670925198E+02 -0.22789823599E+02  0.40659127724E+02  0.00000000000E+00 0. -1.
         11    1    3    3    0    0  0.13592798878E+02  0.24639846352E+02  0.12485860755E+02  0.30786083360E+02  0.51100000000E-03 0. -1.
        -11    1    3    3    0    0 -0.27931272997E+01  0.27300646092E+01  0.11264256951E+01  0.40649290265E+01  0.51100000000E-03 0.  1.
         12    1    3    3    0    0 -0.11039262755E+02  0.63010142365E+01  0.91775371496E+01  0.15677859889E+02  0.00000000000E+00 0. -1.
</event>
<event>
 7    1  0.5290964E-013  0.5052886E+02  0.7816164E-02  0.1300439E+00
        -11   -1    0    0    0    0  0.00000000000E+00  0.00000000000E+00  0.45593999997E+02  0.45594000000E+02  0.51100000000E-03 0. -1.
         11   -1    0    0    0    0 -0.00000000000E+00 -0.00000000000E+00 -0.45593999997E+02  0.45594000000E+02  0.51100000000E-03 0.  1.
    9900012    2    1    2    0    0 -0.36160439346E+02 -0.18165973036E+02  0.39479076652E+01  0.50528856809E+02  0.29999990758E+02 0.  0.
         12    1    1    2    0    0  0.36160439346E+02  0.18165973036E+02 -0.39479076652E+01  0.40659143191E+02  0.00000000000E+00 0. -1.
         11    1    3    3    0    0 -0.30831036074E+01  0.55991087255E+01 -0.31179667394E+01  0.71117693455E+01  0.51100000000E-03 0. -1.
        -11    1    3    3    0    0 -0.36152297725E+00  0.65818700304E+00 -0.15217748587E+01  0.16969702342E+01  0.51100000000E-03 0.  1.
        -12    1    3    3    0    0 -0.32715812761E+02 -0.24423268765E+02  0.85876492633E+01  0.41720117230E+02  0.00000000000E+00 0.  1.
</event>
<event>
 7    1  0.5290964E-013  0.5052887E+02  0.7816164E-02  0.1300439E+00
        -11   -1    0    0    0    0  0.00000000000E+00  0.00000000000E+00  0.45593999997E+02  0.45594000000E+02  0.51100000000E-03 0.  1.
         11   -1    0    0    0    0 -0.00000000000E+00 -0.00000000000E+00 -0.45593999997E+02  0.45594000000E+02  0.51100000000E-03 0. -1.
    9900012    2    1    2    0    0 -0.26080035198E+02 -0.16152109844E+02  0.26685317138E+02  0.50528867704E+02  0.30000023872E+02 0.  0.
         12    1    1    2    0    0  0.26080035198E+02  0.16152109844E+02 -0.26685317138E+02  0.40659132296E+02  0.00000000000E+00 0. -1.
         11    1    3    3    0    0 -0.78956095353E+01 -0.46756894568E+01 -0.76255933642E+00  0.92078346441E+01  0.51100000000E-03 0. -1.
        -11    1    3    3    0    0  0.10960633175E+01 -0.81833845257E+01  0.84238784728E+00  0.82993225409E+01  0.51100000000E-03 0.  1.
        -12    1    3    3    0    0 -0.19280488980E+02 -0.32930358617E+01  0.26605488627E+02  0.33021710519E+02  0.00000000000E+00 0.  1.
</event>
<event>
 7    1  0.5290964E-013  0.5052886E+02  0.7816164E-02  0.1300439E+00
        -11   -1    0    0    0    0  0.00000000000E+00  0.00000000000E+00  0.45593999997E+02  0.45594000000E+02  0.51100000000E-03 0.  1.
         11   -1    0    0    0    0 -0.00000000000E+00 -0.00000000000E+00 -0.45593999997E+02  0.45594000000E+02  0.51100000000E-03 0. -1.
    9900012    2    1    2    0    0 -0.62221820019E+01 -0.15977963913E+02  0.36866718657E+02  0.50528858049E+02  0.29999994526E+02 0.  0.
         12    1    1    2    0    0  0.62221820019E+01  0.15977963913E+02 -0.36866718657E+02  0.40659141951E+02  0.00000000000E+00 0. -1.
         11    1    3    3    0    0 -0.19997121112E+01 -0.13608491675E+02  0.20986766502E+02  0.25092514076E+02  0.51100000000E-03 0. -1.
        -11    1    3    3    0    0 -0.99612392190E+01 -0.11425279051E+01  0.16732157005E+02  0.19506325515E+02  0.51100000000E-03 0.  1.
        -12    1    3    3    0    0  0.57387693283E+01 -0.12269443324E+01 -0.85220485033E+00  0.59300184574E+01  0.00000000000E+00 0.  1.
</event>
<event>
 7    1  0.5290964E-013  0.5052886E+02  0.7816164E-02  0.1300439E+00
        -11   -1    0    0    0    0  0.00000000000E+00  0.00000000000E+00  0.45593999997E+02  0.45594000000E+02  0.51100000000E-03 0.  1.
         11   -1    0    0    0    0 -0.00000000000E+00 -0.00000000000E+00 -0.45593999997E+02  0.45594000000E+02  0.51100000000E-03 0. -1.
    9900012    2    1    2    0    0  0.30049202999E+02  0.12414530383E+02  0.24414961697E+02  0.50528861787E+02  0.30000005889E+02 0.  0.
         12    1    1    2    0    0 -0.30049202999E+02 -0.12414530383E+02 -0.24414961697E+02  0.40659138213E+02  0.00000000000E+00 0. -1.
         11    1    3    3    0    0 -0.19223626656E+01 -0.34192907443E+01 -0.12700744277E+01  0.41231197806E+01  0.51100000000E-03 0. -1.
        -11    1    3    3    0    0  0.38613309401E+01 -0.12842951036E+01  0.81601616912E+01  0.91185267248E+01  0.51100000000E-03 0.  1.
         12    1    3    3    0    0  0.28110234725E+02  0.17118116231E+02  0.17524874433E+02  0.37287215282E+02  0.00000000000E+00 0. -1.
</event>
<event>
 7    1  0.5290964E-013  0.5052887E+02  0.7816164E-02  0.1300439E+00
        -11   -1    0    0    0    0  0.00000000000E+00  0.00000000000E+00  0.45593999997E+02  0.45594000000E+02  0.51100000000E-03 0. -1.
         11   -1    0    0    0    0 -0.00000000000E+00 -0.00000000000E+00 -0.45593999997E+02  0.45594000000E+02  0.51100000000E-03 0.  1.
    9900012    2    1    2    0    0  0.38976119362E+02  0.97939357006E+01  0.61730084864E+01  0.50528867068E+02  0.30000021940E+02 0.  0.
         12    1    1    2    0    0 -0.38976119362E+02 -0.97939357006E+01 -0.61730084864E+01  0.40659132932E+02  0.00000000000E+00 0. -1.
         11    1    3    3    0    0  0.30133147152E+02  0.32128837773E+01  0.10210630432E+02  0.31977901018E+02  0.51100000000E-03 0. -1.
        -11    1    3    3    0    0  0.10475428011E+02  0.21647775759E+01  0.20127190543E+01  0.10884479419E+02  0.51100000000E-03 0.  1.
        -12    1    3    3    0    0 -0.16324558013E+01  0.44162743473E+01 -0.60503409996E+01  0.76664866311E+01  0.00000000000E+00 0.  1.
</event>
<event>
 7    1  0.5290964E-013  0.5052880E+02  0.7816164E-02  0.1300439E+00
        -11   -1    0    0    0    0  0.00000000000E+00  0.00000000000E+00  0.45593999997E+02  0.45594000000E+02  0.51100000000E-03 0.  1.
         11   -1    0    0    0    0 -0.00000000000E+00 -0.00000000000E+00 -0.45593999997E+02  0.45594000000E+02  0.51100000000E-03 0. -1.
    9900012    2    1    2    0    0  0.18775549992E+02 -0.20642490403E+02  0.29572571960E+02  0.50528798091E+02  0.29999812277E+02 0.  0.
         12    1    1    2    0    0 -0.18775549992E+02  0.20642490403E+02 -0.29572571960E+02  0.40659201909E+02  0.00000000000E+00 0. -1.
         11    1    3    3    0    0  0.11349192281E+02 -0.18996703962E+01  0.12801745294E+01  0.11578072384E+02  0.51100000000E-03 0.  1.
        -11    1    3    3    0    0  0.12834101962E+02 -0.93275203083E+01  0.17931177458E+02  0.23942513101E+02  0.51100000000E-03 0. -1.
         12    1    3    3    0    0 -0.54077442520E+01 -0.94152996980E+01  0.10361219973E+02  0.15008212606E+02  0.00000000000E+00 0. -1.
</event>
<event>
 7    1  0.5290964E-013  0.5052888E+02  0.7816164E-02  0.1300439E+00
        -11   -1    0    0    0    0  0.00000000000E+00  0.00000000000E+00  0.45593999997E+02  0.45594000000E+02  0.51100000000E-03 0.  1.
         11   -1    0    0    0    0 -0.00000000000E+00 -0.00000000000E+00 -0.45593999997E+02  0.45594000000E+02  0.51100000000E-03 0. -1.
    9900012    2    1    2    0    0 -0.24898955214E+02  0.26795397275E+02  0.17754235345E+02  0.50528878532E+02  0.30000056785E+02 0.  0.
         12    1    1    2    0    0  0.24898955214E+02 -0.26795397275E+02 -0.17754235345E+02  0.40659121468E+02  0.00000000000E+00 0. -1.
         11    1    3    3    0    0 -0.10488890724E+02 -0.30479402943E+01  0.34488576065E+00  0.10928207314E+02  0.51100000000E-03 0. -1.
        -11    1    3    3    0    0  0.25764117500E+00  0.93424894467E+00 -0.17097828985E+01  0.19653391276E+01  0.51100000000E-03 0.  1.
        -12    1    3    3    0    0 -0.14667705665E+02  0.28909088625E+02  0.19119132483E+02  0.37635332090E+02  0.00000000000E+00 0.  1.
</event>
<event>
 7    1  0.5290964E-013  0.5052882E+02  0.7816164E-02  0.1300439E+00
        -11   -1    0    0    0    0  0.00000000000E+00  0.00000000000E+00  0.45593999997E+02  0.45594000000E+02  0.51100000000E-03 0.  1.
         11   -1    0    0    0    0 -0.00000000000E+00 -0.00000000000E+00 -0.45593999997E+02  0.45594000000E+02  0.51100000000E-03 0. -1.
    9900012    2    1    2    0    0  0.39251592588E+00 -0.69318084718E+01  0.40062012482E+02  0.50528820452E+02  0.29999880245E+02 0.  0.
         12    1    1    2    0    0 -0.39251592588E+00  0.69318084718E+01 -0.40062012482E+02  0.40659179548E+02  0.00000000000E+00 0. -1.
         11    1    3    3    0    0  0.64721742052E+01  0.83075378494E+00  0.12431683517E+02  0.14040154776E+02  0.51100000000E-03 0. -1.
        -11    1    3    3    0    0  0.71467498651E+01  0.14143650310E+01  0.12077183460E+02  0.14104425641E+02  0.51100000000E-03 0.  1.
        -12    1    3    3    0    0 -0.13226408144E+02 -0.91769272878E+01  0.15553145505E+02  0.22384240035E+02  0.00000000000E+00 0.  1.
</event>
<event>
 7    1  0.5290964E-013  0.5052877E+02  0.7816164E-02  0.1300439E+00
        -11   -1    0    0    0    0  0.00000000000E+00  0.00000000000E+00  0.45593999997E+02  0.45594000000E+02  0.51100000000E-03 0.  1.
         11   -1    0    0    0    0 -0.00000000000E+00 -0.00000000000E+00 -0.45593999997E+02  0.45594000000E+02  0.51100000000E-03 0. -1.
    9900012    2    1    2    0    0  0.34779334864E+02  0.19713603285E+02  0.74124726384E+01  0.50528769329E+02  0.29999724853E+02 0.  0.
         12    1    1    2    0    0 -0.34779334864E+02 -0.19713603285E+02 -0.74124726384E+01  0.40659230671E+02  0.00000000000E+00 0. -1.
         11    1    3    3    0    0  0.56433164205E+01 -0.25934492481E+01  0.82220892690E+01  0.10304161850E+02  0.51100000000E-03 0. -1.
        -11    1    3    3    0    0  0.11075014416E+02 -0.44821663813E+00  0.91474757392E+00  0.11121762713E+02  0.51100000000E-03 0.  1.
         12    1    3    3    0    0  0.18061004028E+02  0.22755269172E+02 -0.17243642045E+01  0.29102844766E+02  0.00000000000E+00 0. -1.
</event>
<event>
 7    1  0.5290964E-013  0.5052886E+02  0.7816164E-02  0.1300439E+00
        -11   -1    0    0    0    0  0.00000000000E+00  0.00000000000E+00  0.45593999997E+02  0.45594000000E+02  0.51100000000E-03 0.  1.
         11   -1    0    0    0    0 -0.00000000000E+00 -0.00000000000E+00 -0.45593999997E+02  0.45594000000E+02  0.51100000000E-03 0. -1.
    9900012    2    1    2    0    0 -0.24397330759E+02 -0.31100517360E+02  0.95233166524E+01  0.50528862180E+02  0.30000007081E+02 0.  0.
         12    1    1    2    0    0  0.24397330759E+02  0.31100517360E+02 -0.95233166524E+01  0.40659137820E+02  0.00000000000E+00 0. -1.
         11    1    3    3    0    0 -0.14800408278E+01 -0.83218071784E+01  0.94414918738E+01  0.12672204411E+02  0.51100000000E-03 0. -1.
        -11    1    3    3    0    0 -0.71774999098E+01 -0.67889770258E+01  0.93297566471E+01  0.13588637657E+02  0.51100000000E-03 0.  1.
         12    1    3    3    0    0 -0.15739790021E+02 -0.15989733156E+02 -0.92479318685E+01  0.24268020112E+02  0.00000000000E+00 0. -1.
</event>
<event>
 7    1  0.5290964E-013  0.5052885E+02  0.7816164E-02  0.1300439E+00
        -11   -1    0    0    0    0  0.00000000000E+00  0.00000000000E+00  0.45593999997E+02  0.45594000000E+02  0.51100000000E-03 0.  1.
         11   -1    0    0    0    0 -0.00000000000E+00 -0.00000000000E+00 -0.45593999997E+02  0.45594000000E+02  0.51100000000E-03 0. -1.
    9900012    2    1    2    0    0 -0.45054009100E+01  0.40368224263E+02  0.18094285391E+01  0.50528853438E+02  0.29999980511E+02 0.  0.
         12    1    1    2    0    0  0.45054009100E+01 -0.40368224263E+02 -0.18094285391E+01  0.40659146562E+02  0.00000000000E+00 0. -1.
         11    1    3    3    0    0 -0.42971493697E+00  0.15789350018E+01  0.79756902533E+01  0.81418257132E+01  0.51100000000E-03 0. -1.
        -11    1    3    3    0    0  0.23024726204E+01  0.51252818946E+01  0.37052410359E+01  0.67304313430E+01  0.51100000000E-03 0.  1.
        -12    1    3    3    0    0 -0.63781585934E+01  0.33664007366E+02 -0.98715027502E+01  0.35656596382E+02  0.00000000000E+00 0.  1.
</event>
<event>
 7    1  0.5290964E-013  0.5052883E+02  0.7816164E-02  0.1300439E+00
        -11   -1    0    0    0    0  0.00000000000E+00  0.00000000000E+00  0.45593999997E+02  0.45594000000E+02  0.51100000000E-03 0. -1.
         11   -1    0    0    0    0 -0.00000000000E+00 -0.00000000000E+00 -0.45593999997E+02  0.45594000000E+02  0.51100000000E-03 0.  1.
    9900012    2    1    2    0    0  0.20821664093E+02  0.22307721046E+02 -0.26869902228E+02  0.50528834249E+02  0.29999922182E+02 0.  0.
         12    1    1    2    0    0 -0.20821664093E+02 -0.22307721046E+02  0.26869902228E+02  0.40659165751E+02  0.00000000000E+00 0. -1.
         11    1    3    3    0    0  0.93106740849E+01 -0.20001645964E-01 -0.19932693578E+01  0.95216687075E+01  0.51100000000E-03 0. -1.
        -11    1    3    3    0    0  0.13442958097E+02  0.42274785668E+01 -0.81102522869E+01  0.16259178634E+02  0.51100000000E-03 0.  1.
        -12    1    3    3    0    0 -0.19319680892E+01  0.18100244125E+02 -0.16766380584E+02  0.24747986907E+02  0.00000000000E+00 0.  1.
</event>
<event>
 7    1  0.5290964E-013  0.5052886E+02  0.7816164E-02  0.1300439E+00
        -11   -1    0    0    0    0  0.00000000000E+00  0.00000000000E+00  0.45593999997E+02  0.45594000000E+02  0.51100000000E-03 0.  1.
         11   -1    0    0    0    0 -0.00000000000E+00 -0.00000000000E+00 -0.45593999997E+02  0.45594000000E+02  0.51100000000E-03 0. -1.
    9900012    2    1    2    0    0  0.29391142124E+02  0.55661610624E+01  0.27538050284E+02  0.50528860834E+02  0.30000002991E+02 0.  0.
         12    1    1    2    0    0 -0.29391142124E+02 -0.55661610624E+01 -0.27538050284E+02  0.40659139166E+02  0.00000000000E+00 0. -1.
         11    1    3    3    0    0  0.98869798492E+01  0.75530162714E+01  0.10692014840E+02  0.16404865343E+02  0.51100000000E-03 0. -1.
        -11    1    3    3    0    0  0.93136493999E+00  0.50661028664E+01  0.12870846175E+02  0.13863315636E+02  0.51100000000E-03 0.  1.
         12    1    3    3    0    0  0.18572797334E+02 -0.70529580754E+01  0.39751892683E+01  0.20260679854E+02  0.00000000000E+00 0. -1.
</event>
<event>
 7    1  0.5290964E-013  0.5052886E+02  0.7816164E-02  0.1300439E+00
        -11   -1    0    0    0    0  0.00000000000E+00  0.00000000000E+00  0.45593999997E+02  0.45594000000E+02  0.51100000000E-03 0. -1.
         11   -1    0    0    0    0 -0.00000000000E+00 -0.00000000000E+00 -0.45593999997E+02  0.45594000000E+02  0.51100000000E-03 0.  1.
    9900012    2    1    2    0    0 -0.11544823112E+01  0.37600174189E+02  0.15429195132E+02  0.50528855999E+02  0.29999988294E+02 0.  0.
         12    1    1    2    0    0  0.11544823112E+01 -0.37600174189E+02 -0.15429195132E+02  0.40659144001E+02  0.00000000000E+00 0. -1.
         11    1    3    3    0    0 -0.59229545721E+01  0.14911912636E+02  0.21380536056E+01  0.16186963978E+02  0.51100000000E-03 0. -1.
        -11    1    3    3    0    0  0.39601315038E+00  0.19437854013E+02 -0.56812751520E+00  0.19450186739E+02  0.51100000000E-03 0.  1.
         12    1    3    3    0    0  0.43724591105E+01  0.32504075402E+01  0.13859269041E+02  0.14891705282E+02  0.00000000000E+00 0. -1.
</event>
<event>
 7    1  0.5290964E-013  0.5052886E+02  0.7816164E-02  0.1300439E+00
        -11   -1    0    0    0    0  0.00000000000E+00  0.00000000000E+00  0.45593999997E+02  0.45594000000E+02  0.51100000000E-03 0.  1.
         11   -1    0    0    0    0 -0.00000000000E+00 -0.00000000000E+00 -0.45593999997E+02  0.45594000000E+02  0.51100000000E-03 0. -1.
    9900012    2    1    2    0    0  0.21139726018E+02 -0.30317554369E+02  0.16944730665E+02  0.50528855687E+02  0.29999987345E+02 0.  0.
         12    1    1    2    0    0 -0.21139726018E+02  0.30317554369E+02 -0.16944730665E+02  0.40659144313E+02  0.00000000000E+00 0. -1.
         11    1    3    3    0    0  0.14302094113E+01 -0.24029407001E+01 -0.25058768299E+01  0.37548690944E+01  0.51100000000E-03 0. -1.
        -11    1    3    3    0    0 -0.45233746320E+01 -0.12037711540E+02  0.21715597676E+01  0.13041590749E+02  0.51100000000E-03 0.  1.
        -12    1    3    3    0    0  0.24232891238E+02 -0.15876902128E+02  0.17279047727E+02  0.33732395843E+02  0.00000000000E+00 0.  1.
</event>
<event>
 7    1  0.5290964E-013  0.5052886E+02  0.7816164E-02  0.1300439E+00
        -11   -1    0    0    0    0  0.00000000000E+00  0.00000000000E+00  0.45593999997E+02  0.45594000000E+02  0.51100000000E-03 0.  1.
         11   -1    0    0    0    0 -0.00000000000E+00 -0.00000000000E+00 -0.45593999997E+02  0.45594000000E+02  0.51100000000E-03 0. -1.
    9900012    2    1    2    0    0  0.31723628384E+02  0.31155694244E+01  0.25240253247E+02  0.50528858904E+02  0.29999997124E+02 0.  0.
         12    1    1    2    0    0 -0.31723628384E+02 -0.31155694244E+01 -0.25240253247E+02  0.40659141096E+02  0.00000000000E+00 0. -1.
         11    1    3    3    0    0  0.95236817374E+01 -0.67410606958E+01  0.74745617571E+01  0.13856820951E+02  0.51100000000E-03 0. -1.
        -11    1    3    3    0    0  0.24908935159E+02  0.10378123605E+02  0.19606720236E+02  0.33355419034E+02  0.51100000000E-03 0.  1.
        -12    1    3    3    0    0 -0.27089885119E+01 -0.52149348445E+00 -0.18410287452E+01  0.33166189188E+01  0.00000000000E+00 0.  1.
</event>
<event>
 7    1  0.5290964E-013  0.5052886E+02  0.7816164E-02  0.1300439E+00
        -11   -1    0    0    0    0  0.00000000000E+00  0.00000000000E+00  0.45593999997E+02  0.45594000000E+02  0.51100000000E-03 0. -1.
         11   -1    0    0    0    0 -0.00000000000E+00 -0.00000000000E+00 -0.45593999997E+02  0.45594000000E+02  0.51100000000E-03 0.  1.
    9900012    2    1    2    0    0  0.23000389739E+02  0.29637689802E+02 -0.15676574479E+02  0.50528861146E+02  0.30000003940E+02 0.  0.
         12    1    1    2    0    0 -0.23000389739E+02 -0.29637689802E+02  0.15676574479E+02  0.40659138854E+02  0.00000000000E+00 0. -1.
         11    1    3    3    0    0 -0.39469582405E+01  0.46367132822E+01  0.19701280012E+01  0.63999214070E+01  0.51100000000E-03 0. -1.
        -11    1    3    3    0    0 -0.81137927249E+00  0.57548671561E+01 -0.61160235972E+01  0.84369767814E+01  0.51100000000E-03 0.  1.
        -12    1    3    3    0    0  0.27758727252E+02  0.19246109363E+02 -0.11530678883E+02  0.35691962958E+02  0.00000000000E+00 0.  1.
</event>
<event>
 7    1  0.5290964E-013  0.5052886E+02  0.7816164E-02  0.1300439E+00
        -11   -1    0    0    0    0  0.00000000000E+00  0.00000000000E+00  0.45593999997E+02  0.45594000000E+02  0.51100000000E-03 0.  1.
         11   -1    0    0    0    0 -0.00000000000E+00 -0.00000000000E+00 -0.45593999997E+02  0.45594000000E+02  0.51100000000E-03 0. -1.
    9900012    2    1    2    0    0 -0.30460274944E+02  0.12168709586E+02  0.24026232597E+02  0.50528859632E+02  0.29999999337E+02 0.  0.
         12    1    1    2    0    0  0.30460274944E+02 -0.12168709586E+02 -0.24026232597E+02  0.40659140368E+02  0.00000000000E+00 0. -1.
         11    1    3    3    0    0 -0.18140218109E+02 -0.38454514694E+01  0.10193625926E+02  0.21160458876E+02  0.51100000000E-03 0. -1.
        -11    1    3    3    0    0 -0.84484346302E+00 -0.14599152310E+00 -0.31520007036E+01  0.32665245596E+01  0.51100000000E-03 0.  1.
        -12    1    3    3    0    0 -0.11475213372E+02  0.16160152579E+02  0.16984607375E+02  0.26101876197E+02  0.00000000000E+00 0.  1.
</event>
<event>
 7    1  0.5290964E-013  0.5052888E+02  0.7816164E-02  0.1300439E+00
        -11   -1    0    0    0    0  0.00000000000E+00  0.00000000000E+00  0.45593999997E+02  0.45594000000E+02  0.51100000000E-03 0.  1.
         11   -1    0    0    0    0 -0.00000000000E+00 -0.00000000000E+00 -0.45593999997E+02  0.45594000000E+02  0.51100000000E-03 0. -1.
    9900012    2    1    2    0    0  0.12166378724E+02  0.35591715073E+02  0.15439330916E+02  0.50528881807E+02  0.30000066741E+02 0.  0.
         12    1    1    2    0    0 -0.12166378724E+02 -0.35591715073E+02 -0.15439330916E+02  0.40659118193E+02  0.00000000000E+00 0. -1.
         11    1    3    3    0    0 -0.20017315876E+01  0.39322851212E+01 -0.56929701321E+01  0.72027567507E+01  0.51100000000E-03 0. -1.
        -11    1    3    3    0    0  0.11643774010E+01  0.58294634999E+00 -0.20529761023E+01  0.24311133904E+01  0.51100000000E-03 0.  1.
        -12    1    3    3    0    0  0.13003732910E+02  0.31076483602E+02  0.23185277150E+02  0.40895011666E+02  0.00000000000E+00 0.  1.
</event>
<event>
 7    1  0.5290964E-013  0.5052887E+02  0.7816164E-02  0.1300439E+00
        -11   -1    0    0    0    0  0.00000000000E+00  0.00000000000E+00  0.45593999997E+02  0.45594000000E+02  0.51100000000E-03 0.  1.
         11   -1    0    0    0    0 -0.00000000000E+00 -0.00000000000E+00 -0.45593999997E+02  0.45594000000E+02  0.51100000000E-03 0. -1.
    9900012    2    1    2    0    0 -0.11529149381E+02 -0.41276696932E+01  0.38771202418E+02  0.50528867207E+02  0.30000022364E+02 0.  0.
         12    1    1    2    0    0  0.11529149381E+02  0.41276696932E+01 -0.38771202418E+02  0.40659132793E+02  0.00000000000E+00 0. -1.
         11    1    3    3    0    0 -0.10969912841E+02 -0.57335443640E+01  0.13383169624E+02  0.18229694132E+02  0.51100000000E-03 0. -1.
        -11    1    3    3    0    0 -0.31823827505E+01 -0.86957293797E+01  0.10412604033E+02  0.13934331431E+02  0.51100000000E-03 0.  1.
         12    1    3    3    0    0  0.26231462106E+01  0.10301604051E+02  0.14975428760E+02  0.18364841644E+02  0.00000000000E+00 0. -1.
</event>
<event>
 7    1  0.5290964E-013  0.5052888E+02  0.7816164E-02  0.1300439E+00
        -11   -1    0    0    0    0  0.00000000000E+00  0.00000000000E+00  0.45593999997E+02  0.45594000000E+02  0.51100000000E-03 0.  1.
         11   -1    0    0    0    0 -0.00000000000E+00 -0.00000000000E+00 -0.45593999997E+02  0.45594000000E+02  0.51100000000E-03 0. -1.
    9900012    2    1    2    0    0  0.12395635987E+02 -0.38378658056E+02  0.51566387268E+01  0.50528879145E+02  0.30000058650E+02 0.  0.
         12    1    1    2    0    0 -0.12395635987E+02  0.38378658056E+02 -0.51566387268E+01  0.40659120855E+02  0.00000000000E+00 0. -1.
         11    1    3    3    0    0  0.60650848054E+01 -0.55521803171E+01 -0.17820842740E+01  0.84135476817E+01  0.51100000000E-03 0. -1.
        -11    1    3    3    0    0  0.12516766379E+02 -0.11527971436E+02  0.99828421132E+01  0.19728677171E+02  0.51100000000E-03 0.  1.
        -12    1    3    3    0    0 -0.61862151976E+01 -0.21298506303E+02 -0.30441191124E+01  0.22386654292E+02  0.00000000000E+00 0.  1.
</event>
<event>
 7    1  0.5290964E-013  0.5052886E+02  0.7816164E-02  0.1300439E+00
        -11   -1    0    0    0    0  0.00000000000E+00  0.00000000000E+00  0.45593999997E+02  0.45594000000E+02  0.51100000000E-03 0.  1.
         11   -1    0    0    0    0 -0.00000000000E+00 -0.00000000000E+00 -0.45593999997E+02  0.45594000000E+02  0.51100000000E-03 0. -1.
    9900012    2    1    2    0    0 -0.29237258981E+02  0.55910674289E+01  0.27696359041E+02  0.50528860169E+02  0.30000000968E+02 0.  0.
         12    1    1    2    0    0  0.29237258981E+02 -0.55910674289E+01 -0.27696359041E+02  0.40659139831E+02  0.00000000000E+00 0. -1.
         11    1    3    3    0    0 -0.13287585384E+02  0.11472841483E+01 -0.12715100154E+01  0.13397496940E+02  0.51100000000E-03 0. -1.
        -11    1    3    3    0    0 -0.76313192586E+01 -0.60907507037E+01  0.11097107805E+02  0.14781071668E+02  0.51100000000E-03 0.  1.
         12    1    3    3    0    0 -0.83183543379E+01  0.10534533984E+02  0.17870761251E+02  0.22350291561E+02  0.00000000000E+00 0. -1.
</event>
<event>
 7    1  0.5290964E-013  0.5052885E+02  0.7816164E-02  0.1300439E+00
        -11   -1    0    0    0    0  0.00000000000E+00  0.00000000000E+00  0.45593999997E+02  0.45594000000E+02  0.51100000000E-03 0.  1.
         11   -1    0    0    0    0 -0.00000000000E+00 -0.00000000000E+00 -0.45593999997E+02  0.45594000000E+02  0.51100000000E-03 0. -1.
    9900012    2    1    2    0    0  0.39293288557E+02  0.89908362431E+01 -0.53262543620E+01  0.50528847925E+02  0.29999963752E+02 0.  0.
         12    1    1    2    0    0 -0.39293288557E+02 -0.89908362431E+01  0.53262543620E+01  0.40659152075E+02  0.00000000000E+00 0. -1.
         11    1    3    3    0    0 -0.61825250117E+00  0.32111150358E+01 -0.17197651845E+01  0.36947379445E+01  0.51100000000E-03 0. -1.
        -11    1    3    3    0    0  0.10382214272E+02  0.11694071759E+02  0.31925091937E+01  0.15960382286E+02  0.51100000000E-03 0.  1.
        -12    1    3    3    0    0  0.29529326786E+02 -0.59143505521E+01 -0.67989983712E+01  0.30873727694E+02  0.00000000000E+00 0.  1.
</event>
<event>
 7    1  0.5290964E-013  0.5052886E+02  0.7816164E-02  0.1300439E+00
        -11   -1    0    0    0    0  0.00000000000E+00  0.00000000000E+00  0.45593999997E+02  0.45594000000E+02  0.51100000000E-03 0. -1.
         11   -1    0    0    0    0 -0.00000000000E+00 -0.00000000000E+00 -0.45593999997E+02  0.45594000000E+02  0.51100000000E-03 0.  1.
    9900012    2    1    2    0    0 -0.16905344578E+02  0.67878340182E+01 -0.36349692760E+02  0.50528861671E+02  0.30000005534E+02 0.  0.
         12    1    1    2    0    0  0.16905344578E+02 -0.67878340182E+01  0.36349692760E+02  0.40659138329E+02  0.00000000000E+00 0. -1.
         11    1    3    3    0    0  0.55616695938E+01  0.84408101914E+01 -0.14210769830E+02  0.17439192205E+02  0.51100000000E-03 0. -1.
        -11    1    3    3    0    0  0.69909016505E+00 -0.11868918654E+01 -0.81773198991E+00  0.16019129900E+01  0.51100000000E-03 0.  1.
        -12    1    3    3    0    0 -0.23166104337E+02 -0.46608430780E+00 -0.21321190940E+02  0.31487756475E+02  0.00000000000E+00 0.  1.
</event>
<event>
 7    1  0.5290964E-013  0.5052885E+02  0.7816164E-02  0.1300439E+00
        -11   -1    0    0    0    0  0.00000000000E+00  0.00000000000E+00  0.45593999997E+02  0.45594000000E+02  0.51100000000E-03 0.  1.
         11   -1    0    0    0    0 -0.00000000000E+00 -0.00000000000E+00 -0.45593999997E+02  0.45594000000E+02  0.51100000000E-03 0. -1.
    9900012    2    1    2    0    0  0.14472664916E+02 -0.32648512828E+02  0.19436646257E+02  0.50528848049E+02  0.29999964129E+02 0.  0.
         12    1    1    2    0    0 -0.14472664916E+02  0.32648512828E+02 -0.19436646257E+02  0.40659151951E+02  0.00000000000E+00 0. -1.
         11    1    3    3    0    0  0.11511529680E+02 -0.17297412685E+02 -0.23367250107E+00  0.20779085742E+02  0.51100000000E-03 0. -1.
        -11    1    3    3    0    0  0.30152980156E+01 -0.18263058914E+02  0.13448399360E+02  0.22879921080E+02  0.51100000000E-03 0.  1.
        -12    1    3    3    0    0 -0.54162779238E-01  0.29119587710E+01  0.62219193976E+01  0.68698412267E+01  0.00000000000E+00 0.  1.
</event>
<event>
 7    1  0.5290964E-013  0.5052888E+02  0.7816164E-02  0.1300439E+00
        -11   -1    0    0    0    0  0.00000000000E+00  0.00000000000E+00  0.45593999997E+02  0.45594000000E+02  0.51100000000E-03 0.  1.
         11   -1    0    0    0    0 -0.00000000000E+00 -0.00000000000E+00 -0.45593999997E+02  0.45594000000E+02  0.51100000000E-03 0. -1.
    9900012    2    1    2    0    0  0.16337637428E+00  0.37145104134E+02  0.16534175161E+02  0.50528875548E+02  0.30000047715E+02 0.  0.
         12    1    1    2    0    0 -0.16337637428E+00 -0.37145104134E+02 -0.16534175161E+02  0.40659124452E+02  0.00000000000E+00 0. -1.
         11    1    3    3    0    0 -0.71796390383E+01  0.30643023339E+02  0.19333568842E+02  0.36936824180E+02  0.51100000000E-03 0.  1.
        -11    1    3    3    0    0  0.52280760872E+01  0.83316277853E+01 -0.29881027624E+00  0.98406345816E+01  0.51100000000E-03 0. -1.
        -12    1    3    3    0    0  0.21149393254E+01 -0.18295469901E+01 -0.25005834050E+01  0.37514167863E+01  0.00000000000E+00 0.  1.
</event>
<event>
 7    1  0.5290964E-013  0.5052886E+02  0.7816164E-02  0.1300439E+00
        -11   -1    0    0    0    0  0.00000000000E+00  0.00000000000E+00  0.45593999997E+02  0.45594000000E+02  0.51100000000E-03 0. -1.
         11   -1    0    0    0    0 -0.00000000000E+00 -0.00000000000E+00 -0.45593999997E+02  0.45594000000E+02  0.51100000000E-03 0.  1.
    9900012    2    1    2    0    0  0.82840540608E+01  0.34621089750E+02  0.19644858921E+02  0.50528857250E+02  0.29999992098E+02 0.  0.
         12    1    1    2    0    0 -0.82840540608E+01 -0.34621089750E+02 -0.19644858921E+02  0.40659142750E+02  0.00000000000E+00 0. -1.
         11    1    3    3    0    0 -0.78002350134E-01  0.15341174941E+02  0.11635185167E+02  0.19254486933E+02  0.51100000000E-03 0. -1.
        -11    1    3    3    0    0 -0.57711983374E+01  0.83645569847E+01  0.87372644404E+01  0.13401952618E+02  0.51100000000E-03 0.  1.
         12    1    3    3    0    0  0.14133254748E+02  0.10915357824E+02 -0.72759068669E+00  0.17872417699E+02  0.00000000000E+00 0. -1.
</event>
<event>
 7    1  0.5290964E-013  0.5052884E+02  0.7816164E-02  0.1300439E+00
        -11   -1    0    0    0    0  0.00000000000E+00  0.00000000000E+00  0.45593999997E+02  0.45594000000E+02  0.51100000000E-03 0.  1.
         11   -1    0    0    0    0 -0.00000000000E+00 -0.00000000000E+00 -0.45593999997E+02  0.45594000000E+02  0.51100000000E-03 0. -1.
    9900012    2    1    2    0    0  0.30599810904E+02  0.26758116172E+02  0.90664658958E+00  0.50528840927E+02  0.29999942483E+02 0.  0.
         12    1    1    2    0    0 -0.30599810904E+02 -0.26758116172E+02 -0.90664658958E+00  0.40659159073E+02  0.00000000000E+00 0. -1.
         11    1    3    3    0    0 -0.23640614925E-01  0.10043104318E+02  0.16099418994E+01  0.10171352732E+02  0.51100000000E-03 0. -1.
        -11    1    3    3    0    0  0.17579228686E+01  0.10705783755E+02 -0.72106424168E+00  0.10873087534E+02  0.51100000000E-03 0.  1.
        -12    1    3    3    0    0  0.28865528651E+02  0.60092280991E+01  0.17768931858E-01  0.29484400661E+02  0.00000000000E+00 0.  1.
</event>
<event>
 7    1  0.5290964E-013  0.5052886E+02  0.7816164E-02  0.1300439E+00
        -11   -1    0    0    0    0  0.00000000000E+00  0.00000000000E+00  0.45593999997E+02  0.45594000000E+02  0.51100000000E-03 0.  1.
         11   -1    0    0    0    0 -0.00000000000E+00 -0.00000000000E+00 -0.45593999997E+02  0.45594000000E+02  0.51100000000E-03 0. -1.
    9900012    2    1    2    0    0  0.32377318935E+02  0.73514029618E+01 -0.23469802815E+02  0.50528861407E+02  0.30000004734E+02 0.  0.
         12    1    1    2    0    0 -0.32377318935E+02 -0.73514029618E+01  0.23469802815E+02  0.40659138593E+02  0.00000000000E+00 0. -1.
         11    1    3    3    0    0  0.44823525821E+01 -0.25683999913E+01  0.11040805626E+01  0.52827225306E+01  0.51100000000E-03 0. -1.
        -11    1    3    3    0    0  0.16682397667E+02  0.35286394882E+01  0.48562796417E+00  0.17058415030E+02  0.51100000000E-03 0.  1.
        -12    1    3    3    0    0  0.11212568686E+02  0.63911634649E+01 -0.25059511342E+02  0.28187723846E+02  0.00000000000E+00 0.  1.
</event>
<event>
 7    1  0.5290964E-013  0.5052886E+02  0.7816164E-02  0.1300439E+00
        -11   -1    0    0    0    0  0.00000000000E+00  0.00000000000E+00  0.45593999997E+02  0.45594000000E+02  0.51100000000E-03 0. -1.
         11   -1    0    0    0    0 -0.00000000000E+00 -0.00000000000E+00 -0.45593999997E+02  0.45594000000E+02  0.51100000000E-03 0.  1.
    9900012    2    1    2    0    0  0.36463114639E+02 -0.17797025718E+02 -0.26215621960E+01  0.50528862750E+02  0.30000008814E+02 0.  0.
         12    1    1    2    0    0 -0.36463114639E+02  0.17797025718E+02  0.26215621960E+01  0.40659137250E+02  0.00000000000E+00 0. -1.
         11    1    3    3    0    0  0.28268139773E+01  0.30295884022E+01 -0.34922139513E+01  0.54189336305E+01  0.51100000000E-03 0. -1.
        -11    1    3    3    0    0  0.17753117428E+01  0.42164845303E+01  0.19928024992E+00  0.45793216154E+01  0.51100000000E-03 0.  1.
         12    1    3    3    0    0  0.31860988919E+02 -0.25043098650E+02  0.67137150535E+00  0.40530607504E+02  0.00000000000E+00 0. -1.
</event>
<event>
 7    1  0.5290964E-013  0.5052888E+02  0.7816164E-02  0.1300439E+00
        -11   -1    0    0    0    0  0.00000000000E+00  0.00000000000E+00  0.45593999997E+02  0.45594000000E+02  0.51100000000E-03 0.  1.
         11   -1    0    0    0    0 -0.00000000000E+00 -0.00000000000E+00 -0.45593999997E+02  0.45594000000E+02  0.51100000000E-03 0. -1.
    9900012    2    1    2    0    0  0.64712631723E+01  0.22814113383E+02  0.33027304256E+02  0.50528882413E+02  0.30000068584E+02 0.  0.
         12    1    1    2    0    0 -0.64712631723E+01 -0.22814113383E+02 -0.33027304256E+02  0.40659117587E+02  0.00000000000E+00 0. -1.
         11    1    3    3    0    0  0.73684914228E+01 -0.44005195008E+01  0.59495578048E+01  0.10443010871E+02  0.51100000000E-03 0. -1.
        -11    1    3    3    0    0 -0.53063213605E+00  0.13960377571E+02  0.60443070270E+01  0.15221936805E+02  0.51100000000E-03 0.  1.
         12    1    3    3    0    0 -0.36659611443E+00  0.13254255312E+02  0.21033439424E+02  0.24863934737E+02  0.00000000000E+00 0. -1.
</event>
<event>
 7    1  0.5290964E-013  0.5052885E+02  0.7816164E-02  0.1300439E+00
        -11   -1    0    0    0    0  0.00000000000E+00  0.00000000000E+00  0.45593999997E+02  0.45594000000E+02  0.51100000000E-03 0.  1.
         11   -1    0    0    0    0 -0.00000000000E+00 -0.00000000000E+00 -0.45593999997E+02  0.45594000000E+02  0.51100000000E-03 0. -1.
    9900012    2    1    2    0    0  0.39685534788E+01 -0.38985106834E+02 -0.10843352690E+02  0.50528852578E+02  0.29999977895E+02 0.  0.
         12    1    1    2    0    0 -0.39685534788E+01  0.38985106834E+02  0.10843352690E+02  0.40659147422E+02  0.00000000000E+00 0. -1.
         11    1    3    3    0    0  0.69011569887E+00 -0.46250757235E+01 -0.12484998403E+01  0.48400761604E+01  0.51100000000E-03 0.  1.
        -11    1    3    3    0    0  0.76848184043E+01 -0.21776887490E+01 -0.10500986601E+02  0.13193539406E+02  0.51100000000E-03 0. -1.
         12    1    3    3    0    0 -0.44063806244E+01 -0.32182342361E+02  0.90613375176E+00  0.32495237012E+02  0.00000000000E+00 0. -1.
</event>
<event>
 7    1  0.5290964E-013  0.5052887E+02  0.7816164E-02  0.1300439E+00
        -11   -1    0    0    0    0  0.00000000000E+00  0.00000000000E+00  0.45593999997E+02  0.45594000000E+02  0.51100000000E-03 0.  1.
         11   -1    0    0    0    0 -0.00000000000E+00 -0.00000000000E+00 -0.45593999997E+02  0.45594000000E+02  0.51100000000E-03 0. -1.
    9900012    2    1    2    0    0  0.16715976455E+02  0.10697906704E+01  0.37048565796E+02  0.50528873737E+02  0.30000042212E+02 0.  0.
         12    1    1    2    0    0 -0.16715976455E+02 -0.10697906704E+01 -0.37048565796E+02  0.40659126263E+02  0.00000000000E+00 0. -1.
         11    1    3    3    0    0 -0.30301587816E+01 -0.63442635217E+01  0.50428940070E+00  0.70488190454E+01  0.51100000000E-03 0. -1.
        -11    1    3    3    0    0  0.14594287410E+01  0.38251932050E+01  0.11889657921E+02  0.12574816144E+02  0.51100000000E-03 0.  1.
        -12    1    3    3    0    0  0.18286706495E+02  0.35888609871E+01  0.24654618474E+02  0.30905238548E+02  0.00000000000E+00 0.  1.
</event>
<event>
 7    1  0.5290964E-013  0.5052888E+02  0.7816164E-02  0.1300439E+00
        -11   -1    0    0    0    0  0.00000000000E+00  0.00000000000E+00  0.45593999997E+02  0.45594000000E+02  0.51100000000E-03 0. -1.
         11   -1    0    0    0    0 -0.00000000000E+00 -0.00000000000E+00 -0.45593999997E+02  0.45594000000E+02  0.51100000000E-03 0.  1.
    9900012    2    1    2    0    0  0.27828950564E+02  0.17645154691E+02 -0.23819371486E+02  0.50528875175E+02  0.30000046581E+02 0.  0.
         12    1    1    2    0    0 -0.27828950564E+02 -0.17645154691E+02  0.23819371486E+02  0.40659124825E+02  0.00000000000E+00 0. -1.
         11    1    3    3    0    0 -0.29037770204E+00  0.13371868375E+01 -0.15008313931E+02  0.15070563200E+02  0.51100000000E-03 0. -1.
        -11    1    3    3    0    0  0.68668875043E+01  0.48623854386E+01 -0.75207732564E+01  0.11285343007E+02  0.51100000000E-03 0.  1.
         12    1    3    3    0    0  0.21252440762E+02  0.11445582415E+02 -0.12902842987E+01  0.24172968968E+02  0.00000000000E+00 0. -1.
</event>
<event>
 7    1  0.5290964E-013  0.5052886E+02  0.7816164E-02  0.1300439E+00
        -11   -1    0    0    0    0  0.00000000000E+00  0.00000000000E+00  0.45593999997E+02  0.45594000000E+02  0.51100000000E-03 0.  1.
         11   -1    0    0    0    0 -0.00000000000E+00 -0.00000000000E+00 -0.45593999997E+02  0.45594000000E+02  0.51100000000E-03 0. -1.
    9900012    2    1    2    0    0  0.27279066974E+02 -0.16787007078E+02  0.25044256342E+02  0.50528857395E+02  0.29999992538E+02 0.  0.
         12    1    1    2    0    0 -0.27279066974E+02  0.16787007078E+02 -0.25044256342E+02  0.40659142605E+02  0.00000000000E+00 0. -1.
         11    1    3    3    0    0  0.10527585398E+02 -0.38493576944E+01  0.16743078459E+02  0.20148902836E+02  0.51100000000E-03 0. -1.
        -11    1    3    3    0    0  0.10428598421E+02  0.26746990256E+01  0.82037548657E+01  0.13535555920E+02  0.51100000000E-03 0.  1.
        -12    1    3    3    0    0  0.63228831551E+01 -0.15612348409E+02  0.97423017782E-01  0.16844398639E+02  0.00000000000E+00 0.  1.
</event>
<event>
 7    1  0.5290964E-013  0.5052885E+02  0.7816164E-02  0.1300439E+00
        -11   -1    0    0    0    0  0.00000000000E+00  0.00000000000E+00  0.45593999997E+02  0.45594000000E+02  0.51100000000E-03 0.  1.
         11   -1    0    0    0    0 -0.00000000000E+00 -0.00000000000E+00 -0.45593999997E+02  0.45594000000E+02  0.51100000000E-03 0. -1.
    9900012    2    1    2    0    0  0.12965559997E+02 -0.50853822847E+01  0.38199470125E+02  0.50528851253E+02  0.29999973867E+02 0.  0.
         12    1    1    2    0    0 -0.12965559997E+02  0.50853822847E+01 -0.38199470125E+02  0.40659148747E+02  0.00000000000E+00 0. -1.
         11    1    3    3    0    0  0.56470653914E+01  0.59865138527E+01  0.39022415302E+01  0.91079736970E+01  0.51100000000E-03 0. -1.
        -11    1    3    3    0    0  0.31758359465E+01  0.52443924891E+01  0.65930013886E+01  0.90031802220E+01  0.51100000000E-03 0.  1.
        -12    1    3    3    0    0  0.41426586594E+01 -0.16316288626E+02  0.27704227206E+02  0.32417697334E+02  0.00000000000E+00 0.  1.
</event>
<event>
 7    1  0.5290964E-013  0.5052886E+02  0.7816164E-02  0.1300439E+00
        -11   -1    0    0    0    0  0.00000000000E+00  0.00000000000E+00  0.45593999997E+02  0.45594000000E+02  0.51100000000E-03 0. -1.
         11   -1    0    0    0    0 -0.00000000000E+00 -0.00000000000E+00 -0.45593999997E+02  0.45594000000E+02  0.51100000000E-03 0.  1.
    9900012    2    1    2    0    0  0.10051407885E+02 -0.18135818833E+02 -0.34974664249E+02  0.50528857553E+02  0.29999993017E+02 0.  0.
         12    1    1    2    0    0 -0.10051407885E+02  0.18135818833E+02  0.34974664249E+02  0.40659142447E+02  0.00000000000E+00 0. -1.
         11    1    3    3    0    0  0.96679709353E+01  0.26348572035E+01 -0.19249327318E+02  0.21701353344E+02  0.51100000000E-03 0. -1.
        -11    1    3    3    0    0  0.20348599721E+01  0.71147697213E+00 -0.33416980707E+01  0.39766569936E+01  0.51100000000E-03 0.  1.
         12    1    3    3    0    0 -0.16514230224E+01 -0.21482153009E+02 -0.12383638860E+02  0.24850847215E+02  0.00000000000E+00 0. -1.
</event>
<event>
 7    1  0.5290964E-013  0.5052884E+02  0.7816164E-02  0.1300439E+00
        -11   -1    0    0    0    0  0.00000000000E+00  0.00000000000E+00  0.45593999997E+02  0.45594000000E+02  0.51100000000E-03 0.  1.
         11   -1    0    0    0    0 -0.00000000000E+00 -0.00000000000E+00 -0.45593999997E+02  0.45594000000E+02  0.51100000000E-03 0. -1.
    9900012    2    1    2    0    0  0.60746001863E+01 -0.85138721435E+01  0.39290976954E+02  0.50528835519E+02  0.29999926044E+02 0.  0.
         12    1    1    2    0    0 -0.60746001863E+01  0.85138721435E+01 -0.39290976954E+02  0.40659164481E+02  0.00000000000E+00 0. -1.
         11    1    3    3    0    0 -0.72868039295E+00 -0.26580574830E+01  0.80893888198E+01  0.85460199179E+01  0.51100000000E-03 0. -1.
        -11    1    3    3    0    0  0.12425337902E+02 -0.12888614005E+02  0.26052395463E+02  0.31610642236E+02  0.51100000000E-03 0.  1.
         12    1    3    3    0    0 -0.56220573222E+01  0.70327993449E+01  0.51491926704E+01  0.10372173365E+02  0.00000000000E+00 0. -1.
</event>
<event>
 7    1  0.5290964E-013  0.5052888E+02  0.7816164E-02  0.1300439E+00
        -11   -1    0    0    0    0  0.00000000000E+00  0.00000000000E+00  0.45593999997E+02  0.45594000000E+02  0.51100000000E-03 0. -1.
         11   -1    0    0    0    0 -0.00000000000E+00 -0.00000000000E+00 -0.45593999997E+02  0.45594000000E+02  0.51100000000E-03 0.  1.
    9900012    2    1    2    0    0 -0.72272721879E+01  0.37775576255E+02 -0.13188485116E+02  0.50528883380E+02  0.30000071521E+02 0.  0.
         12    1    1    2    0    0  0.72272721879E+01 -0.37775576255E+02  0.13188485116E+02  0.40659116620E+02  0.00000000000E+00 0. -1.
         11    1    3    3    0    0  0.32752562047E+01  0.26241530850E+01 -0.54186856225E+01  0.68538774979E+01  0.51100000000E-03 0.  1.
        -11    1    3    3    0    0 -0.11150360759E+02  0.19172742275E+02  0.55493251349E+01  0.22863061937E+02  0.51100000000E-03 0. -1.
         12    1    3    3    0    0  0.64783236640E+00  0.15978680895E+02 -0.13319124628E+02  0.20811943945E+02  0.00000000000E+00 0. -1.
</event>
<event>
 7    1  0.5290964E-013  0.5052886E+02  0.7816164E-02  0.1300439E+00
        -11   -1    0    0    0    0  0.00000000000E+00  0.00000000000E+00  0.45593999997E+02  0.45594000000E+02  0.51100000000E-03 0.  1.
         11   -1    0    0    0    0 -0.00000000000E+00 -0.00000000000E+00 -0.45593999997E+02  0.45594000000E+02  0.51100000000E-03 0. -1.
    9900012    2    1    2    0    0 -0.41039516288E+01 -0.22047248871E+02  0.33915218250E+02  0.50528860429E+02  0.30000001759E+02 0.  0.
         12    1    1    2    0    0  0.41039516288E+01  0.22047248871E+02 -0.33915218250E+02  0.40659139571E+02  0.00000000000E+00 0. -1.
         11    1    3    3    0    0 -0.19387968372E+01 -0.19481203525E+02  0.15348022307E+02  0.24876454992E+02  0.51100000000E-03 0. -1.
        -11    1    3    3    0    0  0.15391266692E+01 -0.55028879322E+01  0.19929751575E+02  0.20732720145E+02  0.51100000000E-03 0.  1.
         12    1    3    3    0    0 -0.37042814608E+01  0.29368425864E+01 -0.13625556323E+01  0.49196852916E+01  0.00000000000E+00 0. -1.
</event>
<event>
 7    1  0.5290964E-013  0.5052886E+02  0.7816164E-02  0.1300439E+00
        -11   -1    0    0    0    0  0.00000000000E+00  0.00000000000E+00  0.45593999997E+02  0.45594000000E+02  0.51100000000E-03 0.  1.
         11   -1    0    0    0    0 -0.00000000000E+00 -0.00000000000E+00 -0.45593999997E+02  0.45594000000E+02  0.51100000000E-03 0. -1.
    9900012    2    1    2    0    0  0.51960541068E+01  0.39790633243E+02  0.65476912208E+01  0.50528859176E+02  0.29999997953E+02 0.  0.
         12    1    1    2    0    0 -0.51960541068E+01 -0.39790633243E+02 -0.65476912208E+01  0.40659140824E+02  0.00000000000E+00 0. -1.
         11    1    3    3    0    0  0.22243187670E+01  0.35359185559E+01  0.46381224019E+01  0.62419943677E+01  0.51100000000E-03 0.  1.
        -11    1    3    3    0    0  0.49843487289E+01 -0.11063827402E+01  0.44674835586E+01  0.67842630128E+01  0.51100000000E-03 0. -1.
         12    1    3    3    0    0 -0.20126133890E+01  0.37361097428E+02 -0.25579147397E+01  0.37502601796E+02  0.00000000000E+00 0. -1.
</event>
<event>
 7    1  0.5290964E-013  0.5052884E+02  0.7816164E-02  0.1300439E+00
        -11   -1    0    0    0    0  0.00000000000E+00  0.00000000000E+00  0.45593999997E+02  0.45594000000E+02  0.51100000000E-03 0. -1.
         11   -1    0    0    0    0 -0.00000000000E+00 -0.00000000000E+00 -0.45593999997E+02  0.45594000000E+02  0.51100000000E-03 0.  1.
    9900012    2    1    2    0    0  0.36106332799E+02  0.17254303776E+02 -0.71964356282E+01  0.50528844171E+02  0.29999952342E+02 0.  0.
         12    1    1    2    0    0 -0.36106332799E+02 -0.17254303776E+02  0.71964356282E+01  0.40659155829E+02  0.00000000000E+00 0. -1.
         11    1    3    3    0    0  0.19179472971E+02 -0.14852106115E+01 -0.68636917214E+01  0.20424698243E+02  0.51100000000E-03 0.  1.
        -11    1    3    3    0    0  0.17922463314E+01  0.94320780131E+01 -0.61580485910E+01  0.11406042489E+02  0.51100000000E-03 0. -1.
         12    1    3    3    0    0  0.15134613497E+02  0.93074363741E+01  0.58253046842E+01  0.18698103439E+02  0.00000000000E+00 0. -1.
</event>
<event>
 7    1  0.5290964E-013  0.5052886E+02  0.7816164E-02  0.1300439E+00
        -11   -1    0    0    0    0  0.00000000000E+00  0.00000000000E+00  0.45593999997E+02  0.45594000000E+02  0.51100000000E-03 0.  1.
         11   -1    0    0    0    0 -0.00000000000E+00 -0.00000000000E+00 -0.45593999997E+02  0.45594000000E+02  0.51100000000E-03 0. -1.
    9900012    2    1    2    0    0 -0.36315275460E+02 -0.17609543125E+02  0.49265257069E+01  0.50528857161E+02  0.29999991828E+02 0.  0.
         12    1    1    2    0    0  0.36315275460E+02  0.17609543125E+02 -0.49265257069E+01  0.40659142839E+02  0.00000000000E+00 0. -1.
         11    1    3    3    0    0 -0.22192796764E+02 -0.78856318439E+01 -0.86573552738E+00  0.23568048626E+02  0.51100000000E-03 0. -1.
        -11    1    3    3    0    0 -0.18550916295E+02 -0.80784589298E+01  0.10406456284E+01  0.20260329159E+02  0.51100000000E-03 0.  1.
         12    1    3    3    0    0  0.44284375984E+01 -0.16454523514E+01  0.47516156059E+01  0.67004793761E+01  0.00000000000E+00 0. -1.
</event>
<event>
 7    1  0.5290964E-013  0.5052886E+02  0.7816164E-02  0.1300439E+00
        -11   -1    0    0    0    0  0.00000000000E+00  0.00000000000E+00  0.45593999997E+02  0.45594000000E+02  0.51100000000E-03 0.  1.
         11   -1    0    0    0    0 -0.00000000000E+00 -0.00000000000E+00 -0.45593999997E+02  0.45594000000E+02  0.51100000000E-03 0. -1.
    9900012    2    1    2    0    0  0.11292513882E+02  0.39057041164E+02 -0.43842756926E+00  0.50528861384E+02  0.30000004664E+02 0.  0.
         12    1    1    2    0    0 -0.11292513882E+02 -0.39057041164E+02  0.43842756926E+00  0.40659138616E+02  0.00000000000E+00 0. -1.
         11    1    3    3    0    0  0.40497978973E+00  0.96662514085E+01  0.28308414537E+01  0.10080381368E+02  0.51100000000E-03 0. -1.
        -11    1    3    3    0    0 -0.50509984326E+01  0.32411564067E+01  0.59657512105E+01  0.84621432146E+01  0.51100000000E-03 0.  1.
        -12    1    3    3    0    0  0.15938532524E+02  0.26149633349E+02 -0.92350202335E+01  0.31986336802E+02  0.00000000000E+00 0.  1.
</event>
<event>
 7    1  0.5290964E-013  0.5052886E+02  0.7816164E-02  0.1300439E+00
        -11   -1    0    0    0    0  0.00000000000E+00  0.00000000000E+00  0.45593999997E+02  0.45594000000E+02  0.51100000000E-03 0. -1.
         11   -1    0    0    0    0 -0.00000000000E+00 -0.00000000000E+00 -0.45593999997E+02  0.45594000000E+02  0.51100000000E-03 0.  1.
    9900012    2    1    2    0    0 -0.30873150733E+02 -0.23658486666E+02 -0.11844413904E+02  0.50528861196E+02  0.30000004092E+02 0.  0.
         12    1    1    2    0    0  0.30873150733E+02  0.23658486666E+02  0.11844413904E+02  0.40659138804E+02  0.00000000000E+00 0. -1.
         11    1    3    3    0    0 -0.28958910490E+02 -0.11132852554E+02 -0.23961609895E+01  0.31117527063E+02  0.51100000000E-03 0. -1.
        -11    1    3    3    0    0 -0.54571512734E+01 -0.77388043807E+01 -0.16707796837E+01  0.96156694138E+01  0.51100000000E-03 0.  1.
         12    1    3    3    0    0  0.35429110297E+01 -0.47868297312E+01 -0.77774732310E+01  0.97956647196E+01  0.00000000000E+00 0. -1.
</event>
<event>
 7    1  0.5290964E-013  0.5052885E+02  0.7816164E-02  0.1300439E+00
        -11   -1    0    0    0    0  0.00000000000E+00  0.00000000000E+00  0.45593999997E+02  0.45594000000E+02  0.51100000000E-03 0.  1.
         11   -1    0    0    0    0 -0.00000000000E+00 -0.00000000000E+00 -0.45593999997E+02  0.45594000000E+02  0.51100000000E-03 0. -1.
    9900012    2    1    2    0    0  0.34440942799E+02  0.21553575522E+02 -0.15592252382E+01  0.50528851681E+02  0.29999975170E+02 0.  0.
         12    1    1    2    0    0 -0.34440942799E+02 -0.21553575522E+02  0.15592252382E+01  0.40659148319E+02  0.00000000000E+00 0. -1.
         11    1    3    3    0    0  0.92329631216E+01 -0.70487174999E+00 -0.41948378201E+01  0.10165683292E+02  0.51100000000E-03 0. -1.
        -11    1    3    3    0    0  0.82943809411E+01 -0.35401008081E+01 -0.18035011803E+01  0.91968301983E+01  0.51100000000E-03 0.  1.
        -12    1    3    3    0    0  0.16913598737E+02  0.25798548080E+02  0.44391137622E+01  0.31166338191E+02  0.00000000000E+00 0.  1.
</event>
<event>
 7    1  0.5290964E-013  0.5052883E+02  0.7816164E-02  0.1300439E+00
        -11   -1    0    0    0    0  0.00000000000E+00  0.00000000000E+00  0.45593999997E+02  0.45594000000E+02  0.51100000000E-03 0.  1.
         11   -1    0    0    0    0 -0.00000000000E+00 -0.00000000000E+00 -0.45593999997E+02  0.45594000000E+02  0.51100000000E-03 0. -1.
    9900012    2    1    2    0    0 -0.40011608230E+02 -0.22520851245E+01  0.68678623227E+01  0.50528828668E+02  0.29999905218E+02 0.  0.
         12    1    1    2    0    0  0.40011608230E+02  0.22520851245E+01 -0.68678623227E+01  0.40659171332E+02  0.00000000000E+00 0. -1.
         11    1    3    3    0    0 -0.80455145269E+01  0.52512680236E+01  0.20242393293E+01  0.98185368045E+01  0.51100000000E-03 0. -1.
        -11    1    3    3    0    0  0.28696479895E+01  0.23391212735E+01  0.24340684467E+01  0.44306949094E+01  0.51100000000E-03 0.  1.
        -12    1    3    3    0    0 -0.34835741693E+02 -0.98424744216E+01  0.24095545467E+01  0.36279596954E+02  0.00000000000E+00 0.  1.
</event>
<event>
 7    1  0.5290964E-013  0.5052886E+02  0.7816164E-02  0.1300439E+00
        -11   -1    0    0    0    0  0.00000000000E+00  0.00000000000E+00  0.45593999997E+02  0.45594000000E+02  0.51100000000E-03 0.  1.
         11   -1    0    0    0    0 -0.00000000000E+00 -0.00000000000E+00 -0.45593999997E+02  0.45594000000E+02  0.51100000000E-03 0. -1.
    9900012    2    1    2    0    0 -0.61957875894E+01  0.36976151703E+02 -0.15733465650E+02  0.50528861790E+02  0.30000005897E+02 0.  0.
         12    1    1    2    0    0  0.61957875894E+01 -0.36976151703E+02  0.15733465650E+02  0.40659138210E+02  0.00000000000E+00 0. -1.
         11    1    3    3    0    0 -0.94544191646E+01  0.30822801685E+02 -0.18638190590E+02  0.37239942189E+02  0.51100000000E-03 0. -1.
        -11    1    3    3    0    0 -0.95484406431E-01  0.81567979551E+01 -0.40664664191E+00  0.81674862659E+01  0.51100000000E-03 0.  1.
        -12    1    3    3    0    0  0.33541159817E+01 -0.20034479373E+01  0.33113715821E+01  0.51214333356E+01  0.00000000000E+00 0.  1.
</event>
<event>
 7    1  0.5290964E-013  0.5052886E+02  0.7816164E-02  0.1300439E+00
        -11   -1    0    0    0    0  0.00000000000E+00  0.00000000000E+00  0.45593999997E+02  0.45594000000E+02  0.51100000000E-03 0. -1.
         11   -1    0    0    0    0 -0.00000000000E+00 -0.00000000000E+00 -0.45593999997E+02  0.45594000000E+02  0.51100000000E-03 0.  1.
    9900012    2    1    2    0    0 -0.12861922110E+02 -0.93260530040E+01 -0.37426749207E+02  0.50528857594E+02  0.29999993143E+02 0.  0.
         12    1    1    2    0    0  0.12861922110E+02  0.93260530040E+01  0.37426749207E+02  0.40659142406E+02  0.00000000000E+00 0. -1.
         11    1    3    3    0    0  0.19856591587E+00  0.20152557154E+01  0.18968660356E+01  0.27746684558E+01  0.51100000000E-03 0. -1.
        -11    1    3    3    0    0  0.18020350542E+01  0.11770383533E+01  0.14442376960E+01  0.25920209115E+01  0.51100000000E-03 0.  1.
        -12    1    3    3    0    0 -0.14862523080E+02 -0.12518347073E+02 -0.40767852938E+02  0.45162168227E+02  0.00000000000E+00 0.  1.
</event>
<event>
 7    1  0.5290964E-013  0.5052887E+02  0.7816164E-02  0.1300439E+00
        -11   -1    0    0    0    0  0.00000000000E+00  0.00000000000E+00  0.45593999997E+02  0.45594000000E+02  0.51100000000E-03 0.  1.
         11   -1    0    0    0    0 -0.00000000000E+00 -0.00000000000E+00 -0.45593999997E+02  0.45594000000E+02  0.51100000000E-03 0. -1.
    9900012    2    1    2    0    0  0.20049204004E+02  0.27973766457E+02  0.21648625694E+02  0.50528865905E+02  0.30000018404E+02 0.  0.
         12    1    1    2    0    0 -0.20049204004E+02 -0.27973766457E+02 -0.21648625694E+02  0.40659134095E+02  0.00000000000E+00 0. -1.
         11    1    3    3    0    0  0.48266956837E+01  0.28718108697E+01 -0.48341037313E+01  0.74103203736E+01  0.51100000000E-03 0. -1.
        -11    1    3    3    0    0  0.86929818241E+01  0.12696914235E+01  0.37859469392E+01  0.95662659273E+01  0.51100000000E-03 0.  1.
        -12    1    3    3    0    0  0.65295264962E+01  0.23832264163E+02  0.22696782486E+02  0.33552279604E+02  0.00000000000E+00 0.  1.
</event>
<event>
 7    1  0.5290964E-013  0.5052886E+02  0.7816164E-02  0.1300439E+00
        -11   -1    0    0    0    0  0.00000000000E+00  0.00000000000E+00  0.45593999997E+02  0.45594000000E+02  0.51100000000E-03 0. -1.
         11   -1    0    0    0    0 -0.00000000000E+00 -0.00000000000E+00 -0.45593999997E+02  0.45594000000E+02  0.51100000000E-03 0.  1.
    9900012    2    1    2    0    0  0.45088673260E+00 -0.38527821825E+02 -0.12983417653E+02  0.50528862191E+02  0.30000007116E+02 0.  0.
         12    1    1    2    0    0 -0.45088673260E+00  0.38527821825E+02  0.12983417653E+02  0.40659137809E+02  0.00000000000E+00 0. -1.
         11    1    3    3    0    0  0.10883331544E+02 -0.14338593083E+02 -0.10679359876E+01  0.18032821317E+02  0.51100000000E-03 0. -1.
        -11    1    3    3    0    0  0.34439552057E+01 -0.19681400641E+01 -0.84810832480E+00  0.40563149240E+01  0.51100000000E-03 0.  1.
         12    1    3    3    0    0 -0.13876400018E+02 -0.22221088678E+02 -0.11067373341E+02  0.28439725951E+02  0.00000000000E+00 0. -1.
</event>
<event>
 7    1  0.5290964E-013  0.5052886E+02  0.7816164E-02  0.1300439E+00
        -11   -1    0    0    0    0  0.00000000000E+00  0.00000000000E+00  0.45593999997E+02  0.45594000000E+02  0.51100000000E-03 0.  1.
         11   -1    0    0    0    0 -0.00000000000E+00 -0.00000000000E+00 -0.45593999997E+02  0.45594000000E+02  0.51100000000E-03 0. -1.
    9900012    2    1    2    0    0  0.60431742274E+01  0.13944474765E+02  0.37712027354E+02  0.50528864024E+02  0.30000012687E+02 0.  0.
         12    1    1    2    0    0 -0.60431742274E+01 -0.13944474765E+02 -0.37712027354E+02  0.40659135976E+02  0.00000000000E+00 0. -1.
         11    1    3    3    0    0  0.55492700571E+01  0.42643302113E+01  0.10076878178E+02  0.12268756432E+02  0.51100000000E-03 0. -1.
        -11    1    3    3    0    0  0.12539370904E+02  0.45247313291E+01  0.14799857529E+02  0.19918453740E+02  0.51100000000E-03 0.  1.
         12    1    3    3    0    0 -0.12045466734E+02  0.51554132248E+01  0.12835291646E+02  0.18341653851E+02  0.00000000000E+00 0. -1.
</event>
<event>
 7    1  0.5290964E-013  0.5052886E+02  0.7816164E-02  0.1300439E+00
        -11   -1    0    0    0    0  0.00000000000E+00  0.00000000000E+00  0.45593999997E+02  0.45594000000E+02  0.51100000000E-03 0.  1.
         11   -1    0    0    0    0 -0.00000000000E+00 -0.00000000000E+00 -0.45593999997E+02  0.45594000000E+02  0.51100000000E-03 0. -1.
    9900012    2    1    2    0    0 -0.84910888449E+01 -0.21192314466E+01  0.39706122354E+02  0.50528857312E+02  0.29999992286E+02 0.  0.
         12    1    1    2    0    0  0.84910888449E+01  0.21192314466E+01 -0.39706122354E+02  0.40659142688E+02  0.00000000000E+00 0. -1.
         11    1    3    3    0    0  0.42743634812E+01 -0.18317697935E+01  0.21878683525E+02  0.22367439657E+02  0.51100000000E-03 0. -1.
        -11    1    3    3    0    0  0.29648725077E+01 -0.45009054294E+01  0.31769590197E+01  0.62563317962E+01  0.51100000000E-03 0.  1.
         12    1    3    3    0    0 -0.15730324834E+02  0.42134437763E+01  0.14650479809E+02  0.21905085859E+02  0.00000000000E+00 0. -1.
</event>
<event>
 7    1  0.5290964E-013  0.5052886E+02  0.7816164E-02  0.1300439E+00
        -11   -1    0    0    0    0  0.00000000000E+00  0.00000000000E+00  0.45593999997E+02  0.45594000000E+02  0.51100000000E-03 0.  1.
         11   -1    0    0    0    0 -0.00000000000E+00 -0.00000000000E+00 -0.45593999997E+02  0.45594000000E+02  0.51100000000E-03 0. -1.
    9900012    2    1    2    0    0  0.20601566822E+01 -0.15202729369E+01  0.40578445973E+02  0.50528858926E+02  0.29999997190E+02 0.  0.
         12    1    1    2    0    0 -0.20601566822E+01  0.15202729369E+01 -0.40578445973E+02  0.40659141074E+02  0.00000000000E+00 0. -1.
         11    1    3    3    0    0 -0.97619816664E+01  0.57692895505E+01  0.25688337367E+02  0.28079737622E+02  0.51100000000E-03 0.  1.
        -11    1    3    3    0    0  0.41130724705E+01 -0.23114606164E+01 -0.27235787913E+00  0.47259278882E+01  0.51100000000E-03 0. -1.
        -12    1    3    3    0    0  0.77090658780E+01 -0.49781018710E+01  0.15162466485E+02  0.17723193416E+02  0.00000000000E+00 0.  1.
</event>
<event>
 7    1  0.5290964E-013  0.5052885E+02  0.7816164E-02  0.1300439E+00
        -11   -1    0    0    0    0  0.00000000000E+00  0.00000000000E+00  0.45593999997E+02  0.45594000000E+02  0.51100000000E-03 0. -1.
         11   -1    0    0    0    0 -0.00000000000E+00 -0.00000000000E+00 -0.45593999997E+02  0.45594000000E+02  0.51100000000E-03 0.  1.
    9900012    2    1    2    0    0  0.29259609143E+02 -0.60018326046E+01 -0.27586588706E+02  0.50528848530E+02  0.29999965592E+02 0.  0.
         12    1    1    2    0    0 -0.29259609143E+02  0.60018326046E+01  0.27586588706E+02  0.40659151470E+02  0.00000000000E+00 0. -1.
         11    1    3    3    0    0  0.14316150136E+02  0.82489762828E+01 -0.65895858063E+01  0.17788209741E+02  0.51100000000E-03 0. -1.
        -11    1    3    3    0    0  0.53781353891E+01  0.12547806306E+01 -0.86669309362E+00  0.55901674281E+01  0.51100000000E-03 0.  1.
        -12    1    3    3    0    0  0.95653236179E+01 -0.15505589518E+02 -0.20130309807E+02  0.27150471361E+02  0.00000000000E+00 0.  1.
</event>
<event>
 7    1  0.5290964E-013  0.5052886E+02  0.7816164E-02  0.1300439E+00
        -11   -1    0    0    0    0  0.00000000000E+00  0.00000000000E+00  0.45593999997E+02  0.45594000000E+02  0.51100000000E-03 0.  1.
         11   -1    0    0    0    0 -0.00000000000E+00 -0.00000000000E+00 -0.45593999997E+02  0.45594000000E+02  0.51100000000E-03 0. -1.
    9900012    2    1    2    0    0 -0.92055346315E+01  0.35764306809E+02  0.17009937304E+02  0.50528862325E+02  0.30000007524E+02 0.  0.
         12    1    1    2    0    0  0.92055346315E+01 -0.35764306809E+02 -0.17009937304E+02  0.40659137675E+02  0.00000000000E+00 0. -1.
         11    1    3    3    0    0 -0.14488586580E+02  0.14529655785E+02  0.45174214868E+01  0.21010405409E+02  0.51100000000E-03 0. -1.
        -11    1    3    3    0    0 -0.52704217835E+01  0.83386796123E+01  0.28596703648E+01  0.10270766199E+02  0.51100000000E-03 0.  1.
         12    1    3    3    0    0  0.10553473732E+02  0.12895971412E+02  0.96328454519E+01  0.19247690717E+02  0.00000000000E+00 0. -1.
</event>
<event>
 7    1  0.5290964E-013  0.5052886E+02  0.7816164E-02  0.1300439E+00
        -11   -1    0    0    0    0  0.00000000000E+00  0.00000000000E+00  0.45593999997E+02  0.45594000000E+02  0.51100000000E-03 0.  1.
         11   -1    0    0    0    0 -0.00000000000E+00 -0.00000000000E+00 -0.45593999997E+02  0.45594000000E+02  0.51100000000E-03 0. -1.
    9900012    2    1    2    0    0  0.38755986435E+01 -0.39731881251E+02  0.77151199863E+01  0.50528859220E+02  0.29999998084E+02 0.  0.
         12    1    1    2    0    0 -0.38755986435E+01  0.39731881251E+02 -0.77151199863E+01  0.40659140780E+02  0.00000000000E+00 0. -1.
         11    1    3    3    0    0  0.28567652170E+01  0.59179559468E+00 -0.51405156919E+00  0.29623603441E+01  0.51100000000E-03 0. -1.
        -11    1    3    3    0    0 -0.57114632056E+01 -0.69133069487E+01 -0.58333187320E+01  0.10697767646E+02  0.51100000000E-03 0.  1.
        -12    1    3    3    0    0  0.67302966321E+01 -0.33410369897E+02  0.14062490287E+02  0.36868731230E+02  0.00000000000E+00 0.  1.
</event>
<event>
 7    1  0.5290964E-013  0.5052886E+02  0.7816164E-02  0.1300439E+00
        -11   -1    0    0    0    0  0.00000000000E+00  0.00000000000E+00  0.45593999997E+02  0.45594000000E+02  0.51100000000E-03 0. -1.
         11   -1    0    0    0    0 -0.00000000000E+00 -0.00000000000E+00 -0.45593999997E+02  0.45594000000E+02  0.51100000000E-03 0.  1.
    9900012    2    1    2    0    0 -0.63623125446E+01 -0.35910346720E+02  0.17975921335E+02  0.50528858712E+02  0.29999996540E+02 0.  0.
         12    1    1    2    0    0  0.63623125446E+01  0.35910346720E+02 -0.17975921335E+02  0.40659141288E+02  0.00000000000E+00 0. -1.
         11    1    3    3    0    0 -0.87199053303E+00 -0.42523950665E+01  0.90340018385E+01  0.10022795058E+02  0.51100000000E-03 0. -1.
        -11    1    3    3    0    0 -0.11031734036E+02 -0.13150870146E+02  0.12003830839E+02  0.20946037728E+02  0.51100000000E-03 0.  1.
        -12    1    3    3    0    0  0.55414120245E+01 -0.18507081507E+02 -0.30619113421E+01  0.19560025926E+02  0.00000000000E+00 0.  1.
</event>
<event>
 7    1  0.5290964E-013  0.5052888E+02  0.7816164E-02  0.1300439E+00
        -11   -1    0    0    0    0  0.00000000000E+00  0.00000000000E+00  0.45593999997E+02  0.45594000000E+02  0.51100000000E-03 0. -1.
         11   -1    0    0    0    0 -0.00000000000E+00 -0.00000000000E+00 -0.45593999997E+02  0.45594000000E+02  0.51100000000E-03 0.  1.
    9900012    2    1    2    0    0  0.18680326778E+02  0.35512088332E+02 -0.65651374185E+01  0.50528879798E+02  0.30000060635E+02 0.  0.
         12    1    1    2    0    0 -0.18680326778E+02 -0.35512088332E+02  0.65651374185E+01  0.40659120202E+02  0.00000000000E+00 0. -1.
         11    1    3    3    0    0 -0.42633590040E+00  0.38034351537E+01 -0.44166240273E+01  0.58441808090E+01  0.51100000000E-03 0. -1.
        -11    1    3    3    0    0 -0.39499436727E+01  0.16488554753E+02  0.21718662927E+00  0.16956463758E+02  0.51100000000E-03 0.  1.
         12    1    3    3    0    0  0.23056606351E+02  0.15220098425E+02 -0.23657000205E+01  0.27728235232E+02  0.00000000000E+00 0. -1.
</event>
<event>
 7    1  0.5290964E-013  0.5052886E+02  0.7816164E-02  0.1300439E+00
        -11   -1    0    0    0    0  0.00000000000E+00  0.00000000000E+00  0.45593999997E+02  0.45594000000E+02  0.51100000000E-03 0.  1.
         11   -1    0    0    0    0 -0.00000000000E+00 -0.00000000000E+00 -0.45593999997E+02  0.45594000000E+02  0.51100000000E-03 0. -1.
    9900012    2    1    2    0    0  0.12748887744E+02  0.97778218383E+01  0.37350043070E+02  0.50528860118E+02  0.30000000813E+02 0.  0.
         12    1    1    2    0    0 -0.12748887744E+02 -0.97778218383E+01 -0.37350043070E+02  0.40659139882E+02  0.00000000000E+00 0. -1.
         11    1    3    3    0    0 -0.50813198338E+01  0.13499305647E+01  0.60010551205E+01  0.79783949891E+01  0.51100000000E-03 0. -1.
        -11    1    3    3    0    0 -0.13223229838E+01 -0.40474974547E+01  0.69750894122E+00  0.43147760896E+01  0.51100000000E-03 0.  1.
        -12    1    3    3    0    0  0.19152530562E+02  0.12475388728E+02  0.30651479009E+02  0.38235689039E+02  0.00000000000E+00 0.  1.
</event>
<event>
 7    1  0.5290964E-013  0.5052885E+02  0.7816164E-02  0.1300439E+00
        -11   -1    0    0    0    0  0.00000000000E+00  0.00000000000E+00  0.45593999997E+02  0.45594000000E+02  0.51100000000E-03 0. -1.
         11   -1    0    0    0    0 -0.00000000000E+00 -0.00000000000E+00 -0.45593999997E+02  0.45594000000E+02  0.51100000000E-03 0.  1.
    9900012    2    1    2    0    0  0.12851757073E+02 -0.13834036813E+02 -0.36008583452E+02  0.50528851994E+02  0.29999976120E+02 0.  0.
         12    1    1    2    0    0 -0.12851757073E+02  0.13834036813E+02  0.36008583452E+02  0.40659148006E+02  0.00000000000E+00 0. -1.
         11    1    3    3    0    0  0.13204826470E+02 -0.36422080269E+01 -0.14496724853E+02  0.19944627175E+02  0.51100000000E-03 0. -1.
        -11    1    3    3    0    0  0.68499910720E+01 -0.54497614476E+00 -0.15859195073E+02  0.17283907119E+02  0.51100000000E-03 0.  1.
        -12    1    3    3    0    0 -0.72030604684E+01 -0.96468526410E+01 -0.56526635257E+01  0.13300317700E+02  0.00000000000E+00 0.  1.
</event>
<event>
 7    1  0.5290964E-013  0.5052886E+02  0.7816164E-02  0.1300439E+00
        -11   -1    0    0    0    0  0.00000000000E+00  0.00000000000E+00  0.45593999997E+02  0.45594000000E+02  0.51100000000E-03 0.  1.
         11   -1    0    0    0    0 -0.00000000000E+00 -0.00000000000E+00 -0.45593999997E+02  0.45594000000E+02  0.51100000000E-03 0. -1.
    9900012    2    1    2    0    0  0.27814610235E+02  0.87012412339E+00  0.29643817549E+02  0.50528861084E+02  0.30000003751E+02 0.  0.
         12    1    1    2    0    0 -0.27814610235E+02 -0.87012412339E+00 -0.29643817549E+02  0.40659138916E+02  0.00000000000E+00 0. -1.
         11    1    3    3    0    0  0.10757625418E+02 -0.40878432799E+01  0.34460756053E+01  0.12013009808E+02  0.51100000000E-03 0. -1.
        -11    1    3    3    0    0  0.51652807040E+01 -0.64135982028E+01  0.82640568812E+00  0.82763103664E+01  0.51100000000E-03 0.  1.
         12    1    3    3    0    0  0.11891704113E+02  0.11371565606E+02  0.25371336255E+02  0.30239540910E+02  0.00000000000E+00 0. -1.
</event>
<event>
 7    1  0.5290964E-013  0.5052887E+02  0.7816164E-02  0.1300439E+00
        -11   -1    0    0    0    0  0.00000000000E+00  0.00000000000E+00  0.45593999997E+02  0.45594000000E+02  0.51100000000E-03 0. -1.
         11   -1    0    0    0    0 -0.00000000000E+00 -0.00000000000E+00 -0.45593999997E+02  0.45594000000E+02  0.51100000000E-03 0.  1.
    9900012    2    1    2    0    0 -0.15858888194E+02 -0.24898631572E+02 -0.27959239294E+02  0.50528865100E+02  0.30000015958E+02 0.  0.
         12    1    1    2    0    0  0.15858888194E+02  0.24898631572E+02  0.27959239294E+02  0.40659134900E+02  0.00000000000E+00 0. -1.
         11    1    3    3    0    0  0.65841381651E+01 -0.87183812776E+01 -0.72984722072E+01  0.13138825834E+02  0.51100000000E-03 0. -1.
        -11    1    3    3    0    0  0.59417560232E+00  0.21061716482E+00  0.13954848387E+01  0.15312682432E+01  0.51100000000E-03 0.  1.
         12    1    3    3    0    0 -0.23037201961E+02 -0.16390867460E+02 -0.22056251925E+02  0.35858771023E+02  0.00000000000E+00 0. -1.
</event>
<event>
 7    1  0.5290964E-013  0.5052886E+02  0.7816164E-02  0.1300439E+00
        -11   -1    0    0    0    0  0.00000000000E+00  0.00000000000E+00  0.45593999997E+02  0.45594000000E+02  0.51100000000E-03 0.  1.
         11   -1    0    0    0    0 -0.00000000000E+00 -0.00000000000E+00 -0.45593999997E+02  0.45594000000E+02  0.51100000000E-03 0. -1.
    9900012    2    1    2    0    0 -0.36605253632E+02 -0.86035310077E+01 -0.15466093650E+02  0.50528863363E+02  0.30000010679E+02 0.  0.
         12    1    1    2    0    0  0.36605253632E+02  0.86035310077E+01  0.15466093650E+02  0.40659136637E+02  0.00000000000E+00 0. -1.
         11    1    3    3    0    0 -0.56662695898E+01 -0.12979387371E+01 -0.11761136324E+02  0.13119282904E+02  0.51100000000E-03 0. -1.
        -11    1    3    3    0    0 -0.68000739761E+01 -0.10039318866E+01  0.74015782857E+01  0.10101101261E+02  0.51100000000E-03 0.  1.
         12    1    3    3    0    0 -0.24138910066E+02 -0.63016603840E+01 -0.11106535611E+02  0.27308479197E+02  0.00000000000E+00 0. -1.
</event>
<event>
 7    1  0.5290964E-013  0.5052886E+02  0.7816164E-02  0.1300439E+00
        -11   -1    0    0    0    0  0.00000000000E+00  0.00000000000E+00  0.45593999997E+02  0.45594000000E+02  0.51100000000E-03 0.  1.
         11   -1    0    0    0    0 -0.00000000000E+00 -0.00000000000E+00 -0.45593999997E+02  0.45594000000E+02  0.51100000000E-03 0. -1.
    9900012    2    1    2    0    0 -0.17559450177E+02 -0.19239487149E+02  0.31219764009E+02  0.50528858087E+02  0.29999994641E+02 0.  0.
         12    1    1    2    0    0  0.17559450177E+02  0.19239487149E+02 -0.31219764009E+02  0.40659141913E+02  0.00000000000E+00 0. -1.
         11    1    3    3    0    0  0.60790024707E+01 -0.41385081700E+01  0.59275116698E+01  0.94454706483E+01  0.51100000000E-03 0.  1.
        -11    1    3    3    0    0 -0.15593415824E+02 -0.49037794062E+01  0.22478219275E+02  0.27793380715E+02  0.51100000000E-03 0. -1.
         12    1    3    3    0    0 -0.80450368241E+01 -0.10197199573E+02  0.28140330647E+01  0.13290006724E+02  0.00000000000E+00 0. -1.
</event>
<event>
 7    1  0.5290964E-013  0.5052888E+02  0.7816164E-02  0.1300439E+00
        -11   -1    0    0    0    0  0.00000000000E+00  0.00000000000E+00  0.45593999997E+02  0.45594000000E+02  0.51100000000E-03 0.  1.
         11   -1    0    0    0    0 -0.00000000000E+00 -0.00000000000E+00 -0.45593999997E+02  0.45594000000E+02  0.51100000000E-03 0. -1.
    9900012    2    1    2    0    0 -0.40543186007E+01 -0.31765947508E+02  0.25052970641E+02  0.50528877305E+02  0.30000053056E+02 0.  0.
         12    1    1    2    0    0  0.40543186007E+01  0.31765947508E+02 -0.25052970641E+02  0.40659122695E+02  0.00000000000E+00 0. -1.
         11    1    3    3    0    0 -0.66594553837E+01 -0.84577568055E+01  0.16038957952E+02  0.19316577560E+02  0.51100000000E-03 0. -1.
        -11    1    3    3    0    0  0.12856122949E+01 -0.13584904136E+01  0.90313238842E+01  0.92229662549E+01  0.51100000000E-03 0.  1.
         12    1    3    3    0    0  0.13195244880E+01 -0.21949700289E+02 -0.17311195749E-01  0.21989333490E+02  0.00000000000E+00 0. -1.
</event>
<event>
 7    1  0.5290964E-013  0.5052886E+02  0.7816164E-02  0.1300439E+00
        -11   -1    0    0    0    0  0.00000000000E+00  0.00000000000E+00  0.45593999997E+02  0.45594000000E+02  0.51100000000E-03 0.  1.
         11   -1    0    0    0    0 -0.00000000000E+00 -0.00000000000E+00 -0.45593999997E+02  0.45594000000E+02  0.51100000000E-03 0. -1.
    9900012    2    1    2    0    0 -0.34062274548E+02  0.14949685748E+02 -0.16414441530E+02  0.50528861518E+02  0.30000005072E+02 0.  0.
         12    1    1    2    0    0  0.34062274548E+02 -0.14949685748E+02  0.16414441530E+02  0.40659138482E+02  0.00000000000E+00 0. -1.
         11    1    3    3    0    0 -0.71713053992E+01  0.14490579619E+02 -0.12511876102E+02  0.20443863693E+02  0.51100000000E-03 0. -1.
        -11    1    3    3    0    0 -0.11069883797E+02  0.64136518337E+01 -0.28019508363E+00  0.12796709212E+02  0.51100000000E-03 0.  1.
        -12    1    3    3    0    0 -0.15821085352E+02 -0.59545457056E+01 -0.36223703445E+01  0.17288288613E+02  0.00000000000E+00 0.  1.
</event>
<event>
 7    1  0.5290964E-013  0.5052886E+02  0.7816164E-02  0.1300439E+00
        -11   -1    0    0    0    0  0.00000000000E+00  0.00000000000E+00  0.45593999997E+02  0.45594000000E+02  0.51100000000E-03 0.  1.
         11   -1    0    0    0    0 -0.00000000000E+00 -0.00000000000E+00 -0.45593999997E+02  0.45594000000E+02  0.51100000000E-03 0. -1.
    9900012    2    1    2    0    0 -0.22306843198E+02 -0.27907375011E+02  0.19410014699E+02  0.50528861986E+02  0.30000006493E+02 0.  0.
         12    1    1    2    0    0  0.22306843198E+02  0.27907375011E+02 -0.19410014699E+02  0.40659138014E+02  0.00000000000E+00 0. -1.
         11    1    3    3    0    0 -0.31054587055E+01 -0.22683867406E+01 -0.16801959621E+01  0.41967262132E+01  0.51100000000E-03 0. -1.
        -11    1    3    3    0    0 -0.20902763263E+02 -0.89052266234E+01  0.54523367250E+01  0.23365713113E+02  0.51100000000E-03 0.  1.
         12    1    3    3    0    0  0.17013787707E+01 -0.16733761647E+02  0.15637873936E+02  0.22966422660E+02  0.00000000000E+00 0. -1.
</event>
<event>
 7    1  0.5290964E-013  0.5052887E+02  0.7816164E-02  0.1300439E+00
        -11   -1    0    0    0    0  0.00000000000E+00  0.00000000000E+00  0.45593999997E+02  0.45594000000E+02  0.51100000000E-03 0. -1.
         11   -1    0    0    0    0 -0.00000000000E+00 -0.00000000000E+00 -0.45593999997E+02  0.45594000000E+02  0.51100000000E-03 0.  1.
    9900012    2    1    2    0    0  0.18998121053E+02  0.34373139028E+02 -0.10522530808E+02  0.50528868864E+02  0.30000027398E+02 0.  0.
         12    1    1    2    0    0 -0.18998121053E+02 -0.34373139028E+02  0.10522530808E+02  0.40659131136E+02  0.00000000000E+00 0. -1.
         11    1    3    3    0    0 -0.22200342331E+01  0.20981597243E+01 -0.24375637313E+00  0.30643504459E+01  0.51100000000E-03 0.  1.
        -11    1    3    3    0    0  0.17256645985E+02  0.30301986091E+02 -0.17483833841E+02  0.39008802055E+02  0.51100000000E-03 0. -1.
         12    1    3    3    0    0  0.39615093017E+01  0.19729932120E+01  0.72050594062E+01  0.84557163628E+01  0.00000000000E+00 0. -1.
</event>
<event>
 7    1  0.5290964E-013  0.5052886E+02  0.7816164E-02  0.1300439E+00
        -11   -1    0    0    0    0  0.00000000000E+00  0.00000000000E+00  0.45593999997E+02  0.45594000000E+02  0.51100000000E-03 0.  1.
         11   -1    0    0    0    0 -0.00000000000E+00 -0.00000000000E+00 -0.45593999997E+02  0.45594000000E+02  0.51100000000E-03 0. -1.
    9900012    2    1    2    0    0 -0.35760810701E+02 -0.63344533539E+01  0.18281265771E+02  0.50528861304E+02  0.30000004420E+02 0.  0.
         12    1    1    2    0    0  0.35760810701E+02  0.63344533539E+01 -0.18281265771E+02  0.40659138696E+02  0.00000000000E+00 0. -1.
         11    1    3    3    0    0 -0.15278408244E+02 -0.90746901594E+01  0.10402081769E+02  0.20590849068E+02  0.51100000000E-03 0. -1.
        -11    1    3    3    0    0 -0.21064468534E+02 -0.20253441599E+01  0.11350529146E+02  0.24013503821E+02  0.51100000000E-03 0.  1.
        -12    1    3    3    0    0  0.58206607681E+00  0.47655809654E+01 -0.34713451439E+01  0.59245084154E+01  0.00000000000E+00 0.  1.
</event>
<event>
 7    1  0.5290964E-013  0.5052886E+02  0.7816164E-02  0.1300439E+00
        -11   -1    0    0    0    0  0.00000000000E+00  0.00000000000E+00  0.45593999997E+02  0.45594000000E+02  0.51100000000E-03 0.  1.
         11   -1    0    0    0    0 -0.00000000000E+00 -0.00000000000E+00 -0.45593999997E+02  0.45594000000E+02  0.51100000000E-03 0. -1.
    9900012    2    1    2    0    0  0.23318373683E+02 -0.19973207728E+02  0.26655022250E+02  0.50528858477E+02  0.29999995828E+02 0.  0.
         12    1    1    2    0    0 -0.23318373683E+02  0.19973207728E+02 -0.26655022250E+02  0.40659141523E+02  0.00000000000E+00 0. -1.
         11    1    3    3    0    0  0.77050343932E+01  0.20606309799E+01  0.11682706736E+02  0.14145649224E+02  0.51100000000E-03 0. -1.
        -11    1    3    3    0    0  0.11949542061E+02 -0.77991484998E+01  0.16253842577E+02  0.21628815769E+02  0.51100000000E-03 0.  1.
        -12    1    3    3    0    0  0.36637972292E+01 -0.14234690209E+02 -0.12815270629E+01  0.14754393484E+02  0.00000000000E+00 0.  1.
</event>
<event>
 7    1  0.5290964E-013  0.5052886E+02  0.7816164E-02  0.1300439E+00
        -11   -1    0    0    0    0  0.00000000000E+00  0.00000000000E+00  0.45593999997E+02  0.45594000000E+02  0.51100000000E-03 0.  1.
         11   -1    0    0    0    0 -0.00000000000E+00 -0.00000000000E+00 -0.45593999997E+02  0.45594000000E+02  0.51100000000E-03 0. -1.
    9900012    2    1    2    0    0  0.39481894366E+02 -0.89249015961E+01  0.38330005359E+01  0.50528859031E+02  0.29999997511E+02 0.  0.
         12    1    1    2    0    0 -0.39481894366E+02  0.89249015961E+01 -0.38330005359E+01  0.40659140969E+02  0.00000000000E+00 0. -1.
         11    1    3    3    0    0  0.74527833819E+00 -0.44788317165E+01 -0.63142470882E+01  0.77772160764E+01  0.51100000000E-03 0. -1.
        -11    1    3    3    0    0  0.14914498432E+02  0.27793908797E+01 -0.15431322291E+01  0.15249542107E+02  0.51100000000E-03 0.  1.
        -12    1    3    3    0    0  0.23822117596E+02 -0.72254607594E+01  0.11690379853E+02  0.27502100848E+02  0.00000000000E+00 0.  1.
</event>
<event>
 7    1  0.5290964E-013  0.5052886E+02  0.7816164E-02  0.1300439E+00
        -11   -1    0    0    0    0  0.00000000000E+00  0.00000000000E+00  0.45593999997E+02  0.45594000000E+02  0.51100000000E-03 0. -1.
         11   -1    0    0    0    0 -0.00000000000E+00 -0.00000000000E+00 -0.45593999997E+02  0.45594000000E+02  0.51100000000E-03 0.  1.
    9900012    2    1    2    0    0 -0.31936523294E+01 -0.21222842369E+02 -0.34533423059E+02  0.50528858819E+02  0.29999996866E+02 0.  0.
         12    1    1    2    0    0  0.31936523294E+01  0.21222842369E+02  0.34533423059E+02  0.40659141181E+02  0.00000000000E+00 0. -1.
         11    1    3    3    0    0 -0.47020267164E+01  0.37434073638E+01 -0.14634778826E+02  0.15820837698E+02  0.51100000000E-03 0. -1.
        -11    1    3    3    0    0 -0.38209441610E+01 -0.33060451631E+01 -0.79051491772E+01  0.93819471687E+01  0.51100000000E-03 0.  1.
         12    1    3    3    0    0  0.53293185479E+01 -0.21660204569E+02 -0.11993495056E+02  0.25326073952E+02  0.00000000000E+00 0. -1.
</event>
<event>
 7    1  0.5290964E-013  0.5052883E+02  0.7816164E-02  0.1300439E+00
        -11   -1    0    0    0    0  0.00000000000E+00  0.00000000000E+00  0.45593999997E+02  0.45594000000E+02  0.51100000000E-03 0.  1.
         11   -1    0    0    0    0 -0.00000000000E+00 -0.00000000000E+00 -0.45593999997E+02  0.45594000000E+02  0.51100000000E-03 0. -1.
    9900012    2    1    2    0    0 -0.32568897792E+02  0.61990160076E+01  0.23537358001E+02  0.50528829761E+02  0.29999908542E+02 0.  0.
         12    1    1    2    0    0  0.32568897792E+02 -0.61990160076E+01 -0.23537358001E+02  0.40659170239E+02  0.00000000000E+00 0. -1.
         11    1    3    3    0    0 -0.12035965839E+02 -0.81742483875E+01  0.27841940279E+01  0.14813323294E+02  0.51100000000E-03 0. -1.
        -11    1    3    3    0    0 -0.45377718770E+01  0.28538723097E+01  0.13815081952E+02  0.14818652110E+02  0.51100000000E-03 0.  1.
        -12    1    3    3    0    0 -0.15995160076E+02  0.11519392085E+02  0.69380820208E+01  0.20896854357E+02  0.00000000000E+00 0.  1.
</event>
<event>
 7    1  0.5290964E-013  0.5052887E+02  0.7816164E-02  0.1300439E+00
        -11   -1    0    0    0    0  0.00000000000E+00  0.00000000000E+00  0.45593999997E+02  0.45594000000E+02  0.51100000000E-03 0.  1.
         11   -1    0    0    0    0 -0.00000000000E+00 -0.00000000000E+00 -0.45593999997E+02  0.45594000000E+02  0.51100000000E-03 0. -1.
    9900012    2    1    2    0    0 -0.19894277588E+02 -0.68416725557E+01  0.34793305186E+02  0.50528870030E+02  0.30000030945E+02 0.  0.
         12    1    1    2    0    0  0.19894277588E+02  0.68416725557E+01 -0.34793305186E+02  0.40659129970E+02  0.00000000000E+00 0. -1.
         11    1    3    3    0    0 -0.63208623801E+01  0.29960042309E+01  0.13285767964E+02  0.15014691913E+02  0.51100000000E-03 0. -1.
        -11    1    3    3    0    0 -0.85398429420E+01  0.16181797071E+01  0.21293799021E+02  0.22999419559E+02  0.51100000000E-03 0.  1.
         12    1    3    3    0    0 -0.50335722657E+01 -0.11455856494E+02  0.21373820084E+00  0.12514758558E+02  0.00000000000E+00 0. -1.
</event>
<event>
 7    1  0.5290964E-013  0.5052883E+02  0.7816164E-02  0.1300439E+00
        -11   -1    0    0    0    0  0.00000000000E+00  0.00000000000E+00  0.45593999997E+02  0.45594000000E+02  0.51100000000E-03 0.  1.
         11   -1    0    0    0    0 -0.00000000000E+00 -0.00000000000E+00 -0.45593999997E+02  0.45594000000E+02  0.51100000000E-03 0. -1.
    9900012    2    1    2    0    0  0.82257867295E+01  0.32561987395E+02 -0.22917711837E+02  0.50528829985E+02  0.29999909224E+02 0.  0.
         12    1    1    2    0    0 -0.82257867295E+01 -0.32561987395E+02  0.22917711837E+02  0.40659170015E+02  0.00000000000E+00 0. -1.
         11    1    3    3    0    0  0.37665287645E+00  0.27888634110E+01 -0.74676045945E+01  0.79802722482E+01  0.51100000000E-03 0. -1.
        -11    1    3    3    0    0 -0.43578197408E+01 -0.23160312153E+01 -0.40142529694E+01  0.63615108777E+01  0.51100000000E-03 0.  1.
         12    1    3    3    0    0  0.12206953594E+02  0.32089155200E+02 -0.11435854273E+02  0.36187046859E+02  0.00000000000E+00 0. -1.
</event>
<event>
 7    1  0.5290964E-013  0.5052886E+02  0.7816164E-02  0.1300439E+00
        -11   -1    0    0    0    0  0.00000000000E+00  0.00000000000E+00  0.45593999997E+02  0.45594000000E+02  0.51100000000E-03 0.  1.
         11   -1    0    0    0    0 -0.00000000000E+00 -0.00000000000E+00 -0.45593999997E+02  0.45594000000E+02  0.51100000000E-03 0. -1.
    9900012    2    1    2    0    0 -0.33512802726E+02 -0.37699144587E+01  0.22712237174E+02  0.50528856883E+02  0.29999990980E+02 0.  0.
         12    1    1    2    0    0  0.33512802726E+02  0.37699144587E+01 -0.22712237174E+02  0.40659143117E+02  0.00000000000E+00 0. -1.
         11    1    3    3    0    0 -0.25976844116E+00 -0.28590952854E+01 -0.22889528699E+01  0.36716768643E+01  0.51100000000E-03 0. -1.
        -11    1    3    3    0    0 -0.18180287274E+02 -0.50298822082E+01  0.18875630917E+01  0.18957464363E+02  0.51100000000E-03 0.  1.
        -12    1    3    3    0    0 -0.15072747011E+02  0.41190630349E+01  0.23113626952E+02  0.27899715655E+02  0.00000000000E+00 0.  1.
</event>
<event>
 7    1  0.5290964E-013  0.5052886E+02  0.7816164E-02  0.1300439E+00
        -11   -1    0    0    0    0  0.00000000000E+00  0.00000000000E+00  0.45593999997E+02  0.45594000000E+02  0.51100000000E-03 0.  1.
         11   -1    0    0    0    0 -0.00000000000E+00 -0.00000000000E+00 -0.45593999997E+02  0.45594000000E+02  0.51100000000E-03 0. -1.
    9900012    2    1    2    0    0 -0.39280231468E+02  0.25848543464E+01  0.10175826884E+02  0.50528861925E+02  0.30000006308E+02 0.  0.
         12    1    1    2    0    0  0.39280231468E+02 -0.25848543464E+01 -0.10175826884E+02  0.40659138075E+02  0.00000000000E+00 0. -1.
         11    1    3    3    0    0 -0.28155815353E+01  0.86725286882E+00 -0.24447344349E+01  0.38283617434E+01  0.51100000000E-03 0. -1.
        -11    1    3    3    0    0 -0.16991299143E+01 -0.78861889045E+01 -0.10372064914E+01  0.81335610572E+01  0.51100000000E-03 0.  1.
        -12    1    3    3    0    0 -0.34765520019E+02  0.96037903821E+01  0.13657767810E+02  0.38566939125E+02  0.00000000000E+00 0.  1.
</event>
<event>
 7    1  0.5290964E-013  0.5052885E+02  0.7816164E-02  0.1300439E+00
        -11   -1    0    0    0    0  0.00000000000E+00  0.00000000000E+00  0.45593999997E+02  0.45594000000E+02  0.51100000000E-03 0. -1.
         11   -1    0    0    0    0 -0.00000000000E+00 -0.00000000000E+00 -0.45593999997E+02  0.45594000000E+02  0.51100000000E-03 0.  1.
    9900012    2    1    2    0    0  0.25712483592E+02  0.10189791079E+02 -0.29802733655E+02  0.50528848656E+02  0.29999965975E+02 0.  0.
         12    1    1    2    0    0 -0.25712483592E+02 -0.10189791079E+02  0.29802733655E+02  0.40659151344E+02  0.00000000000E+00 0. -1.
         11    1    3    3    0    0  0.40875036896E+01 -0.15231336558E+01 -0.12835848529E+01  0.45470004269E+01  0.51100000000E-03 0. -1.
        -11    1    3    3    0    0  0.16640346819E+02 -0.53263394515E+01 -0.19094704226E+02  0.25882016226E+02  0.51100000000E-03 0.  1.
        -12    1    3    3    0    0  0.49846330836E+01  0.17039264186E+02 -0.94244445758E+01  0.20099832003E+02  0.00000000000E+00 0.  1.
</event>
<event>
 7    1  0.5290964E-013  0.5052885E+02  0.7816164E-02  0.1300439E+00
        -11   -1    0    0    0    0  0.00000000000E+00  0.00000000000E+00  0.45593999997E+02  0.45594000000E+02  0.51100000000E-03 0. -1.
         11   -1    0    0    0    0 -0.00000000000E+00 -0.00000000000E+00 -0.45593999997E+02  0.45594000000E+02  0.51100000000E-03 0.  1.
    9900012    2    1    2    0    0  0.12408920188E+02  0.40289373528E+01 -0.38509121545E+02  0.50528854920E+02  0.29999985015E+02 0.  0.
         12    1    1    2    0    0 -0.12408920188E+02 -0.40289373528E+01  0.38509121545E+02  0.40659145080E+02  0.00000000000E+00 0. -1.
         11    1    3    3    0    0  0.14228434428E+02 -0.42748514773E+01 -0.30942547008E+02  0.34324392450E+02  0.51100000000E-03 0.  1.
        -11    1    3    3    0    0  0.47518253812E+01  0.18763165895E+01 -0.31963130282E+01  0.60263443009E+01  0.51100000000E-03 0. -1.
         12    1    3    3    0    0 -0.65713396211E+01  0.64274722406E+01 -0.43702615092E+01  0.10178118170E+02  0.00000000000E+00 0. -1.
</event>
<event>
 7    1  0.5290964E-013  0.5052885E+02  0.7816164E-02  0.1300439E+00
        -11   -1    0    0    0    0  0.00000000000E+00  0.00000000000E+00  0.45593999997E+02  0.45594000000E+02  0.51100000000E-03 0.  1.
         11   -1    0    0    0    0 -0.00000000000E+00 -0.00000000000E+00 -0.45593999997E+02  0.45594000000E+02  0.51100000000E-03 0. -1.
    9900012    2    1    2    0    0 -0.66348401846E+01 -0.11955977976E+02  0.38290986965E+02  0.50528853472E+02  0.29999980613E+02 0.  0.
         12    1    1    2    0    0  0.66348401846E+01  0.11955977976E+02 -0.38290986965E+02  0.40659146528E+02  0.00000000000E+00 0. -1.
         11    1    3    3    0    0 -0.38456703829E+01  0.49999209789E+00  0.87083203010E+01  0.95327863459E+01  0.51100000000E-03 0. -1.
        -11    1    3    3    0    0 -0.36726529690E+01 -0.61565686819E+01  0.33003789023E+02  0.33773389050E+02  0.51100000000E-03 0.  1.
        -12    1    3    3    0    0  0.88348316730E+00 -0.62994013918E+01 -0.34211223586E+01  0.72226780763E+01  0.00000000000E+00 0.  1.
</event>
<event>
 7    1  0.5290964E-013  0.5052885E+02  0.7816164E-02  0.1300439E+00
        -11   -1    0    0    0    0  0.00000000000E+00  0.00000000000E+00  0.45593999997E+02  0.45594000000E+02  0.51100000000E-03 0. -1.
         11   -1    0    0    0    0 -0.00000000000E+00 -0.00000000000E+00 -0.45593999997E+02  0.45594000000E+02  0.51100000000E-03 0.  1.
    9900012    2    1    2    0    0 -0.15792654603E+02  0.35746925655E+02 -0.11221227612E+02  0.50528848726E+02  0.29999966187E+02 0.  0.
         12    1    1    2    0    0  0.15792654603E+02 -0.35746925655E+02  0.11221227612E+02  0.40659151274E+02  0.00000000000E+00 0. -1.
         11    1    3    3    0    0 -0.53396007848E+01  0.30468700781E+01 -0.28721294590E+01  0.67855642142E+01  0.51100000000E-03 0. -1.
        -11    1    3    3    0    0 -0.17597591783E+02  0.30025821120E+02 -0.93819444746E+01  0.36045055873E+02  0.51100000000E-03 0.  1.
        -12    1    3    3    0    0  0.71445379642E+01  0.26742344572E+01  0.10328463218E+01  0.76982286390E+01  0.00000000000E+00 0.  1.
</event>
<event>
 7    1  0.5290964E-013  0.5052890E+02  0.7816164E-02  0.1300439E+00
        -11   -1    0    0    0    0  0.00000000000E+00  0.00000000000E+00  0.45593999997E+02  0.45594000000E+02  0.51100000000E-03 0.  1.
         11   -1    0    0    0    0 -0.00000000000E+00 -0.00000000000E+00 -0.45593999997E+02  0.45594000000E+02  0.51100000000E-03 0. -1.
    9900012    2    1    2    0    0 -0.21747660668E+02  0.83529496979E+00  0.34343911572E+02  0.50528896170E+02  0.30000110398E+02 0.  0.
         12    1    1    2    0    0  0.21747660668E+02 -0.83529496979E+00 -0.34343911572E+02  0.40659103830E+02  0.00000000000E+00 0. -1.
         11    1    3    3    0    0 -0.22519196559E+01  0.62165900734E+01 -0.13317744947E+01  0.67446836726E+01  0.51100000000E-03 0. -1.
        -11    1    3    3    0    0 -0.38145151836E+00 -0.56479735927E+01  0.45755314478E+01  0.72787773187E+01  0.51100000000E-03 0.  1.
        -12    1    3    3    0    0 -0.19114289494E+02  0.26667848902E+00  0.31100154619E+02  0.36505435179E+02  0.00000000000E+00 0.  1.
</event>
<event>
 7    1  0.5290964E-013  0.5052886E+02  0.7816164E-02  0.1300439E+00
        -11   -1    0    0    0    0  0.00000000000E+00  0.00000000000E+00  0.45593999997E+02  0.45594000000E+02  0.51100000000E-03 0.  1.
         11   -1    0    0    0    0 -0.00000000000E+00 -0.00000000000E+00 -0.45593999997E+02  0.45594000000E+02  0.51100000000E-03 0. -1.
    9900012    2    1    2    0    0  0.30319025563E+01  0.20216877091E+02  0.35146134200E+02  0.50528864475E+02  0.30000014060E+02 0.  0.
         12    1    1    2    0    0 -0.30319025563E+01 -0.20216877091E+02 -0.35146134200E+02  0.40659135525E+02  0.00000000000E+00 0. -1.
         11    1    3    3    0    0  0.27541282469E+01  0.93943435417E+01  0.19333768876E+02  0.21671029790E+02  0.51100000000E-03 0. -1.
        -11    1    3    3    0    0  0.79949279413E+01  0.34076787503E+01  0.15939660169E+02  0.18154996938E+02  0.51100000000E-03 0.  1.
         12    1    3    3    0    0 -0.77171536319E+01  0.74148547990E+01 -0.12729484474E+00  0.10702837747E+02  0.00000000000E+00 0. -1.
</event>
<event>
 7    1  0.5290964E-013  0.5052887E+02  0.7816164E-02  0.1300439E+00
        -11   -1    0    0    0    0  0.00000000000E+00  0.00000000000E+00  0.45593999997E+02  0.45594000000E+02  0.51100000000E-03 0.  1.
         11   -1    0    0    0    0 -0.00000000000E+00 -0.00000000000E+00 -0.45593999997E+02  0.45594000000E+02  0.51100000000E-03 0. -1.
    9900012    2    1    2    0    0 -0.36980278629E+02  0.11899615959E+02  0.12000960833E+02  0.50528869066E+02  0.30000028012E+02 0.  0.
         12    1    1    2    0    0  0.36980278629E+02 -0.11899615959E+02 -0.12000960833E+02  0.40659130934E+02  0.00000000000E+00 0. -1.
         11    1    3    3    0    0 -0.76172543641E+01 -0.38779275008E+01  0.45657512369E+01  0.96905608902E+01  0.51100000000E-03 0. -1.
        -11    1    3    3    0    0  0.25833878474E+01  0.89373852329E-01  0.44197675140E+01  0.51201782776E+01  0.51100000000E-03 0.  1.
        -12    1    3    3    0    0 -0.31946412112E+02  0.15688169607E+02  0.30154420826E+01  0.35718129898E+02  0.00000000000E+00 0.  1.
</event>
<event>
 7    1  0.5290964E-013  0.5052886E+02  0.7816164E-02  0.1300439E+00
        -11   -1    0    0    0    0  0.00000000000E+00  0.00000000000E+00  0.45593999997E+02  0.45594000000E+02  0.51100000000E-03 0.  1.
         11   -1    0    0    0    0 -0.00000000000E+00 -0.00000000000E+00 -0.45593999997E+02  0.45594000000E+02  0.51100000000E-03 0. -1.
    9900012    2    1    2    0    0 -0.11968153059E+02 -0.35273074339E+02  0.16301497710E+02  0.50528864636E+02  0.30000014549E+02 0.  0.
         12    1    1    2    0    0  0.11968153059E+02  0.35273074339E+02 -0.16301497710E+02  0.40659135364E+02  0.00000000000E+00 0. -1.
         11    1    3    3    0    0 -0.10023678961E+02 -0.15679682343E+02 -0.18932673918E+01  0.18705909226E+02  0.51100000000E-03 0. -1.
        -11    1    3    3    0    0  0.15753935190E+01 -0.68640050871E+01 -0.23284690135E+01  0.74174253473E+01  0.51100000000E-03 0.  1.
        -12    1    3    3    0    0 -0.35198676162E+01 -0.12729386909E+02  0.20523234115E+02  0.24405530063E+02  0.00000000000E+00 0.  1.
</event>
<event>
 7    1  0.5290964E-013  0.5052886E+02  0.7816164E-02  0.1300439E+00
        -11   -1    0    0    0    0  0.00000000000E+00  0.00000000000E+00  0.45593999997E+02  0.45594000000E+02  0.51100000000E-03 0.  1.
         11   -1    0    0    0    0 -0.00000000000E+00 -0.00000000000E+00 -0.45593999997E+02  0.45594000000E+02  0.51100000000E-03 0. -1.
    9900012    2    1    2    0    0  0.36060431131E+02  0.14059121005E+02  0.12456002231E+02  0.50528861195E+02  0.30000004088E+02 0.  0.
         12    1    1    2    0    0 -0.36060431131E+02 -0.14059121005E+02 -0.12456002231E+02  0.40659138805E+02  0.00000000000E+00 0. -1.
         11    1    3    3    0    0  0.18206146742E+02  0.14847269105E+02  0.43187946201E+01  0.23886338487E+02  0.51100000000E-03 0. -1.
        -11    1    3    3    0    0  0.84685599293E+01  0.81525998523E+01  0.88305648017E+00  0.11788179700E+02  0.51100000000E-03 0.  1.
         12    1    3    3    0    0  0.93857244597E+01 -0.89407479522E+01  0.72541511307E+01  0.14854343008E+02  0.00000000000E+00 0. -1.
</event>
<event>
 7    1  0.5290964E-013  0.5052886E+02  0.7816164E-02  0.1300439E+00
        -11   -1    0    0    0    0  0.00000000000E+00  0.00000000000E+00  0.45593999997E+02  0.45594000000E+02  0.51100000000E-03 0.  1.
         11   -1    0    0    0    0 -0.00000000000E+00 -0.00000000000E+00 -0.45593999997E+02  0.45594000000E+02  0.51100000000E-03 0. -1.
    9900012    2    1    2    0    0  0.22779164526E+02 -0.31566486765E+02  0.11740210432E+02  0.50528856328E+02  0.29999989294E+02 0.  0.
         12    1    1    2    0    0 -0.22779164526E+02  0.31566486765E+02 -0.11740210432E+02  0.40659143672E+02  0.00000000000E+00 0. -1.
         11    1    3    3    0    0  0.29485184109E+01 -0.63141281953E+01  0.25294667899E-01  0.69686882387E+01  0.51100000000E-03 0. -1.
        -11    1    3    3    0    0  0.26536587127E+02 -0.22080083578E+02  0.10093191663E+02  0.35966554816E+02  0.51100000000E-03 0.  1.
         12    1    3    3    0    0 -0.67059410119E+01 -0.31722749919E+01  0.16217241005E+01  0.75936132728E+01  0.00000000000E+00 0. -1.
</event>
<event>
 7    1  0.5290964E-013  0.5052886E+02  0.7816164E-02  0.1300439E+00
        -11   -1    0    0    0    0  0.00000000000E+00  0.00000000000E+00  0.45593999997E+02  0.45594000000E+02  0.51100000000E-03 0.  1.
         11   -1    0    0    0    0 -0.00000000000E+00 -0.00000000000E+00 -0.45593999997E+02  0.45594000000E+02  0.51100000000E-03 0. -1.
    9900012    2    1    2    0    0  0.27307318065E+02 -0.82918837088E+01  0.28960673619E+02  0.50528861153E+02  0.30000003960E+02 0.  0.
         12    1    1    2    0    0 -0.27307318065E+02  0.82918837088E+01 -0.28960673619E+02  0.40659138847E+02  0.00000000000E+00 0. -1.
         11    1    3    3    0    0  0.11269736779E+02 -0.54659174066E+01  0.52430906370E+01  0.13578410064E+02  0.51100000000E-03 0. -1.
        -11    1    3    3    0    0  0.17725892250E+02  0.54913999777E+01  0.21032847783E+02  0.28048946788E+02  0.51100000000E-03 0.  1.
         12    1    3    3    0    0 -0.16883109642E+01 -0.83173662799E+01  0.26847351989E+01  0.89015043017E+01  0.00000000000E+00 0. -1.
</event>
<event>
 7    1  0.5290964E-013  0.5052885E+02  0.7816164E-02  0.1300439E+00
        -11   -1    0    0    0    0  0.00000000000E+00  0.00000000000E+00  0.45593999997E+02  0.45594000000E+02  0.51100000000E-03 0.  1.
         11   -1    0    0    0    0 -0.00000000000E+00 -0.00000000000E+00 -0.45593999997E+02  0.45594000000E+02  0.51100000000E-03 0. -1.
    9900012    2    1    2    0    0  0.53563562199E+01  0.38355490220E+02  0.12382743656E+02  0.50528849463E+02  0.29999968427E+02 0.  0.
         12    1    1    2    0    0 -0.53563562199E+01 -0.38355490220E+02 -0.12382743656E+02  0.40659150537E+02  0.00000000000E+00 0. -1.
         11    1    3    3    0    0  0.64838022065E+00 -0.19376093585E+00 -0.65331961542E+00  0.94062053550E+00  0.51100000000E-03 0. -1.
        -11    1    3    3    0    0 -0.56398093640E+01  0.29348346029E+02  0.17989614602E+02  0.34882074166E+02  0.51100000000E-03 0.  1.
        -12    1    3    3    0    0  0.10347785363E+02  0.92009051271E+01 -0.49535513311E+01  0.14706154762E+02  0.00000000000E+00 0.  1.
</event>
<event>
 7    1  0.5290964E-013  0.5052886E+02  0.7816164E-02  0.1300439E+00
        -11   -1    0    0    0    0  0.00000000000E+00  0.00000000000E+00  0.45593999997E+02  0.45594000000E+02  0.51100000000E-03 0.  1.
         11   -1    0    0    0    0 -0.00000000000E+00 -0.00000000000E+00 -0.45593999997E+02  0.45594000000E+02  0.51100000000E-03 0. -1.
    9900012    2    1    2    0    0  0.33411727079E+01  0.33935223933E+02  0.22145041675E+02  0.50528859216E+02  0.29999998074E+02 0.  0.
         12    1    1    2    0    0 -0.33411727079E+01 -0.33935223933E+02 -0.22145041675E+02  0.40659140784E+02  0.00000000000E+00 0. -1.
         11    1    3    3    0    0  0.74924231228E+01  0.32717729358E+01 -0.15246487766E+01  0.83165772134E+01  0.51100000000E-03 0. -1.
        -11    1    3    3    0    0 -0.74644968415E+01  0.49493771689E+01  0.49429047312E+01  0.10229728975E+02  0.51100000000E-03 0.  1.
        -12    1    3    3    0    0  0.33132464267E+01  0.25714073829E+02  0.18726785721E+02  0.31982553028E+02  0.00000000000E+00 0.  1.
</event>
<event>
 7    1  0.5290964E-013  0.5052889E+02  0.7816164E-02  0.1300439E+00
        -11   -1    0    0    0    0  0.00000000000E+00  0.00000000000E+00  0.45593999997E+02  0.45594000000E+02  0.51100000000E-03 0.  1.
         11   -1    0    0    0    0 -0.00000000000E+00 -0.00000000000E+00 -0.45593999997E+02  0.45594000000E+02  0.51100000000E-03 0. -1.
    9900012    2    1    2    0    0 -0.11043583150E+01  0.20809220615E+02  0.34913034051E+02  0.50528890117E+02  0.30000091998E+02 0.  0.
         12    1    1    2    0    0  0.11043583150E+01 -0.20809220615E+02 -0.34913034051E+02  0.40659109883E+02  0.00000000000E+00 0. -1.
         11    1    3    3    0    0  0.30371331424E+01  0.13805123585E+02  0.29922553817E+02  0.33093274877E+02  0.51100000000E-03 0. -1.
        -11    1    3    3    0    0 -0.73975009341E+01  0.69859810508E+01  0.80450032008E+01  0.12971084306E+02  0.51100000000E-03 0.  1.
         12    1    3    3    0    0  0.32560094767E+01  0.18115978889E-01 -0.30545229668E+01  0.44645309334E+01  0.00000000000E+00 0. -1.
</event>
<event>
 7    1  0.5290964E-013  0.5052886E+02  0.7816164E-02  0.1300439E+00
        -11   -1    0    0    0    0  0.00000000000E+00  0.00000000000E+00  0.45593999997E+02  0.45594000000E+02  0.51100000000E-03 0. -1.
         11   -1    0    0    0    0 -0.00000000000E+00 -0.00000000000E+00 -0.45593999997E+02  0.45594000000E+02  0.51100000000E-03 0.  1.
    9900012    2    1    2    0    0 -0.31943346259E+01  0.39759588283E+01 -0.40337995069E+02  0.50528857504E+02  0.29999992869E+02 0.  0.
         12    1    1    2    0    0  0.31943346259E+01 -0.39759588283E+01  0.40337995069E+02  0.40659142496E+02  0.00000000000E+00 0. -1.
         11    1    3    3    0    0 -0.59091740322E+01  0.73996813342E+01 -0.56517230887E+01  0.11027946124E+02  0.51100000000E-03 0. -1.
        -11    1    3    3    0    0 -0.26553303273E+01  0.29021539303E+01 -0.29400491611E+02  0.29662470966E+02  0.51100000000E-03 0.  1.
         12    1    3    3    0    0  0.53701697335E+01 -0.63258764361E+01 -0.52857803692E+01  0.98384404132E+01  0.00000000000E+00 0. -1.
</event>
<event>
 7    1  0.5290964E-013  0.5052890E+02  0.7816164E-02  0.1300439E+00
        -11   -1    0    0    0    0  0.00000000000E+00  0.00000000000E+00  0.45593999997E+02  0.45594000000E+02  0.51100000000E-03 0. -1.
         11   -1    0    0    0    0 -0.00000000000E+00 -0.00000000000E+00 -0.45593999997E+02  0.45594000000E+02  0.51100000000E-03 0.  1.
    9900012    2    1    2    0    0 -0.19533535468E+02 -0.32717901167E+02 -0.14182475211E+02  0.50528896865E+02  0.30000112509E+02 0.  0.
         12    1    1    2    0    0  0.19533535468E+02  0.32717901167E+02  0.14182475211E+02  0.40659103135E+02  0.00000000000E+00 0. -1.
         11    1    3    3    0    0  0.72175866037E+00 -0.37381395750E+01 -0.25230801442E+01  0.45673358450E+01  0.51100000000E-03 0. -1.
        -11    1    3    3    0    0 -0.23276260080E+02 -0.32075468486E+02 -0.12499080988E+02  0.41555348485E+02  0.51100000000E-03 0.  1.
         12    1    3    3    0    0  0.30209659512E+01  0.30957068942E+01  0.83968592077E+00  0.44062125344E+01  0.00000000000E+00 0. -1.
</event>
<event>
 7    1  0.5290964E-013  0.5052886E+02  0.7816164E-02  0.1300439E+00
        -11   -1    0    0    0    0  0.00000000000E+00  0.00000000000E+00  0.45593999997E+02  0.45594000000E+02  0.51100000000E-03 0. -1.
         11   -1    0    0    0    0 -0.00000000000E+00 -0.00000000000E+00 -0.45593999997E+02  0.45594000000E+02  0.51100000000E-03 0.  1.
    9900012    2    1    2    0    0 -0.33160539489E+02 -0.82696581443E+01 -0.22026277939E+02  0.50528861484E+02  0.30000004967E+02 0.  0.
         12    1    1    2    0    0  0.33160539489E+02  0.82696581443E+01  0.22026277939E+02  0.40659138516E+02  0.00000000000E+00 0. -1.
         11    1    3    3    0    0 -0.18837744380E+02  0.62956790072E+01 -0.18836825622E+02  0.27373749967E+02  0.51100000000E-03 0. -1.
        -11    1    3    3    0    0  0.32230099171E+00 -0.51061865214E+01  0.10265229194E+01  0.52183108652E+01  0.51100000000E-03 0.  1.
        -12    1    3    3    0    0 -0.14645096100E+02 -0.94591506301E+01 -0.42159752367E+01  0.17936800652E+02  0.00000000000E+00 0.  1.
</event>
<event>
 7    1  0.5290964E-013  0.5052886E+02  0.7816164E-02  0.1300439E+00
        -11   -1    0    0    0    0  0.00000000000E+00  0.00000000000E+00  0.45593999997E+02  0.45594000000E+02  0.51100000000E-03 0. -1.
         11   -1    0    0    0    0 -0.00000000000E+00 -0.00000000000E+00 -0.45593999997E+02  0.45594000000E+02  0.51100000000E-03 0.  1.
    9900012    2    1    2    0    0  0.22113463828E+02  0.33512799149E+02 -0.64072047871E+01  0.50528864957E+02  0.30000015523E+02 0.  0.
         12    1    1    2    0    0 -0.22113463828E+02 -0.33512799149E+02  0.64072047871E+01  0.40659135043E+02  0.00000000000E+00 0. -1.
         11    1    3    3    0    0  0.47891194624E+01  0.65158576311E+01  0.20153453627E+01  0.83338876334E+01  0.51100000000E-03 0. -1.
        -11    1    3    3    0    0  0.13836181589E+02  0.18784678859E+01  0.31590027981E+01  0.14316000193E+02  0.51100000000E-03 0.  1.
        -12    1    3    3    0    0  0.34881627757E+01  0.25118473632E+02 -0.11581552948E+02  0.27878977131E+02  0.00000000000E+00 0.  1.
</event>
<event>
 7    1  0.5290964E-013  0.5052886E+02  0.7816164E-02  0.1300439E+00
        -11   -1    0    0    0    0  0.00000000000E+00  0.00000000000E+00  0.45593999997E+02  0.45594000000E+02  0.51100000000E-03 0.  1.
         11   -1    0    0    0    0 -0.00000000000E+00 -0.00000000000E+00 -0.45593999997E+02  0.45594000000E+02  0.51100000000E-03 0. -1.
    9900012    2    1    2    0    0  0.11937182519E+02 -0.13091936766E+02  0.36596044536E+02  0.50528860678E+02  0.30000002515E+02 0.  0.
         12    1    1    2    0    0 -0.11937182519E+02  0.13091936766E+02 -0.36596044536E+02  0.40659139322E+02  0.00000000000E+00 0. -1.
         11    1    3    3    0    0 -0.43817650270E+01 -0.57083869581E+01 -0.10654792663E+01  0.72746678785E+01  0.51100000000E-03 0.  1.
        -11    1    3    3    0    0  0.24431429560E+01  0.17908288694E+01  0.14041487342E+02  0.14364518182E+02  0.51100000000E-03 0. -1.
        -12    1    3    3    0    0  0.13875804590E+02 -0.91743786769E+01  0.23620036460E+02  0.28889674617E+02  0.00000000000E+00 0.  1.
</event>
<event>
 7    1  0.5290964E-013  0.5052885E+02  0.7816164E-02  0.1300439E+00
        -11   -1    0    0    0    0  0.00000000000E+00  0.00000000000E+00  0.45593999997E+02  0.45594000000E+02  0.51100000000E-03 0.  1.
         11   -1    0    0    0    0 -0.00000000000E+00 -0.00000000000E+00 -0.45593999997E+02  0.45594000000E+02  0.51100000000E-03 0. -1.
    9900012    2    1    2    0    0  0.43810195954E+01  0.32209589274E+02  0.24423660031E+02  0.50528854126E+02  0.29999982602E+02 0.  0.
         12    1    1    2    0    0 -0.43810195954E+01 -0.32209589274E+02 -0.24423660031E+02  0.40659145874E+02  0.00000000000E+00 0. -1.
         11    1    3    3    0    0 -0.20116719071E+01  0.27422825618E+02  0.23108497486E+02  0.35917417015E+02  0.51100000000E-03 0. -1.
        -11    1    3    3    0    0 -0.28910015933E+01  0.31886932367E+01  0.27133348823E+01  0.50880095534E+01  0.51100000000E-03 0.  1.
         12    1    3    3    0    0  0.92836930958E+01  0.15980704190E+01 -0.13981723370E+01  0.95234275576E+01  0.00000000000E+00 0. -1.
</event>
<event>
 7    1  0.5290964E-013  0.5052887E+02  0.7816164E-02  0.1300439E+00
        -11   -1    0    0    0    0  0.00000000000E+00  0.00000000000E+00  0.45593999997E+02  0.45594000000E+02  0.51100000000E-03 0. -1.
         11   -1    0    0    0    0 -0.00000000000E+00 -0.00000000000E+00 -0.45593999997E+02  0.45594000000E+02  0.51100000000E-03 0.  1.
    9900012    2    1    2    0    0 -0.25702947719E+02  0.31503148362E+02  0.27418239404E+00  0.50528867518E+02  0.30000023307E+02 0.  0.
         12    1    1    2    0    0  0.25702947719E+02 -0.31503148362E+02 -0.27418239404E+00  0.40659132482E+02  0.00000000000E+00 0. -1.
         11    1    3    3    0    0 -0.14179326259E+02  0.18075914056E+02  0.58934950484E+01  0.23717614683E+02  0.51100000000E-03 0. -1.
        -11    1    3    3    0    0 -0.93336733346E+01  0.18067414630E+02 -0.18011489035E+01  0.20415510450E+02  0.51100000000E-03 0.  1.
        -12    1    3    3    0    0 -0.21899481259E+01 -0.46401803228E+01 -0.38181637508E+01  0.63957423846E+01  0.00000000000E+00 0.  1.
</event>
<event>
 7    1  0.5290964E-013  0.5052886E+02  0.7816164E-02  0.1300439E+00
        -11   -1    0    0    0    0  0.00000000000E+00  0.00000000000E+00  0.45593999997E+02  0.45594000000E+02  0.51100000000E-03 0. -1.
         11   -1    0    0    0    0 -0.00000000000E+00 -0.00000000000E+00 -0.45593999997E+02  0.45594000000E+02  0.51100000000E-03 0.  1.
    9900012    2    1    2    0    0 -0.29795012659E+02  0.27342100391E+02 -0.42228231849E+01  0.50528862420E+02  0.30000007811E+02 0.  0.
         12    1    1    2    0    0  0.29795012659E+02 -0.27342100391E+02  0.42228231849E+01  0.40659137580E+02  0.00000000000E+00 0. -1.
         11    1    3    3    0    0 -0.16539134463E+02  0.20389653028E+02 -0.74137701366E+01  0.27280852393E+02  0.51100000000E-03 0. -1.
        -11    1    3    3    0    0 -0.12213490003E+02 -0.23027387220E+01 -0.19951175177E+01  0.12587789236E+02  0.51100000000E-03 0.  1.
        -12    1    3    3    0    0 -0.10423881918E+01  0.92551860851E+01  0.51860644695E+01  0.10660220790E+02  0.00000000000E+00 0.  1.
</event>
<event>
 7    1  0.5290964E-013  0.5052885E+02  0.7816164E-02  0.1300439E+00
        -11   -1    0    0    0    0  0.00000000000E+00  0.00000000000E+00  0.45593999997E+02  0.45594000000E+02  0.51100000000E-03 0. -1.
         11   -1    0    0    0    0 -0.00000000000E+00 -0.00000000000E+00 -0.45593999997E+02  0.45594000000E+02  0.51100000000E-03 0.  1.
    9900012    2    1    2    0    0  0.23372082112E+01 -0.35176950467E+02 -0.20255510503E+02  0.50528854754E+02  0.29999984510E+02 0.  0.
         12    1    1    2    0    0 -0.23372082112E+01  0.35176950467E+02  0.20255510503E+02  0.40659145246E+02  0.00000000000E+00 0. -1.
         11    1    3    3    0    0 -0.28563147415E+01 -0.76209921923E+01 -0.26225278678E+01  0.85507723965E+01  0.51100000000E-03 0. -1.
        -11    1    3    3    0    0 -0.10183540906E+02 -0.12396436779E+02 -0.43337806360E+01  0.16617996421E+02  0.51100000000E-03 0.  1.
        -12    1    3    3    0    0  0.15377063858E+02 -0.15159521496E+02 -0.13299201999E+02  0.25360085936E+02  0.00000000000E+00 0.  1.
</event>
<event>
 7    1  0.5290964E-013  0.5052889E+02  0.7816164E-02  0.1300439E+00
        -11   -1    0    0    0    0  0.00000000000E+00  0.00000000000E+00  0.45593999997E+02  0.45594000000E+02  0.51100000000E-03 0.  1.
         11   -1    0    0    0    0 -0.00000000000E+00 -0.00000000000E+00 -0.45593999997E+02  0.45594000000E+02  0.51100000000E-03 0. -1.
    9900012    2    1    2    0    0 -0.75871897745E+01 -0.30927779678E+02  0.25279833037E+02  0.50528893236E+02  0.30000101479E+02 0.  0.
         12    1    1    2    0    0  0.75871897745E+01  0.30927779678E+02 -0.25279833037E+02  0.40659106764E+02  0.00000000000E+00 0. -1.
         11    1    3    3    0    0 -0.59316596791E+01 -0.66059571735E+01 -0.48540981212E+00  0.88915060408E+01  0.51100000000E-03 0. -1.
        -11    1    3    3    0    0  0.19888372280E+01 -0.31135568703E+01 -0.36484560324E+01  0.51923926648E+01  0.51100000000E-03 0.  1.
        -12    1    3    3    0    0 -0.36443673234E+01 -0.21208265634E+02  0.29413698881E+02  0.36444994530E+02  0.00000000000E+00 0.  1.
</event>
<event>
 7    1  0.5290964E-013  0.5052886E+02  0.7816164E-02  0.1300439E+00
        -11   -1    0    0    0    0  0.00000000000E+00  0.00000000000E+00  0.45593999997E+02  0.45594000000E+02  0.51100000000E-03 0.  1.
         11   -1    0    0    0    0 -0.00000000000E+00 -0.00000000000E+00 -0.45593999997E+02  0.45594000000E+02  0.51100000000E-03 0. -1.
    9900012    2    1    2    0    0 -0.40030205743E+02 -0.15710129138E+01 -0.69484152632E+01  0.50528856772E+02  0.29999990644E+02 0.  0.
         12    1    1    2    0    0  0.40030205743E+02  0.15710129138E+01  0.69484152632E+01  0.40659143228E+02  0.00000000000E+00 0. -1.
         11    1    3    3    0    0  0.37768396805E+01  0.11522094844E+01 -0.10052900727E+01  0.40746426911E+01  0.51100000000E-03 0. -1.
        -11    1    3    3    0    0 -0.13188852018E+02 -0.69462687380E+01 -0.42478575701E+01  0.15499701969E+02  0.51100000000E-03 0.  1.
        -12    1    3    3    0    0 -0.30618193405E+02  0.42230463398E+01 -0.16952676204E+01  0.30954512112E+02  0.00000000000E+00 0.  1.
</event>
<event>
 7    1  0.5290964E-013  0.5052876E+02  0.7816164E-02  0.1300439E+00
        -11   -1    0    0    0    0  0.00000000000E+00  0.00000000000E+00  0.45593999997E+02  0.45594000000E+02  0.51100000000E-03 0.  1.
         11   -1    0    0    0    0 -0.00000000000E+00 -0.00000000000E+00 -0.45593999997E+02  0.45594000000E+02  0.51100000000E-03 0. -1.
    9900012    2    1    2    0    0  0.44488303906E+01 -0.14259398001E+02  0.37816017816E+02  0.50528760869E+02  0.29999699137E+02 0.  0.
         12    1    1    2    0    0 -0.44488303906E+01  0.14259398001E+02 -0.37816017816E+02  0.40659239131E+02  0.00000000000E+00 0. -1.
         11    1    3    3    0    0 -0.35397906670E+01 -0.83005134256E+00  0.34881005836E+00  0.36525021445E+01  0.51100000000E-03 0.  1.
        -11    1    3    3    0    0  0.11606730598E+02  0.30410760750E+00  0.78074113540E+01  0.13991581359E+02  0.51100000000E-03 0. -1.
         12    1    3    3    0    0 -0.36181095407E+01 -0.13733454266E+02  0.29659796404E+02  0.32884677366E+02  0.00000000000E+00 0. -1.
</event>
<event>
 7    1  0.5290964E-013  0.5052886E+02  0.7816164E-02  0.1300439E+00
        -11   -1    0    0    0    0  0.00000000000E+00  0.00000000000E+00  0.45593999997E+02  0.45594000000E+02  0.51100000000E-03 0.  1.
         11   -1    0    0    0    0 -0.00000000000E+00 -0.00000000000E+00 -0.45593999997E+02  0.45594000000E+02  0.51100000000E-03 0. -1.
    9900012    2    1    2    0    0 -0.16477612870E+02  0.36117327661E+01  0.36994718697E+02  0.50528861410E+02  0.30000004741E+02 0.  0.
         12    1    1    2    0    0  0.16477612870E+02 -0.36117327661E+01 -0.36994718697E+02  0.40659138590E+02  0.00000000000E+00 0. -1.
         11    1    3    3    0    0 -0.69019559054E+01 -0.55069469424E+01  0.11524539858E+02  0.14518211982E+02  0.51100000000E-03 0. -1.
        -11    1    3    3    0    0 -0.15238756910E+02  0.31818047834E+01  0.22340235518E+02  0.27229207060E+02  0.51100000000E-03 0.  1.
         12    1    3    3    0    0  0.56630999461E+01  0.59368749250E+01  0.31299433211E+01  0.87814423683E+01  0.00000000000E+00 0. -1.
</event>
<event>
 7    1  0.5290964E-013  0.5052887E+02  0.7816164E-02  0.1300439E+00
        -11   -1    0    0    0    0  0.00000000000E+00  0.00000000000E+00  0.45593999997E+02  0.45594000000E+02  0.51100000000E-03 0.  1.
         11   -1    0    0    0    0 -0.00000000000E+00 -0.00000000000E+00 -0.45593999997E+02  0.45594000000E+02  0.51100000000E-03 0. -1.
    9900012    2    1    2    0    0  0.37251776052E+01  0.40298160738E+02 -0.39174200492E+01  0.50528869575E+02  0.30000029561E+02 0.  0.
         12    1    1    2    0    0 -0.37251776052E+01 -0.40298160738E+02  0.39174200492E+01  0.40659130425E+02  0.00000000000E+00 0. -1.
         11    1    3    3    0    0  0.38919810469E+01  0.69694846093E+01  0.66536820289E+00  0.80102401522E+01  0.51100000000E-03 0. -1.
        -11    1    3    3    0    0  0.11793338649E+02  0.21246207206E+02 -0.71384533063E+01  0.25326698817E+02  0.51100000000E-03 0.  1.
         12    1    3    3    0    0 -0.11960142090E+02  0.12082468923E+02  0.25556650542E+01  0.17191930606E+02  0.00000000000E+00 0. -1.
</event>
<event>
 7    1  0.5290964E-013  0.5052900E+02  0.7816164E-02  0.1300438E+00
        -11   -1    0    0    0    0  0.00000000000E+00  0.00000000000E+00  0.45593999997E+02  0.45594000000E+02  0.51100000000E-03 0. -1.
         11   -1    0    0    0    0 -0.00000000000E+00 -0.00000000000E+00 -0.45593999997E+02  0.45594000000E+02  0.51100000000E-03 0.  1.
    9900012    2    1    2    0    0 -0.12737526955E+02  0.35646677934E+02 -0.14839953470E+02  0.50528997803E+02  0.30000419320E+02 0.  0.
         12    1    1    2    0    0  0.12737526955E+02 -0.35646677934E+02  0.14839953470E+02  0.40659002197E+02  0.00000000000E+00 0. -1.
         11    1    3    3    0    0  0.11384454666E+01 -0.17021293744E+00  0.25273109326E+01  0.27771084487E+01  0.51100000000E-03 0. -1.
        -11    1    3    3    0    0  0.27100654644E+01  0.23586903130E+02 -0.74595527505E+01  0.24886369394E+02  0.51100000000E-03 0.  1.
        -12    1    3    3    0    0 -0.16586037886E+02  0.12229987741E+02 -0.99077116521E+01  0.22865519961E+02  0.00000000000E+00 0.  1.
</event>
<event>
 7    1  0.5488058E-013  0.5052885E+02  0.7816164E-02  0.1300439E+00
        -11   -1    0    0    0    0  0.00000000000E+00  0.00000000000E+00  0.45593999997E+02  0.45594000000E+02  0.51100000000E-03 0. -1.
         11   -1    0    0    0    0 -0.00000000000E+00 -0.00000000000E+00 -0.45593999997E+02  0.45594000000E+02  0.51100000000E-03 0.  1.
    9900012    2    1    2    0    0 -0.26813936937E+02 -0.74896160768E+01 -0.29632494440E+02  0.50528852324E+02  0.29999977123E+02 0.  0.
         12    1    1    2    0    0  0.26813936937E+02  0.74896160768E+01  0.29632494440E+02  0.40659147676E+02  0.00000000000E+00 0. -1.
         11    1    3    3    0    0 -0.11603132065E+02  0.35600408844E+01 -0.99090184831E+01  0.15668286836E+02  0.51100000000E-03 0. -1.
        -11    1    3    3    0    0 -0.19278982356E+02 -0.41917335324E+01 -0.17991160799E+02  0.26700780098E+02  0.51100000000E-03 0.  1.
         12    1    3    3    0    0  0.40681774843E+01 -0.68579234287E+01 -0.17323151586E+01  0.81597853898E+01  0.00000000000E+00 0. -1.
</event>
<event>
 7    1  0.5290964E-013  0.5052886E+02  0.7816164E-02  0.1300439E+00
        -11   -1    0    0    0    0  0.00000000000E+00  0.00000000000E+00  0.45593999997E+02  0.45594000000E+02  0.51100000000E-03 0. -1.
         11   -1    0    0    0    0 -0.00000000000E+00 -0.00000000000E+00 -0.45593999997E+02  0.45594000000E+02  0.51100000000E-03 0.  1.
    9900012    2    1    2    0    0 -0.35269975708E+02  0.30837258188E+01 -0.19992127331E+02  0.50528859495E+02  0.29999998922E+02 0.  0.
         12    1    1    2    0    0  0.35269975708E+02 -0.30837258188E+01  0.19992127331E+02  0.40659140505E+02  0.00000000000E+00 0. -1.
         11    1    3    3    0    0  0.16876731959E+01 -0.50387821156E+01 -0.59494757473E+01  0.79770814182E+01  0.51100000000E-03 0. -1.
        -11    1    3    3    0    0 -0.17574466445E+02  0.25346687398E+01 -0.13613950909E+02  0.22374674882E+02  0.51100000000E-03 0.  1.
        -12    1    3    3    0    0 -0.19383182459E+02  0.55878391946E+01 -0.42870067482E+00  0.20177103195E+02  0.00000000000E+00 0.  1.
</event>
<event>
 7    1  0.5290964E-013  0.5052886E+02  0.7816164E-02  0.1300439E+00
        -11   -1    0    0    0    0  0.00000000000E+00  0.00000000000E+00  0.45593999997E+02  0.45594000000E+02  0.51100000000E-03 0. -1.
         11   -1    0    0    0    0 -0.00000000000E+00 -0.00000000000E+00 -0.45593999997E+02  0.45594000000E+02  0.51100000000E-03 0.  1.
    9900012    2    1    2    0    0  0.34496921111E+01 -0.27968747490E+02 -0.29308954751E+02  0.50528855390E+02  0.29999986442E+02 0.  0.
         12    1    1    2    0    0 -0.34496921111E+01  0.27968747490E+02  0.29308954751E+02  0.40659144610E+02  0.00000000000E+00 0. -1.
         11    1    3    3    0    0  0.98170897895E+01 -0.10762870387E+02 -0.47191819906E+01  0.15312913172E+02  0.51100000000E-03 0. -1.
        -11    1    3    3    0    0  0.20939955023E+01 -0.11314555544E+02 -0.39879047140E+01  0.12178151280E+02  0.51100000000E-03 0.  1.
        -12    1    3    3    0    0 -0.84613931808E+01 -0.58913215593E+01 -0.20601868047E+02  0.23037790938E+02  0.00000000000E+00 0.  1.
</event>
<event>
 7    1  0.5290964E-013  0.5052885E+02  0.7816164E-02  0.1300439E+00
        -11   -1    0    0    0    0  0.00000000000E+00  0.00000000000E+00  0.45593999997E+02  0.45594000000E+02  0.51100000000E-03 0.  1.
         11   -1    0    0    0    0 -0.00000000000E+00 -0.00000000000E+00 -0.45593999997E+02  0.45594000000E+02  0.51100000000E-03 0. -1.
    9900012    2    1    2    0    0  0.38319348549E+02 -0.13592796194E+02  0.17206566657E+00  0.50528853573E+02  0.29999980920E+02 0.  0.
         12    1    1    2    0    0 -0.38319348549E+02  0.13592796194E+02 -0.17206566657E+00  0.40659146427E+02  0.00000000000E+00 0. -1.
         11    1    3    3    0    0  0.38370152652E+01 -0.64437892433E+01 -0.13832234631E+00  0.75009492259E+01  0.51100000000E-03 0. -1.
        -11    1    3    3    0    0 -0.20494152616E+01 -0.46902886525E+01 -0.35224864514E+01  0.62134387918E+01  0.51100000000E-03 0.  1.
        -12    1    3    3    0    0  0.36531748545E+02 -0.24587182985E+01  0.38328744643E+01  0.36814465555E+02  0.00000000000E+00 0.  1.
</event>
<event>
 7    1  0.5290964E-013  0.5052886E+02  0.7816164E-02  0.1300439E+00
        -11   -1    0    0    0    0  0.00000000000E+00  0.00000000000E+00  0.45593999997E+02  0.45594000000E+02  0.51100000000E-03 0.  1.
         11   -1    0    0    0    0 -0.00000000000E+00 -0.00000000000E+00 -0.45593999997E+02  0.45594000000E+02  0.51100000000E-03 0. -1.
    9900012    2    1    2    0    0  0.21944282419E+02 -0.16041441009E+02  0.30237162029E+02  0.50528864150E+02  0.30000013070E+02 0.  0.
         12    1    1    2    0    0 -0.21944282419E+02  0.16041441009E+02 -0.30237162029E+02  0.40659135850E+02  0.00000000000E+00 0. -1.
         11    1    3    3    0    0  0.40695891659E+00  0.32663781536E+01  0.36095327758E+01  0.48850352019E+01  0.51100000000E-03 0. -1.
        -11    1    3    3    0    0  0.13865948073E+02  0.31439597124E+00  0.33912896649E+01  0.14278102348E+02  0.51100000000E-03 0.  1.
        -12    1    3    3    0    0  0.76713754289E+01 -0.19622215134E+02  0.23236339588E+02  0.31365726600E+02  0.00000000000E+00 0.  1.
</event>
<event>
 7    1  0.5290964E-013  0.5052886E+02  0.7816164E-02  0.1300439E+00
        -11   -1    0    0    0    0  0.00000000000E+00  0.00000000000E+00  0.45593999997E+02  0.45594000000E+02  0.51100000000E-03 0. -1.
         11   -1    0    0    0    0 -0.00000000000E+00 -0.00000000000E+00 -0.45593999997E+02  0.45594000000E+02  0.51100000000E-03 0.  1.
    9900012    2    1    2    0    0  0.15578580921E+02  0.34824190170E+02 -0.14062334267E+02  0.50528860197E+02  0.30000001054E+02 0.  0.
         12    1    1    2    0    0 -0.15578580921E+02 -0.34824190170E+02  0.14062334267E+02  0.40659139803E+02  0.00000000000E+00 0. -1.
         11    1    3    3    0    0  0.18039207252E+01  0.86443966519E+01 -0.11284342104E+02  0.14328855517E+02  0.51100000000E-03 0. -1.
        -11    1    3    3    0    0  0.35790490814E+01  0.33950478834E+01 -0.91877079791E+01  0.10428323002E+02  0.51100000000E-03 0.  1.
        -12    1    3    3    0    0  0.10195611114E+02  0.22784745635E+02  0.64097158164E+01  0.25771681677E+02  0.00000000000E+00 0.  1.
</event>
<event>
 7    1  0.5290964E-013  0.5052891E+02  0.7816164E-02  0.1300439E+00
        -11   -1    0    0    0    0  0.00000000000E+00  0.00000000000E+00  0.45593999997E+02  0.45594000000E+02  0.51100000000E-03 0. -1.
         11   -1    0    0    0    0 -0.00000000000E+00 -0.00000000000E+00 -0.45593999997E+02  0.45594000000E+02  0.51100000000E-03 0.  1.
    9900012    2    1    2    0    0 -0.73583108955E+01 -0.39890583623E+02 -0.27853327893E+01  0.50528911474E+02  0.30000156916E+02 0.  0.
         12    1    1    2    0    0  0.73583108955E+01  0.39890583623E+02  0.27853327893E+01  0.40659088526E+02  0.00000000000E+00 0. -1.
         11    1    3    3    0    0 -0.74258186231E+01 -0.11923605433E+02 -0.14291003108E+01  0.14119400720E+02  0.51100000000E-03 0. -1.
        -11    1    3    3    0    0 -0.96899024198E+01 -0.12255787282E+02 -0.69324422748E+01  0.17092609133E+02  0.51100000000E-03 0.  1.
         12    1    3    3    0    0  0.97574101474E+01 -0.15711190908E+02  0.55762097962E+01  0.19316901621E+02  0.00000000000E+00 0. -1.
</event>
<event>
 7    1  0.5290964E-013  0.5052888E+02  0.7816164E-02  0.1300439E+00
        -11   -1    0    0    0    0  0.00000000000E+00  0.00000000000E+00  0.45593999997E+02  0.45594000000E+02  0.51100000000E-03 0. -1.
         11   -1    0    0    0    0 -0.00000000000E+00 -0.00000000000E+00 -0.45593999997E+02  0.45594000000E+02  0.51100000000E-03 0.  1.
    9900012    2    1    2    0    0 -0.40283157339E+01  0.28371264142E+01 -0.40359475428E+02  0.50528882071E+02  0.30000067544E+02 0.  0.
         12    1    1    2    0    0  0.40283157339E+01 -0.28371264142E+01  0.40359475428E+02  0.40659117929E+02  0.00000000000E+00 0. -1.
         11    1    3    3    0    0 -0.52482610947E+01  0.63186346325E+01 -0.29309543131E+02  0.30438769800E+02  0.51100000000E-03 0. -1.
        -11    1    3    3    0    0  0.51596306888E+00  0.57484543579E+01 -0.88662076300E+01  0.10579252497E+02  0.51100000000E-03 0.  1.
         12    1    3    3    0    0  0.70398229195E+00 -0.92299625762E+01 -0.21837246666E+01  0.95108597742E+01  0.00000000000E+00 0. -1.
</event>
<event>
 7    1  0.5290964E-013  0.5052886E+02  0.7816164E-02  0.1300439E+00
        -11   -1    0    0    0    0  0.00000000000E+00  0.00000000000E+00  0.45593999997E+02  0.45594000000E+02  0.51100000000E-03 0. -1.
         11   -1    0    0    0    0 -0.00000000000E+00 -0.00000000000E+00 -0.45593999997E+02  0.45594000000E+02  0.51100000000E-03 0.  1.
    9900012    2    1    2    0    0  0.33829562114E+02  0.74412054619E+01 -0.21292135012E+02  0.50528858040E+02  0.29999994499E+02 0.  0.
         12    1    1    2    0    0 -0.33829562114E+02 -0.74412054619E+01  0.21292135012E+02  0.40659141960E+02  0.00000000000E+00 0. -1.
         11    1    3    3    0    0 -0.35423842622E+01 -0.19584284829E+01 -0.37616386254E+01  0.55257446370E+01  0.51100000000E-03 0. -1.
        -11    1    3    3    0    0  0.12002688225E+02  0.19750426305E+01 -0.13654777770E+02  0.18287106776E+02  0.51100000000E-03 0.  1.
         12    1    3    3    0    0  0.25369258151E+02  0.74245913143E+01 -0.38757186161E+01  0.26716006627E+02  0.00000000000E+00 0. -1.
</event>
<event>
 7    1  0.5290964E-013  0.5052888E+02  0.7816164E-02  0.1300439E+00
        -11   -1    0    0    0    0  0.00000000000E+00  0.00000000000E+00  0.45593999997E+02  0.45594000000E+02  0.51100000000E-03 0. -1.
         11   -1    0    0    0    0 -0.00000000000E+00 -0.00000000000E+00 -0.45593999997E+02  0.45594000000E+02  0.51100000000E-03 0.  1.
    9900012    2    1    2    0    0  0.25985362219E+01 -0.31532623309E+02 -0.25536359889E+02  0.50528875567E+02  0.30000047775E+02 0.  0.
         12    1    1    2    0    0 -0.25985362219E+01  0.31532623309E+02  0.25536359889E+02  0.40659124433E+02  0.00000000000E+00 0. -1.
         11    1    3    3    0    0 -0.67458081304E+01 -0.19902613055E+02 -0.69943167041E+01  0.22148146653E+02  0.51100000000E-03 0. -1.
        -11    1    3    3    0    0 -0.43285928087E+00 -0.11659461909E+02 -0.10963137956E+02  0.16010022275E+02  0.51100000000E-03 0.  1.
        -12    1    3    3    0    0  0.97772036332E+01  0.29451654478E-01 -0.75789052295E+01  0.12370706640E+02  0.00000000000E+00 0.  1.
</event>
<event>
 7    1  0.5290964E-013  0.5052886E+02  0.7816164E-02  0.1300439E+00
        -11   -1    0    0    0    0  0.00000000000E+00  0.00000000000E+00  0.45593999997E+02  0.45594000000E+02  0.51100000000E-03 0. -1.
         11   -1    0    0    0    0 -0.00000000000E+00 -0.00000000000E+00 -0.45593999997E+02  0.45594000000E+02  0.51100000000E-03 0.  1.
    9900012    2    1    2    0    0 -0.45492781707E+01  0.44353726995E+00 -0.40401400473E+02  0.50528858133E+02  0.29999994781E+02 0.  0.
         12    1    1    2    0    0  0.45492781707E+01 -0.44353726995E+00  0.40401400473E+02  0.40659141867E+02  0.00000000000E+00 0. -1.
         11    1    3    3    0    0  0.30999133452E+01  0.80011829922E+01 -0.39134727918E+01  0.94309947288E+01  0.51100000000E-03 0. -1.
        -11    1    3    3    0    0 -0.17374209502E+01  0.97284896444E+00  0.97977725412E+00  0.22192409501E+01  0.51100000000E-03 0.  1.
        -12    1    3    3    0    0 -0.59117705657E+01 -0.85304946866E+01 -0.37467704935E+02  0.38878622454E+02  0.00000000000E+00 0.  1.
</event>
<event>
 7    1  0.5290964E-013  0.5052886E+02  0.7816164E-02  0.1300439E+00
        -11   -1    0    0    0    0  0.00000000000E+00  0.00000000000E+00  0.45593999997E+02  0.45594000000E+02  0.51100000000E-03 0. -1.
         11   -1    0    0    0    0 -0.00000000000E+00 -0.00000000000E+00 -0.45593999997E+02  0.45594000000E+02  0.51100000000E-03 0.  1.
    9900012    2    1    2    0    0  0.25241702377E+02 -0.52648704799E+01 -0.31437297230E+02  0.50528855184E+02  0.29999985816E+02 0.  0.
         12    1    1    2    0    0 -0.25241702377E+02  0.52648704799E+01  0.31437297230E+02  0.40659144816E+02  0.00000000000E+00 0. -1.
         11    1    3    3    0    0  0.51427648239E+01  0.33703130989E+01 -0.56390247905E+01  0.83429995366E+01  0.51100000000E-03 0. -1.
        -11    1    3    3    0    0  0.24589149040E+02 -0.51110068925E+01 -0.13239404344E+02  0.28390675751E+02  0.51100000000E-03 0.  1.
        -12    1    3    3    0    0 -0.44902114868E+01 -0.35241766864E+01 -0.12558868096E+02  0.13795179896E+02  0.00000000000E+00 0.  1.
</event>
<event>
 7    1  0.5290964E-013  0.5052886E+02  0.7816164E-02  0.1300439E+00
        -11   -1    0    0    0    0  0.00000000000E+00  0.00000000000E+00  0.45593999997E+02  0.45594000000E+02  0.51100000000E-03 0. -1.
         11   -1    0    0    0    0 -0.00000000000E+00 -0.00000000000E+00 -0.45593999997E+02  0.45594000000E+02  0.51100000000E-03 0.  1.
    9900012    2    1    2    0    0 -0.13607564351E+02 -0.37652376730E+02 -0.70921131168E+01  0.50528863887E+02  0.30000012270E+02 0.  0.
         12    1    1    2    0    0  0.13607564351E+02  0.37652376730E+02  0.70921131168E+01  0.40659136113E+02  0.00000000000E+00 0. -1.
         11    1    3    3    0    0  0.52822821694E+01 -0.37215113958E+01  0.14484178504E+01  0.66219382750E+01  0.51100000000E-03 0. -1.
        -11    1    3    3    0    0 -0.28828702978E+00  0.67214428075E-01 -0.49807997062E+01  0.49895884766E+01  0.51100000000E-03 0.  1.
        -12    1    3    3    0    0 -0.18601559491E+02 -0.33998079763E+02 -0.35597312609E+01  0.38917337135E+02  0.00000000000E+00 0.  1.
</event>
<event>
 7    1  0.5290964E-013  0.5052886E+02  0.7816164E-02  0.1300439E+00
        -11   -1    0    0    0    0  0.00000000000E+00  0.00000000000E+00  0.45593999997E+02  0.45594000000E+02  0.51100000000E-03 0.  1.
         11   -1    0    0    0    0 -0.00000000000E+00 -0.00000000000E+00 -0.45593999997E+02  0.45594000000E+02  0.51100000000E-03 0. -1.
    9900012    2    1    2    0    0 -0.14131093393E+01  0.19508304730E+02  0.35645407014E+02  0.50528857453E+02  0.29999992715E+02 0.  0.
         12    1    1    2    0    0  0.14131093393E+01 -0.19508304730E+02 -0.35645407014E+02  0.40659142547E+02  0.00000000000E+00 0. -1.
         11    1    3    3    0    0 -0.61166704817E+00  0.11821334276E+02  0.20321817925E+01  0.12010322383E+02  0.51100000000E-03 0. -1.
        -11    1    3    3    0    0  0.10880794607E+01  0.11090156423E+02  0.11307124540E+02  0.15875344155E+02  0.51100000000E-03 0.  1.
        -12    1    3    3    0    0 -0.18895217518E+01 -0.34031859700E+01  0.22306100682E+02  0.22643190916E+02  0.00000000000E+00 0.  1.
</event>
<event>
 7    1  0.5290964E-013  0.5052886E+02  0.7816164E-02  0.1300439E+00
        -11   -1    0    0    0    0  0.00000000000E+00  0.00000000000E+00  0.45593999997E+02  0.45594000000E+02  0.51100000000E-03 0.  1.
         11   -1    0    0    0    0 -0.00000000000E+00 -0.00000000000E+00 -0.45593999997E+02  0.45594000000E+02  0.51100000000E-03 0. -1.
    9900012    2    1    2    0    0 -0.19181457012E+02  0.31557793979E+02  0.17010093515E+02  0.50528856683E+02  0.29999990372E+02 0.  0.
         12    1    1    2    0    0  0.19181457012E+02 -0.31557793979E+02 -0.17010093515E+02  0.40659143317E+02  0.00000000000E+00 0. -1.
         11    1    3    3    0    0 -0.15586713841E+02  0.21329653160E+02  0.16123873234E+02  0.30949621009E+02  0.51100000000E-03 0.  1.
        -11    1    3    3    0    0 -0.48779511265E+01  0.13300698267E+02 -0.29797935001E+01  0.14476952412E+02  0.51100000000E-03 0. -1.
        -12    1    3    3    0    0  0.12832079555E+01 -0.30725574475E+01  0.38660137811E+01  0.51022832615E+01  0.00000000000E+00 0.  1.
</event>
<event>
 7    1  0.5290964E-013  0.5052886E+02  0.7816164E-02  0.1300439E+00
        -11   -1    0    0    0    0  0.00000000000E+00  0.00000000000E+00  0.45593999997E+02  0.45594000000E+02  0.51100000000E-03 0. -1.
         11   -1    0    0    0    0 -0.00000000000E+00 -0.00000000000E+00 -0.45593999997E+02  0.45594000000E+02  0.51100000000E-03 0.  1.
    9900012    2    1    2    0    0 -0.11470140585E+02  0.25798418630E+02 -0.29258212940E+02  0.50528861380E+02  0.30000004650E+02 0.  0.
         12    1    1    2    0    0  0.11470140585E+02 -0.25798418630E+02  0.29258212940E+02  0.40659138620E+02  0.00000000000E+00 0. -1.
         11    1    3    3    0    0 -0.18375695213E+01 -0.39235025515E+01 -0.25720810953E+01  0.50384655838E+01  0.51100000000E-03 0. -1.
        -11    1    3    3    0    0  0.32742917843E+01 -0.58757926350E+00 -0.51546338132E+01  0.61348582778E+01  0.51100000000E-03 0.  1.
         12    1    3    3    0    0 -0.12906862848E+02  0.30309500445E+02 -0.21531498032E+02  0.39355537518E+02  0.00000000000E+00 0. -1.
</event>
<event>
 7    1  0.5290964E-013  0.5052886E+02  0.7816164E-02  0.1300439E+00
        -11   -1    0    0    0    0  0.00000000000E+00  0.00000000000E+00  0.45593999997E+02  0.45594000000E+02  0.51100000000E-03 0.  1.
         11   -1    0    0    0    0 -0.00000000000E+00 -0.00000000000E+00 -0.45593999997E+02  0.45594000000E+02  0.51100000000E-03 0. -1.
    9900012    2    1    2    0    0  0.25666361307E+02 -0.10166967116E+02  0.29850227334E+02  0.50528863327E+02  0.30000010568E+02 0.  0.
         12    1    1    2    0    0 -0.25666361307E+02  0.10166967116E+02 -0.29850227334E+02  0.40659136673E+02  0.00000000000E+00 0. -1.
         11    1    3    3    0    0  0.43337786586E+00 -0.47317345328E+01  0.91460442446E+01  0.10306660645E+02  0.51100000000E-03 0. -1.
        -11    1    3    3    0    0  0.12064441019E+01  0.62018579263E+00  0.14653630482E+02  0.14716284326E+02  0.51100000000E-03 0.  1.
        -12    1    3    3    0    0  0.24026539340E+02 -0.60554183763E+01  0.60505526076E+01  0.25505918357E+02  0.00000000000E+00 0.  1.
</event>
<event>
 7    1  0.5290964E-013  0.5052885E+02  0.7816164E-02  0.1300439E+00
        -11   -1    0    0    0    0  0.00000000000E+00  0.00000000000E+00  0.45593999997E+02  0.45594000000E+02  0.51100000000E-03 0.  1.
         11   -1    0    0    0    0 -0.00000000000E+00 -0.00000000000E+00 -0.45593999997E+02  0.45594000000E+02  0.51100000000E-03 0. -1.
    9900012    2    1    2    0    0  0.20294049432E+02  0.19326815016E+02  0.29458312518E+02  0.50528851000E+02  0.29999973100E+02 0.  0.
         12    1    1    2    0    0 -0.20294049432E+02 -0.19326815016E+02 -0.29458312518E+02  0.40659149000E+02  0.00000000000E+00 0. -1.
         11    1    3    3    0    0  0.99889570853E+01  0.81631028372E+00  0.12905462242E+02  0.16340030051E+02  0.51100000000E-03 0. -1.
        -11    1    3    3    0    0  0.15460743955E+02  0.83559055039E+01  0.57481109318E+01  0.18490444558E+02  0.51100000000E-03 0.  1.
         12    1    3    3    0    0 -0.51556516085E+01  0.10154599229E+02  0.10804739344E+02  0.15698376390E+02  0.00000000000E+00 0. -1.
</event>
<event>
 7    1  0.5290964E-013  0.5052886E+02  0.7816164E-02  0.1300439E+00
        -11   -1    0    0    0    0  0.00000000000E+00  0.00000000000E+00  0.45593999997E+02  0.45594000000E+02  0.51100000000E-03 0.  1.
         11   -1    0    0    0    0 -0.00000000000E+00 -0.00000000000E+00 -0.45593999997E+02  0.45594000000E+02  0.51100000000E-03 0. -1.
    9900012    2    1    2    0    0  0.34240416531E+01 -0.18390345754E+02  0.36100371669E+02  0.50528859418E+02  0.29999998688E+02 0.  0.
         12    1    1    2    0    0 -0.34240416531E+01  0.18390345754E+02 -0.36100371669E+02  0.40659140582E+02  0.00000000000E+00 0. -1.
         11    1    3    3    0    0 -0.86813288763E+01 -0.38293310071E+01  0.72031325151E+01  0.11912781594E+02  0.51100000000E-03 0. -1.
        -11    1    3    3    0    0 -0.38055627742E+01  0.15829313540E+00  0.58220236431E+01  0.69572497660E+01  0.51100000000E-03 0.  1.
        -12    1    3    3    0    0  0.15910933304E+02 -0.14719307882E+02  0.23075215511E+02  0.31658828058E+02  0.00000000000E+00 0.  1.
</event>
<event>
 7    1  0.5290964E-013  0.5052887E+02  0.7816164E-02  0.1300439E+00
        -11   -1    0    0    0    0  0.00000000000E+00  0.00000000000E+00  0.45593999997E+02  0.45594000000E+02  0.51100000000E-03 0.  1.
         11   -1    0    0    0    0 -0.00000000000E+00 -0.00000000000E+00 -0.45593999997E+02  0.45594000000E+02  0.51100000000E-03 0. -1.
    9900012    2    1    2    0    0 -0.37951012008E+02  0.10458751313E+02  0.10173508046E+02  0.50528867478E+02  0.30000023186E+02 0.  0.
         12    1    1    2    0    0  0.37951012008E+02 -0.10458751313E+02 -0.10173508046E+02  0.40659132522E+02  0.00000000000E+00 0. -1.
         11    1    3    3    0    0  0.31266289116E+00 -0.96700044959E+00  0.67012996885E+01  0.67779248837E+01  0.51100000000E-03 0. -1.
        -11    1    3    3    0    0 -0.22764176090E+02  0.76733025989E+01  0.10631866871E+02  0.26270208969E+02  0.51100000000E-03 0.  1.
        -12    1    3    3    0    0 -0.15499498809E+02  0.37524491635E+01 -0.71596585133E+01  0.17480733626E+02  0.00000000000E+00 0.  1.
</event>
<event>
 7    1  0.5290964E-013  0.5052887E+02  0.7816164E-02  0.1300439E+00
        -11   -1    0    0    0    0  0.00000000000E+00  0.00000000000E+00  0.45593999997E+02  0.45594000000E+02  0.51100000000E-03 0.  1.
         11   -1    0    0    0    0 -0.00000000000E+00 -0.00000000000E+00 -0.45593999997E+02  0.45594000000E+02  0.51100000000E-03 0. -1.
    9900012    2    1    2    0    0  0.10714300656E+02  0.41776936997E+01  0.38998919909E+02  0.50528866743E+02  0.30000020951E+02 0.  0.
         12    1    1    2    0    0 -0.10714300656E+02 -0.41776936997E+01 -0.38998919909E+02  0.40659133257E+02  0.00000000000E+00 0. -1.
         11    1    3    3    0    0  0.11687755442E+02  0.66968707942E+01  0.11250014744E+02  0.17550342951E+02  0.51100000000E-03 0. -1.
        -11    1    3    3    0    0  0.83151514673E+01 -0.15992198516E+01  0.13965223112E+02  0.16331769803E+02  0.51100000000E-03 0.  1.
         12    1    3    3    0    0 -0.92886062526E+01 -0.91995724287E+00  0.13783682053E+02  0.16646753989E+02  0.00000000000E+00 0. -1.
</event>
<event>
 7    1  0.5290964E-013  0.5052884E+02  0.7816164E-02  0.1300439E+00
        -11   -1    0    0    0    0  0.00000000000E+00  0.00000000000E+00  0.45593999997E+02  0.45594000000E+02  0.51100000000E-03 0. -1.
         11   -1    0    0    0    0 -0.00000000000E+00 -0.00000000000E+00 -0.45593999997E+02  0.45594000000E+02  0.51100000000E-03 0.  1.
    9900012    2    1    2    0    0  0.31150744512E+02 -0.26024504145E+02 -0.23502338483E+01  0.50528839915E+02  0.29999939407E+02 0.  0.
         12    1    1    2    0    0 -0.31150744512E+02  0.26024504145E+02  0.23502338483E+01  0.40659160085E+02  0.00000000000E+00 0. -1.
         11    1    3    3    0    0  0.16988518949E+02 -0.14851993692E+02  0.11006603780E+02  0.25106509510E+02  0.51100000000E-03 0. -1.
        -11    1    3    3    0    0  0.91536168600E+01 -0.49458862163E+01 -0.66658645169E+00  0.10425681265E+02  0.51100000000E-03 0.  1.
        -12    1    3    3    0    0  0.50086087025E+01 -0.62266242366E+01 -0.12690251177E+02  0.14996649141E+02  0.00000000000E+00 0.  1.
</event>
<event>
 7    1  0.5290964E-013  0.5052885E+02  0.7816164E-02  0.1300439E+00
        -11   -1    0    0    0    0  0.00000000000E+00  0.00000000000E+00  0.45593999997E+02  0.45594000000E+02  0.51100000000E-03 0.  1.
         11   -1    0    0    0    0 -0.00000000000E+00 -0.00000000000E+00 -0.45593999997E+02  0.45594000000E+02  0.51100000000E-03 0. -1.
    9900012    2    1    2    0    0  0.37143226053E+02  0.16054449650E+02  0.39751717506E+01  0.50528848685E+02  0.29999966064E+02 0.  0.
         12    1    1    2    0    0 -0.37143226053E+02 -0.16054449650E+02 -0.39751717506E+01  0.40659151315E+02  0.00000000000E+00 0. -1.
         11    1    3    3    0    0  0.34464402029E+01  0.73505227291E+01 -0.32646883854E+01  0.87502185675E+01  0.51100000000E-03 0. -1.
        -11    1    3    3    0    0  0.15318610628E+02 -0.22224126445E+01 -0.60328088995E+01  0.16613059111E+02  0.51100000000E-03 0.  1.
        -12    1    3    3    0    0  0.18378175222E+02  0.10926339565E+02  0.13272669036E+02  0.25165571007E+02  0.00000000000E+00 0.  1.
</event>
<event>
 7    1  0.5290964E-013  0.5052886E+02  0.7816164E-02  0.1300439E+00
        -11   -1    0    0    0    0  0.00000000000E+00  0.00000000000E+00  0.45593999997E+02  0.45594000000E+02  0.51100000000E-03 0.  1.
         11   -1    0    0    0    0 -0.00000000000E+00 -0.00000000000E+00 -0.45593999997E+02  0.45594000000E+02  0.51100000000E-03 0. -1.
    9900012    2    1    2    0    0  0.14133727359E+02 -0.36831076631E+02 -0.98425090651E+01  0.50528862778E+02  0.30000008901E+02 0.  0.
         12    1    1    2    0    0 -0.14133727359E+02  0.36831076631E+02  0.98425090651E+01  0.40659137222E+02  0.00000000000E+00 0. -1.
         11    1    3    3    0    0 -0.74952816060E+00 -0.20789398730E+02 -0.51412878135E+01  0.21428806141E+02  0.51100000000E-03 0. -1.
        -11    1    3    3    0    0  0.67700633697E+01 -0.73004618780E+01  0.71725492880E+01  0.12270939867E+02  0.51100000000E-03 0.  1.
         12    1    3    3    0    0  0.81131921503E+01 -0.87412160239E+01 -0.11873770540E+02  0.16829116770E+02  0.00000000000E+00 0. -1.
</event>
<event>
 7    1  0.5290964E-013  0.5052888E+02  0.7816164E-02  0.1300439E+00
        -11   -1    0    0    0    0  0.00000000000E+00  0.00000000000E+00  0.45593999997E+02  0.45594000000E+02  0.51100000000E-03 0.  1.
         11   -1    0    0    0    0 -0.00000000000E+00 -0.00000000000E+00 -0.45593999997E+02  0.45594000000E+02  0.51100000000E-03 0. -1.
    9900012    2    1    2    0    0  0.18076903884E+02 -0.33378851781E+02 -0.14568515694E+02  0.50528882329E+02  0.30000068328E+02 0.  0.
         12    1    1    2    0    0 -0.18076903884E+02  0.33378851781E+02  0.14568515694E+02  0.40659117671E+02  0.00000000000E+00 0. -1.
         11    1    3    3    0    0  0.44089573182E+01 -0.68667859243E+01  0.59987061625E+01  0.10127987433E+02  0.51100000000E-03 0.  1.
        -11    1    3    3    0    0  0.94937410070E+01 -0.13142732624E+02 -0.87595119338E+00  0.16236681616E+02  0.51100000000E-03 0. -1.
         12    1    3    3    0    0  0.41742055588E+01 -0.13369333233E+02 -0.19691270663E+02  0.24164213280E+02  0.00000000000E+00 0. -1.
</event>
<event>
 7    1  0.5290964E-013  0.5052880E+02  0.7816164E-02  0.1300439E+00
        -11   -1    0    0    0    0  0.00000000000E+00  0.00000000000E+00  0.45593999997E+02  0.45594000000E+02  0.51100000000E-03 0.  1.
         11   -1    0    0    0    0 -0.00000000000E+00 -0.00000000000E+00 -0.45593999997E+02  0.45594000000E+02  0.51100000000E-03 0. -1.
    9900012    2    1    2    0    0 -0.30549058107E+02  0.25740318046E+02 -0.75737378574E+01  0.50528801416E+02  0.29999822384E+02 0.  0.
         12    1    1    2    0    0  0.30549058107E+02 -0.25740318046E+02  0.75737378574E+01  0.40659198584E+02  0.00000000000E+00 0. -1.
         11    1    3    3    0    0 -0.79833725499E+01  0.50156067807E+01  0.14205161117E+00  0.94292485157E+01  0.51100000000E-03 0. -1.
        -11    1    3    3    0    0 -0.18129057478E+02  0.26358651048E+02 -0.10091445656E+02  0.33545170827E+02  0.51100000000E-03 0.  1.
         12    1    3    3    0    0 -0.44366280797E+01 -0.56339397829E+01  0.23756561875E+01  0.75543820738E+01  0.00000000000E+00 0. -1.
</event>
<event>
 7    1  0.5290964E-013  0.5052875E+02  0.7816164E-02  0.1300439E+00
        -11   -1    0    0    0    0  0.00000000000E+00  0.00000000000E+00  0.45593999997E+02  0.45594000000E+02  0.51100000000E-03 0. -1.
         11   -1    0    0    0    0 -0.00000000000E+00 -0.00000000000E+00 -0.45593999997E+02  0.45594000000E+02  0.51100000000E-03 0.  1.
    9900012    2    1    2    0    0 -0.35462408812E+02  0.18441532141E+02 -0.74499460581E+01  0.50528754523E+02  0.29999679848E+02 0.  0.
         12    1    1    2    0    0  0.35462408812E+02 -0.18441532141E+02  0.74499460581E+01  0.40659245477E+02  0.00000000000E+00 0. -1.
         11    1    3    3    0    0 -0.23226313540E+01 -0.12894723780E+01  0.87450527024E+00  0.27968044531E+01  0.51100000000E-03 0. -1.
        -11    1    3    3    0    0 -0.40067117790E+01  0.60335805324E+01  0.86958420604E+01  0.11317044787E+02  0.51100000000E-03 0.  1.
        -12    1    3    3    0    0 -0.29133065679E+02  0.13697423986E+02 -0.17020293389E+02  0.36414905283E+02  0.00000000000E+00 0.  1.
</event>
<event>
 7    1  0.5290964E-013  0.5052886E+02  0.7816164E-02  0.1300439E+00
        -11   -1    0    0    0    0  0.00000000000E+00  0.00000000000E+00  0.45593999997E+02  0.45594000000E+02  0.51100000000E-03 0. -1.
         11   -1    0    0    0    0 -0.00000000000E+00 -0.00000000000E+00 -0.45593999997E+02  0.45594000000E+02  0.51100000000E-03 0.  1.
    9900012    2    1    2    0    0 -0.21643028396E+02 -0.30095879348E+02 -0.16702784592E+02  0.50528860252E+02  0.30000001223E+02 0.  0.
         12    1    1    2    0    0  0.21643028396E+02  0.30095879348E+02  0.16702784592E+02  0.40659139748E+02  0.00000000000E+00 0. -1.
         11    1    3    3    0    0 -0.10748202857E+02 -0.56168405726E+01  0.54145710248E+01  0.13281202593E+02  0.51100000000E-03 0. -1.
        -11    1    3    3    0    0 -0.23762968312E+01  0.11016097049E+01 -0.44801024030E+00  0.26572625027E+01  0.51100000000E-03 0.  1.
        -12    1    3    3    0    0 -0.85185287075E+01 -0.25580648481E+02 -0.21669345376E+02  0.34590395156E+02  0.00000000000E+00 0.  1.
</event>
<event>
 7    1  0.5290964E-013  0.5052886E+02  0.7816164E-02  0.1300439E+00
        -11   -1    0    0    0    0  0.00000000000E+00  0.00000000000E+00  0.45593999997E+02  0.45594000000E+02  0.51100000000E-03 0. -1.
         11   -1    0    0    0    0 -0.00000000000E+00 -0.00000000000E+00 -0.45593999997E+02  0.45594000000E+02  0.51100000000E-03 0.  1.
    9900012    2    1    2    0    0  0.35911195990E+02 -0.10528659240E+02 -0.15896516042E+02  0.50528857300E+02  0.29999992249E+02 0.  0.
         12    1    1    2    0    0 -0.35911195990E+02  0.10528659240E+02  0.15896516042E+02  0.40659142700E+02  0.00000000000E+00 0. -1.
         11    1    3    3    0    0  0.17525296191E+01 -0.36334557877E+01  0.22595255460E+01  0.46237232812E+01  0.51100000000E-03 0. -1.
        -11    1    3    3    0    0  0.93532526139E+01  0.39316530717E+01 -0.15747374199E+02  0.18732886183E+02  0.51100000000E-03 0.  1.
         12    1    3    3    0    0  0.24805413757E+02 -0.10826856524E+02 -0.24086673895E+01  0.27172247836E+02  0.00000000000E+00 0. -1.
</event>
<event>
 7    1  0.5290964E-013  0.5052886E+02  0.7816164E-02  0.1300439E+00
        -11   -1    0    0    0    0  0.00000000000E+00  0.00000000000E+00  0.45593999997E+02  0.45594000000E+02  0.51100000000E-03 0.  1.
         11   -1    0    0    0    0 -0.00000000000E+00 -0.00000000000E+00 -0.45593999997E+02  0.45594000000E+02  0.51100000000E-03 0. -1.
    9900012    2    1    2    0    0 -0.34289679754E+02  0.20991434037E+02 -0.60616037349E+01  0.50528862277E+02  0.30000007377E+02 0.  0.
         12    1    1    2    0    0  0.34289679754E+02 -0.20991434037E+02  0.60616037349E+01  0.40659137723E+02  0.00000000000E+00 0. -1.
         11    1    3    3    0    0 -0.18697860572E+02  0.38956269818E+01 -0.39665421403E+01  0.19506905351E+02  0.51100000000E-03 0. -1.
        -11    1    3    3    0    0 -0.14860855435E+02  0.66451901461E+01 -0.88772213286E+01  0.18542077422E+02  0.51100000000E-03 0.  1.
        -12    1    3    3    0    0 -0.73096374621E+00  0.10450616909E+02  0.67821597340E+01  0.12479879504E+02  0.00000000000E+00 0.  1.
</event>
<event>
 7    1  0.5290964E-013  0.5052887E+02  0.7816164E-02  0.1300439E+00
        -11   -1    0    0    0    0  0.00000000000E+00  0.00000000000E+00  0.45593999997E+02  0.45594000000E+02  0.51100000000E-03 0.  1.
         11   -1    0    0    0    0 -0.00000000000E+00 -0.00000000000E+00 -0.45593999997E+02  0.45594000000E+02  0.51100000000E-03 0. -1.
    9900012    2    1    2    0    0  0.10166326285E+01 -0.35037913875E+02  0.20602820343E+02  0.50528866257E+02  0.30000019476E+02 0.  0.
         12    1    1    2    0    0 -0.10166326285E+01  0.35037913875E+02 -0.20602820343E+02  0.40659133743E+02  0.00000000000E+00 0. -1.
         11    1    3    3    0    0  0.45793175069E+01  0.40803189273E+01  0.11771480087E+01  0.62453846217E+01  0.51100000000E-03 0. -1.
        -11    1    3    3    0    0 -0.23952255432E+00 -0.19783756947E+00  0.10876575201E+01  0.11311542335E+01  0.51100000000E-03 0.  1.
        -12    1    3    3    0    0 -0.33231623241E+01 -0.38920395233E+02  0.18338014814E+02  0.43152327402E+02  0.00000000000E+00 0.  1.
</event>
<event>
 7    1  0.5290964E-013  0.5052884E+02  0.7816164E-02  0.1300439E+00
        -11   -1    0    0    0    0  0.00000000000E+00  0.00000000000E+00  0.45593999997E+02  0.45594000000E+02  0.51100000000E-03 0.  1.
         11   -1    0    0    0    0 -0.00000000000E+00 -0.00000000000E+00 -0.45593999997E+02  0.45594000000E+02  0.51100000000E-03 0. -1.
    9900012    2    1    2    0    0  0.26417303193E+02 -0.93766647320E+01  0.29451174677E+02  0.50528838187E+02  0.29999934153E+02 0.  0.
         12    1    1    2    0    0 -0.26417303193E+02  0.93766647320E+01 -0.29451174677E+02  0.40659161813E+02  0.00000000000E+00 0. -1.
         11    1    3    3    0    0  0.56913094310E+01  0.79899275990E+01  0.31023732455E+01  0.10288569682E+02  0.51100000000E-03 0. -1.
        -11    1    3    3    0    0  0.13227020079E+02 -0.26706993167E+01  0.85688339088E+01  0.15984730521E+02  0.51100000000E-03 0.  1.
        -12    1    3    3    0    0  0.74989736826E+01 -0.14695893014E+02  0.17779967523E+02  0.24255537984E+02  0.00000000000E+00 0.  1.
</event>
<event>
 7    1  0.5290964E-013  0.5052886E+02  0.7816164E-02  0.1300439E+00
        -11   -1    0    0    0    0  0.00000000000E+00  0.00000000000E+00  0.45593999997E+02  0.45594000000E+02  0.51100000000E-03 0. -1.
         11   -1    0    0    0    0 -0.00000000000E+00 -0.00000000000E+00 -0.45593999997E+02  0.45594000000E+02  0.51100000000E-03 0.  1.
    9900012    2    1    2    0    0 -0.10777325470E+02  0.30534546674E+02 -0.24589765127E+02  0.50528857930E+02  0.29999994165E+02 0.  0.
         12    1    1    2    0    0  0.10777325470E+02 -0.30534546674E+02  0.24589765127E+02  0.40659142070E+02  0.00000000000E+00 0. -1.
         11    1    3    3    0    0 -0.13346074730E+01 -0.13306395909E+01 -0.20872650234E+01  0.28121974268E+01  0.51100000000E-03 0. -1.
        -11    1    3    3    0    0 -0.84426075966E+01  0.33427470078E+01 -0.16074317474E+02  0.18461724272E+02  0.51100000000E-03 0.  1.
        -12    1    3    3    0    0 -0.10001104008E+01  0.28522439257E+02 -0.64281826293E+01  0.29254936231E+02  0.00000000000E+00 0.  1.
</event>
<event>
 7    1  0.5290964E-013  0.5052885E+02  0.7816164E-02  0.1300439E+00
        -11   -1    0    0    0    0  0.00000000000E+00  0.00000000000E+00  0.45593999997E+02  0.45594000000E+02  0.51100000000E-03 0.  1.
         11   -1    0    0    0    0 -0.00000000000E+00 -0.00000000000E+00 -0.45593999997E+02  0.45594000000E+02  0.51100000000E-03 0. -1.
    9900012    2    1    2    0    0  0.83507866602E+01 -0.18401584226E+02  0.35281899648E+02  0.50528851181E+02  0.29999973651E+02 0.  0.
         12    1    1    2    0    0 -0.83507866602E+01  0.18401584226E+02 -0.35281899648E+02  0.40659148819E+02  0.00000000000E+00 0. -1.
         11    1    3    3    0    0 -0.12889303320E+01 -0.35035669634E+01 -0.41705337457E+01  0.55972917427E+01  0.51100000000E-03 0. -1.
        -11    1    3    3    0    0  0.16691119193E+00 -0.98993027707E+00 -0.81265361092E+00  0.12915987968E+01  0.51100000000E-03 0.  1.
        -12    1    3    3    0    0  0.94728058003E+01 -0.13908086986E+02  0.40265087005E+02  0.43639960642E+02  0.00000000000E+00 0.  1.
</event>
<event>
 7    1  0.5290964E-013  0.5052885E+02  0.7816164E-02  0.1300439E+00
        -11   -1    0    0    0    0  0.00000000000E+00  0.00000000000E+00  0.45593999997E+02  0.45594000000E+02  0.51100000000E-03 0. -1.
         11   -1    0    0    0    0 -0.00000000000E+00 -0.00000000000E+00 -0.45593999997E+02  0.45594000000E+02  0.51100000000E-03 0.  1.
    9900012    2    1    2    0    0  0.18644039712E+02  0.18838200004E+02 -0.30833232191E+02  0.50528853384E+02  0.29999980347E+02 0.  0.
         12    1    1    2    0    0 -0.18644039712E+02 -0.18838200004E+02  0.30833232191E+02  0.40659146616E+02  0.00000000000E+00 0. -1.
         11    1    3    3    0    0  0.48686350754E+01 -0.63147713754E+01 -0.23620298813E+01  0.83161968737E+01  0.51100000000E-03 0. -1.
        -11    1    3    3    0    0  0.30003078615E+01 -0.54112687692E+00 -0.13640573721E+01  0.33399578345E+01  0.51100000000E-03 0.  1.
        -12    1    3    3    0    0  0.10775096775E+02  0.25694098257E+02 -0.27107144937E+02  0.38872698676E+02  0.00000000000E+00 0.  1.
</event>
<event>
 7    1  0.5290964E-013  0.5052879E+02  0.7816164E-02  0.1300439E+00
        -11   -1    0    0    0    0  0.00000000000E+00  0.00000000000E+00  0.45593999997E+02  0.45594000000E+02  0.51100000000E-03 0.  1.
         11   -1    0    0    0    0 -0.00000000000E+00 -0.00000000000E+00 -0.45593999997E+02  0.45594000000E+02  0.51100000000E-03 0. -1.
    9900012    2    1    2    0    0 -0.21230501159E+02 -0.31692934838E+02  0.14071057859E+02  0.50528794801E+02  0.29999802277E+02 0.  0.
         12    1    1    2    0    0  0.21230501159E+02  0.31692934838E+02 -0.14071057859E+02  0.40659205199E+02  0.00000000000E+00 0. -1.
         11    1    3    3    0    0 -0.33920564168E+01  0.17364023049E+01  0.83917018474E+01  0.92163875708E+01  0.51100000000E-03 0. -1.
        -11    1    3    3    0    0  0.13015926615E+00 -0.12854658738E+02 -0.18242616665E+01  0.12984110427E+02  0.51100000000E-03 0.  1.
        -12    1    3    3    0    0 -0.17968604008E+02 -0.20574678405E+02  0.75036176783E+01  0.28328296803E+02  0.00000000000E+00 0.  1.
</event>
<event>
 7    1  0.5290964E-013  0.5052886E+02  0.7816164E-02  0.1300439E+00
        -11   -1    0    0    0    0  0.00000000000E+00  0.00000000000E+00  0.45593999997E+02  0.45594000000E+02  0.51100000000E-03 0. -1.
         11   -1    0    0    0    0 -0.00000000000E+00 -0.00000000000E+00 -0.45593999997E+02  0.45594000000E+02  0.51100000000E-03 0.  1.
    9900012    2    1    2    0    0 -0.26533108260E+02 -0.30131855927E+02 -0.64211213090E+01  0.50528863580E+02  0.30000011337E+02 0.  0.
         12    1    1    2    0    0  0.26533108260E+02  0.30131855927E+02  0.64211213090E+01  0.40659136420E+02  0.00000000000E+00 0. -1.
         11    1    3    3    0    0 -0.45422410248E+01  0.79073669859E+00 -0.53173819767E+00  0.46411166573E+01  0.51100000000E-03 0. -1.
        -11    1    3    3    0    0 -0.26756620213E+02 -0.19432682010E+02 -0.41968663846E+01  0.33334059804E+02  0.51100000000E-03 0.  1.
        -12    1    3    3    0    0  0.47657529772E+01 -0.11489910616E+02 -0.16925167267E+01  0.12553687118E+02  0.00000000000E+00 0.  1.
</event>
<event>
 7    1  0.5290964E-013  0.5052886E+02  0.7816164E-02  0.1300439E+00
        -11   -1    0    0    0    0  0.00000000000E+00  0.00000000000E+00  0.45593999997E+02  0.45594000000E+02  0.51100000000E-03 0.  1.
         11   -1    0    0    0    0 -0.00000000000E+00 -0.00000000000E+00 -0.45593999997E+02  0.45594000000E+02  0.51100000000E-03 0. -1.
    9900012    2    1    2    0    0  0.28721300702E+01 -0.38118263655E+02  0.13853329384E+02  0.50528857237E+02  0.29999992056E+02 0.  0.
         12    1    1    2    0    0 -0.28721300702E+01  0.38118263655E+02 -0.13853329384E+02  0.40659142763E+02  0.00000000000E+00 0. -1.
         11    1    3    3    0    0  0.11350770524E+02 -0.18428943255E+02  0.17930787862E+02  0.28106566752E+02  0.51100000000E-03 0. -1.
        -11    1    3    3    0    0 -0.23244681372E+01 -0.24947955290E+01 -0.22122018771E+01  0.40646025954E+01  0.51100000000E-03 0.  1.
        -12    1    3    3    0    0 -0.61541723165E+01 -0.17194524871E+02 -0.18652566007E+01  0.18357687889E+02  0.00000000000E+00 0.  1.
</event>
<event>
 7    1  0.5290964E-013  0.5052886E+02  0.7816164E-02  0.1300439E+00
        -11   -1    0    0    0    0  0.00000000000E+00  0.00000000000E+00  0.45593999997E+02  0.45594000000E+02  0.51100000000E-03 0. -1.
         11   -1    0    0    0    0 -0.00000000000E+00 -0.00000000000E+00 -0.45593999997E+02  0.45594000000E+02  0.51100000000E-03 0.  1.
    9900012    2    1    2    0    0 -0.22485323172E+02  0.12782305661E+02 -0.31371777155E+02  0.50528862060E+02  0.30000006718E+02 0.  0.
         12    1    1    2    0    0  0.22485323172E+02 -0.12782305661E+02  0.31371777155E+02  0.40659137940E+02  0.00000000000E+00 0. -1.
         11    1    3    3    0    0 -0.10310226204E+02 -0.73589394987E+01 -0.44662616827E+01  0.13431390420E+02  0.51100000000E-03 0. -1.
        -11    1    3    3    0    0 -0.25394908087E+01  0.21308477796E+00 -0.65390352140E+01  0.70180766939E+01  0.51100000000E-03 0.  1.
         12    1    3    3    0    0 -0.96356061586E+01  0.19928160382E+02 -0.20366480258E+02  0.30079394947E+02  0.00000000000E+00 0. -1.
</event>
<event>
 7    1  0.5290964E-013  0.5052889E+02  0.7816164E-02  0.1300439E+00
        -11   -1    0    0    0    0  0.00000000000E+00  0.00000000000E+00  0.45593999997E+02  0.45594000000E+02  0.51100000000E-03 0.  1.
         11   -1    0    0    0    0 -0.00000000000E+00 -0.00000000000E+00 -0.45593999997E+02  0.45594000000E+02  0.51100000000E-03 0. -1.
    9900012    2    1    2    0    0 -0.54671104101E+01 -0.19804570633E+02  0.35086361312E+02  0.50528891988E+02  0.30000097688E+02 0.  0.
         12    1    1    2    0    0  0.54671104101E+01  0.19804570633E+02 -0.35086361312E+02  0.40659108012E+02  0.00000000000E+00 0. -1.
         11    1    3    3    0    0  0.36996125739E+01 -0.59023902376E+01 -0.73090956467E+00  0.70042539051E+01  0.51100000000E-03 0. -1.
        -11    1    3    3    0    0 -0.76730579069E+01  0.25362096046E+01  0.14027335909E+02  0.16188709948E+02  0.51100000000E-03 0.  1.
         12    1    3    3    0    0 -0.14936650771E+01 -0.16438390000E+02  0.21789934967E+02  0.27335928136E+02  0.00000000000E+00 0. -1.
</event>
<event>
 7    1  0.5290964E-013  0.5052884E+02  0.7816164E-02  0.1300439E+00
        -11   -1    0    0    0    0  0.00000000000E+00  0.00000000000E+00  0.45593999997E+02  0.45594000000E+02  0.51100000000E-03 0.  1.
         11   -1    0    0    0    0 -0.00000000000E+00 -0.00000000000E+00 -0.45593999997E+02  0.45594000000E+02  0.51100000000E-03 0. -1.
    9900012    2    1    2    0    0  0.21935423548E+02  0.32380625309E+02 -0.11113044794E+02  0.50528837856E+02  0.29999933148E+02 0.  0.
         12    1    1    2    0    0 -0.21935423548E+02 -0.32380625309E+02  0.11113044794E+02  0.40659162144E+02  0.00000000000E+00 0. -1.
         11    1    3    3    0    0  0.38023597951E+01  0.47912422853E+01  0.36811105605E+01  0.71389437501E+01  0.51100000000E-03 0.  1.
        -11    1    3    3    0    0  0.28882472587E+00  0.17366768423E+02  0.10921697335E+01  0.17403473796E+02  0.51100000000E-03 0. -1.
         12    1    3    3    0    0  0.17844239027E+02  0.10222614601E+02 -0.15886325088E+02  0.25986420311E+02  0.00000000000E+00 0. -1.
</event>
<event>
 7    1  0.5290964E-013  0.5052886E+02  0.7816164E-02  0.1300439E+00
        -11   -1    0    0    0    0  0.00000000000E+00  0.00000000000E+00  0.45593999997E+02  0.45594000000E+02  0.51100000000E-03 0. -1.
         11   -1    0    0    0    0 -0.00000000000E+00 -0.00000000000E+00 -0.45593999997E+02  0.45594000000E+02  0.51100000000E-03 0.  1.
    9900012    2    1    2    0    0  0.32915184904E+02 -0.19632485193E+02 -0.13576509897E+02  0.50528862120E+02  0.30000006900E+02 0.  0.
         12    1    1    2    0    0 -0.32915184904E+02  0.19632485193E+02  0.13576509897E+02  0.40659137880E+02  0.00000000000E+00 0. -1.
         11    1    3    3    0    0  0.11016671260E+02 -0.30199474170E+01 -0.17922368769E+01  0.11562838809E+02  0.51100000000E-03 0. -1.
        -11    1    3    3    0    0  0.23828217866E+02 -0.16001776151E+02 -0.17008363793E+02  0.33363531674E+02  0.51100000000E-03 0.  1.
         12    1    3    3    0    0 -0.19297042206E+01 -0.61076162556E+00  0.52240907721E+01  0.56024916365E+01  0.00000000000E+00 0. -1.
</event>
<event>
 7    1  0.5290964E-013  0.5052884E+02  0.7816164E-02  0.1300439E+00
        -11   -1    0    0    0    0  0.00000000000E+00  0.00000000000E+00  0.45593999997E+02  0.45594000000E+02  0.51100000000E-03 0.  1.
         11   -1    0    0    0    0 -0.00000000000E+00 -0.00000000000E+00 -0.45593999997E+02  0.45594000000E+02  0.51100000000E-03 0. -1.
    9900012    2    1    2    0    0  0.12481842203E+02  0.11823281728E+02  0.36845365630E+02  0.50528839360E+02  0.29999937717E+02 0.  0.
         12    1    1    2    0    0 -0.12481842203E+02 -0.11823281728E+02 -0.36845365630E+02  0.40659160640E+02  0.00000000000E+00 0. -1.
         11    1    3    3    0    0  0.95557513606E+01 -0.25132643623E+01  0.12054852498E+01  0.99539980293E+01  0.51100000000E-03 0. -1.
        -11    1    3    3    0    0 -0.20572095471E+01 -0.15106994959E+01  0.29120032578E+01  0.38722199475E+01  0.51100000000E-03 0.  1.
        -12    1    3    3    0    0  0.49833003891E+01  0.15847245586E+02  0.32727877122E+02  0.36702621383E+02  0.00000000000E+00 0.  1.
</event>
<event>
 7    1  0.5290964E-013  0.5052886E+02  0.7816164E-02  0.1300439E+00
        -11   -1    0    0    0    0  0.00000000000E+00  0.00000000000E+00  0.45593999997E+02  0.45594000000E+02  0.51100000000E-03 0. -1.
         11   -1    0    0    0    0 -0.00000000000E+00 -0.00000000000E+00 -0.45593999997E+02  0.45594000000E+02  0.51100000000E-03 0.  1.
    9900012    2    1    2    0    0 -0.67780275795E+01  0.25385475890E+02 -0.31029043925E+02  0.50528860671E+02  0.30000002497E+02 0.  0.
         12    1    1    2    0    0  0.67780275795E+01 -0.25385475890E+02  0.31029043925E+02  0.40659139329E+02  0.00000000000E+00 0. -1.
         11    1    3    3    0    0 -0.27838649747E+01  0.15300996911E+02 -0.16277047079E+02  0.22512500362E+02  0.51100000000E-03 0. -1.
        -11    1    3    3    0    0 -0.43855483359E+01  0.15992764281E+02 -0.14598105638E+02  0.22093126353E+02  0.51100000000E-03 0.  1.
         12    1    3    3    0    0  0.39138573115E+00 -0.59082853020E+01 -0.15389120774E+00  0.59232339566E+01  0.00000000000E+00 0. -1.
</event>
<event>
 7    1  0.5290964E-013  0.5052885E+02  0.7816164E-02  0.1300439E+00
        -11   -1    0    0    0    0  0.00000000000E+00  0.00000000000E+00  0.45593999997E+02  0.45594000000E+02  0.51100000000E-03 0.  1.
         11   -1    0    0    0    0 -0.00000000000E+00 -0.00000000000E+00 -0.45593999997E+02  0.45594000000E+02  0.51100000000E-03 0. -1.
    9900012    2    1    2    0    0 -0.15119641931E+02  0.19573407218E+01  0.37692591172E+02  0.50528853624E+02  0.29999981074E+02 0.  0.
         12    1    1    2    0    0  0.15119641931E+02 -0.19573407218E+01 -0.37692591172E+02  0.40659146376E+02  0.00000000000E+00 0. -1.
         11    1    3    3    0    0 -0.32560100070E+00 -0.82597389506E+01  0.14429970173E+02  0.16629893054E+02  0.51100000000E-03 0. -1.
        -11    1    3    3    0    0 -0.10724464339E+02  0.39961037392E+01  0.23837864098E+02  0.26442895936E+02  0.51100000000E-03 0.  1.
        -12    1    3    3    0    0 -0.40695765915E+01  0.62209759332E+01 -0.57524309935E+00  0.74560646335E+01  0.00000000000E+00 0.  1.
</event>
<event>
 7    1  0.5290964E-013  0.5052886E+02  0.7816164E-02  0.1300439E+00
        -11   -1    0    0    0    0  0.00000000000E+00  0.00000000000E+00  0.45593999997E+02  0.45594000000E+02  0.51100000000E-03 0.  1.
         11   -1    0    0    0    0 -0.00000000000E+00 -0.00000000000E+00 -0.45593999997E+02  0.45594000000E+02  0.51100000000E-03 0. -1.
    9900012    2    1    2    0    0  0.21259694160E+02 -0.27267370014E+02  0.21393503224E+02  0.50528855353E+02  0.29999986332E+02 0.  0.
         12    1    1    2    0    0 -0.21259694160E+02  0.27267370014E+02 -0.21393503224E+02  0.40659144647E+02  0.00000000000E+00 0. -1.
         11    1    3    3    0    0  0.46290483890E+01 -0.93985618221E+01 -0.39949148626E+01  0.11212510795E+02  0.51100000000E-03 0. -1.
        -11    1    3    3    0    0 -0.29817811171E+01 -0.22504881287E+01  0.79278109490E+01  0.87638976576E+01  0.51100000000E-03 0.  1.
         12    1    3    3    0    0  0.19612426888E+02 -0.15618320063E+02  0.17460607137E+02  0.30552446901E+02  0.00000000000E+00 0. -1.
</event>
<event>
 7    1  0.5290964E-013  0.5052886E+02  0.7816164E-02  0.1300439E+00
        -11   -1    0    0    0    0  0.00000000000E+00  0.00000000000E+00  0.45593999997E+02  0.45594000000E+02  0.51100000000E-03 0. -1.
         11   -1    0    0    0    0 -0.00000000000E+00 -0.00000000000E+00 -0.45593999997E+02  0.45594000000E+02  0.51100000000E-03 0.  1.
    9900012    2    1    2    0    0  0.33926342901E+02 -0.21795172645E+02 -0.52095788341E+01  0.50528855827E+02  0.29999987772E+02 0.  0.
         12    1    1    2    0    0 -0.33926342901E+02  0.21795172645E+02  0.52095788341E+01  0.40659144173E+02  0.00000000000E+00 0. -1.
         11    1    3    3    0    0  0.41265740890E+00 -0.53052884062E+01 -0.75804227808E+00  0.53750348433E+01  0.51100000000E-03 0. -1.
        -11    1    3    3    0    0 -0.13451997146E+01  0.61611763533E+00  0.49798374497E+01  0.51949922521E+01  0.51100000000E-03 0.  1.
        -12    1    3    3    0    0  0.34858885207E+02 -0.17106001874E+02 -0.94313740057E+01  0.39958828732E+02  0.00000000000E+00 0.  1.
</event>
<event>
 7    1  0.5290964E-013  0.5052884E+02  0.7816164E-02  0.1300439E+00
        -11   -1    0    0    0    0  0.00000000000E+00  0.00000000000E+00  0.45593999997E+02  0.45594000000E+02  0.51100000000E-03 0.  1.
         11   -1    0    0    0    0 -0.00000000000E+00 -0.00000000000E+00 -0.45593999997E+02  0.45594000000E+02  0.51100000000E-03 0. -1.
    9900012    2    1    2    0    0  0.22170419179E+01 -0.28742931371E+02  0.28672218823E+02  0.50528837307E+02  0.29999931478E+02 0.  0.
         12    1    1    2    0    0 -0.22170419179E+01  0.28742931371E+02 -0.28672218823E+02  0.40659162693E+02  0.00000000000E+00 0. -1.
         11    1    3    3    0    0  0.80967443656E+01 -0.21297397736E+02  0.17623135031E+02  0.28804709827E+02  0.51100000000E-03 0.  1.
        -11    1    3    3    0    0 -0.77244688977E+01 -0.11688000967E+02  0.90885005170E+01  0.16699629585E+02  0.51100000000E-03 0. -1.
        -12    1    3    3    0    0  0.18447664501E+01  0.42424673321E+01  0.19605832757E+01  0.50244978953E+01  0.00000000000E+00 0.  1.
</event>
<event>
 7    1  0.5290964E-013  0.5052887E+02  0.7816164E-02  0.1300439E+00
        -11   -1    0    0    0    0  0.00000000000E+00  0.00000000000E+00  0.45593999997E+02  0.45594000000E+02  0.51100000000E-03 0.  1.
         11   -1    0    0    0    0 -0.00000000000E+00 -0.00000000000E+00 -0.45593999997E+02  0.45594000000E+02  0.51100000000E-03 0. -1.
    9900012    2    1    2    0    0 -0.11913234036E+02 -0.23422841758E+02  0.31025963599E+02  0.50528867220E+02  0.30000022401E+02 0.  0.
         12    1    1    2    0    0  0.11913234036E+02  0.23422841758E+02 -0.31025963599E+02  0.40659132780E+02  0.00000000000E+00 0. -1.
         11    1    3    3    0    0 -0.59669715294E+01 -0.18328958567E+02  0.62679573417E+01  0.20269256545E+02  0.51100000000E-03 0. -1.
        -11    1    3    3    0    0 -0.13893178432E+01 -0.69923839296E+01  0.26476344097E+01  0.76048409133E+01  0.51100000000E-03 0.  1.
        -12    1    3    3    0    0 -0.45569446634E+01  0.18985007389E+01  0.22110371847E+02  0.22654769761E+02  0.00000000000E+00 0.  1.
</event>
<event>
 7    1  0.5290964E-013  0.5052892E+02  0.7816164E-02  0.1300439E+00
        -11   -1    0    0    0    0  0.00000000000E+00  0.00000000000E+00  0.45593999997E+02  0.45594000000E+02  0.51100000000E-03 0.  1.
         11   -1    0    0    0    0 -0.00000000000E+00 -0.00000000000E+00 -0.45593999997E+02  0.45594000000E+02  0.51100000000E-03 0. -1.
    9900012    2    1    2    0    0  0.75886741443E+01 -0.36315927403E+02  0.16635088324E+02  0.50528920793E+02  0.30000185241E+02 0.  0.
         12    1    1    2    0    0 -0.75886741443E+01  0.36315927403E+02 -0.16635088324E+02  0.40659079207E+02  0.00000000000E+00 0. -1.
         11    1    3    3    0    0  0.11307495051E+02 -0.88994463620E+01 -0.10105567068E+01  0.14425006586E+02  0.51100000000E-03 0. -1.
        -11    1    3    3    0    0  0.58223211265E+01 -0.94127267086E+01  0.72332134128E+01  0.13221884281E+02  0.51100000000E-03 0.  1.
         12    1    3    3    0    0 -0.95411420332E+01 -0.18003754332E+02  0.10412431618E+02  0.22882029927E+02  0.00000000000E+00 0. -1.
</event>
<event>
 7    1  0.5290964E-013  0.5052886E+02  0.7816164E-02  0.1300439E+00
        -11   -1    0    0    0    0  0.00000000000E+00  0.00000000000E+00  0.45593999997E+02  0.45594000000E+02  0.51100000000E-03 0.  1.
         11   -1    0    0    0    0 -0.00000000000E+00 -0.00000000000E+00 -0.45593999997E+02  0.45594000000E+02  0.51100000000E-03 0. -1.
    9900012    2    1    2    0    0  0.19919887145E+02 -0.13738956861E+02  0.32674220850E+02  0.50528861449E+02  0.30000004861E+02 0.  0.
         12    1    1    2    0    0 -0.19919887145E+02  0.13738956861E+02 -0.32674220850E+02  0.40659138551E+02  0.00000000000E+00 0. -1.
         11    1    3    3    0    0  0.10574114073E+02 -0.13274302245E+02  0.12867380200E+02  0.21297616345E+02  0.51100000000E-03 0. -1.
        -11    1    3    3    0    0 -0.76354265874E-02  0.15157023926E+01  0.19609971512E+02  0.19668461938E+02  0.51100000000E-03 0.  1.
         12    1    3    3    0    0  0.93534084983E+01 -0.19803570090E+01  0.19686913834E+00  0.95627831659E+01  0.00000000000E+00 0. -1.
</event>
<event>
 7    1  0.5290964E-013  0.5052881E+02  0.7816164E-02  0.1300439E+00
        -11   -1    0    0    0    0  0.00000000000E+00  0.00000000000E+00  0.45593999997E+02  0.45594000000E+02  0.51100000000E-03 0. -1.
         11   -1    0    0    0    0 -0.00000000000E+00 -0.00000000000E+00 -0.45593999997E+02  0.45594000000E+02  0.51100000000E-03 0.  1.
    9900012    2    1    2    0    0 -0.12571201969E+02  0.38396798331E+02  0.45629202397E+01  0.50528813066E+02  0.29999857795E+02 0.  0.
         12    1    1    2    0    0  0.12571201969E+02 -0.38396798331E+02 -0.45629202397E+01  0.40659186934E+02  0.00000000000E+00 0. -1.
         11    1    3    3    0    0 -0.47982919524E+01  0.34750270799E+01 -0.43839128352E+00  0.59406738713E+01  0.51100000000E-03 0. -1.
        -11    1    3    3    0    0 -0.71958531309E+01  0.89767421457E+01 -0.94463374362E+01  0.14886083872E+02  0.51100000000E-03 0.  1.
         12    1    3    3    0    0 -0.57705688620E+00  0.25945029105E+02  0.14447648959E+02  0.29702055323E+02  0.00000000000E+00 0. -1.
</event>
<event>
 7    1  0.5290964E-013  0.5052886E+02  0.7816164E-02  0.1300439E+00
        -11   -1    0    0    0    0  0.00000000000E+00  0.00000000000E+00  0.45593999997E+02  0.45594000000E+02  0.51100000000E-03 0.  1.
         11   -1    0    0    0    0 -0.00000000000E+00 -0.00000000000E+00 -0.45593999997E+02  0.45594000000E+02  0.51100000000E-03 0. -1.
    9900012    2    1    2    0    0 -0.15203466349E+02 -0.17181488266E+02  0.33568086647E+02  0.50528863644E+02  0.30000011533E+02 0.  0.
         12    1    1    2    0    0  0.15203466349E+02  0.17181488266E+02 -0.33568086647E+02  0.40659136356E+02  0.00000000000E+00 0. -1.
         11    1    3    3    0    0 -0.14722590710E+02 -0.10140123455E+02  0.16813922118E+02  0.24541490545E+02  0.51100000000E-03 0. -1.
        -11    1    3    3    0    0 -0.64898002657E+01 -0.50232433017E+01  0.17764543203E+02  0.19568583910E+02  0.51100000000E-03 0.  1.
        -12    1    3    3    0    0  0.60089246272E+01 -0.20181215090E+01 -0.10103786737E+01  0.64187891899E+01  0.00000000000E+00 0.  1.
</event>
<event>
 7    1  0.5290964E-013  0.5052887E+02  0.7816164E-02  0.1300439E+00
        -11   -1    0    0    0    0  0.00000000000E+00  0.00000000000E+00  0.45593999997E+02  0.45594000000E+02  0.51100000000E-03 0.  1.
         11   -1    0    0    0    0 -0.00000000000E+00 -0.00000000000E+00 -0.45593999997E+02  0.45594000000E+02  0.51100000000E-03 0. -1.
    9900012    2    1    2    0    0  0.36470838767E+01 -0.38795989022E+02  0.11607547697E+02  0.50528866358E+02  0.30000019780E+02 0.  0.
         12    1    1    2    0    0 -0.36470838767E+01  0.38795989022E+02 -0.11607547697E+02  0.40659133642E+02  0.00000000000E+00 0. -1.
         11    1    3    3    0    0  0.91348449128E+01 -0.14091156615E+01  0.22331807726E+01  0.95088429976E+01  0.51100000000E-03 0. -1.
        -11    1    3    3    0    0 -0.18894211674E+01 -0.16531194402E+01  0.39757632516E+01  0.47020644322E+01  0.51100000000E-03 0.  1.
         12    1    3    3    0    0 -0.35983398687E+01 -0.35733753920E+02  0.53986036733E+01  0.36317958928E+02  0.00000000000E+00 0. -1.
</event>
<event>
 7    1  0.5290964E-013  0.5052886E+02  0.7816164E-02  0.1300439E+00
        -11   -1    0    0    0    0  0.00000000000E+00  0.00000000000E+00  0.45593999997E+02  0.45594000000E+02  0.51100000000E-03 0.  1.
         11   -1    0    0    0    0 -0.00000000000E+00 -0.00000000000E+00 -0.45593999997E+02  0.45594000000E+02  0.51100000000E-03 0. -1.
    9900012    2    1    2    0    0  0.14644281217E+02  0.26650610479E+02  0.26989915282E+02  0.50528861566E+02  0.30000005217E+02 0.  0.
         12    1    1    2    0    0 -0.14644281217E+02 -0.26650610479E+02 -0.26989915282E+02  0.40659138434E+02  0.00000000000E+00 0. -1.
         11    1    3    3    0    0  0.16605206630E+02  0.86569356880E+01  0.68183693560E+01  0.19929013615E+02  0.51100000000E-03 0. -1.
        -11    1    3    3    0    0  0.32785886031E+01  0.48204099610E+01  0.13947375225E+02  0.15116705043E+02  0.51100000000E-03 0.  1.
        -12    1    3    3    0    0 -0.52395140161E+01  0.13173264830E+02  0.62241707003E+01  0.15483142908E+02  0.00000000000E+00 0.  1.
</event>
<event>
 7    1  0.5290964E-013  0.5052886E+02  0.7816164E-02  0.1300439E+00
        -11   -1    0    0    0    0  0.00000000000E+00  0.00000000000E+00  0.45593999997E+02  0.45594000000E+02  0.51100000000E-03 0.  1.
         11   -1    0    0    0    0 -0.00000000000E+00 -0.00000000000E+00 -0.45593999997E+02  0.45594000000E+02  0.51100000000E-03 0. -1.
    9900012    2    1    2    0    0 -0.28651700343E+02 -0.28753311952E+02  0.23437461816E+01  0.50528855556E+02  0.29999986948E+02 0.  0.
         12    1    1    2    0    0  0.28651700343E+02  0.28753311952E+02 -0.23437461816E+01  0.40659144444E+02  0.00000000000E+00 0. -1.
         11    1    3    3    0    0 -0.16003054239E+02 -0.13040250071E+02  0.71558218932E+01  0.21848378753E+02  0.51100000000E-03 0. -1.
        -11    1    3    3    0    0 -0.34093039563E+01 -0.53118027805E+01  0.77090713871E+01  0.99633520543E+01  0.51100000000E-03 0.  1.
         12    1    3    3    0    0 -0.92393421471E+01 -0.10401259101E+02 -0.12521147099E+02  0.18717124749E+02  0.00000000000E+00 0. -1.
</event>
<event>
 7    1  0.5290964E-013  0.5052886E+02  0.7816164E-02  0.1300439E+00
        -11   -1    0    0    0    0  0.00000000000E+00  0.00000000000E+00  0.45593999997E+02  0.45594000000E+02  0.51100000000E-03 0.  1.
         11   -1    0    0    0    0 -0.00000000000E+00 -0.00000000000E+00 -0.45593999997E+02  0.45594000000E+02  0.51100000000E-03 0. -1.
    9900012    2    1    2    0    0  0.29198711578E+02 -0.24696053690E+02  0.13809628007E+02  0.50528860174E+02  0.30000000986E+02 0.  0.
         12    1    1    2    0    0 -0.29198711578E+02  0.24696053690E+02 -0.13809628007E+02  0.40659139826E+02  0.00000000000E+00 0. -1.
         11    1    3    3    0    0  0.10251211214E+02 -0.64209678678E+01 -0.49901060492E+01  0.13085003568E+02  0.51100000000E-03 0. -1.
        -11    1    3    3    0    0  0.12948851802E+02 -0.12151927285E+02  0.11169575261E+01  0.17792967546E+02  0.51100000000E-03 0.  1.
        -12    1    3    3    0    0  0.59986485615E+01 -0.61231585369E+01  0.17682776531E+02  0.19650889060E+02  0.00000000000E+00 0.  1.
</event>
<event>
 7    1  0.5290964E-013  0.5052886E+02  0.7816164E-02  0.1300439E+00
        -11   -1    0    0    0    0  0.00000000000E+00  0.00000000000E+00  0.45593999997E+02  0.45594000000E+02  0.51100000000E-03 0.  1.
         11   -1    0    0    0    0 -0.00000000000E+00 -0.00000000000E+00 -0.45593999997E+02  0.45594000000E+02  0.51100000000E-03 0. -1.
    9900012    2    1    2    0    0 -0.39318669403E+02  0.60930578931E+01  0.83715091534E+01  0.50528864696E+02  0.30000014731E+02 0.  0.
         12    1    1    2    0    0  0.39318669403E+02 -0.60930578931E+01 -0.83715091534E+01  0.40659135304E+02  0.00000000000E+00 0. -1.
         11    1    3    3    0    0 -0.72980098082E+01 -0.90974799293E+01  0.75387432195E+01  0.13887322918E+02  0.51100000000E-03 0. -1.
        -11    1    3    3    0    0 -0.43599438304E+01  0.14243253870E+01  0.32935647531E+01  0.56467142708E+01  0.51100000000E-03 0.  1.
        -12    1    3    3    0    0 -0.27660715765E+02  0.13766212435E+02 -0.24607988192E+01  0.30994827508E+02  0.00000000000E+00 0.  1.
</event>
<event>
 7    1  0.5290964E-013  0.5052886E+02  0.7816164E-02  0.1300439E+00
        -11   -1    0    0    0    0  0.00000000000E+00  0.00000000000E+00  0.45593999997E+02  0.45594000000E+02  0.51100000000E-03 0. -1.
         11   -1    0    0    0    0 -0.00000000000E+00 -0.00000000000E+00 -0.45593999997E+02  0.45594000000E+02  0.51100000000E-03 0.  1.
    9900012    2    1    2    0    0  0.38449799656E+01  0.47991405352E+01 -0.40191420852E+02  0.50528856737E+02  0.29999990538E+02 0.  0.
         12    1    1    2    0    0 -0.38449799656E+01 -0.47991405352E+01  0.40191420852E+02  0.40659143263E+02  0.00000000000E+00 0. -1.
         11    1    3    3    0    0 -0.51136863735E+01 -0.38267142854E+01 -0.12494076568E+02  0.14031944986E+02  0.51100000000E-03 0. -1.
        -11    1    3    3    0    0 -0.31336901196E+01 -0.30769197639E+01 -0.14383644398E+02  0.15039171368E+02  0.51100000000E-03 0.  1.
        -12    1    3    3    0    0  0.12092356459E+02  0.11702774585E+02 -0.13313699886E+02  0.21457740383E+02  0.00000000000E+00 0.  1.
</event>
<event>
 7    1  0.5290964E-013  0.5052887E+02  0.7816164E-02  0.1300439E+00
        -11   -1    0    0    0    0  0.00000000000E+00  0.00000000000E+00  0.45593999997E+02  0.45594000000E+02  0.51100000000E-03 0.  1.
         11   -1    0    0    0    0 -0.00000000000E+00 -0.00000000000E+00 -0.45593999997E+02  0.45594000000E+02  0.51100000000E-03 0. -1.
    9900012    2    1    2    0    0 -0.10207171244E+02 -0.14286728282E+02  0.36672442578E+02  0.50528868253E+02  0.30000025541E+02 0.  0.
         12    1    1    2    0    0  0.10207171244E+02  0.14286728282E+02 -0.36672442578E+02  0.40659131747E+02  0.00000000000E+00 0. -1.
         11    1    3    3    0    0  0.33835734450E+01 -0.13066262771E+01  0.91493192884E+01  0.98420467987E+01  0.51100000000E-03 0. -1.
        -11    1    3    3    0    0  0.19172146996E+01 -0.13858360536E+02  0.16539248833E+02  0.21662793476E+02  0.51100000000E-03 0.  1.
         12    1    3    3    0    0 -0.15507959389E+02  0.87825853091E+00  0.10983874456E+02  0.19024027978E+02  0.00000000000E+00 0. -1.
</event>
<event>
 7    1  0.5290964E-013  0.5052886E+02  0.7816164E-02  0.1300439E+00
        -11   -1    0    0    0    0  0.00000000000E+00  0.00000000000E+00  0.45593999997E+02  0.45594000000E+02  0.51100000000E-03 0.  1.
         11   -1    0    0    0    0 -0.00000000000E+00 -0.00000000000E+00 -0.45593999997E+02  0.45594000000E+02  0.51100000000E-03 0. -1.
    9900012    2    1    2    0    0 -0.21809728231E+02 -0.24745374113E+02  0.23773260549E+02  0.50528859544E+02  0.29999999069E+02 0.  0.
         12    1    1    2    0    0  0.21809728231E+02  0.24745374113E+02 -0.23773260549E+02  0.40659140456E+02  0.00000000000E+00 0. -1.
         11    1    3    3    0    0  0.77607679094E+00  0.69130172014E-01 -0.12656005907E+01  0.14862097034E+01  0.51100000000E-03 0. -1.
        -11    1    3    3    0    0 -0.10240712469E+01  0.24454639110E+01  0.11402744967E+02  0.11706904318E+02  0.51100000000E-03 0.  1.
        -12    1    3    3    0    0 -0.21561733775E+02 -0.27259968196E+02  0.13636116172E+02  0.37335745522E+02  0.00000000000E+00 0.  1.
</event>
<event>
 7    1  0.5290964E-013  0.5052886E+02  0.7816164E-02  0.1300439E+00
        -11   -1    0    0    0    0  0.00000000000E+00  0.00000000000E+00  0.45593999997E+02  0.45594000000E+02  0.51100000000E-03 0.  1.
         11   -1    0    0    0    0 -0.00000000000E+00 -0.00000000000E+00 -0.45593999997E+02  0.45594000000E+02  0.51100000000E-03 0. -1.
    9900012    2    1    2    0    0  0.25940990931E+02 -0.29866011251E+02 -0.93942342146E+01  0.50528864802E+02  0.30000015054E+02 0.  0.
         12    1    1    2    0    0 -0.25940990931E+02  0.29866011251E+02  0.93942342146E+01  0.40659135198E+02  0.00000000000E+00 0. -1.
         11    1    3    3    0    0  0.19712700625E+01 -0.66407296410E+01  0.83625464164E+01  0.10858976869E+02  0.51100000000E-03 0. -1.
        -11    1    3    3    0    0  0.51819907370E+01 -0.88502422926E+00  0.43505248219E+00  0.52749944842E+01  0.51100000000E-03 0.  1.
         12    1    3    3    0    0  0.18787730132E+02 -0.22340257380E+02 -0.18191833113E+02  0.34394893449E+02  0.00000000000E+00 0. -1.
</event>
<event>
 7    1  0.5290964E-013  0.5052886E+02  0.7816164E-02  0.1300439E+00
        -11   -1    0    0    0    0  0.00000000000E+00  0.00000000000E+00  0.45593999997E+02  0.45594000000E+02  0.51100000000E-03 0.  1.
         11   -1    0    0    0    0 -0.00000000000E+00 -0.00000000000E+00 -0.45593999997E+02  0.45594000000E+02  0.51100000000E-03 0. -1.
    9900012    2    1    2    0    0  0.27428084163E+02  0.29791969587E+02  0.36475262790E+01  0.50528859568E+02  0.29999999141E+02 0.  0.
         12    1    1    2    0    0 -0.27428084163E+02 -0.29791969587E+02 -0.36475262790E+01  0.40659140432E+02  0.00000000000E+00 0. -1.
         11    1    3    3    0    0  0.11334121456E+02  0.20218458059E+01  0.18405940456E+01  0.11659243387E+02  0.51100000000E-03 0. -1.
        -11    1    3    3    0    0  0.16298298459E+02  0.11460390111E+02  0.79339346834E+01  0.21445801313E+02  0.51100000000E-03 0.  1.
         12    1    3    3    0    0 -0.20433575229E+00  0.16309733671E+02 -0.61270024501E+01  0.17423814867E+02  0.00000000000E+00 0. -1.
</event>
<event>
 7    1  0.5290964E-013  0.5052886E+02  0.7816164E-02  0.1300439E+00
        -11   -1    0    0    0    0  0.00000000000E+00  0.00000000000E+00  0.45593999997E+02  0.45594000000E+02  0.51100000000E-03 0.  1.
         11   -1    0    0    0    0 -0.00000000000E+00 -0.00000000000E+00 -0.45593999997E+02  0.45594000000E+02  0.51100000000E-03 0. -1.
    9900012    2    1    2    0    0  0.28570834165E+02  0.15748832983E+02  0.24266178225E+02  0.50528859443E+02  0.29999998762E+02 0.  0.
         12    1    1    2    0    0 -0.28570834165E+02 -0.15748832983E+02 -0.24266178225E+02  0.40659140557E+02  0.00000000000E+00 0. -1.
         11    1    3    3    0    0  0.39758495942E+01  0.10898376343E+02  0.31190347799E+01  0.12012924919E+02  0.51100000000E-03 0. -1.
        -11    1    3    3    0    0  0.86870257864E+01  0.43821588558E+01  0.20379013834E+02  0.22582558277E+02  0.51100000000E-03 0.  1.
         12    1    3    3    0    0  0.15907958784E+02  0.46829778483E+00  0.76812961161E+00  0.15933376246E+02  0.00000000000E+00 0. -1.
</event>
<event>
 7    1  0.5290964E-013  0.5052885E+02  0.7816164E-02  0.1300439E+00
        -11   -1    0    0    0    0  0.00000000000E+00  0.00000000000E+00  0.45593999997E+02  0.45594000000E+02  0.51100000000E-03 0. -1.
         11   -1    0    0    0    0 -0.00000000000E+00 -0.00000000000E+00 -0.45593999997E+02  0.45594000000E+02  0.51100000000E-03 0.  1.
    9900012    2    1    2    0    0 -0.28963911869E+02  0.26646974147E+02 -0.10207696384E+02  0.50528849893E+02  0.29999969736E+02 0.  0.
         12    1    1    2    0    0  0.28963911869E+02 -0.26646974147E+02  0.10207696384E+02  0.40659150107E+02  0.00000000000E+00 0. -1.
         11    1    3    3    0    0 -0.12110769783E+02  0.12017345383E+02  0.33143509436E+01  0.17380226040E+02  0.51100000000E-03 0. -1.
        -11    1    3    3    0    0 -0.65073203332E+01  0.14028388287E+02  0.78324173360E+00  0.15484003478E+02  0.51100000000E-03 0.  1.
         12    1    3    3    0    0 -0.10345821753E+02  0.60124047730E+00 -0.14305289061E+02  0.17664620374E+02  0.00000000000E+00 0. -1.
</event>
<event>
 7    1  0.5290964E-013  0.5052886E+02  0.7816164E-02  0.1300439E+00
        -11   -1    0    0    0    0  0.00000000000E+00  0.00000000000E+00  0.45593999997E+02  0.45594000000E+02  0.51100000000E-03 0. -1.
         11   -1    0    0    0    0 -0.00000000000E+00 -0.00000000000E+00 -0.45593999997E+02  0.45594000000E+02  0.51100000000E-03 0.  1.
    9900012    2    1    2    0    0 -0.33942331911E+02  0.21999050142E+02 -0.41382912417E+01  0.50528861333E+02  0.30000004509E+02 0.  0.
         12    1    1    2    0    0  0.33942331911E+02 -0.21999050142E+02  0.41382912417E+01  0.40659138667E+02  0.00000000000E+00 0. -1.
         11    1    3    3    0    0 -0.13000840402E+02  0.88494481014E+01  0.54562730766E+01  0.16646486085E+02  0.51100000000E-03 0. -1.
        -11    1    3    3    0    0 -0.17260023295E+02  0.12886360785E+02  0.20782807781E+01  0.21639915658E+02  0.51100000000E-03 0.  1.
         12    1    3    3    0    0 -0.36814682142E+01  0.26324125619E+00 -0.11672845096E+02  0.12242459590E+02  0.00000000000E+00 0. -1.
</event>
<event>
 7    1  0.5290964E-013  0.5052885E+02  0.7816164E-02  0.1300439E+00
        -11   -1    0    0    0    0  0.00000000000E+00  0.00000000000E+00  0.45593999997E+02  0.45594000000E+02  0.51100000000E-03 0.  1.
         11   -1    0    0    0    0 -0.00000000000E+00 -0.00000000000E+00 -0.45593999997E+02  0.45594000000E+02  0.51100000000E-03 0. -1.
    9900012    2    1    2    0    0  0.33686828568E+02  0.21369304972E+01  0.22667096808E+02  0.50528853814E+02  0.29999981653E+02 0.  0.
         12    1    1    2    0    0 -0.33686828568E+02 -0.21369304972E+01 -0.22667096808E+02  0.40659146186E+02  0.00000000000E+00 0. -1.
         11    1    3    3    0    0  0.64602048487E+01  0.91816747594E+01  0.11136966686E+00  0.11227190278E+02  0.51100000000E-03 0.  1.
        -11    1    3    3    0    0  0.11613974158E+01  0.37848205307E+01  0.27159792299E+01  0.48010679901E+01  0.51100000000E-03 0. -1.
        -12    1    3    3    0    0  0.26065226303E+02 -0.10829564793E+02  0.19839747911E+02  0.34500595546E+02  0.00000000000E+00 0.  1.
</event>
<event>
 7    1  0.5290964E-013  0.5052886E+02  0.7816164E-02  0.1300439E+00
        -11   -1    0    0    0    0  0.00000000000E+00  0.00000000000E+00  0.45593999997E+02  0.45594000000E+02  0.51100000000E-03 0.  1.
         11   -1    0    0    0    0 -0.00000000000E+00 -0.00000000000E+00 -0.45593999997E+02  0.45594000000E+02  0.51100000000E-03 0. -1.
    9900012    2    1    2    0    0  0.39697799375E+02 -0.87825024868E+01 -0.34359930892E+00  0.50528859752E+02  0.29999999703E+02 0.  0.
         12    1    1    2    0    0 -0.39697799375E+02  0.87825024868E+01  0.34359930892E+00  0.40659140248E+02  0.00000000000E+00 0. -1.
         11    1    3    3    0    0  0.87516601125E+01 -0.88849971241E+01  0.81346363229E+01  0.14889829985E+02  0.51100000000E-03 0. -1.
        -11    1    3    3    0    0  0.10914735747E+02 -0.50845436485E+01  0.23756398901E+01  0.12273047938E+02  0.51100000000E-03 0.  1.
         12    1    3    3    0    0  0.20031403516E+02  0.51870382859E+01 -0.10853875522E+02  0.23365981829E+02  0.00000000000E+00 0. -1.
</event>
<event>
 7    1  0.5290964E-013  0.5052886E+02  0.7816164E-02  0.1300439E+00
        -11   -1    0    0    0    0  0.00000000000E+00  0.00000000000E+00  0.45593999997E+02  0.45594000000E+02  0.51100000000E-03 0. -1.
         11   -1    0    0    0    0 -0.00000000000E+00 -0.00000000000E+00 -0.45593999997E+02  0.45594000000E+02  0.51100000000E-03 0.  1.
    9900012    2    1    2    0    0 -0.31345232836E+02  0.12936273234E+02 -0.22434227739E+02  0.50528863746E+02  0.30000011843E+02 0.  0.
         12    1    1    2    0    0  0.31345232836E+02 -0.12936273234E+02  0.22434227739E+02  0.40659136254E+02  0.00000000000E+00 0. -1.
         11    1    3    3    0    0 -0.12728895257E+02  0.13942353008E+02 -0.10304417680E+02  0.21508021895E+02  0.51100000000E-03 0. -1.
        -11    1    3    3    0    0 -0.10525578444E+02  0.17496911589E+01  0.34808560516E+01  0.11223438860E+02  0.51100000000E-03 0.  1.
        -12    1    3    3    0    0 -0.80907591346E+01 -0.27557709336E+01 -0.15610666110E+02  0.17797402991E+02  0.00000000000E+00 0.  1.
</event>
<event>
 7    1  0.5290964E-013  0.5052897E+02  0.7816164E-02  0.1300438E+00
        -11   -1    0    0    0    0  0.00000000000E+00  0.00000000000E+00  0.45593999997E+02  0.45594000000E+02  0.51100000000E-03 0.  1.
         11   -1    0    0    0    0 -0.00000000000E+00 -0.00000000000E+00 -0.45593999997E+02  0.45594000000E+02  0.51100000000E-03 0. -1.
    9900012    2    1    2    0    0  0.19287207521E+02 -0.36322049270E+01  0.35608535671E+02  0.50528965343E+02  0.30000320656E+02 0.  0.
         12    1    1    2    0    0 -0.19287207521E+02  0.36322049270E+01 -0.35608535671E+02  0.40659034657E+02  0.00000000000E+00 0. -1.
         11    1    3    3    0    0  0.59210402858E+01  0.32854245942E+01  0.43367195881E+01  0.80411361061E+01  0.51100000000E-03 0. -1.
        -11    1    3    3    0    0  0.15477036582E+02 -0.36614557995E+01  0.34139740785E+02  0.37662538696E+02  0.51100000000E-03 0.  1.
         12    1    3    3    0    0 -0.21108693466E+01 -0.32561737217E+01 -0.28679247023E+01  0.48252905407E+01  0.00000000000E+00 0. -1.
</event>
<event>
 7    1  0.5290964E-013  0.5052886E+02  0.7816164E-02  0.1300439E+00
        -11   -1    0    0    0    0  0.00000000000E+00  0.00000000000E+00  0.45593999997E+02  0.45594000000E+02  0.51100000000E-03 0.  1.
         11   -1    0    0    0    0 -0.00000000000E+00 -0.00000000000E+00 -0.45593999997E+02  0.45594000000E+02  0.51100000000E-03 0. -1.
    9900012    2    1    2    0    0  0.28441108064E+02  0.25847018454E+02 -0.13274070942E+02  0.50528856499E+02  0.29999989814E+02 0.  0.
         12    1    1    2    0    0 -0.28441108064E+02 -0.25847018454E+02  0.13274070942E+02  0.40659143501E+02  0.00000000000E+00 0. -1.
         11    1    3    3    0    0  0.64556608259E+01 -0.42089511660E+00 -0.43810981111E+01  0.78132407053E+01  0.51100000000E-03 0. -1.
        -11    1    3    3    0    0  0.84792615562E+01 -0.34034994165E+01 -0.27444616195E+01  0.95401129270E+01  0.51100000000E-03 0.  1.
        -12    1    3    3    0    0  0.13506185682E+02  0.29671412987E+02 -0.61485112114E+01  0.33175502867E+02  0.00000000000E+00 0.  1.
</event>
<event>
 7    1  0.5290964E-013  0.5052886E+02  0.7816164E-02  0.1300439E+00
        -11   -1    0    0    0    0  0.00000000000E+00  0.00000000000E+00  0.45593999997E+02  0.45594000000E+02  0.51100000000E-03 0.  1.
         11   -1    0    0    0    0 -0.00000000000E+00 -0.00000000000E+00 -0.45593999997E+02  0.45594000000E+02  0.51100000000E-03 0. -1.
    9900012    2    1    2    0    0 -0.35091659916E+01 -0.20447957076E+02  0.34967591928E+02  0.50528859825E+02  0.29999999924E+02 0.  0.
         12    1    1    2    0    0  0.35091659916E+01  0.20447957076E+02 -0.34967591928E+02  0.40659140175E+02  0.00000000000E+00 0. -1.
         11    1    3    3    0    0 -0.89805148121E+01 -0.44493065039E+01  0.10034851340E+02  0.14182532085E+02  0.51100000000E-03 0. -1.
        -11    1    3    3    0    0 -0.62325620840E+01 -0.86001625435E+01  0.42135093497E+01  0.11426341812E+02  0.51100000000E-03 0.  1.
        -12    1    3    3    0    0  0.11703910905E+02 -0.73984880289E+01  0.20719231238E+02  0.24919985928E+02  0.00000000000E+00 0.  1.
</event>
<event>
 7    1  0.6349829E-013  0.5052883E+02  0.7816164E-02  0.1300439E+00
        -11   -1    0    0    0    0  0.00000000000E+00  0.00000000000E+00  0.45593999997E+02  0.45594000000E+02  0.51100000000E-03 0. -1.
         11   -1    0    0    0    0 -0.00000000000E+00 -0.00000000000E+00 -0.45593999997E+02  0.45594000000E+02  0.51100000000E-03 0.  1.
    9900012    2    1    2    0    0 -0.33666576839E+02 -0.22606668933E+02  0.29441271189E+01  0.50528834234E+02  0.29999922137E+02 0.  0.
         12    1    1    2    0    0  0.33666576839E+02  0.22606668933E+02 -0.29441271189E+01  0.40659165766E+02  0.00000000000E+00 0. -1.
         11    1    3    3    0    0 -0.39320535840E+01  0.24063911003E+01  0.41342216716E+01  0.61922170994E+01  0.51100000000E-03 0. -1.
        -11    1    3    3    0    0 -0.18877238907E+02 -0.15652593487E+02  0.96616668153E+01  0.26357193279E+02  0.51100000000E-03 0.  1.
         12    1    3    3    0    0 -0.10857284348E+02 -0.93604665465E+01 -0.10851761368E+02  0.17979423855E+02  0.00000000000E+00 0. -1.
</event>
<event>
 7    1  0.5290964E-013  0.5052886E+02  0.7816164E-02  0.1300439E+00
        -11   -1    0    0    0    0  0.00000000000E+00  0.00000000000E+00  0.45593999997E+02  0.45594000000E+02  0.51100000000E-03 0. -1.
         11   -1    0    0    0    0 -0.00000000000E+00 -0.00000000000E+00 -0.45593999997E+02  0.45594000000E+02  0.51100000000E-03 0.  1.
    9900012    2    1    2    0    0  0.28063426618E+02 -0.29141326369E+02 -0.40488445835E+01  0.50528856397E+02  0.29999989504E+02 0.  0.
         12    1    1    2    0    0 -0.28063426618E+02  0.29141326369E+02  0.40488445835E+01  0.40659143603E+02  0.00000000000E+00 0. -1.
         11    1    3    3    0    0  0.16641157737E+02 -0.24278497649E-01 -0.23779643083E-01  0.16641192446E+02  0.51100000000E-03 0. -1.
        -11    1    3    3    0    0  0.13072512960E+02 -0.23566823101E+02 -0.20453827829E+00  0.26950465346E+02  0.51100000000E-03 0.  1.
        -12    1    3    3    0    0 -0.16502440792E+01 -0.55502247697E+01 -0.38205266621E+01  0.69371986054E+01  0.00000000000E+00 0.  1.
</event>
<event>
 7    1  0.5290964E-013  0.5052886E+02  0.7816164E-02  0.1300439E+00
        -11   -1    0    0    0    0  0.00000000000E+00  0.00000000000E+00  0.45593999997E+02  0.45594000000E+02  0.51100000000E-03 0. -1.
         11   -1    0    0    0    0 -0.00000000000E+00 -0.00000000000E+00 -0.45593999997E+02  0.45594000000E+02  0.51100000000E-03 0.  1.
    9900012    2    1    2    0    0  0.88625130001E+01 -0.10887266120E+02 -0.38158734662E+02  0.50528859192E+02  0.29999998001E+02 0.  0.
         12    1    1    2    0    0 -0.88625130001E+01  0.10887266120E+02  0.38158734662E+02  0.40659140808E+02  0.00000000000E+00 0. -1.
         11    1    3    3    0    0 -0.40456525938E+01  0.89976663718E+00 -0.14217163207E+01  0.43815707764E+01  0.51100000000E-03 0. -1.
        -11    1    3    3    0    0 -0.16901461168E+01 -0.10244531669E+02 -0.57734831849E+01  0.11880241216E+02  0.51100000000E-03 0.  1.
        -12    1    3    3    0    0  0.14598311711E+02 -0.15425010883E+01 -0.30963535156E+02  0.34267047200E+02  0.00000000000E+00 0.  1.
</event>
<event>
 7    1  0.5290964E-013  0.5052887E+02  0.7816164E-02  0.1300439E+00
        -11   -1    0    0    0    0  0.00000000000E+00  0.00000000000E+00  0.45593999997E+02  0.45594000000E+02  0.51100000000E-03 0.  1.
         11   -1    0    0    0    0 -0.00000000000E+00 -0.00000000000E+00 -0.45593999997E+02  0.45594000000E+02  0.51100000000E-03 0. -1.
    9900012    2    1    2    0    0  0.25873172319E+00  0.40415886080E+02 -0.44333308553E+01  0.50528865575E+02  0.30000017402E+02 0.  0.
         12    1    1    2    0    0 -0.25873172319E+00 -0.40415886080E+02  0.44333308553E+01  0.40659134425E+02  0.00000000000E+00 0. -1.
         11    1    3    3    0    0 -0.37135890307E+01  0.92777958025E+01 -0.86266688992E-01  0.99937820991E+01  0.51100000000E-03 0. -1.
        -11    1    3    3    0    0 -0.36201478540E+01  0.26659142595E+02  0.53495047386E+01  0.27430504107E+02  0.51100000000E-03 0.  1.
        -12    1    3    3    0    0  0.75924686079E+01  0.44789476822E+01 -0.96965689049E+01  0.13104579369E+02  0.00000000000E+00 0.  1.
</event>
<event>
 7    1  0.5290964E-013  0.5052886E+02  0.7816164E-02  0.1300439E+00
        -11   -1    0    0    0    0  0.00000000000E+00  0.00000000000E+00  0.45593999997E+02  0.45594000000E+02  0.51100000000E-03 0.  1.
         11   -1    0    0    0    0 -0.00000000000E+00 -0.00000000000E+00 -0.45593999997E+02  0.45594000000E+02  0.51100000000E-03 0. -1.
    9900012    2    1    2    0    0 -0.18366345815E+02  0.26978335994E+02  0.24248966245E+02  0.50528860369E+02  0.30000001577E+02 0.  0.
         12    1    1    2    0    0  0.18366345815E+02 -0.26978335994E+02 -0.24248966245E+02  0.40659139631E+02  0.00000000000E+00 0. -1.
         11    1    3    3    0    0 -0.14034143186E+02  0.13559616338E+02  0.54132768409E+01  0.20251516897E+02  0.51100000000E-03 0. -1.
        -11    1    3    3    0    0 -0.61777939050E+01  0.15121620052E+02  0.63243009808E+01  0.17516429821E+02  0.51100000000E-03 0.  1.
         12    1    3    3    0    0  0.18455912757E+01 -0.17029003961E+01  0.12511388424E+02  0.12760913651E+02  0.00000000000E+00 0. -1.
</event>
<event>
 7    1  0.5290964E-013  0.5052886E+02  0.7816164E-02  0.1300439E+00
        -11   -1    0    0    0    0  0.00000000000E+00  0.00000000000E+00  0.45593999997E+02  0.45594000000E+02  0.51100000000E-03 0.  1.
         11   -1    0    0    0    0 -0.00000000000E+00 -0.00000000000E+00 -0.45593999997E+02  0.45594000000E+02  0.51100000000E-03 0. -1.
    9900012    2    1    2    0    0  0.37514616491E+01  0.36794816735E+02 -0.16888852494E+02  0.50528863983E+02  0.30000012564E+02 0.  0.
         12    1    1    2    0    0 -0.37514616491E+01 -0.36794816735E+02  0.16888852494E+02  0.40659136017E+02  0.00000000000E+00 0. -1.
         11    1    3    3    0    0  0.60637155729E+01  0.78939753579E+01 -0.12208039589E+02  0.15751816541E+02  0.51100000000E-03 0. -1.
        -11    1    3    3    0    0 -0.31821613969E+01  0.45277303585E+00 -0.54252933404E+01  0.63059466116E+01  0.51100000000E-03 0.  1.
        -12    1    3    3    0    0  0.86990747317E+00  0.28448068341E+02  0.74448043530E+00  0.28471100830E+02  0.00000000000E+00 0.  1.
</event>
<event>
 7    1  0.5290964E-013  0.5052881E+02  0.7816164E-02  0.1300439E+00
        -11   -1    0    0    0    0  0.00000000000E+00  0.00000000000E+00  0.45593999997E+02  0.45594000000E+02  0.51100000000E-03 0. -1.
         11   -1    0    0    0    0 -0.00000000000E+00 -0.00000000000E+00 -0.45593999997E+02  0.45594000000E+02  0.51100000000E-03 0.  1.
    9900012    2    1    2    0    0 -0.33443947675E+02  0.22267100085E+02  0.62328309579E+01  0.50528812059E+02  0.29999854734E+02 0.  0.
         12    1    1    2    0    0  0.33443947675E+02 -0.22267100085E+02 -0.62328309579E+01  0.40659187941E+02  0.00000000000E+00 0. -1.
         11    1    3    3    0    0 -0.73585873989E+01  0.16639903507E+02 -0.18357473172E+01  0.18286748364E+02  0.51100000000E-03 0. -1.
        -11    1    3    3    0    0 -0.77088997046E+01  0.90543068739E+01  0.63214267402E+01  0.13467295345E+02  0.51100000000E-03 0.  1.
         12    1    3    3    0    0 -0.18376460571E+02 -0.34271102961E+01  0.17471515349E+01  0.18774768350E+02  0.00000000000E+00 0. -1.
</event>
<event>
 7    1  0.5290964E-013  0.5052886E+02  0.7816164E-02  0.1300439E+00
        -11   -1    0    0    0    0  0.00000000000E+00  0.00000000000E+00  0.45593999997E+02  0.45594000000E+02  0.51100000000E-03 0.  1.
         11   -1    0    0    0    0 -0.00000000000E+00 -0.00000000000E+00 -0.45593999997E+02  0.45594000000E+02  0.51100000000E-03 0. -1.
    9900012    2    1    2    0    0 -0.39051404639E+01 -0.17894589806E+02  0.36300127392E+02  0.50528859391E+02  0.29999998606E+02 0.  0.
         12    1    1    2    0    0  0.39051404639E+01  0.17894589806E+02 -0.36300127392E+02  0.40659140609E+02  0.00000000000E+00 0. -1.
         11    1    3    3    0    0 -0.22112465915E+01 -0.14155187232E+02  0.13379360645E+02  0.19602709726E+02  0.51100000000E-03 0. -1.
        -11    1    3    3    0    0 -0.26354916511E+01 -0.11765481586E+02  0.17281798282E+02  0.21072088775E+02  0.51100000000E-03 0.  1.
        -12    1    3    3    0    0  0.94159777875E+00  0.80260790125E+01  0.56389684642E+01  0.98540608905E+01  0.00000000000E+00 0.  1.
</event>
<event>
 7    1  0.5290964E-013  0.5052886E+02  0.7816164E-02  0.1300439E+00
        -11   -1    0    0    0    0  0.00000000000E+00  0.00000000000E+00  0.45593999997E+02  0.45594000000E+02  0.51100000000E-03 0.  1.
         11   -1    0    0    0    0 -0.00000000000E+00 -0.00000000000E+00 -0.45593999997E+02  0.45594000000E+02  0.51100000000E-03 0. -1.
    9900012    2    1    2    0    0 -0.18353581725E+02  0.24389392897E+02  0.26860180622E+02  0.50528858948E+02  0.29999997259E+02 0.  0.
         12    1    1    2    0    0  0.18353581725E+02 -0.24389392897E+02 -0.26860180622E+02  0.40659141052E+02  0.00000000000E+00 0. -1.
         11    1    3    3    0    0 -0.32916992688E+01 -0.44208223875E+00  0.10439031563E+02  0.10954638334E+02  0.51100000000E-03 0. -1.
        -11    1    3    3    0    0 -0.64567284317E+01  0.91365408241E+00  0.12163688822E+02  0.13801428616E+02  0.51100000000E-03 0.  1.
        -12    1    3    3    0    0 -0.86051540249E+01  0.23917821054E+02  0.42574602366E+01  0.25772791999E+02  0.00000000000E+00 0.  1.
</event>
<event>
 7    1  0.5290964E-013  0.5052886E+02  0.7816164E-02  0.1300439E+00
        -11   -1    0    0    0    0  0.00000000000E+00  0.00000000000E+00  0.45593999997E+02  0.45594000000E+02  0.51100000000E-03 0.  1.
         11   -1    0    0    0    0 -0.00000000000E+00 -0.00000000000E+00 -0.45593999997E+02  0.45594000000E+02  0.51100000000E-03 0. -1.
    9900012    2    1    2    0    0 -0.43130632811E+01 -0.65415131216E+01  0.39897013691E+02  0.50528860680E+02  0.30000002522E+02 0.  0.
         12    1    1    2    0    0  0.43130632811E+01  0.65415131216E+01 -0.39897013691E+02  0.40659139320E+02  0.00000000000E+00 0. -1.
         11    1    3    3    0    0  0.27221128431E+01  0.13390336265E+01  0.84596580144E+01  0.89871421133E+01  0.51100000000E-03 0. -1.
        -11    1    3    3    0    0  0.38905964373E+01  0.66555049048E+01  0.41635966369E+01  0.87617363229E+01  0.51100000000E-03 0.  1.
        -12    1    3    3    0    0 -0.10925772561E+02 -0.14536051653E+02  0.27273759040E+02  0.32779982244E+02  0.00000000000E+00 0.  1.
</event>
<event>
 7    1  0.5290964E-013  0.5052885E+02  0.7816164E-02  0.1300439E+00
        -11   -1    0    0    0    0  0.00000000000E+00  0.00000000000E+00  0.45593999997E+02  0.45594000000E+02  0.51100000000E-03 0.  1.
         11   -1    0    0    0    0 -0.00000000000E+00 -0.00000000000E+00 -0.45593999997E+02  0.45594000000E+02  0.51100000000E-03 0. -1.
    9900012    2    1    2    0    0 -0.30726829052E+02 -0.30302712044E+01  0.26454596075E+02  0.50528853173E+02  0.29999979706E+02 0.  0.
         12    1    1    2    0    0  0.30726829052E+02  0.30302712044E+01 -0.26454596075E+02  0.40659146827E+02  0.00000000000E+00 0. -1.
         11    1    3    3    0    0 -0.50651228619E+01 -0.45290666726E+01 -0.17945360907E+01  0.70276791740E+01  0.51100000000E-03 0. -1.
        -11    1    3    3    0    0  0.61014173435E+00 -0.14440300207E+01  0.12771628325E+02  0.12867477840E+02  0.51100000000E-03 0.  1.
        -12    1    3    3    0    0 -0.26271847925E+02  0.29428254889E+01  0.15477503841E+02  0.30633696159E+02  0.00000000000E+00 0.  1.
</event>
<event>
 7    1  0.5290964E-013  0.5052886E+02  0.7816164E-02  0.1300439E+00
        -11   -1    0    0    0    0  0.00000000000E+00  0.00000000000E+00  0.45593999997E+02  0.45594000000E+02  0.51100000000E-03 0. -1.
         11   -1    0    0    0    0 -0.00000000000E+00 -0.00000000000E+00 -0.45593999997E+02  0.45594000000E+02  0.51100000000E-03 0.  1.
    9900012    2    1    2    0    0  0.54902382138E+01  0.20718626888E+02 -0.34550853998E+02  0.50528859235E+02  0.29999998129E+02 0.  0.
         12    1    1    2    0    0 -0.54902382138E+01 -0.20718626888E+02  0.34550853998E+02  0.40659140765E+02  0.00000000000E+00 0. -1.
         11    1    3    3    0    0  0.49716563536E+00  0.87312750544E+01  0.27687670117E+01  0.91732441792E+01  0.51100000000E-03 0. -1.
        -11    1    3    3    0    0  0.55176225455E+01  0.95153887062E+01 -0.13552022589E+02  0.17454056758E+02  0.51100000000E-03 0.  1.
        -12    1    3    3    0    0 -0.52454996703E+00  0.24719631278E+01 -0.23767598421E+02  0.23901558298E+02  0.00000000000E+00 0.  1.
</event>
<event>
 7    1  0.5290964E-013  0.5052886E+02  0.7816164E-02  0.1300439E+00
        -11   -1    0    0    0    0  0.00000000000E+00  0.00000000000E+00  0.45593999997E+02  0.45594000000E+02  0.51100000000E-03 0.  1.
         11   -1    0    0    0    0 -0.00000000000E+00 -0.00000000000E+00 -0.45593999997E+02  0.45594000000E+02  0.51100000000E-03 0. -1.
    9900012    2    1    2    0    0  0.37451100247E+02 -0.14403916077E+02  0.65656447999E+01  0.50528863269E+02  0.30000010394E+02 0.  0.
         12    1    1    2    0    0 -0.37451100247E+02  0.14403916077E+02 -0.65656447999E+01  0.40659136731E+02  0.00000000000E+00 0. -1.
         11    1    3    3    0    0  0.13325211785E+02  0.10332213497E+01 -0.13908783390E+01  0.13437386587E+02  0.51100000000E-03 0. -1.
        -11    1    3    3    0    0  0.24285012548E+02 -0.64488613974E+01  0.11233070321E+02  0.27523290444E+02  0.51100000000E-03 0.  1.
         12    1    3    3    0    0 -0.15912408603E+00 -0.89882760294E+01 -0.32765471823E+01  0.95681862384E+01  0.00000000000E+00 0. -1.
</event>
<event>
 7    1  0.5290964E-013  0.5052886E+02  0.7816164E-02  0.1300439E+00
        -11   -1    0    0    0    0  0.00000000000E+00  0.00000000000E+00  0.45593999997E+02  0.45594000000E+02  0.51100000000E-03 0. -1.
         11   -1    0    0    0    0 -0.00000000000E+00 -0.00000000000E+00 -0.45593999997E+02  0.45594000000E+02  0.51100000000E-03 0.  1.
    9900012    2    1    2    0    0  0.93938534455E+01  0.38930711204E+02  0.70228721908E+01  0.50528862144E+02  0.30000006973E+02 0.  0.
         12    1    1    2    0    0 -0.93938534455E+01 -0.38930711204E+02 -0.70228721908E+01  0.40659137856E+02  0.00000000000E+00 0. -1.
         11    1    3    3    0    0  0.72685006875E+01  0.13132964277E+02  0.33211197705E+01  0.15373213384E+02  0.51100000000E-03 0. -1.
        -11    1    3    3    0    0  0.24060260032E+00  0.68534654815E+00 -0.75417505733E+01  0.75766477728E+01  0.51100000000E-03 0.  1.
         12    1    3    3    0    0  0.18847501577E+01  0.25112400378E+02  0.11243502994E+02  0.27579000988E+02  0.00000000000E+00 0. -1.
</event>
<event>
 7    1  0.5290964E-013  0.5052887E+02  0.7816164E-02  0.1300439E+00
        -11   -1    0    0    0    0  0.00000000000E+00  0.00000000000E+00  0.45593999997E+02  0.45594000000E+02  0.51100000000E-03 0.  1.
         11   -1    0    0    0    0 -0.00000000000E+00 -0.00000000000E+00 -0.45593999997E+02  0.45594000000E+02  0.51100000000E-03 0. -1.
    9900012    2    1    2    0    0 -0.24236335145E+02 -0.32420933446E+02 -0.38273140329E+01  0.50528865732E+02  0.30000017878E+02 0.  0.
         12    1    1    2    0    0  0.24236335145E+02  0.32420933446E+02  0.38273140329E+01  0.40659134268E+02  0.00000000000E+00 0. -1.
         11    1    3    3    0    0 -0.35847722057E+01 -0.81470112718E+01 -0.13580275837E+02  0.16237249659E+02  0.51100000000E-03 0. -1.
        -11    1    3    3    0    0 -0.72019955685E+01 -0.14689551775E+02  0.47932178371E+01  0.17047774313E+02  0.51100000000E-03 0.  1.
        -12    1    3    3    0    0 -0.13449567371E+02 -0.95843703985E+01  0.49597439672E+01  0.17243841759E+02  0.00000000000E+00 0.  1.
</event>
<event>
 7    1  0.5290964E-013  0.5052886E+02  0.7816164E-02  0.1300439E+00
        -11   -1    0    0    0    0  0.00000000000E+00  0.00000000000E+00  0.45593999997E+02  0.45594000000E+02  0.51100000000E-03 0.  1.
         11   -1    0    0    0    0 -0.00000000000E+00 -0.00000000000E+00 -0.45593999997E+02  0.45594000000E+02  0.51100000000E-03 0. -1.
    9900012    2    1    2    0    0 -0.40062570113E+02  0.54034409356E+01  0.43541771063E+01  0.50528861344E+02  0.30000004541E+02 0.  0.
         12    1    1    2    0    0  0.40062570113E+02 -0.54034409356E+01 -0.43541771063E+01  0.40659138656E+02  0.00000000000E+00 0. -1.
         11    1    3    3    0    0 -0.11319472485E+02 -0.18868522852E+00  0.10912477184E+02  0.15724128529E+02  0.51100000000E-03 0. -1.
        -11    1    3    3    0    0 -0.12648790628E+02 -0.61777701321E+01 -0.10339118642E+01  0.14114734222E+02  0.51100000000E-03 0.  1.
         12    1    3    3    0    0 -0.16094307000E+02  0.11769896296E+02 -0.55243882137E+01  0.20689998593E+02  0.00000000000E+00 0. -1.
</event>
<event>
 7    1  0.5290964E-013  0.5052886E+02  0.7816164E-02  0.1300439E+00
        -11   -1    0    0    0    0  0.00000000000E+00  0.00000000000E+00  0.45593999997E+02  0.45594000000E+02  0.51100000000E-03 0.  1.
         11   -1    0    0    0    0 -0.00000000000E+00 -0.00000000000E+00 -0.45593999997E+02  0.45594000000E+02  0.51100000000E-03 0. -1.
    9900012    2    1    2    0    0 -0.36615296034E+02  0.52131701188E+01 -0.16891076276E+02  0.50528861985E+02  0.30000006489E+02 0.  0.
         12    1    1    2    0    0  0.36615296034E+02 -0.52131701188E+01  0.16891076276E+02  0.40659138015E+02  0.00000000000E+00 0. -1.
         11    1    3    3    0    0 -0.62373041749E+01  0.13943113735E+01 -0.86963601447E+01  0.10792346714E+02  0.51100000000E-03 0. -1.
        -11    1    3    3    0    0  0.31527064228E+01 -0.28517697696E+01 -0.28879686931E+01  0.51393104635E+01  0.51100000000E-03 0.  1.
        -12    1    3    3    0    0 -0.33530698282E+02  0.66706285149E+01 -0.53067474379E+01  0.34597204807E+02  0.00000000000E+00 0.  1.
</event>
<event>
 7    1  0.5290964E-013  0.5052886E+02  0.7816164E-02  0.1300439E+00
        -11   -1    0    0    0    0  0.00000000000E+00  0.00000000000E+00  0.45593999997E+02  0.45594000000E+02  0.51100000000E-03 0. -1.
         11   -1    0    0    0    0 -0.00000000000E+00 -0.00000000000E+00 -0.45593999997E+02  0.45594000000E+02  0.51100000000E-03 0.  1.
    9900012    2    1    2    0    0  0.23042925046E+02  0.12582692608E+02 -0.31046183186E+02  0.50528855415E+02  0.29999986520E+02 0.  0.
         12    1    1    2    0    0 -0.23042925046E+02 -0.12582692608E+02  0.31046183186E+02  0.40659144585E+02  0.00000000000E+00 0. -1.
         11    1    3    3    0    0 -0.26915973209E+01 -0.73772090967E+00  0.22057378919E+01  0.35572753882E+01  0.51100000000E-03 0.  1.
        -11    1    3    3    0    0 -0.80886653579E+00 -0.21121806264E+01 -0.38224253259E+01  0.44414533325E+01  0.51100000000E-03 0. -1.
        -12    1    3    3    0    0  0.26543388902E+02  0.15432594144E+02 -0.29429495752E+02  0.42530126695E+02  0.00000000000E+00 0.  1.
</event>
<event>
 7    1  0.5290964E-013  0.5052886E+02  0.7816164E-02  0.1300439E+00
        -11   -1    0    0    0    0  0.00000000000E+00  0.00000000000E+00  0.45593999997E+02  0.45594000000E+02  0.51100000000E-03 0.  1.
         11   -1    0    0    0    0 -0.00000000000E+00 -0.00000000000E+00 -0.45593999997E+02  0.45594000000E+02  0.51100000000E-03 0. -1.
    9900012    2    1    2    0    0  0.15965824234E+02  0.46532268065E+01  0.37102637213E+02  0.50528858945E+02  0.29999997248E+02 0.  0.
         12    1    1    2    0    0 -0.15965824234E+02 -0.46532268065E+01 -0.37102637213E+02  0.40659141055E+02  0.00000000000E+00 0. -1.
         11    1    3    3    0    0  0.30885323264E+01  0.11060022860E+02  0.45615115405E+01  0.12355991477E+02  0.51100000000E-03 0. -1.
        -11    1    3    3    0    0  0.13322400694E+02 -0.38791134579E+00  0.26337519885E+02  0.29517821556E+02  0.51100000000E-03 0.  1.
        -12    1    3    3    0    0 -0.44510878633E+00 -0.60188847076E+01  0.62036057877E+01  0.86550459111E+01  0.00000000000E+00 0.  1.
</event>
<event>
 7    1  0.5290964E-013  0.5052886E+02  0.7816164E-02  0.1300439E+00
        -11   -1    0    0    0    0  0.00000000000E+00  0.00000000000E+00  0.45593999997E+02  0.45594000000E+02  0.51100000000E-03 0.  1.
         11   -1    0    0    0    0 -0.00000000000E+00 -0.00000000000E+00 -0.45593999997E+02  0.45594000000E+02  0.51100000000E-03 0. -1.
    9900012    2    1    2    0    0  0.37412742742E+02  0.13973087850E+02  0.76292276193E+01  0.50528860590E+02  0.30000002249E+02 0.  0.
         12    1    1    2    0    0 -0.37412742742E+02 -0.13973087850E+02 -0.76292276193E+01  0.40659139410E+02  0.00000000000E+00 0. -1.
         11    1    3    3    0    0  0.11124483554E+01 -0.70866501284E-01 -0.27247192373E+01  0.29439189166E+01  0.51100000000E-03 0. -1.
        -11    1    3    3    0    0  0.58844456851E+01  0.13128897132E+02 -0.24082011907E+01  0.14587462910E+02  0.51100000000E-03 0.  1.
         12    1    3    3    0    0  0.30415848701E+02  0.91505721940E+00  0.12762148047E+02  0.32997478763E+02  0.00000000000E+00 0. -1.
</event>
<event>
 7    1  0.5290964E-013  0.5052882E+02  0.7816164E-02  0.1300439E+00
        -11   -1    0    0    0    0  0.00000000000E+00  0.00000000000E+00  0.45593999997E+02  0.45594000000E+02  0.51100000000E-03 0.  1.
         11   -1    0    0    0    0 -0.00000000000E+00 -0.00000000000E+00 -0.45593999997E+02  0.45594000000E+02  0.51100000000E-03 0. -1.
    9900012    2    1    2    0    0 -0.45218121385E+01  0.10367167492E+02  0.39054371721E+02  0.50528820258E+02  0.29999879655E+02 0.  0.
         12    1    1    2    0    0  0.45218121385E+01 -0.10367167492E+02 -0.39054371721E+02  0.40659179742E+02  0.00000000000E+00 0. -1.
         11    1    3    3    0    0  0.11083132405E+01  0.87563834224E+00  0.49380820077E+01  0.51361225571E+01  0.51100000000E-03 0.  1.
        -11    1    3    3    0    0 -0.12316959092E+01  0.19207768062E+02  0.20965447333E+02  0.28460594001E+02  0.51100000000E-03 0. -1.
         12    1    3    3    0    0 -0.43984294698E+01 -0.97162389123E+01  0.13150842380E+02  0.16932103700E+02  0.00000000000E+00 0. -1.
</event>
<event>
 7    1  0.5290964E-013  0.5052886E+02  0.7816164E-02  0.1300439E+00
        -11   -1    0    0    0    0  0.00000000000E+00  0.00000000000E+00  0.45593999997E+02  0.45594000000E+02  0.51100000000E-03 0. -1.
         11   -1    0    0    0    0 -0.00000000000E+00 -0.00000000000E+00 -0.45593999997E+02  0.45594000000E+02  0.51100000000E-03 0.  1.
    9900012    2    1    2    0    0 -0.10387894194E+02  0.39115247782E+02 -0.39057391528E+01  0.50528858923E+02  0.29999997182E+02 0.  0.
         12    1    1    2    0    0  0.10387894194E+02 -0.39115247782E+02  0.39057391528E+01  0.40659141077E+02  0.00000000000E+00 0. -1.
         11    1    3    3    0    0 -0.54706451829E+01  0.10604574958E+02 -0.78909216348E+01  0.14305649697E+02  0.51100000000E-03 0.  1.
        -11    1    3    3    0    0 -0.30009883537E+01  0.14798900088E+02 -0.87157505824E+01  0.17434955790E+02  0.51100000000E-03 0. -1.
         12    1    3    3    0    0 -0.19162606575E+01  0.13711772735E+02  0.12700933064E+02  0.18788253436E+02  0.00000000000E+00 0. -1.
</event>
<event>
 7    1  0.5290964E-013  0.5052885E+02  0.7816164E-02  0.1300439E+00
        -11   -1    0    0    0    0  0.00000000000E+00  0.00000000000E+00  0.45593999997E+02  0.45594000000E+02  0.51100000000E-03 0.  1.
         11   -1    0    0    0    0 -0.00000000000E+00 -0.00000000000E+00 -0.45593999997E+02  0.45594000000E+02  0.51100000000E-03 0. -1.
    9900012    2    1    2    0    0  0.58081010981E+01  0.38991092027E+02 -0.99562649973E+01  0.50528849634E+02  0.29999968948E+02 0.  0.
         12    1    1    2    0    0 -0.58081010981E+01 -0.38991092027E+02  0.99562649973E+01  0.40659150366E+02  0.00000000000E+00 0. -1.
         11    1    3    3    0    0 -0.10484905790E+00  0.68132866192E+01  0.15927435733E+01  0.69977639452E+01  0.51100000000E-03 0. -1.
        -11    1    3    3    0    0 -0.69626688041E+01  0.26985864145E+02 -0.55975087867E+01  0.28426180282E+02  0.51100000000E-03 0.  1.
        -12    1    3    3    0    0  0.12875618960E+02  0.51919412619E+01 -0.59514997838E+01  0.15104905407E+02  0.00000000000E+00 0.  1.
</event>
<event>
 7    1  0.5290964E-013  0.5052887E+02  0.7816164E-02  0.1300439E+00
        -11   -1    0    0    0    0  0.00000000000E+00  0.00000000000E+00  0.45593999997E+02  0.45594000000E+02  0.51100000000E-03 0. -1.
         11   -1    0    0    0    0 -0.00000000000E+00 -0.00000000000E+00 -0.45593999997E+02  0.45594000000E+02  0.51100000000E-03 0.  1.
    9900012    2    1    2    0    0 -0.99646397682E+01  0.14874991024E+02 -0.36504874335E+02  0.50528865062E+02  0.30000015843E+02 0.  0.
         12    1    1    2    0    0  0.99646397682E+01 -0.14874991024E+02  0.36504874335E+02  0.40659134938E+02  0.00000000000E+00 0. -1.
         11    1    3    3    0    0 -0.12190873134E+02  0.82743148638E+00 -0.27782757609E+02  0.30351007417E+02  0.51100000000E-03 0.  1.
        -11    1    3    3    0    0 -0.27031025697E+01  0.13892868991E+01 -0.53949816722E+01  0.61921489884E+01  0.51100000000E-03 0. -1.
         12    1    3    3    0    0  0.49293359355E+01  0.12658272639E+02 -0.33271350538E+01  0.13985708657E+02  0.00000000000E+00 0. -1.
</event>
<event>
 7    1  0.5290964E-013  0.5052886E+02  0.7816164E-02  0.1300439E+00
        -11   -1    0    0    0    0  0.00000000000E+00  0.00000000000E+00  0.45593999997E+02  0.45594000000E+02  0.51100000000E-03 0.  1.
         11   -1    0    0    0    0 -0.00000000000E+00 -0.00000000000E+00 -0.45593999997E+02  0.45594000000E+02  0.51100000000E-03 0. -1.
    9900012    2    1    2    0    0  0.26674119790E+02  0.19150613806E+02  0.23977306783E+02  0.50528856917E+02  0.29999991085E+02 0.  0.
         12    1    1    2    0    0 -0.26674119790E+02 -0.19150613806E+02 -0.23977306783E+02  0.40659143083E+02  0.00000000000E+00 0. -1.
         11    1    3    3    0    0  0.15097863129E+02 -0.15513898183E+01  0.43867324456E+01  0.15798598142E+02  0.51100000000E-03 0. -1.
        -11    1    3    3    0    0 -0.30497483908E+01  0.43252704774E+00  0.18435362947E+00  0.30857788995E+01  0.51100000000E-03 0.  1.
        -12    1    3    3    0    0  0.14626005051E+02  0.20269476577E+02  0.19406220708E+02  0.31644479876E+02  0.00000000000E+00 0.  1.
</event>
<event>
 7    1  0.5290964E-013  0.5052887E+02  0.7816164E-02  0.1300439E+00
        -11   -1    0    0    0    0  0.00000000000E+00  0.00000000000E+00  0.45593999997E+02  0.45594000000E+02  0.51100000000E-03 0.  1.
         11   -1    0    0    0    0 -0.00000000000E+00 -0.00000000000E+00 -0.45593999997E+02  0.45594000000E+02  0.51100000000E-03 0. -1.
    9900012    2    1    2    0    0  0.38024272173E+02  0.15316877936E+01  0.14316903760E+02  0.50528867262E+02  0.30000022528E+02 0.  0.
         12    1    1    2    0    0 -0.38024272173E+02 -0.15316877936E+01 -0.14316903760E+02  0.40659132738E+02  0.00000000000E+00 0. -1.
         11    1    3    3    0    0  0.77275933255E+01  0.15844904348E+01 -0.86304898989E+01  0.11692376349E+02  0.51100000000E-03 0. -1.
        -11    1    3    3    0    0  0.14692251541E+02 -0.32679914899E+01  0.82680745258E+01  0.17172742365E+02  0.51100000000E-03 0.  1.
        -12    1    3    3    0    0  0.15604427306E+02  0.32151888487E+01  0.14679319133E+02  0.21663748547E+02  0.00000000000E+00 0.  1.
</event>
<event>
 7    1  0.5290964E-013  0.5052884E+02  0.7816164E-02  0.1300439E+00
        -11   -1    0    0    0    0  0.00000000000E+00  0.00000000000E+00  0.45593999997E+02  0.45594000000E+02  0.51100000000E-03 0.  1.
         11   -1    0    0    0    0 -0.00000000000E+00 -0.00000000000E+00 -0.45593999997E+02  0.45594000000E+02  0.51100000000E-03 0. -1.
    9900012    2    1    2    0    0  0.68710005429E+00  0.35456259757E+02  0.19888401759E+02  0.50528843750E+02  0.29999951062E+02 0.  0.
         12    1    1    2    0    0 -0.68710005429E+00 -0.35456259757E+02 -0.19888401759E+02  0.40659156250E+02  0.00000000000E+00 0. -1.
         11    1    3    3    0    0  0.37509535904E+01  0.13999019055E+02  0.37029799447E+01  0.14958417298E+02  0.51100000000E-03 0. -1.
        -11    1    3    3    0    0  0.95461725541E+01  0.11997116394E+02  0.11368802448E+02  0.19086903404E+02  0.51100000000E-03 0.  1.
        -12    1    3    3    0    0 -0.12610026090E+02  0.94601243084E+01  0.48166193663E+01  0.16483523047E+02  0.00000000000E+00 0.  1.
</event>
<event>
 7    1  0.5290964E-013  0.5052886E+02  0.7816164E-02  0.1300439E+00
        -11   -1    0    0    0    0  0.00000000000E+00  0.00000000000E+00  0.45593999997E+02  0.45594000000E+02  0.51100000000E-03 0.  1.
         11   -1    0    0    0    0 -0.00000000000E+00 -0.00000000000E+00 -0.45593999997E+02  0.45594000000E+02  0.51100000000E-03 0. -1.
    9900012    2    1    2    0    0  0.23152180825E+02  0.67749711092E+01  0.32729828748E+02  0.50528863261E+02  0.30000010368E+02 0.  0.
         12    1    1    2    0    0 -0.23152180825E+02 -0.67749711092E+01 -0.32729828748E+02  0.40659136739E+02  0.00000000000E+00 0. -1.
         11    1    3    3    0    0  0.98977497048E+01  0.21216657592E+01  0.27129414111E+01  0.10479836171E+02  0.51100000000E-03 0. -1.
        -11    1    3    3    0    0  0.12303795527E+02 -0.24698170038E+01  0.30363277837E+02  0.32854406427E+02  0.51100000000E-03 0.  1.
         12    1    3    3    0    0  0.95063559310E+00  0.71231223538E+01 -0.34639050023E+00  0.71946206624E+01  0.00000000000E+00 0. -1.
</event>
<event>
 7    1  0.5290964E-013  0.5052887E+02  0.7816164E-02  0.1300439E+00
        -11   -1    0    0    0    0  0.00000000000E+00  0.00000000000E+00  0.45593999997E+02  0.45594000000E+02  0.51100000000E-03 0. -1.
         11   -1    0    0    0    0 -0.00000000000E+00 -0.00000000000E+00 -0.45593999997E+02  0.45594000000E+02  0.51100000000E-03 0.  1.
    9900012    2    1    2    0    0 -0.39857460864E+01 -0.40047853111E+02  0.57834439661E+01  0.50528868987E+02  0.30000027772E+02 0.  0.
         12    1    1    2    0    0  0.39857460864E+01  0.40047853111E+02 -0.57834439661E+01  0.40659131013E+02  0.00000000000E+00 0. -1.
         11    1    3    3    0    0 -0.76863832119E+01 -0.15437197714E+02 -0.49544502119E+01  0.17942523159E+02  0.51100000000E-03 0.  1.
        -11    1    3    3    0    0  0.47429479767E+01  0.12168318279E+01  0.21588266704E+01  0.53513332975E+01  0.51100000000E-03 0. -1.
         12    1    3    3    0    0 -0.10423108512E+01 -0.25827487224E+02  0.85790675075E+01  0.27235012531E+02  0.00000000000E+00 0. -1.
</event>
<event>
 7    1  0.5290964E-013  0.5052885E+02  0.7816164E-02  0.1300439E+00
        -11   -1    0    0    0    0  0.00000000000E+00  0.00000000000E+00  0.45593999997E+02  0.45594000000E+02  0.51100000000E-03 0.  1.
         11   -1    0    0    0    0 -0.00000000000E+00 -0.00000000000E+00 -0.45593999997E+02  0.45594000000E+02  0.51100000000E-03 0. -1.
    9900012    2    1    2    0    0 -0.29015943605E+02 -0.19712564785E+01  0.28413998712E+02  0.50528853941E+02  0.29999982039E+02 0.  0.
         12    1    1    2    0    0  0.29015943605E+02  0.19712564785E+01 -0.28413998712E+02  0.40659146059E+02  0.00000000000E+00 0. -1.
         11    1    3    3    0    0 -0.12238987084E+02  0.23077610322E+01  0.30613069605E+01  0.12825371979E+02  0.51100000000E-03 0. -1.
        -11    1    3    3    0    0 -0.74294954229E+01 -0.97773702524E+01  0.26773927945E+01  0.12568325415E+02  0.51100000000E-03 0.  1.
         12    1    3    3    0    0 -0.93474610984E+01  0.54983527417E+01  0.22675298958E+02  0.25135156548E+02  0.00000000000E+00 0. -1.
</event>
<event>
 7    1  0.5290964E-013  0.5052885E+02  0.7816164E-02  0.1300439E+00
        -11   -1    0    0    0    0  0.00000000000E+00  0.00000000000E+00  0.45593999997E+02  0.45594000000E+02  0.51100000000E-03 0.  1.
         11   -1    0    0    0    0 -0.00000000000E+00 -0.00000000000E+00 -0.45593999997E+02  0.45594000000E+02  0.51100000000E-03 0. -1.
    9900012    2    1    2    0    0  0.22600686749E+01 -0.13139276415E+02  0.38411168767E+02  0.50528851200E+02  0.29999973707E+02 0.  0.
         12    1    1    2    0    0 -0.22600686749E+01  0.13139276415E+02 -0.38411168767E+02  0.40659148800E+02  0.00000000000E+00 0. -1.
         11    1    3    3    0    0  0.17978221769E+01  0.88818353845E+00  0.19215576708E+01  0.27773042183E+01  0.51100000000E-03 0. -1.
        -11    1    3    3    0    0  0.13512484448E+02 -0.74395630119E+01  0.23970911004E+02  0.28505068118E+02  0.51100000000E-03 0.  1.
         12    1    3    3    0    0 -0.13050237950E+02 -0.65878969412E+01  0.12518700092E+02  0.19246478864E+02  0.00000000000E+00 0. -1.
</event>
<event>
 7    1  0.5290964E-013  0.5052886E+02  0.7816164E-02  0.1300439E+00
        -11   -1    0    0    0    0  0.00000000000E+00  0.00000000000E+00  0.45593999997E+02  0.45594000000E+02  0.51100000000E-03 0.  1.
         11   -1    0    0    0    0 -0.00000000000E+00 -0.00000000000E+00 -0.45593999997E+02  0.45594000000E+02  0.51100000000E-03 0. -1.
    9900012    2    1    2    0    0  0.27030998656E+02  0.99868672690E+01  0.28683678486E+02  0.50528858129E+02  0.29999994770E+02 0.  0.
         12    1    1    2    0    0 -0.27030998656E+02 -0.99868672690E+01 -0.28683678486E+02  0.40659141871E+02  0.00000000000E+00 0. -1.
         11    1    3    3    0    0  0.56543193012E+01  0.45232117009E+01  0.11175484655E+02  0.13316239274E+02  0.51100000000E-03 0. -1.
        -11    1    3    3    0    0  0.10206536850E+02  0.13609045595E+02  0.15917310547E+02  0.23296787156E+02  0.51100000000E-03 0.  1.
         12    1    3    3    0    0  0.11170142505E+02 -0.81453900269E+01  0.15908832832E+01  0.13915831700E+02  0.00000000000E+00 0. -1.
</event>
<event>
 7    1  0.5290964E-013  0.5052884E+02  0.7816164E-02  0.1300439E+00
        -11   -1    0    0    0    0  0.00000000000E+00  0.00000000000E+00  0.45593999997E+02  0.45594000000E+02  0.51100000000E-03 0.  1.
         11   -1    0    0    0    0 -0.00000000000E+00 -0.00000000000E+00 -0.45593999997E+02  0.45594000000E+02  0.51100000000E-03 0. -1.
    9900012    2    1    2    0    0  0.27779267185E+02 -0.26367204281E+01  0.29572405057E+02  0.50528842104E+02  0.29999946060E+02 0.  0.
         12    1    1    2    0    0 -0.27779267185E+02  0.26367204281E+01 -0.29572405057E+02  0.40659157896E+02  0.00000000000E+00 0. -1.
         11    1    3    3    0    0 -0.29091773566E+01  0.42955976317E+01  0.72004434431E+01  0.88747877689E+01  0.51100000000E-03 0. -1.
        -11    1    3    3    0    0  0.50079723282E+01 -0.74974497547E+01  0.88148134382E+01  0.12609221858E+02  0.51100000000E-03 0.  1.
        -12    1    3    3    0    0  0.25680472214E+02  0.56513169488E+00  0.13557148175E+02  0.29044832477E+02  0.00000000000E+00 0.  1.
</event>
<event>
 7    1  0.5290964E-013  0.5052886E+02  0.7816164E-02  0.1300439E+00
        -11   -1    0    0    0    0  0.00000000000E+00  0.00000000000E+00  0.45593999997E+02  0.45594000000E+02  0.51100000000E-03 0.  1.
         11   -1    0    0    0    0 -0.00000000000E+00 -0.00000000000E+00 -0.45593999997E+02  0.45594000000E+02  0.51100000000E-03 0. -1.
    9900012    2    1    2    0    0 -0.13169775075E+02 -0.18462301397E+02  0.33747095923E+02  0.50528855498E+02  0.29999986773E+02 0.  0.
         12    1    1    2    0    0  0.13169775075E+02  0.18462301397E+02 -0.33747095923E+02  0.40659144502E+02  0.00000000000E+00 0. -1.
         11    1    3    3    0    0  0.26446673385E+01 -0.43654025949E+01  0.20660487730E+02  0.21281606111E+02  0.51100000000E-03 0. -1.
        -11    1    3    3    0    0  0.26156943038E+00 -0.84808041527E+01  0.75031018487E+01  0.11326473205E+02  0.51100000000E-03 0.  1.
         12    1    3    3    0    0 -0.16076011844E+02 -0.56160946492E+01  0.55835063442E+01  0.17920776183E+02  0.00000000000E+00 0. -1.
</event>
<event>
 7    1  0.5290964E-013  0.5052893E+02  0.7816164E-02  0.1300439E+00
        -11   -1    0    0    0    0  0.00000000000E+00  0.00000000000E+00  0.45593999997E+02  0.45594000000E+02  0.51100000000E-03 0. -1.
         11   -1    0    0    0    0 -0.00000000000E+00 -0.00000000000E+00 -0.45593999997E+02  0.45594000000E+02  0.51100000000E-03 0.  1.
    9900012    2    1    2    0    0 -0.74131655600E+01  0.32159767488E+02  0.23747717198E+02  0.50528932861E+02  0.30000221923E+02 0.  0.
         12    1    1    2    0    0  0.74131655600E+01 -0.32159767488E+02 -0.23747717198E+02  0.40659067139E+02  0.00000000000E+00 0. -1.
         11    1    3    3    0    0 -0.12038340280E+02  0.47119926072E+01  0.10932290401E+02  0.16930430730E+02  0.51100000000E-03 0. -1.
        -11    1    3    3    0    0 -0.20197296059E+01  0.13844870234E+02  0.36314666585E+00  0.13996128580E+02  0.51100000000E-03 0.  1.
        -12    1    3    3    0    0  0.66449043261E+01  0.13602904647E+02  0.12452280131E+02  0.19602373550E+02  0.00000000000E+00 0.  1.
</event>
<event>
 7    1  0.5290964E-013  0.5052886E+02  0.7816164E-02  0.1300439E+00
        -11   -1    0    0    0    0  0.00000000000E+00  0.00000000000E+00  0.45593999997E+02  0.45594000000E+02  0.51100000000E-03 0. -1.
         11   -1    0    0    0    0 -0.00000000000E+00 -0.00000000000E+00 -0.45593999997E+02  0.45594000000E+02  0.51100000000E-03 0.  1.
    9900012    2    1    2    0    0  0.13733213823E+02  0.14414243049E+02 -0.35451295170E+02  0.50528857192E+02  0.29999991922E+02 0.  0.
         12    1    1    2    0    0 -0.13733213823E+02 -0.14414243049E+02  0.35451295170E+02  0.40659142808E+02  0.00000000000E+00 0. -1.
         11    1    3    3    0    0 -0.61762486341E+01  0.74385644437E+01 -0.44414864362E+01  0.10639788071E+02  0.51100000000E-03 0. -1.
        -11    1    3    3    0    0  0.94731654154E+01  0.10239803445E+02 -0.14821441100E+02  0.20353612803E+02  0.51100000000E-03 0.  1.
         12    1    3    3    0    0  0.10436297042E+02 -0.32641248402E+01 -0.16188367634E+02  0.19535456318E+02  0.00000000000E+00 0. -1.
</event>
<event>
 7    1  0.5290964E-013  0.5052884E+02  0.7816164E-02  0.1300439E+00
        -11   -1    0    0    0    0  0.00000000000E+00  0.00000000000E+00  0.45593999997E+02  0.45594000000E+02  0.51100000000E-03 0.  1.
         11   -1    0    0    0    0 -0.00000000000E+00 -0.00000000000E+00 -0.45593999997E+02  0.45594000000E+02  0.51100000000E-03 0. -1.
    9900012    2    1    2    0    0 -0.18847198263E+02 -0.30644360607E+02  0.18943948759E+02  0.50528844648E+02  0.29999953792E+02 0.  0.
         12    1    1    2    0    0  0.18847198263E+02  0.30644360607E+02 -0.18943948759E+02  0.40659155352E+02  0.00000000000E+00 0. -1.
         11    1    3    3    0    0  0.15548910794E+01 -0.27185234319E+01  0.77607526444E+01  0.83688313275E+01  0.51100000000E-03 0. -1.
        -11    1    3    3    0    0 -0.19605343709E+02 -0.31369784751E+02  0.11108795775E+02  0.38624321886E+02  0.51100000000E-03 0.  1.
         12    1    3    3    0    0 -0.79674563259E+00  0.34439475763E+01  0.74400339954E-01  0.35356914348E+01  0.00000000000E+00 0. -1.
</event>
<event>
 7    1  0.5290964E-013  0.5052888E+02  0.7816164E-02  0.1300439E+00
        -11   -1    0    0    0    0  0.00000000000E+00  0.00000000000E+00  0.45593999997E+02  0.45594000000E+02  0.51100000000E-03 0. -1.
         11   -1    0    0    0    0 -0.00000000000E+00 -0.00000000000E+00 -0.45593999997E+02  0.45594000000E+02  0.51100000000E-03 0.  1.
    9900012    2    1    2    0    0  0.37204083123E+02  0.14567700624E+02  0.75367586208E+01  0.50528875157E+02  0.30000046526E+02 0.  0.
         12    1    1    2    0    0 -0.37204083123E+02 -0.14567700624E+02 -0.75367586208E+01  0.40659124843E+02  0.00000000000E+00 0. -1.
         11    1    3    3    0    0  0.37814788179E+02  0.10931619902E+02  0.27038991598E+00  0.39364090611E+02  0.51100000000E-03 0.  1.
        -11    1    3    3    0    0  0.21084397526E+01  0.11884517110E+01  0.71014492247E+01  0.75025673614E+01  0.51100000000E-03 0. -1.
        -12    1    3    3    0    0 -0.27191448082E+01  0.24476290114E+01  0.16491948011E+00  0.36622171837E+01  0.00000000000E+00 0.  1.
</event>
<event>
 7    1  0.5290964E-013  0.5052886E+02  0.7816164E-02  0.1300439E+00
        -11   -1    0    0    0    0  0.00000000000E+00  0.00000000000E+00  0.45593999997E+02  0.45594000000E+02  0.51100000000E-03 0.  1.
         11   -1    0    0    0    0 -0.00000000000E+00 -0.00000000000E+00 -0.45593999997E+02  0.45594000000E+02  0.51100000000E-03 0. -1.
    9900012    2    1    2    0    0 -0.11277033688E+02  0.68651995243E+01  0.38455991014E+02  0.50528859599E+02  0.29999999237E+02 0.  0.
         12    1    1    2    0    0  0.11277033688E+02 -0.68651995243E+01 -0.38455991014E+02  0.40659140401E+02  0.00000000000E+00 0. -1.
         11    1    3    3    0    0  0.54292367941E+01  0.17833626590E+01  0.10720539763E+02  0.12148537674E+02  0.51100000000E-03 0.  1.
        -11    1    3    3    0    0 -0.10304143855E+02 -0.19387454474E+01  0.16444197691E+01  0.10613115996E+02  0.51100000000E-03 0. -1.
         12    1    3    3    0    0 -0.64021266265E+01  0.70205823126E+01  0.26091031482E+02  0.27767205930E+02  0.00000000000E+00 0. -1.
</event>
<event>
 7    1  0.5290964E-013  0.5052888E+02  0.7816164E-02  0.1300439E+00
        -11   -1    0    0    0    0  0.00000000000E+00  0.00000000000E+00  0.45593999997E+02  0.45594000000E+02  0.51100000000E-03 0.  1.
         11   -1    0    0    0    0 -0.00000000000E+00 -0.00000000000E+00 -0.45593999997E+02  0.45594000000E+02  0.51100000000E-03 0. -1.
    9900012    2    1    2    0    0 -0.12206383222E+02 -0.38693315564E+02 -0.26449832224E+01  0.50528875601E+02  0.30000047875E+02 0.  0.
         12    1    1    2    0    0  0.12206383222E+02  0.38693315564E+02  0.26449832224E+01  0.40659124399E+02  0.00000000000E+00 0. -1.
         11    1    3    3    0    0  0.45118139313E+01 -0.16287994278E+02 -0.49713144040E+01  0.17617298025E+02  0.51100000000E-03 0. -1.
        -11    1    3    3    0    0 -0.10600768335E+02 -0.21646895496E+02  0.70864347979E+01  0.25123334419E+02  0.51100000000E-03 0.  1.
         12    1    3    3    0    0 -0.61174288183E+01 -0.75842578991E+00 -0.47601036163E+01  0.77882431564E+01  0.00000000000E+00 0. -1.
</event>
<event>
 7    1  0.5290964E-013  0.5052886E+02  0.7816164E-02  0.1300439E+00
        -11   -1    0    0    0    0  0.00000000000E+00  0.00000000000E+00  0.45593999997E+02  0.45594000000E+02  0.51100000000E-03 0. -1.
         11   -1    0    0    0    0 -0.00000000000E+00 -0.00000000000E+00 -0.45593999997E+02  0.45594000000E+02  0.51100000000E-03 0.  1.
    9900012    2    1    2    0    0 -0.24339567804E+02  0.27881947702E+02 -0.16832944929E+02  0.50528860762E+02  0.30000002774E+02 0.  0.
         12    1    1    2    0    0  0.24339567804E+02 -0.27881947702E+02  0.16832944929E+02  0.40659139238E+02  0.00000000000E+00 0. -1.
         11    1    3    3    0    0 -0.15364202189E+02  0.16746639380E+02 -0.97162997937E+01  0.24716697218E+02  0.51100000000E-03 0. -1.
        -11    1    3    3    0    0 -0.14405334183E+02  0.59331785280E+01 -0.90906439071E+01  0.18037629204E+02  0.51100000000E-03 0.  1.
         12    1    3    3    0    0  0.54299685692E+01  0.52021297945E+01  0.19739987717E+01  0.77745343405E+01  0.00000000000E+00 0. -1.
</event>
<event>
 7    1  0.5290964E-013  0.5052886E+02  0.7816164E-02  0.1300439E+00
        -11   -1    0    0    0    0  0.00000000000E+00  0.00000000000E+00  0.45593999997E+02  0.45594000000E+02  0.51100000000E-03 0.  1.
         11   -1    0    0    0    0 -0.00000000000E+00 -0.00000000000E+00 -0.45593999997E+02  0.45594000000E+02  0.51100000000E-03 0. -1.
    9900012    2    1    2    0    0  0.30160143916E+02 -0.25699031520E+02  0.91154415021E+01  0.50528858643E+02  0.29999996332E+02 0.  0.
         12    1    1    2    0    0 -0.30160143916E+02  0.25699031520E+02 -0.91154415021E+01  0.40659141357E+02  0.00000000000E+00 0. -1.
         11    1    3    3    0    0  0.14043868848E+02 -0.16734345901E+02 -0.41926841031E+01  0.22245160939E+02  0.51100000000E-03 0. -1.
        -11    1    3    3    0    0  0.58668012111E+01 -0.10778870984E+02  0.12212696716E+01  0.12332676758E+02  0.51100000000E-03 0.  1.
         12    1    3    3    0    0  0.10249473857E+02  0.18141853651E+01  0.12086855934E+02  0.15951020947E+02  0.00000000000E+00 0. -1.
</event>
<event>
 7    1  0.5290964E-013  0.5052886E+02  0.7816164E-02  0.1300439E+00
        -11   -1    0    0    0    0  0.00000000000E+00  0.00000000000E+00  0.45593999997E+02  0.45594000000E+02  0.51100000000E-03 0.  1.
         11   -1    0    0    0    0 -0.00000000000E+00 -0.00000000000E+00 -0.45593999997E+02  0.45594000000E+02  0.51100000000E-03 0. -1.
    9900012    2    1    2    0    0 -0.12227249120E+02 -0.79045817237E+01  0.37962846683E+02  0.50528858819E+02  0.29999996867E+02 0.  0.
         12    1    1    2    0    0  0.12227249120E+02  0.79045817237E+01 -0.37962846683E+02  0.40659141181E+02  0.00000000000E+00 0. -1.
         11    1    3    3    0    0  0.27577064957E+01 -0.15417987348E+01  0.85687262663E+01  0.91326424732E+01  0.51100000000E-03 0. -1.
        -11    1    3    3    0    0  0.47188609359E+01 -0.80730117971E+01  0.87352611151E+01  0.12796325841E+02  0.51100000000E-03 0.  1.
        -12    1    3    3    0    0 -0.19703816551E+02  0.17102288083E+01  0.20658859302E+02  0.28599890505E+02  0.00000000000E+00 0.  1.
</event>
<event>
 7    1  0.5290964E-013  0.5052886E+02  0.7816164E-02  0.1300439E+00
        -11   -1    0    0    0    0  0.00000000000E+00  0.00000000000E+00  0.45593999997E+02  0.45594000000E+02  0.51100000000E-03 0. -1.
         11   -1    0    0    0    0 -0.00000000000E+00 -0.00000000000E+00 -0.45593999997E+02  0.45594000000E+02  0.51100000000E-03 0.  1.
    9900012    2    1    2    0    0 -0.31368033026E+02 -0.17577005844E+02 -0.18980549378E+02  0.50528857300E+02  0.29999992250E+02 0.  0.
         12    1    1    2    0    0  0.31368033026E+02  0.17577005844E+02  0.18980549378E+02  0.40659142700E+02  0.00000000000E+00 0. -1.
         11    1    3    3    0    0 -0.18014661269E+02 -0.78271652707E+01 -0.11333911602E+02  0.22677082909E+02  0.51100000000E-03 0.  1.
        -11    1    3    3    0    0 -0.13221431620E+02 -0.12734807808E+02  0.13160483628E+01  0.18404172558E+02  0.51100000000E-03 0. -1.
         12    1    3    3    0    0 -0.13194013768E+00  0.29849672341E+01 -0.89626861386E+01  0.94476018337E+01  0.00000000000E+00 0. -1.
</event>
<event>
 7    1  0.5290964E-013  0.5052882E+02  0.7816164E-02  0.1300439E+00
        -11   -1    0    0    0    0  0.00000000000E+00  0.00000000000E+00  0.45593999997E+02  0.45594000000E+02  0.51100000000E-03 0.  1.
         11   -1    0    0    0    0 -0.00000000000E+00 -0.00000000000E+00 -0.45593999997E+02  0.45594000000E+02  0.51100000000E-03 0. -1.
    9900012    2    1    2    0    0  0.17069148299E+02  0.19700065845E+02  0.31204495299E+02  0.50528819673E+02  0.29999877879E+02 0.  0.
         12    1    1    2    0    0 -0.17069148299E+02 -0.19700065845E+02 -0.31204495299E+02  0.40659180327E+02  0.00000000000E+00 0. -1.
         11    1    3    3    0    0 -0.27678371233E+01 -0.31168309280E+01  0.56336476235E+01  0.70081055344E+01  0.51100000000E-03 0. -1.
        -11    1    3    3    0    0 -0.12596020998E+00  0.76286187630E+01  0.13896387427E+02  0.15853115593E+02  0.51100000000E-03 0.  1.
        -12    1    3    3    0    0  0.19962945632E+02  0.15188278010E+02  0.11674460249E+02  0.27667598546E+02  0.00000000000E+00 0.  1.
</event>
<event>
 7    1  0.5290964E-013  0.5052882E+02  0.7816164E-02  0.1300439E+00
        -11   -1    0    0    0    0  0.00000000000E+00  0.00000000000E+00  0.45593999997E+02  0.45594000000E+02  0.51100000000E-03 0.  1.
         11   -1    0    0    0    0 -0.00000000000E+00 -0.00000000000E+00 -0.45593999997E+02  0.45594000000E+02  0.51100000000E-03 0. -1.
    9900012    2    1    2    0    0  0.35845210963E+02  0.18965635250E+02 -0.29316165411E+01  0.50528820902E+02  0.29999881613E+02 0.  0.
         12    1    1    2    0    0 -0.35845210963E+02 -0.18965635250E+02  0.29316165411E+01  0.40659179098E+02  0.00000000000E+00 0. -1.
         11    1    3    3    0    0  0.18581095469E+02  0.12456345436E+02 -0.41463563606E+01  0.22751042213E+02  0.51100000000E-03 0.  1.
        -11    1    3    3    0    0 -0.29123719025E+01  0.24902118677E+01  0.55585258941E+01  0.67513165842E+01  0.51100000000E-03 0. -1.
         12    1    3    3    0    0  0.20176487396E+02  0.40190779460E+01 -0.43437860745E+01  0.21026462105E+02  0.00000000000E+00 0. -1.
</event>
<event>
 7    1  0.5290964E-013  0.5052886E+02  0.7816164E-02  0.1300439E+00
        -11   -1    0    0    0    0  0.00000000000E+00  0.00000000000E+00  0.45593999997E+02  0.45594000000E+02  0.51100000000E-03 0.  1.
         11   -1    0    0    0    0 -0.00000000000E+00 -0.00000000000E+00 -0.45593999997E+02  0.45594000000E+02  0.51100000000E-03 0. -1.
    9900012    2    1    2    0    0  0.27790279777E+02 -0.12252123992E+02  0.27032410577E+02  0.50528863094E+02  0.30000009860E+02 0.  0.
         12    1    1    2    0    0 -0.27790279777E+02  0.12252123992E+02 -0.27032410577E+02  0.40659136906E+02  0.00000000000E+00 0. -1.
         11    1    3    3    0    0  0.10011933955E+02  0.23111099665E+01  0.41882096332E+01  0.11095997071E+02  0.51100000000E-03 0.  1.
        -11    1    3    3    0    0  0.22676745445E+02 -0.88353167368E+01  0.15177350543E+02  0.28681868412E+02  0.51100000000E-03 0. -1.
         12    1    3    3    0    0 -0.48983996239E+01 -0.57279172214E+01  0.76668504005E+01  0.10750997611E+02  0.00000000000E+00 0. -1.
</event>
<event>
 7    1  0.5290964E-013  0.5052886E+02  0.7816164E-02  0.1300439E+00
        -11   -1    0    0    0    0  0.00000000000E+00  0.00000000000E+00  0.45593999997E+02  0.45594000000E+02  0.51100000000E-03 0.  1.
         11   -1    0    0    0    0 -0.00000000000E+00 -0.00000000000E+00 -0.45593999997E+02  0.45594000000E+02  0.51100000000E-03 0. -1.
    9900012    2    1    2    0    0  0.10915838837E+02  0.39097086678E+02  0.23298147899E+01  0.50528858823E+02  0.29999996880E+02 0.  0.
         12    1    1    2    0    0 -0.10915838837E+02 -0.39097086678E+02 -0.23298147899E+01  0.40659141177E+02  0.00000000000E+00 0. -1.
         11    1    3    3    0    0  0.20505088758E+01  0.10381856075E+02 -0.10975598231E+02  0.15246352973E+02  0.51100000000E-03 0. -1.
        -11    1    3    3    0    0 -0.31121580494E+01  0.97177579530E+01  0.36547947293E+01  0.10838720964E+02  0.51100000000E-03 0.  1.
        -12    1    3    3    0    0  0.11977488011E+02  0.18997472651E+02  0.96506182913E+01  0.24443784886E+02  0.00000000000E+00 0.  1.
</event>
<event>
 7    1  0.5290964E-013  0.5052890E+02  0.7816164E-02  0.1300439E+00
        -11   -1    0    0    0    0  0.00000000000E+00  0.00000000000E+00  0.45593999997E+02  0.45594000000E+02  0.51100000000E-03 0.  1.
         11   -1    0    0    0    0 -0.00000000000E+00 -0.00000000000E+00 -0.45593999997E+02  0.45594000000E+02  0.51100000000E-03 0. -1.
    9900012    2    1    2    0    0 -0.13532196139E+02  0.12610172129E+02  0.36208093128E+02  0.50528895467E+02  0.30000108261E+02 0.  0.
         12    1    1    2    0    0  0.13532196139E+02 -0.12610172129E+02 -0.36208093128E+02  0.40659104533E+02  0.00000000000E+00 0. -1.
         11    1    3    3    0    0 -0.46352051421E+01 -0.48219490595E+01  0.91195376679E+01  0.11309389328E+02  0.51100000000E-03 0. -1.
        -11    1    3    3    0    0 -0.15292604574E+01 -0.40102158223E+01  0.98276730110E+01  0.10723974336E+02  0.51100000000E-03 0.  1.
        -12    1    3    3    0    0 -0.73677305393E+01  0.21442337011E+02  0.17260882449E+02  0.28495531802E+02  0.00000000000E+00 0.  1.
</event>
<event>
 7    1  0.5290964E-013  0.5052883E+02  0.7816164E-02  0.1300439E+00
        -11   -1    0    0    0    0  0.00000000000E+00  0.00000000000E+00  0.45593999997E+02  0.45594000000E+02  0.51100000000E-03 0. -1.
         11   -1    0    0    0    0 -0.00000000000E+00 -0.00000000000E+00 -0.45593999997E+02  0.45594000000E+02  0.51100000000E-03 0.  1.
    9900012    2    1    2    0    0 -0.94226965674E+00 -0.39740094430E+02 -0.85443092066E+01  0.50528828867E+02  0.29999905823E+02 0.  0.
         12    1    1    2    0    0  0.94226965674E+00  0.39740094430E+02  0.85443092066E+01  0.40659171133E+02  0.00000000000E+00 0. -1.
         11    1    3    3    0    0  0.41781761279E+01 -0.84116176496E+01  0.24764428543E+01  0.97131476212E+01  0.51100000000E-03 0. -1.
        -11    1    3    3    0    0  0.30483815881E+01 -0.28448084709E+02 -0.25893442812E+01  0.28727875974E+02  0.51100000000E-03 0.  1.
         12    1    3    3    0    0 -0.81688273728E+01 -0.28803920717E+01 -0.84314077797E+01  0.12087805271E+02  0.00000000000E+00 0. -1.
</event>
<event>
 7    1  0.5290964E-013  0.5052886E+02  0.7816164E-02  0.1300439E+00
        -11   -1    0    0    0    0  0.00000000000E+00  0.00000000000E+00  0.45593999997E+02  0.45594000000E+02  0.51100000000E-03 0.  1.
         11   -1    0    0    0    0 -0.00000000000E+00 -0.00000000000E+00 -0.45593999997E+02  0.45594000000E+02  0.51100000000E-03 0. -1.
    9900012    2    1    2    0    0 -0.19714871734E+02 -0.30154811582E+02  0.18846141206E+02  0.50528857518E+02  0.29999992912E+02 0.  0.
         12    1    1    2    0    0  0.19714871734E+02  0.30154811582E+02 -0.18846141206E+02  0.40659142482E+02  0.00000000000E+00 0. -1.
         11    1    3    3    0    0 -0.78988307221E+01 -0.65381978262E+01  0.41243474199E+01  0.11052140041E+02  0.51100000000E-03 0. -1.
        -11    1    3    3    0    0 -0.18505911668E+02 -0.23486123172E+02  0.12705269236E+02  0.32488315052E+02  0.51100000000E-03 0.  1.
         12    1    3    3    0    0  0.66898706564E+01 -0.13049058383E+00  0.20165245498E+01  0.69884024249E+01  0.00000000000E+00 0. -1.
</event>
<event>
 7    1  0.5290964E-013  0.5052886E+02  0.7816164E-02  0.1300439E+00
        -11   -1    0    0    0    0  0.00000000000E+00  0.00000000000E+00  0.45593999997E+02  0.45594000000E+02  0.51100000000E-03 0. -1.
         11   -1    0    0    0    0 -0.00000000000E+00 -0.00000000000E+00 -0.45593999997E+02  0.45594000000E+02  0.51100000000E-03 0.  1.
    9900012    2    1    2    0    0  0.39921671420E+02  0.14431686030E+01 -0.75725098599E+01  0.50528862157E+02  0.30000007011E+02 0.  0.
         12    1    1    2    0    0 -0.39921671420E+02 -0.14431686030E+01  0.75725098599E+01  0.40659137843E+02  0.00000000000E+00 0. -1.
         11    1    3    3    0    0  0.11481045357E+02  0.64191026755E+01 -0.53460783745E+01  0.14198585701E+02  0.51100000000E-03 0.  1.
        -11    1    3    3    0    0  0.19982373685E+01  0.67007449234E+01  0.15978861814E+01  0.71725989446E+01  0.51100000000E-03 0. -1.
        -12    1    3    3    0    0  0.26442388695E+02 -0.11676678996E+02 -0.38243176667E+01  0.29157677511E+02  0.00000000000E+00 0.  1.
</event>
<event>
 7    1  0.5290964E-013  0.5052887E+02  0.7816164E-02  0.1300439E+00
        -11   -1    0    0    0    0  0.00000000000E+00  0.00000000000E+00  0.45593999997E+02  0.45594000000E+02  0.51100000000E-03 0. -1.
         11   -1    0    0    0    0 -0.00000000000E+00 -0.00000000000E+00 -0.45593999997E+02  0.45594000000E+02  0.51100000000E-03 0.  1.
    9900012    2    1    2    0    0 -0.33086172235E+02  0.22542815214E+02 -0.70916313204E+01  0.50528873770E+02  0.30000042312E+02 0.  0.
         12    1    1    2    0    0  0.33086172235E+02 -0.22542815214E+02  0.70916313204E+01  0.40659126230E+02  0.00000000000E+00 0. -1.
         11    1    3    3    0    0 -0.22195015201E+02  0.50010076550E+01 -0.92476991035E+01  0.24559086227E+02  0.51100000000E-03 0. -1.
        -11    1    3    3    0    0 -0.10678105082E+02  0.28272739557E+01 -0.30017069878E+00  0.11050136147E+02  0.51100000000E-03 0.  1.
         12    1    3    3    0    0 -0.21305195270E+00  0.14714533604E+02  0.24562384818E+01  0.14919651396E+02  0.00000000000E+00 0. -1.
</event>
<event>
 7    1  0.5290964E-013  0.5052886E+02  0.7816164E-02  0.1300439E+00
        -11   -1    0    0    0    0  0.00000000000E+00  0.00000000000E+00  0.45593999997E+02  0.45594000000E+02  0.51100000000E-03 0.  1.
         11   -1    0    0    0    0 -0.00000000000E+00 -0.00000000000E+00 -0.45593999997E+02  0.45594000000E+02  0.51100000000E-03 0. -1.
    9900012    2    1    2    0    0  0.14556339801E+02 -0.36335260900E+02  0.11001237160E+02  0.50528862871E+02  0.30000009182E+02 0.  0.
         12    1    1    2    0    0 -0.14556339801E+02  0.36335260900E+02 -0.11001237160E+02  0.40659137129E+02  0.00000000000E+00 0. -1.
         11    1    3    3    0    0  0.24860021503E+01 -0.10497142968E+02 -0.97441822075E+00  0.10831422266E+02  0.51100000000E-03 0. -1.
        -11    1    3    3    0    0  0.12314639326E+02 -0.28205333541E+02  0.35953259219E+01  0.30985763677E+02  0.51100000000E-03 0.  1.
        -12    1    3    3    0    0 -0.24430167523E+00  0.23672156096E+01  0.83803294588E+01  0.87116769275E+01  0.00000000000E+00 0.  1.
</event>
<event>
 7    1  0.5290964E-013  0.5052886E+02  0.7816164E-02  0.1300439E+00
        -11   -1    0    0    0    0  0.00000000000E+00  0.00000000000E+00  0.45593999997E+02  0.45594000000E+02  0.51100000000E-03 0.  1.
         11   -1    0    0    0    0 -0.00000000000E+00 -0.00000000000E+00 -0.45593999997E+02  0.45594000000E+02  0.51100000000E-03 0. -1.
    9900012    2    1    2    0    0 -0.27653539514E+02 -0.27127427213E+02  0.12351122098E+02  0.50528858692E+02  0.29999996480E+02 0.  0.
         12    1    1    2    0    0  0.27653539514E+02  0.27127427213E+02 -0.12351122098E+02  0.40659141308E+02  0.00000000000E+00 0. -1.
         11    1    3    3    0    0 -0.46747634886E+01 -0.98547080607E+00  0.31664830686E+01  0.57315950371E+01  0.51100000000E-03 0. -1.
        -11    1    3    3    0    0 -0.18237910077E+02 -0.23989280672E+02  0.17602545935E+02  0.34899234587E+02  0.51100000000E-03 0.  1.
        -12    1    3    3    0    0 -0.47408659487E+01 -0.21526757342E+01 -0.84179069049E+01  0.98980290675E+01  0.00000000000E+00 0.  1.
</event>
<event>
 7    1  0.5290964E-013  0.5052880E+02  0.7816164E-02  0.1300439E+00
        -11   -1    0    0    0    0  0.00000000000E+00  0.00000000000E+00  0.45593999997E+02  0.45594000000E+02  0.51100000000E-03 0. -1.
         11   -1    0    0    0    0 -0.00000000000E+00 -0.00000000000E+00 -0.45593999997E+02  0.45594000000E+02  0.51100000000E-03 0.  1.
    9900012    2    1    2    0    0  0.58730369185E+01  0.80508835394E+01 -0.39419043490E+02  0.50528803278E+02  0.29999828043E+02 0.  0.
         12    1    1    2    0    0 -0.58730369185E+01 -0.80508835394E+01  0.39419043490E+02  0.40659196722E+02  0.00000000000E+00 0. -1.
         11    1    3    3    0    0  0.10020772422E+02  0.11419525502E+02 -0.16371499050E+02  0.22334892523E+02  0.51100000000E-03 0. -1.
        -11    1    3    3    0    0  0.47500729928E+01  0.24201641418E+01 -0.53215897764E+01  0.75325763136E+01  0.51100000000E-03 0.  1.
         12    1    3    3    0    0 -0.88978084960E+01 -0.57888061047E+01 -0.17725954664E+02  0.20661334441E+02  0.00000000000E+00 0. -1.
</event>
<event>
 7    1  0.5290964E-013  0.5052885E+02  0.7816164E-02  0.1300439E+00
        -11   -1    0    0    0    0  0.00000000000E+00  0.00000000000E+00  0.45593999997E+02  0.45594000000E+02  0.51100000000E-03 0. -1.
         11   -1    0    0    0    0 -0.00000000000E+00 -0.00000000000E+00 -0.45593999997E+02  0.45594000000E+02  0.51100000000E-03 0.  1.
    9900012    2    1    2    0    0 -0.24370257464E+02  0.98276459243E-03 -0.32546224006E+02  0.50528854081E+02  0.29999982465E+02 0.  0.
         12    1    1    2    0    0  0.24370257464E+02 -0.98276459243E-03  0.32546224006E+02  0.40659145919E+02  0.00000000000E+00 0. -1.
         11    1    3    3    0    0 -0.99949164294E+01  0.47685488893E+01 -0.11287169886E+02  0.15812577818E+02  0.51100000000E-03 0.  1.
        -11    1    3    3    0    0  0.69978475611E+00  0.21596562839E+01  0.39393420418E+01  0.45466724044E+01  0.51100000000E-03 0. -1.
         12    1    3    3    0    0 -0.15075125791E+02 -0.69272224086E+01 -0.25198396161E+02  0.30169603859E+02  0.00000000000E+00 0. -1.
</event>
<event>
 7    1  0.5290964E-013  0.5052885E+02  0.7816164E-02  0.1300439E+00
        -11   -1    0    0    0    0  0.00000000000E+00  0.00000000000E+00  0.45593999997E+02  0.45594000000E+02  0.51100000000E-03 0. -1.
         11   -1    0    0    0    0 -0.00000000000E+00 -0.00000000000E+00 -0.45593999997E+02  0.45594000000E+02  0.51100000000E-03 0.  1.
    9900012    2    1    2    0    0  0.10423624510E+02  0.39220306412E+02  0.25063829092E+01  0.50528851727E+02  0.29999975309E+02 0.  0.
         12    1    1    2    0    0 -0.10423624510E+02 -0.39220306412E+02 -0.25063829092E+01  0.40659148273E+02  0.00000000000E+00 0. -1.
         11    1    3    3    0    0  0.19547176988E+01 -0.21930003548E+01 -0.11320787891E+01  0.31482970768E+01  0.51100000000E-03 0. -1.
        -11    1    3    3    0    0 -0.48553856357E+01  0.67127857890E+01 -0.43556603449E+01  0.93599166674E+01  0.51100000000E-03 0.  1.
        -12    1    3    3    0    0  0.13324292447E+02  0.34700520978E+02  0.79941220432E+01  0.38020637983E+02  0.00000000000E+00 0.  1.
</event>
<event>
 7    1  0.5290964E-013  0.5052886E+02  0.7816164E-02  0.1300439E+00
        -11   -1    0    0    0    0  0.00000000000E+00  0.00000000000E+00  0.45593999997E+02  0.45594000000E+02  0.51100000000E-03 0.  1.
         11   -1    0    0    0    0 -0.00000000000E+00 -0.00000000000E+00 -0.45593999997E+02  0.45594000000E+02  0.51100000000E-03 0. -1.
    9900012    2    1    2    0    0  0.20256500077E+02 -0.34682194448E+02 -0.63233986934E+01  0.50528858616E+02  0.29999996248E+02 0.  0.
         12    1    1    2    0    0 -0.20256500077E+02  0.34682194448E+02  0.63233986934E+01  0.40659141384E+02  0.00000000000E+00 0. -1.
         11    1    3    3    0    0  0.34983158188E+01 -0.32555623943E+01 -0.10962567905E+02  0.11958879354E+02  0.51100000000E-03 0. -1.
        -11    1    3    3    0    0  0.77190644777E+01 -0.27178046905E+01  0.13196710526E+01  0.82892671989E+01  0.51100000000E-03 0.  1.
        -12    1    3    3    0    0  0.90391197802E+01 -0.28708827363E+02  0.33194981595E+01  0.30280712062E+02  0.00000000000E+00 0.  1.
</event>
<event>
 7    1  0.5290964E-013  0.5052886E+02  0.7816164E-02  0.1300439E+00
        -11   -1    0    0    0    0  0.00000000000E+00  0.00000000000E+00  0.45593999997E+02  0.45594000000E+02  0.51100000000E-03 0.  1.
         11   -1    0    0    0    0 -0.00000000000E+00 -0.00000000000E+00 -0.45593999997E+02  0.45594000000E+02  0.51100000000E-03 0. -1.
    9900012    2    1    2    0    0 -0.20863822906E+01  0.10783142087E+02  0.39147627506E+02  0.50528857317E+02  0.29999992302E+02 0.  0.
         12    1    1    2    0    0  0.20863822906E+01 -0.10783142087E+02 -0.39147627506E+02  0.40659142683E+02  0.00000000000E+00 0. -1.
         11    1    3    3    0    0 -0.23128714966E-01  0.14768193505E+02  0.23611297304E+02  0.27849478181E+02  0.51100000000E-03 0. -1.
        -11    1    3    3    0    0 -0.15682842003E+01  0.44607798488E+01 -0.28609246146E+00  0.47370794114E+01  0.51100000000E-03 0.  1.
         12    1    3    3    0    0 -0.49496937540E+00 -0.84458312666E+01  0.15822422664E+02  0.17942299725E+02  0.00000000000E+00 0. -1.
</event>
<event>
 7    1  0.5290964E-013  0.5052886E+02  0.7816164E-02  0.1300439E+00
        -11   -1    0    0    0    0  0.00000000000E+00  0.00000000000E+00  0.45593999997E+02  0.45594000000E+02  0.51100000000E-03 0.  1.
         11   -1    0    0    0    0 -0.00000000000E+00 -0.00000000000E+00 -0.45593999997E+02  0.45594000000E+02  0.51100000000E-03 0. -1.
    9900012    2    1    2    0    0  0.22340678104E+02  0.78825471252E+01  0.33044292397E+02  0.50528859486E+02  0.29999998892E+02 0.  0.
         12    1    1    2    0    0 -0.22340678104E+02 -0.78825471252E+01 -0.33044292397E+02  0.40659140514E+02  0.00000000000E+00 0. -1.
         11    1    3    3    0    0  0.40152795275E+01  0.12788164939E+02  0.53056529098E+01  0.14415602147E+02  0.51100000000E-03 0. -1.
        -11    1    3    3    0    0  0.59962829336E+01  0.37611607800E+01  0.44084127289E+01  0.83388154124E+01  0.51100000000E-03 0.  1.
        -12    1    3    3    0    0  0.12329115643E+02 -0.86667785936E+01  0.23330226758E+02  0.27774441927E+02  0.00000000000E+00 0.  1.
</event>
<event>
 7    1  0.5290964E-013  0.5052886E+02  0.7816164E-02  0.1300439E+00
        -11   -1    0    0    0    0  0.00000000000E+00  0.00000000000E+00  0.45593999997E+02  0.45594000000E+02  0.51100000000E-03 0.  1.
         11   -1    0    0    0    0 -0.00000000000E+00 -0.00000000000E+00 -0.45593999997E+02  0.45594000000E+02  0.51100000000E-03 0. -1.
    9900012    2    1    2    0    0 -0.15490158308E+01  0.40443099198E+02  0.38886516164E+01  0.50528864075E+02  0.30000012842E+02 0.  0.
         12    1    1    2    0    0  0.15490158308E+01 -0.40443099198E+02 -0.38886516164E+01  0.40659135925E+02  0.00000000000E+00 0. -1.
         11    1    3    3    0    0  0.21931718285E+01  0.72374184609E+01 -0.64446501966E+01  0.99359823403E+01  0.51100000000E-03 0. -1.
        -11    1    3    3    0    0 -0.80936630157E+01  0.27609998489E+02  0.89062484310E+00  0.28785632014E+02  0.51100000000E-03 0.  1.
        -12    1    3    3    0    0  0.43514753564E+01  0.55956822478E+01  0.94426769700E+01  0.11807249720E+02  0.00000000000E+00 0.  1.
</event>
<event>
 7    1  0.5290964E-013  0.5052886E+02  0.7816164E-02  0.1300439E+00
        -11   -1    0    0    0    0  0.00000000000E+00  0.00000000000E+00  0.45593999997E+02  0.45594000000E+02  0.51100000000E-03 0. -1.
         11   -1    0    0    0    0 -0.00000000000E+00 -0.00000000000E+00 -0.45593999997E+02  0.45594000000E+02  0.51100000000E-03 0.  1.
    9900012    2    1    2    0    0  0.31076528301E+02 -0.26172781419E+02  0.15493791964E+01  0.50528859892E+02  0.30000000128E+02 0.  0.
         12    1    1    2    0    0 -0.31076528301E+02  0.26172781419E+02 -0.15493791964E+01  0.40659140108E+02  0.00000000000E+00 0. -1.
         11    1    3    3    0    0  0.10756155585E+02 -0.20500693435E+02 -0.19312754293E+01  0.23231511774E+02  0.51100000000E-03 0. -1.
        -11    1    3    3    0    0 -0.18901924778E+01 -0.34537897803E+01 -0.18475795834E+01  0.43491426773E+01  0.51100000000E-03 0.  1.
        -12    1    3    3    0    0  0.22210565194E+02 -0.22182982034E+01  0.53282342090E+01  0.22948205440E+02  0.00000000000E+00 0.  1.
</event>
<event>
 7    1  0.5290964E-013  0.5052887E+02  0.7816164E-02  0.1300439E+00
        -11   -1    0    0    0    0  0.00000000000E+00  0.00000000000E+00  0.45593999997E+02  0.45594000000E+02  0.51100000000E-03 0.  1.
         11   -1    0    0    0    0 -0.00000000000E+00 -0.00000000000E+00 -0.45593999997E+02  0.45594000000E+02  0.51100000000E-03 0. -1.
    9900012    2    1    2    0    0  0.47971347377E+01 -0.25741925041E+02  0.31104749388E+02  0.50528872599E+02  0.30000038752E+02 0.  0.
         12    1    1    2    0    0 -0.47971347377E+01  0.25741925041E+02 -0.31104749388E+02  0.40659127401E+02  0.00000000000E+00 0. -1.
         11    1    3    3    0    0 -0.94555948188E+01 -0.89010502200E+01  0.11264559489E+02  0.17190906583E+02  0.51100000000E-03 0. -1.
        -11    1    3    3    0    0 -0.85785069976E+00 -0.77423597647E+01  0.11341248711E+02  0.13758777749E+02  0.51100000000E-03 0.  1.
        -12    1    3    3    0    0  0.15110580256E+02 -0.90985150563E+01  0.84989411882E+01  0.19579188268E+02  0.00000000000E+00 0.  1.
</event>
<event>
 7    1  0.5290964E-013  0.5052887E+02  0.7816164E-02  0.1300439E+00
        -11   -1    0    0    0    0  0.00000000000E+00  0.00000000000E+00  0.45593999997E+02  0.45594000000E+02  0.51100000000E-03 0. -1.
         11   -1    0    0    0    0 -0.00000000000E+00 -0.00000000000E+00 -0.45593999997E+02  0.45594000000E+02  0.51100000000E-03 0.  1.
    9900012    2    1    2    0    0 -0.19473620331E+02 -0.17615466310E+02 -0.31042530565E+02  0.50528865159E+02  0.30000016139E+02 0.  0.
         12    1    1    2    0    0  0.19473620331E+02  0.17615466310E+02  0.31042530565E+02  0.40659134841E+02  0.00000000000E+00 0. -1.
         11    1    3    3    0    0 -0.19073292980E+02 -0.19034577818E+01 -0.10004726617E+02  0.21621938201E+02  0.51100000000E-03 0. -1.
        -11    1    3    3    0    0 -0.57972513530E+01 -0.50576933046E+01 -0.10225548580E+02  0.12796492834E+02  0.51100000000E-03 0.  1.
         12    1    3    3    0    0  0.53969240015E+01 -0.10654315224E+02 -0.10812255368E+02  0.16110434125E+02  0.00000000000E+00 0. -1.
</event>
<event>
 7    1  0.5290964E-013  0.5052888E+02  0.7816164E-02  0.1300439E+00
        -11   -1    0    0    0    0  0.00000000000E+00  0.00000000000E+00  0.45593999997E+02  0.45594000000E+02  0.51100000000E-03 0. -1.
         11   -1    0    0    0    0 -0.00000000000E+00 -0.00000000000E+00 -0.45593999997E+02  0.45594000000E+02  0.51100000000E-03 0.  1.
    9900012    2    1    2    0    0 -0.25439702155E+02  0.31669272907E+02  0.17443671963E+01  0.50528879140E+02  0.30000058633E+02 0.  0.
         12    1    1    2    0    0  0.25439702155E+02 -0.31669272907E+02 -0.17443671963E+01  0.40659120860E+02  0.00000000000E+00 0. -1.
         11    1    3    3    0    0  0.21535612708E+01 -0.17769930180E+01  0.10372894756E+01  0.29785063455E+01  0.51100000000E-03 0. -1.
        -11    1    3    3    0    0  0.16531253015E+01  0.93091175509E+01 -0.14663090212E+01  0.95677873746E+01  0.51100000000E-03 0.  1.
        -12    1    3    3    0    0 -0.29246388728E+02  0.24137148374E+02  0.21733867419E+01  0.37982585420E+02  0.00000000000E+00 0.  1.
</event>
<event>
 7    1  0.5290964E-013  0.5052886E+02  0.7816164E-02  0.1300439E+00
        -11   -1    0    0    0    0  0.00000000000E+00  0.00000000000E+00  0.45593999997E+02  0.45594000000E+02  0.51100000000E-03 0. -1.
         11   -1    0    0    0    0 -0.00000000000E+00 -0.00000000000E+00 -0.45593999997E+02  0.45594000000E+02  0.51100000000E-03 0.  1.
    9900012    2    1    2    0    0  0.26160991960E+02 -0.20272715062E+02 -0.23617483606E+02  0.50528855786E+02  0.29999987648E+02 0.  0.
         12    1    1    2    0    0 -0.26160991960E+02  0.20272715062E+02  0.23617483606E+02  0.40659144214E+02  0.00000000000E+00 0. -1.
         11    1    3    3    0    0 -0.86137816563E+00 -0.43826407833E+01 -0.18412118204E+00  0.44702811377E+01  0.51100000000E-03 0. -1.
        -11    1    3    3    0    0  0.16500971985E+02 -0.14953652205E+02 -0.22429258830E+01  0.22381342844E+02  0.51100000000E-03 0.  1.
         12    1    3    3    0    0  0.10521398141E+02 -0.93642207337E+00 -0.21190436541E+02  0.23677231805E+02  0.00000000000E+00 0. -1.
</event>
<event>
 7    1  0.5290964E-013  0.5052888E+02  0.7816164E-02  0.1300439E+00
        -11   -1    0    0    0    0  0.00000000000E+00  0.00000000000E+00  0.45593999997E+02  0.45594000000E+02  0.51100000000E-03 0.  1.
         11   -1    0    0    0    0 -0.00000000000E+00 -0.00000000000E+00 -0.45593999997E+02  0.45594000000E+02  0.51100000000E-03 0. -1.
    9900012    2    1    2    0    0 -0.32311294740E+02 -0.23921396836E+02  0.60754189325E+01  0.50528884053E+02  0.30000073569E+02 0.  0.
         12    1    1    2    0    0  0.32311294740E+02  0.23921396836E+02 -0.60754189325E+01  0.40659115947E+02  0.00000000000E+00 0. -1.
         11    1    3    3    0    0 -0.11580036819E+02 -0.22403040162E+02  0.48095154316E+01  0.25673427900E+02  0.51100000000E-03 0. -1.
        -11    1    3    3    0    0 -0.16163811468E+01  0.37229030413E+01 -0.23763363880E+01  0.47031553193E+01  0.51100000000E-03 0.  1.
        -12    1    3    3    0    0 -0.19114876774E+02 -0.52412597158E+01  0.36422398890E+01  0.20152300834E+02  0.00000000000E+00 0.  1.
</event>
<event>
 7    1  0.5290964E-013  0.5052880E+02  0.7816164E-02  0.1300439E+00
        -11   -1    0    0    0    0  0.00000000000E+00  0.00000000000E+00  0.45593999997E+02  0.45594000000E+02  0.51100000000E-03 0. -1.
         11   -1    0    0    0    0 -0.00000000000E+00 -0.00000000000E+00 -0.45593999997E+02  0.45594000000E+02  0.51100000000E-03 0.  1.
    9900012    2    1    2    0    0 -0.49703723587E+01 -0.19416288037E+02 -0.35376179734E+02  0.50528795198E+02  0.29999803484E+02 0.  0.
         12    1    1    2    0    0  0.49703723587E+01  0.19416288037E+02  0.35376179734E+02  0.40659204802E+02  0.00000000000E+00 0. -1.
         11    1    3    3    0    0  0.32465639754E+01  0.31588337834E+00 -0.41288553236E+00  0.32879225476E+01  0.51100000000E-03 0. -1.
        -11    1    3    3    0    0  0.21666270895E+01 -0.17492865440E+01  0.29229409591E+01  0.40370608702E+01  0.51100000000E-03 0.  1.
        -12    1    3    3    0    0 -0.10383563424E+02 -0.17982884871E+02 -0.37886235161E+02  0.43203811780E+02  0.00000000000E+00 0.  1.
</event>
<event>
 7    1  0.5290964E-013  0.5052886E+02  0.7816164E-02  0.1300439E+00
        -11   -1    0    0    0    0  0.00000000000E+00  0.00000000000E+00  0.45593999997E+02  0.45594000000E+02  0.51100000000E-03 0.  1.
         11   -1    0    0    0    0 -0.00000000000E+00 -0.00000000000E+00 -0.45593999997E+02  0.45594000000E+02  0.51100000000E-03 0. -1.
    9900012    2    1    2    0    0  0.35085927143E+02 -0.18062477548E+02  0.97923701137E+01  0.50528857227E+02  0.29999992026E+02 0.  0.
         12    1    1    2    0    0 -0.35085927143E+02  0.18062477548E+02 -0.97923701137E+01  0.40659142773E+02  0.00000000000E+00 0. -1.
         11    1    3    3    0    0  0.24760725380E+02 -0.20611260987E+02  0.76534050397E+01  0.33113323751E+02  0.51100000000E-03 0.  1.
        -11    1    3    3    0    0  0.47016095175E+01 -0.36992343531E+01  0.57213851566E+01  0.82779052438E+01  0.51100000000E-03 0. -1.
         12    1    3    3    0    0  0.56235922445E+01  0.62480177921E+01 -0.35824200825E+01  0.91376282322E+01  0.00000000000E+00 0. -1.
</event>
<event>
 7    1  0.5290964E-013  0.5052887E+02  0.7816164E-02  0.1300439E+00
        -11   -1    0    0    0    0  0.00000000000E+00  0.00000000000E+00  0.45593999997E+02  0.45594000000E+02  0.51100000000E-03 0.  1.
         11   -1    0    0    0    0 -0.00000000000E+00 -0.00000000000E+00 -0.45593999997E+02  0.45594000000E+02  0.51100000000E-03 0. -1.
    9900012    2    1    2    0    0 -0.16271624524E+02  0.37086795637E+02  0.36012565563E+01  0.50528865429E+02  0.30000016959E+02 0.  0.
         12    1    1    2    0    0  0.16271624524E+02 -0.37086795637E+02 -0.36012565563E+01  0.40659134571E+02  0.00000000000E+00 0. -1.
         11    1    3    3    0    0 -0.48537046016E+01  0.61794001016E+00 -0.45324616061E+01  0.66695956914E+01  0.51100000000E-03 0. -1.
        -11    1    3    3    0    0  0.18519019908E+01 -0.18071110239E+01  0.48338211983E+00  0.26322708392E+01  0.51100000000E-03 0.  1.
        -12    1    3    3    0    0 -0.13269821914E+02  0.38275966650E+02  0.76503360425E+01  0.41226998899E+02  0.00000000000E+00 0.  1.
</event>
<event>
 7    1  0.5290964E-013  0.5052887E+02  0.7816164E-02  0.1300439E+00
        -11   -1    0    0    0    0  0.00000000000E+00  0.00000000000E+00  0.45593999997E+02  0.45594000000E+02  0.51100000000E-03 0.  1.
         11   -1    0    0    0    0 -0.00000000000E+00 -0.00000000000E+00 -0.45593999997E+02  0.45594000000E+02  0.51100000000E-03 0. -1.
    9900012    2    1    2    0    0 -0.36429055499E+02  0.45885463940E+01  0.17465220444E+02  0.50528871041E+02  0.30000034017E+02 0.  0.
         12    1    1    2    0    0  0.36429055499E+02 -0.45885463940E+01 -0.17465220444E+02  0.40659128959E+02  0.00000000000E+00 0. -1.
         11    1    3    3    0    0 -0.22553076971E+02  0.76643397887E+01  0.10892226195E+02  0.26192059426E+02  0.51100000000E-03 0. -1.
        -11    1    3    3    0    0 -0.15316606034E+02 -0.81407056464E+01  0.76572015128E+01  0.18960544404E+02  0.51100000000E-03 0.  1.
         12    1    3    3    0    0  0.14406275068E+01  0.50649122516E+01 -0.10842072635E+01  0.53762672106E+01  0.00000000000E+00 0. -1.
</event>
<event>
 7    1  0.5290964E-013  0.5052886E+02  0.7816164E-02  0.1300439E+00
        -11   -1    0    0    0    0  0.00000000000E+00  0.00000000000E+00  0.45593999997E+02  0.45594000000E+02  0.51100000000E-03 0. -1.
         11   -1    0    0    0    0 -0.00000000000E+00 -0.00000000000E+00 -0.45593999997E+02  0.45594000000E+02  0.51100000000E-03 0.  1.
    9900012    2    1    2    0    0 -0.11042609715E+01  0.40534160551E+02  0.29879942005E+01  0.50528859906E+02  0.30000000170E+02 0.  0.
         12    1    1    2    0    0  0.11042609715E+01 -0.40534160551E+02 -0.29879942005E+01  0.40659140094E+02  0.00000000000E+00 0. -1.
         11    1    3    3    0    0  0.55351854795E+01  0.44763603939E+01 -0.37095691885E+01  0.80272650694E+01  0.51100000000E-03 0.  1.
        -11    1    3    3    0    0 -0.38094927314E+01  0.27383847603E+01  0.77344507398E+01  0.90461436244E+01  0.51100000000E-03 0. -1.
        -12    1    3    3    0    0 -0.28299537196E+01  0.33319415397E+02 -0.10368873508E+01  0.33455451212E+02  0.00000000000E+00 0.  1.
</event>
<event>
 7    1  0.5290964E-013  0.5052886E+02  0.7816164E-02  0.1300439E+00
        -11   -1    0    0    0    0  0.00000000000E+00  0.00000000000E+00  0.45593999997E+02  0.45594000000E+02  0.51100000000E-03 0. -1.
         11   -1    0    0    0    0 -0.00000000000E+00 -0.00000000000E+00 -0.45593999997E+02  0.45594000000E+02  0.51100000000E-03 0.  1.
    9900012    2    1    2    0    0  0.17449910065E+02 -0.36595580091E+02 -0.30708090223E+01  0.50528859434E+02  0.29999998737E+02 0.  0.
         12    1    1    2    0    0 -0.17449910065E+02  0.36595580091E+02  0.30708090223E+01  0.40659140566E+02  0.00000000000E+00 0. -1.
         11    1    3    3    0    0  0.47565644694E+01 -0.10965511326E+02  0.11677218337E+02  0.16710020124E+02  0.51100000000E-03 0. -1.
        -11    1    3    3    0    0 -0.80190255655E+00 -0.67504225707E+01 -0.10718604742E+01  0.68818702204E+01  0.51100000000E-03 0.  1.
        -12    1    3    3    0    0  0.13495248152E+02 -0.18879646195E+02 -0.13676166885E+02  0.26936969090E+02  0.00000000000E+00 0.  1.
</event>
<event>
 7    1  0.5290964E-013  0.5052885E+02  0.7816164E-02  0.1300439E+00
        -11   -1    0    0    0    0  0.00000000000E+00  0.00000000000E+00  0.45593999997E+02  0.45594000000E+02  0.51100000000E-03 0. -1.
         11   -1    0    0    0    0 -0.00000000000E+00 -0.00000000000E+00 -0.45593999997E+02  0.45594000000E+02  0.51100000000E-03 0.  1.
    9900012    2    1    2    0    0  0.45060696923E+01  0.35690462698E+02 -0.18948680442E+02  0.50528852417E+02  0.29999977406E+02 0.  0.
         12    1    1    2    0    0 -0.45060696923E+01 -0.35690462698E+02  0.18948680442E+02  0.40659147583E+02  0.00000000000E+00 0. -1.
         11    1    3    3    0    0 -0.32754996335E+01  0.48141218230E+00 -0.84245068491E+01  0.90516833490E+01  0.51100000000E-03 0. -1.
        -11    1    3    3    0    0 -0.32449028747E+01  0.66475743935E+00  0.94622196576E+00  0.34447980186E+01  0.51100000000E-03 0.  1.
        -12    1    3    3    0    0  0.11026472201E+02  0.34544293077E+02 -0.11470395559E+02  0.38032371049E+02  0.00000000000E+00 0.  1.
</event>
<event>
 7    1  0.5290964E-013  0.5052886E+02  0.7816164E-02  0.1300439E+00
        -11   -1    0    0    0    0  0.00000000000E+00  0.00000000000E+00  0.45593999997E+02  0.45594000000E+02  0.51100000000E-03 0.  1.
         11   -1    0    0    0    0 -0.00000000000E+00 -0.00000000000E+00 -0.45593999997E+02  0.45594000000E+02  0.51100000000E-03 0. -1.
    9900012    2    1    2    0    0  0.22187253534E+02  0.22610361324E+02  0.25488483822E+02  0.50528862452E+02  0.30000007910E+02 0.  0.
         12    1    1    2    0    0 -0.22187253534E+02 -0.22610361324E+02 -0.25488483822E+02  0.40659137548E+02  0.00000000000E+00 0. -1.
         11    1    3    3    0    0  0.67422271155E+01  0.20277659161E+02  0.10293266310E+02  0.23719030737E+02  0.51100000000E-03 0.  1.
        -11    1    3    3    0    0  0.31378750519E+01 -0.68545642928E+00 -0.31597522422E+01  0.45055682052E+01  0.51100000000E-03 0. -1.
         12    1    3    3    0    0  0.12307151367E+02  0.30181585922E+01  0.18354969754E+02  0.22304263510E+02  0.00000000000E+00 0. -1.
</event>
<event>
 7    1  0.5290964E-013  0.5052886E+02  0.7816164E-02  0.1300439E+00
        -11   -1    0    0    0    0  0.00000000000E+00  0.00000000000E+00  0.45593999997E+02  0.45594000000E+02  0.51100000000E-03 0. -1.
         11   -1    0    0    0    0 -0.00000000000E+00 -0.00000000000E+00 -0.45593999997E+02  0.45594000000E+02  0.51100000000E-03 0.  1.
    9900012    2    1    2    0    0 -0.21600794622E+02  0.28665049251E+02 -0.19101989474E+02  0.50528863527E+02  0.30000011176E+02 0.  0.
         12    1    1    2    0    0  0.21600794622E+02 -0.28665049251E+02  0.19101989474E+02  0.40659136473E+02  0.00000000000E+00 0. -1.
         11    1    3    3    0    0 -0.77738101229E+01 -0.28115050051E+01 -0.23455319388E+00  0.82699274291E+01  0.51100000000E-03 0. -1.
        -11    1    3    3    0    0 -0.58778963313E+01  0.24449815785E+01  0.62765468505E+00  0.63969954561E+01  0.51100000000E-03 0.  1.
        -12    1    3    3    0    0 -0.79490881677E+01  0.29031572677E+02 -0.19495090966E+02  0.35861940642E+02  0.00000000000E+00 0.  1.
</event>
<event>
 7    1  0.5290964E-013  0.5052886E+02  0.7816164E-02  0.1300439E+00
        -11   -1    0    0    0    0  0.00000000000E+00  0.00000000000E+00  0.45593999997E+02  0.45594000000E+02  0.51100000000E-03 0.  1.
         11   -1    0    0    0    0 -0.00000000000E+00 -0.00000000000E+00 -0.45593999997E+02  0.45594000000E+02  0.51100000000E-03 0. -1.
    9900012    2    1    2    0    0 -0.16024454660E+02 -0.36953859597E+02  0.55492972669E+01  0.50528860973E+02  0.30000003414E+02 0.  0.
         12    1    1    2    0    0  0.16024454660E+02  0.36953859597E+02 -0.55492972669E+01  0.40659139027E+02  0.00000000000E+00 0. -1.
         11    1    3    3    0    0 -0.82124231343E+01 -0.23285457222E+02 -0.16964109088E+01  0.24749428721E+02  0.51100000000E-03 0. -1.
        -11    1    3    3    0    0 -0.58089702582E+01 -0.18510941407E+02  0.66316410224E+01  0.20503115621E+02  0.51100000000E-03 0.  1.
        -12    1    3    3    0    0 -0.20030612675E+01  0.48425390329E+01  0.61406715329E+00  0.52763166315E+01  0.00000000000E+00 0.  1.
</event>
<event>
 7    1  0.5290964E-013  0.5052886E+02  0.7816164E-02  0.1300439E+00
        -11   -1    0    0    0    0  0.00000000000E+00  0.00000000000E+00  0.45593999997E+02  0.45594000000E+02  0.51100000000E-03 0.  1.
         11   -1    0    0    0    0 -0.00000000000E+00 -0.00000000000E+00 -0.45593999997E+02  0.45594000000E+02  0.51100000000E-03 0. -1.
    9900012    2    1    2    0    0 -0.17801747336E+02  0.11082974177E+02  0.34834333132E+02  0.50528864623E+02  0.30000014509E+02 0.  0.
         12    1    1    2    0    0  0.17801747336E+02 -0.11082974177E+02 -0.34834333132E+02  0.40659135377E+02  0.00000000000E+00 0. -1.
         11    1    3    3    0    0 -0.15385623780E+02  0.10946576550E+02  0.85641943995E+01  0.20733798090E+02  0.51100000000E-03 0. -1.
        -11    1    3    3    0    0 -0.37441414896E+01 -0.55527119019E+01  0.71248279843E+01  0.97782605317E+01  0.51100000000E-03 0.  1.
         12    1    3    3    0    0  0.13280179330E+01  0.56891095294E+01  0.19145310748E+02  0.20016806002E+02  0.00000000000E+00 0. -1.
</event>
<event>
 7    1  0.5290964E-013  0.5052886E+02  0.7816164E-02  0.1300439E+00
        -11   -1    0    0    0    0  0.00000000000E+00  0.00000000000E+00  0.45593999997E+02  0.45594000000E+02  0.51100000000E-03 0.  1.
         11   -1    0    0    0    0 -0.00000000000E+00 -0.00000000000E+00 -0.45593999997E+02  0.45594000000E+02  0.51100000000E-03 0. -1.
    9900012    2    1    2    0    0  0.17494870883E+02  0.71592816684E+00  0.36695815258E+02  0.50528856898E+02  0.29999991027E+02 0.  0.
         12    1    1    2    0    0 -0.17494870883E+02 -0.71592816684E+00 -0.36695815258E+02  0.40659143102E+02  0.00000000000E+00 0. -1.
         11    1    3    3    0    0  0.12238949174E+02  0.10195796646E+02  0.22298702987E+02  0.27403983311E+02  0.51100000000E-03 0. -1.
        -11    1    3    3    0    0 -0.13362179916E+01  0.33835325076E+01  0.26907091139E+01  0.45247858013E+01  0.51100000000E-03 0.  1.
         12    1    3    3    0    0  0.65921397005E+01 -0.12863400987E+02  0.11706403157E+02  0.18600087786E+02  0.00000000000E+00 0. -1.
</event>
<event>
 7    1  0.5290964E-013  0.5052886E+02  0.7816164E-02  0.1300439E+00
        -11   -1    0    0    0    0  0.00000000000E+00  0.00000000000E+00  0.45593999997E+02  0.45594000000E+02  0.51100000000E-03 0. -1.
         11   -1    0    0    0    0 -0.00000000000E+00 -0.00000000000E+00 -0.45593999997E+02  0.45594000000E+02  0.51100000000E-03 0.  1.
    9900012    2    1    2    0    0  0.75710689760E+01  0.36630462221E+02 -0.15939059007E+02  0.50528862650E+02  0.30000008512E+02 0.  0.
         12    1    1    2    0    0 -0.75710689760E+01 -0.36630462221E+02  0.15939059007E+02  0.40659137350E+02  0.00000000000E+00 0. -1.
         11    1    3    3    0    0 -0.14623317084E+01  0.30690614437E+01  0.18064046253E+01  0.38497597460E+01  0.51100000000E-03 0. -1.
        -11    1    3    3    0    0 -0.62873146078E+01  0.24577515902E+02 -0.11483972872E+02  0.27847194582E+02  0.51100000000E-03 0.  1.
         12    1    3    3    0    0  0.15320715292E+02  0.89838848755E+01 -0.62614907597E+01  0.18831908322E+02  0.00000000000E+00 0. -1.
</event>
<event>
 7    1  0.5290964E-013  0.5052885E+02  0.7816164E-02  0.1300439E+00
        -11   -1    0    0    0    0  0.00000000000E+00  0.00000000000E+00  0.45593999997E+02  0.45594000000E+02  0.51100000000E-03 0. -1.
         11   -1    0    0    0    0 -0.00000000000E+00 -0.00000000000E+00 -0.45593999997E+02  0.45594000000E+02  0.51100000000E-03 0.  1.
    9900012    2    1    2    0    0  0.37273819680E+02 -0.11989727899E+02  0.10957885298E+02  0.50528850245E+02  0.29999970804E+02 0.  0.
         12    1    1    2    0    0 -0.37273819680E+02  0.11989727899E+02 -0.10957885298E+02  0.40659149755E+02  0.00000000000E+00 0. -1.
         11    1    3    3    0    0 -0.83842357242E+00 -0.54054431989E+01 -0.49046230683E+01  0.73469107771E+01  0.51100000000E-03 0. -1.
        -11    1    3    3    0    0  0.31417235918E+01 -0.31232785760E+01  0.43349544079E+01  0.61981550618E+01  0.51100000000E-03 0.  1.
        -12    1    3    3    0    0  0.34970519660E+02 -0.34610061245E+01  0.11527553959E+02  0.36983784406E+02  0.00000000000E+00 0.  1.
</event>
<event>
 7    1  0.5290964E-013  0.5052885E+02  0.7816164E-02  0.1300439E+00
        -11   -1    0    0    0    0  0.00000000000E+00  0.00000000000E+00  0.45593999997E+02  0.45594000000E+02  0.51100000000E-03 0. -1.
         11   -1    0    0    0    0 -0.00000000000E+00 -0.00000000000E+00 -0.45593999997E+02  0.45594000000E+02  0.51100000000E-03 0.  1.
    9900012    2    1    2    0    0  0.24374346184E+02  0.25403137492E+02 -0.20340563077E+02  0.50528847861E+02  0.29999963560E+02 0.  0.
         12    1    1    2    0    0 -0.24374346184E+02 -0.25403137492E+02  0.20340563077E+02  0.40659152139E+02  0.00000000000E+00 0. -1.
         11    1    3    3    0    0  0.62737051920E+01  0.25584628050E+01  0.54220917104E+01  0.86777985421E+01  0.51100000000E-03 0.  1.
        -11    1    3    3    0    0  0.10085748240E+02  0.48101986649E+01 -0.26974136501E+01  0.11495058478E+02  0.51100000000E-03 0. -1.
        -12    1    3    3    0    0  0.80148927519E+01  0.18034476022E+02 -0.23065241137E+02  0.30355990841E+02  0.00000000000E+00 0.  1.
</event>
<event>
 7    1  0.7810653E-013  0.5052887E+02  0.7816164E-02  0.1300439E+00
        -11   -1    0    0    0    0  0.00000000000E+00  0.00000000000E+00  0.45593999997E+02  0.45594000000E+02  0.51100000000E-03 0.  1.
         11   -1    0    0    0    0 -0.00000000000E+00 -0.00000000000E+00 -0.45593999997E+02  0.45594000000E+02  0.51100000000E-03 0. -1.
    9900012    2    1    2    0    0  0.33050635586E+02  0.21127389310E+02 -0.10698292265E+02  0.50528873730E+02  0.30000042189E+02 0.  0.
         12    1    1    2    0    0 -0.33050635586E+02 -0.21127389310E+02  0.10698292265E+02  0.40659126270E+02  0.00000000000E+00 0. -1.
         11    1    3    3    0    0  0.13654255992E+02  0.72300081283E+01  0.37354371203E+01  0.15895446360E+02  0.51100000000E-03 0. -1.
        -11    1    3    3    0    0  0.22251207614E+02  0.10961530227E+02 -0.64012416497E+01  0.25617323829E+02  0.51100000000E-03 0.  1.
         12    1    3    3    0    0 -0.28548280206E+01  0.29358509541E+01 -0.80324877352E+01  0.90161035414E+01  0.00000000000E+00 0. -1.
</event>
<event>
 7    1  0.5290964E-013  0.5052886E+02  0.7816164E-02  0.1300439E+00
        -11   -1    0    0    0    0  0.00000000000E+00  0.00000000000E+00  0.45593999997E+02  0.45594000000E+02  0.51100000000E-03 0. -1.
         11   -1    0    0    0    0 -0.00000000000E+00 -0.00000000000E+00 -0.45593999997E+02  0.45594000000E+02  0.51100000000E-03 0.  1.
    9900012    2    1    2    0    0  0.27614275751E+02  0.28781395780E+02 -0.78897794342E+01  0.50528860956E+02  0.30000003362E+02 0.  0.
         12    1    1    2    0    0 -0.27614275751E+02 -0.28781395780E+02  0.78897794342E+01  0.40659139044E+02  0.00000000000E+00 0. -1.
         11    1    3    3    0    0  0.13967937876E+02  0.18022958799E+02 -0.11472818198E+02  0.25525592844E+02  0.51100000000E-03 0. -1.
        -11    1    3    3    0    0  0.14128666828E+02  0.93657466815E+01 -0.38855634387E+01  0.17390630832E+02  0.51100000000E-03 0.  1.
        -12    1    3    3    0    0 -0.48232895329E+00  0.13926902994E+01  0.74686022028E+01  0.76126372798E+01  0.00000000000E+00 0.  1.
</event>
<event>
 7    1  0.5290964E-013  0.5052886E+02  0.7816164E-02  0.1300439E+00
        -11   -1    0    0    0    0  0.00000000000E+00  0.00000000000E+00  0.45593999997E+02  0.45594000000E+02  0.51100000000E-03 0. -1.
         11   -1    0    0    0    0 -0.00000000000E+00 -0.00000000000E+00 -0.45593999997E+02  0.45594000000E+02  0.51100000000E-03 0.  1.
    9900012    2    1    2    0    0 -0.14573764221E+02  0.33654719096E+02 -0.17553658752E+02  0.50528860110E+02  0.30000000791E+02 0.  0.
         12    1    1    2    0    0  0.14573764221E+02 -0.33654719096E+02  0.17553658752E+02  0.40659139890E+02  0.00000000000E+00 0. -1.
         11    1    3    3    0    0  0.67341400791E+01  0.10786656248E+02 -0.10667048593E+02  0.16597786646E+02  0.51100000000E-03 0. -1.
        -11    1    3    3    0    0 -0.33035649874E+01  0.55196313865E+00  0.20136852160E+01  0.39080856366E+01  0.51100000000E-03 0.  1.
        -12    1    3    3    0    0 -0.18004339312E+02  0.22316099709E+02 -0.89002953753E+01  0.30022987827E+02  0.00000000000E+00 0.  1.
</event>
<event>
 7    1  0.5290964E-013  0.5052886E+02  0.7816164E-02  0.1300439E+00
        -11   -1    0    0    0    0  0.00000000000E+00  0.00000000000E+00  0.45593999997E+02  0.45594000000E+02  0.51100000000E-03 0. -1.
         11   -1    0    0    0    0 -0.00000000000E+00 -0.00000000000E+00 -0.45593999997E+02  0.45594000000E+02  0.51100000000E-03 0.  1.
    9900012    2    1    2    0    0 -0.14896513132E-01  0.52364317459E+01 -0.40320534344E+02  0.50528856759E+02  0.29999990605E+02 0.  0.
         12    1    1    2    0    0  0.14896513132E-01 -0.52364317459E+01  0.40320534344E+02  0.40659143241E+02  0.00000000000E+00 0. -1.
         11    1    3    3    0    0 -0.96187390710E+01 -0.11562872532E+01 -0.15050405011E+02  0.17898933845E+02  0.51100000000E-03 0. -1.
        -11    1    3    3    0    0  0.41021843925E+00  0.94179637601E+01 -0.18670518989E+02  0.20915415371E+02  0.51100000000E-03 0.  1.
         12    1    3    3    0    0  0.91936241187E+01 -0.30252447610E+01 -0.65996103442E+01  0.11714507544E+02  0.00000000000E+00 0. -1.
</event>
<event>
 7    1  0.5290964E-013  0.5052886E+02  0.7816164E-02  0.1300439E+00
        -11   -1    0    0    0    0  0.00000000000E+00  0.00000000000E+00  0.45593999997E+02  0.45594000000E+02  0.51100000000E-03 0.  1.
         11   -1    0    0    0    0 -0.00000000000E+00 -0.00000000000E+00 -0.45593999997E+02  0.45594000000E+02  0.51100000000E-03 0. -1.
    9900012    2    1    2    0    0 -0.36834535551E+02 -0.10455166284E+02  0.13677434471E+02  0.50528859269E+02  0.29999998235E+02 0.  0.
         12    1    1    2    0    0  0.36834535551E+02  0.10455166284E+02 -0.13677434471E+02  0.40659140731E+02  0.00000000000E+00 0. -1.
         11    1    3    3    0    0 -0.21104523761E+02 -0.14532578577E+02  0.36661387131E+01  0.25885079421E+02  0.51100000000E-03 0. -1.
        -11    1    3    3    0    0 -0.16097762220E+02  0.76821405117E+00  0.12574976793E+02  0.20441578778E+02  0.51100000000E-03 0.  1.
         12    1    3    3    0    0  0.36775043097E+00  0.33091982423E+01 -0.25636810351E+01  0.42022010704E+01  0.00000000000E+00 0. -1.
</event>
<event>
 7    1  0.5290964E-013  0.5052889E+02  0.7816164E-02  0.1300439E+00
        -11   -1    0    0    0    0  0.00000000000E+00  0.00000000000E+00  0.45593999997E+02  0.45594000000E+02  0.51100000000E-03 0.  1.
         11   -1    0    0    0    0 -0.00000000000E+00 -0.00000000000E+00 -0.45593999997E+02  0.45594000000E+02  0.51100000000E-03 0. -1.
    9900012    2    1    2    0    0 -0.25258119554E+02  0.31861771877E+02  0.13558223356E+00  0.50528886715E+02  0.30000081659E+02 0.  0.
         12    1    1    2    0    0  0.25258119554E+02 -0.31861771877E+02 -0.13558223356E+00  0.40659113285E+02  0.00000000000E+00 0. -1.
         11    1    3    3    0    0 -0.23996030792E+01  0.60725444966E+01 -0.21848629911E+01  0.68853117687E+01  0.51100000000E-03 0. -1.
        -11    1    3    3    0    0 -0.14656772847E+01 -0.72906462031E+00 -0.79033662834E+01  0.80711178900E+01  0.51100000000E-03 0.  1.
        -12    1    3    3    0    0 -0.21392839190E+02  0.26518292001E+02  0.10223811508E+02  0.35572457056E+02  0.00000000000E+00 0.  1.
</event>
<event>
 7    1  0.5290964E-013  0.5052887E+02  0.7816164E-02  0.1300439E+00
        -11   -1    0    0    0    0  0.00000000000E+00  0.00000000000E+00  0.45593999997E+02  0.45594000000E+02  0.51100000000E-03 0.  1.
         11   -1    0    0    0    0 -0.00000000000E+00 -0.00000000000E+00 -0.45593999997E+02  0.45594000000E+02  0.51100000000E-03 0. -1.
    9900012    2    1    2    0    0 -0.23889057858E+02 -0.84713770686E+01  0.31791721055E+02  0.50528870122E+02  0.30000031222E+02 0.  0.
         12    1    1    2    0    0  0.23889057858E+02  0.84713770686E+01 -0.31791721055E+02  0.40659129878E+02  0.00000000000E+00 0. -1.
         11    1    3    3    0    0  0.11543304322E+01 -0.13007085211E+01  0.84181722668E+01  0.85959261268E+01  0.51100000000E-03 0.  1.
        -11    1    3    3    0    0 -0.20592283198E+01 -0.28537294192E+00 -0.46187018078E+01  0.50650040118E+01  0.51100000000E-03 0. -1.
         12    1    3    3    0    0 -0.22984159971E+02 -0.68852956057E+01  0.27992250596E+02  0.36867939983E+02  0.00000000000E+00 0. -1.
</event>
<event>
 7    1  0.5290964E-013  0.5052886E+02  0.7816164E-02  0.1300439E+00
        -11   -1    0    0    0    0  0.00000000000E+00  0.00000000000E+00  0.45593999997E+02  0.45594000000E+02  0.51100000000E-03 0. -1.
         11   -1    0    0    0    0 -0.00000000000E+00 -0.00000000000E+00 -0.45593999997E+02  0.45594000000E+02  0.51100000000E-03 0.  1.
    9900012    2    1    2    0    0 -0.19319931235E+02  0.31155871876E+02 -0.17584575105E+02  0.50528863549E+02  0.30000011243E+02 0.  0.
         12    1    1    2    0    0  0.19319931235E+02 -0.31155871876E+02  0.17584575105E+02  0.40659136451E+02  0.00000000000E+00 0. -1.
         11    1    3    3    0    0 -0.45940576261E+00  0.59847631203E+01 -0.90356441948E+00  0.60699977086E+01  0.51100000000E-03 0. -1.
        -11    1    3    3    0    0  0.10279921417E+01  0.13927776310E+02 -0.16492976158E+02  0.21611524324E+02  0.51100000000E-03 0.  1.
        -12    1    3    3    0    0 -0.19888517614E+02  0.11243332446E+02 -0.18803452811E+00  0.22847341516E+02  0.00000000000E+00 0.  1.
</event>
<event>
 7    1  0.5290964E-013  0.5052886E+02  0.7816164E-02  0.1300439E+00
        -11   -1    0    0    0    0  0.00000000000E+00  0.00000000000E+00  0.45593999997E+02  0.45594000000E+02  0.51100000000E-03 0.  1.
         11   -1    0    0    0    0 -0.00000000000E+00 -0.00000000000E+00 -0.45593999997E+02  0.45594000000E+02  0.51100000000E-03 0. -1.
    9900012    2    1    2    0    0  0.30138805664E+01 -0.23866689379E+02 -0.32779005439E+02  0.50528861598E+02  0.30000005314E+02 0.  0.
         12    1    1    2    0    0 -0.30138805664E+01  0.23866689379E+02  0.32779005439E+02  0.40659138402E+02  0.00000000000E+00 0. -1.
         11    1    3    3    0    0 -0.19001868516E+01 -0.82352528229E+01 -0.16275689189E+02  0.18339251838E+02  0.51100000000E-03 0. -1.
        -11    1    3    3    0    0  0.30786710539E+01 -0.18536996838E+02 -0.19891426024E+02  0.27363612641E+02  0.51100000000E-03 0.  1.
        -12    1    3    3    0    0  0.18353963641E+01  0.29055602813E+01  0.33881097740E+01  0.48259971200E+01  0.00000000000E+00 0.  1.
</event>
<event>
 7    1  0.5290964E-013  0.5052886E+02  0.7816164E-02  0.1300439E+00
        -11   -1    0    0    0    0  0.00000000000E+00  0.00000000000E+00  0.45593999997E+02  0.45594000000E+02  0.51100000000E-03 0.  1.
         11   -1    0    0    0    0 -0.00000000000E+00 -0.00000000000E+00 -0.45593999997E+02  0.45594000000E+02  0.51100000000E-03 0. -1.
    9900012    2    1    2    0    0 -0.29462894664E+02 -0.25056499086E+02  0.12540943073E+02  0.50528861279E+02  0.30000004343E+02 0.  0.
         12    1    1    2    0    0  0.29462894664E+02  0.25056499086E+02 -0.12540943073E+02  0.40659138721E+02  0.00000000000E+00 0. -1.
         11    1    3    3    0    0  0.30440863866E+01 -0.68918009677E+01  0.11634789571E+01  0.76234549945E+01  0.51100000000E-03 0. -1.
        -11    1    3    3    0    0 -0.91914458487E+01 -0.69947701854E+01  0.12511034828E+02  0.17027491872E+02  0.51100000000E-03 0.  1.
        -12    1    3    3    0    0 -0.23315535202E+02 -0.11169927932E+02 -0.11335707118E+01  0.25877914412E+02  0.00000000000E+00 0.  1.
</event>
<event>
 7    1  0.5290964E-013  0.5052886E+02  0.7816164E-02  0.1300439E+00
        -11   -1    0    0    0    0  0.00000000000E+00  0.00000000000E+00  0.45593999997E+02  0.45594000000E+02  0.51100000000E-03 0.  1.
         11   -1    0    0    0    0 -0.00000000000E+00 -0.00000000000E+00 -0.45593999997E+02  0.45594000000E+02  0.51100000000E-03 0. -1.
    9900012    2    1    2    0    0  0.29743624104E+02  0.26604219295E+01  0.27593560811E+02  0.50528860585E+02  0.30000002235E+02 0.  0.
         12    1    1    2    0    0 -0.29743624104E+02 -0.26604219295E+01 -0.27593560811E+02  0.40659139415E+02  0.00000000000E+00 0. -1.
         11    1    3    3    0    0  0.97236902343E+01  0.39304818156E+01 -0.35923802145E+01  0.11086209223E+02  0.51100000000E-03 0. -1.
        -11    1    3    3    0    0  0.43024344492E+01  0.44152060734E+01  0.34626617644E+01  0.70707152125E+01  0.51100000000E-03 0.  1.
        -12    1    3    3    0    0  0.15717499421E+02 -0.56852659596E+01  0.27723279261E+02  0.32371936150E+02  0.00000000000E+00 0.  1.
</event>
<event>
 7    1  0.5290964E-013  0.5052886E+02  0.7816164E-02  0.1300439E+00
        -11   -1    0    0    0    0  0.00000000000E+00  0.00000000000E+00  0.45593999997E+02  0.45594000000E+02  0.51100000000E-03 0.  1.
         11   -1    0    0    0    0 -0.00000000000E+00 -0.00000000000E+00 -0.45593999997E+02  0.45594000000E+02  0.51100000000E-03 0. -1.
    9900012    2    1    2    0    0 -0.28711846406E+02  0.12533173909E+02  0.25917465775E+02  0.50528860751E+02  0.30000002740E+02 0.  0.
         12    1    1    2    0    0  0.28711846406E+02 -0.12533173909E+02 -0.25917465775E+02  0.40659139249E+02  0.00000000000E+00 0. -1.
         11    1    3    3    0    0 -0.15036322847E+02  0.18266976891E+02  0.61327671612E+01  0.24441446005E+02  0.51100000000E-03 0.  1.
        -11    1    3    3    0    0  0.11035531595E+01 -0.17295998265E+00  0.70488077099E+00  0.13208337874E+01  0.51100000000E-03 0. -1.
         12    1    3    3    0    0 -0.14779076718E+02 -0.55608429993E+01  0.19079817842E+02  0.24766580959E+02  0.00000000000E+00 0. -1.
</event>
<event>
 7    1  0.5290964E-013  0.5052887E+02  0.7816164E-02  0.1300439E+00
        -11   -1    0    0    0    0  0.00000000000E+00  0.00000000000E+00  0.45593999997E+02  0.45594000000E+02  0.51100000000E-03 0.  1.
         11   -1    0    0    0    0 -0.00000000000E+00 -0.00000000000E+00 -0.45593999997E+02  0.45594000000E+02  0.51100000000E-03 0. -1.
    9900012    2    1    2    0    0  0.19645984139E+01  0.33935120643E+02  0.22309479595E+02  0.50528868925E+02  0.30000027585E+02 0.  0.
         12    1    1    2    0    0 -0.19645984139E+01 -0.33935120643E+02 -0.22309479595E+02  0.40659131075E+02  0.00000000000E+00 0. -1.
         11    1    3    3    0    0  0.37595064686E+01  0.96492648096E+01  0.10087167674E+02  0.14456595457E+02  0.51100000000E-03 0. -1.
        -11    1    3    3    0    0 -0.14754714668E+01  0.20775436336E+02  0.19153790146E+02  0.28295997035E+02  0.51100000000E-03 0.  1.
         12    1    3    3    0    0 -0.31943658786E+00  0.35104194971E+01 -0.69314782252E+01  0.77762764332E+01  0.00000000000E+00 0. -1.
</event>
<event>
 7    1  0.5290964E-013  0.5052886E+02  0.7816164E-02  0.1300439E+00
        -11   -1    0    0    0    0  0.00000000000E+00  0.00000000000E+00  0.45593999997E+02  0.45594000000E+02  0.51100000000E-03 0.  1.
         11   -1    0    0    0    0 -0.00000000000E+00 -0.00000000000E+00 -0.45593999997E+02  0.45594000000E+02  0.51100000000E-03 0. -1.
    9900012    2    1    2    0    0  0.22718625454E+02 -0.49983401009E+01  0.33347362167E+02  0.50528856997E+02  0.29999991327E+02 0.  0.
         12    1    1    2    0    0 -0.22718625454E+02  0.49983401009E+01 -0.33347362167E+02  0.40659143003E+02  0.00000000000E+00 0. -1.
         11    1    3    3    0    0  0.57304677644E+01 -0.36689722738E+01  0.21653414111E+02  0.22697355821E+02  0.51100000000E-03 0. -1.
        -11    1    3    3    0    0  0.13188062551E+02  0.66013406672E+01  0.12028168003E+02  0.19031014640E+02  0.51100000000E-03 0.  1.
         12    1    3    3    0    0  0.38000951389E+01 -0.79307084943E+01 -0.33421994738E+00  0.88004865354E+01  0.00000000000E+00 0. -1.
</event>
<event>
 7    1  0.5290964E-013  0.5052885E+02  0.7816164E-02  0.1300439E+00
        -11   -1    0    0    0    0  0.00000000000E+00  0.00000000000E+00  0.45593999997E+02  0.45594000000E+02  0.51100000000E-03 0. -1.
         11   -1    0    0    0    0 -0.00000000000E+00 -0.00000000000E+00 -0.45593999997E+02  0.45594000000E+02  0.51100000000E-03 0.  1.
    9900012    2    1    2    0    0  0.14002936436E+01 -0.36498786959E+02 -0.17861799899E+02  0.50528853829E+02  0.29999981698E+02 0.  0.
         12    1    1    2    0    0 -0.14002936436E+01  0.36498786959E+02  0.17861799899E+02  0.40659146171E+02  0.00000000000E+00 0. -1.
         11    1    3    3    0    0  0.13583211330E+01 -0.12737817637E+02  0.13529339084E+01  0.12881283510E+02  0.51100000000E-03 0. -1.
        -11    1    3    3    0    0  0.74914114847E+01 -0.11056872892E+02  0.10327868600E+00  0.13356135329E+02  0.51100000000E-03 0.  1.
         12    1    3    3    0    0 -0.74494389741E+01 -0.12704096429E+02 -0.19318012494E+02  0.24291434989E+02  0.00000000000E+00 0. -1.
</event>
<event>
 7    1  0.5290964E-013  0.5052885E+02  0.7816164E-02  0.1300439E+00
        -11   -1    0    0    0    0  0.00000000000E+00  0.00000000000E+00  0.45593999997E+02  0.45594000000E+02  0.51100000000E-03 0. -1.
         11   -1    0    0    0    0 -0.00000000000E+00 -0.00000000000E+00 -0.45593999997E+02  0.45594000000E+02  0.51100000000E-03 0.  1.
    9900012    2    1    2    0    0 -0.37727813773E+02 -0.94349061497E+01 -0.11864261430E+02  0.50528854837E+02  0.29999984762E+02 0.  0.
         12    1    1    2    0    0  0.37727813773E+02  0.94349061497E+01  0.11864261430E+02  0.40659145163E+02  0.00000000000E+00 0. -1.
         11    1    3    3    0    0 -0.17156583122E+02 -0.46091782468E+01 -0.11658172629E+02  0.21248667202E+02  0.51100000000E-03 0. -1.
        -11    1    3    3    0    0 -0.15731630291E+02  0.60391120606E+01 -0.28646278379E+01  0.17092722399E+02  0.51100000000E-03 0.  1.
         12    1    3    3    0    0 -0.48396003592E+01 -0.10864839964E+02  0.26585390374E+01  0.12187465236E+02  0.00000000000E+00 0. -1.
</event>
<event>
 7    1  0.5290964E-013  0.5052886E+02  0.7816164E-02  0.1300439E+00
        -11   -1    0    0    0    0  0.00000000000E+00  0.00000000000E+00  0.45593999997E+02  0.45594000000E+02  0.51100000000E-03 0. -1.
         11   -1    0    0    0    0 -0.00000000000E+00 -0.00000000000E+00 -0.45593999997E+02  0.45594000000E+02  0.51100000000E-03 0.  1.
    9900012    2    1    2    0    0  0.22362896242E+01 -0.22790896814E+02 -0.33596721266E+02  0.50528860207E+02  0.30000001086E+02 0.  0.
         12    1    1    2    0    0 -0.22362896242E+01  0.22790896814E+02  0.33596721266E+02  0.40659139793E+02  0.00000000000E+00 0. -1.
         11    1    3    3    0    0  0.49385017017E+01 -0.79445855204E+00 -0.57393790399E+01  0.76131751243E+01  0.51100000000E-03 0. -1.
        -11    1    3    3    0    0 -0.71592959357E+00 -0.11576599792E+01 -0.20770989031E+02  0.20815540286E+02  0.51100000000E-03 0.  1.
        -12    1    3    3    0    0 -0.19862824839E+01 -0.20838778283E+02 -0.70863531948E+01  0.22100144797E+02  0.00000000000E+00 0.  1.
</event>
<event>
 7    1  0.5290964E-013  0.5052885E+02  0.7816164E-02  0.1300439E+00
        -11   -1    0    0    0    0  0.00000000000E+00  0.00000000000E+00  0.45593999997E+02  0.45594000000E+02  0.51100000000E-03 0.  1.
         11   -1    0    0    0    0 -0.00000000000E+00 -0.00000000000E+00 -0.45593999997E+02  0.45594000000E+02  0.51100000000E-03 0. -1.
    9900012    2    1    2    0    0  0.10995499145E+02  0.16771552677E+02  0.35369199544E+02  0.50528852726E+02  0.29999978346E+02 0.  0.
         12    1    1    2    0    0 -0.10995499145E+02 -0.16771552677E+02 -0.35369199544E+02  0.40659147274E+02  0.00000000000E+00 0. -1.
         11    1    3    3    0    0  0.10988465780E+02  0.10071494155E+02  0.15368638570E+01  0.14984769785E+02  0.51100000000E-03 0. -1.
        -11    1    3    3    0    0  0.28773635926E+01  0.35510522479E+01  0.68976809467E+01  0.82744906801E+01  0.51100000000E-03 0.  1.
         12    1    3    3    0    0 -0.28703302275E+01  0.31490062743E+01  0.26934654740E+02  0.27269592261E+02  0.00000000000E+00 0. -1.
</event>
<event>
 7    1  0.5290964E-013  0.5052886E+02  0.7816164E-02  0.1300439E+00
        -11   -1    0    0    0    0  0.00000000000E+00  0.00000000000E+00  0.45593999997E+02  0.45594000000E+02  0.51100000000E-03 0.  1.
         11   -1    0    0    0    0 -0.00000000000E+00 -0.00000000000E+00 -0.45593999997E+02  0.45594000000E+02  0.51100000000E-03 0. -1.
    9900012    2    1    2    0    0 -0.31817898462E+02  0.18814183686E+02  0.16935577228E+02  0.50528856547E+02  0.29999989959E+02 0.  0.
         12    1    1    2    0    0  0.31817898462E+02 -0.18814183686E+02 -0.16935577228E+02  0.40659143453E+02  0.00000000000E+00 0. -1.
         11    1    3    3    0    0 -0.64971946212E+01  0.14899154694E+02  0.11359837279E+02  0.19830387082E+02  0.51100000000E-03 0. -1.
        -11    1    3    3    0    0 -0.20792154725E+02  0.87541927224E+01  0.75388799932E+01  0.23786220804E+02  0.51100000000E-03 0.  1.
        -12    1    3    3    0    0 -0.45285491157E+01 -0.48391637305E+01 -0.19631400446E+01  0.69122486601E+01  0.00000000000E+00 0.  1.
</event>
<event>
 7    1  0.5290964E-013  0.5052886E+02  0.7816164E-02  0.1300439E+00
        -11   -1    0    0    0    0  0.00000000000E+00  0.00000000000E+00  0.45593999997E+02  0.45594000000E+02  0.51100000000E-03 0. -1.
         11   -1    0    0    0    0 -0.00000000000E+00 -0.00000000000E+00 -0.45593999997E+02  0.45594000000E+02  0.51100000000E-03 0.  1.
    9900012    2    1    2    0    0  0.23834173179E+02 -0.96715641426E+01 -0.31489030202E+02  0.50528856044E+02  0.29999988433E+02 0.  0.
         12    1    1    2    0    0 -0.23834173179E+02  0.96715641426E+01  0.31489030202E+02  0.40659143956E+02  0.00000000000E+00 0. -1.
         11    1    3    3    0    0  0.12903120827E+02 -0.90958295274E+01 -0.21983614690E+02  0.27064810308E+02  0.51100000000E-03 0. -1.
        -11    1    3    3    0    0  0.67476114974E+01 -0.37952968075E+01 -0.14346115401E+02  0.16301704394E+02  0.51100000000E-03 0.  1.
         12    1    3    3    0    0  0.41834408547E+01  0.32195621923E+01  0.48406998892E+01  0.71623413429E+01  0.00000000000E+00 0. -1.
</event>
<event>
 7    1  0.5290964E-013  0.5052886E+02  0.7816164E-02  0.1300439E+00
        -11   -1    0    0    0    0  0.00000000000E+00  0.00000000000E+00  0.45593999997E+02  0.45594000000E+02  0.51100000000E-03 0.  1.
         11   -1    0    0    0    0 -0.00000000000E+00 -0.00000000000E+00 -0.45593999997E+02  0.45594000000E+02  0.51100000000E-03 0. -1.
    9900012    2    1    2    0    0 -0.33361037227E+02 -0.23136651156E+02  0.22140825474E+01  0.50528860891E+02  0.30000003164E+02 0.  0.
         12    1    1    2    0    0  0.33361037227E+02  0.23136651156E+02 -0.22140825474E+01  0.40659139109E+02  0.00000000000E+00 0. -1.
         11    1    3    3    0    0 -0.16209878045E+02 -0.26227249411E+01  0.19140278825E+01  0.16531858194E+02  0.51100000000E-03 0. -1.
        -11    1    3    3    0    0 -0.19331626252E+02 -0.75528351880E+01  0.14390577757E+01  0.20804518271E+02  0.51100000000E-03 0.  1.
         12    1    3    3    0    0  0.21804670703E+01 -0.12961091027E+02 -0.11390031108E+01  0.13192484426E+02  0.00000000000E+00 0. -1.
</event>
<event>
 7    1  0.5290964E-013  0.5052886E+02  0.7816164E-02  0.1300439E+00
        -11   -1    0    0    0    0  0.00000000000E+00  0.00000000000E+00  0.45593999997E+02  0.45594000000E+02  0.51100000000E-03 0. -1.
         11   -1    0    0    0    0 -0.00000000000E+00 -0.00000000000E+00 -0.45593999997E+02  0.45594000000E+02  0.51100000000E-03 0.  1.
    9900012    2    1    2    0    0  0.83208882518E-01 -0.40603284180E+02  0.21289438891E+01  0.50528855740E+02  0.29999987506E+02 0.  0.
         12    1    1    2    0    0 -0.83208882518E-01  0.40603284180E+02 -0.21289438891E+01  0.40659144260E+02  0.00000000000E+00 0. -1.
         11    1    3    3    0    0  0.19450331253E+01 -0.23040243814E+02  0.13171659471E+02  0.26610685868E+02  0.51100000000E-03 0. -1.
        -11    1    3    3    0    0  0.22652837773E+01 -0.17198966387E+01  0.15723354271E+01  0.32498913822E+01  0.51100000000E-03 0.  1.
        -12    1    3    3    0    0 -0.41271080200E+01 -0.15843143727E+02 -0.12615051009E+02  0.20668278490E+02  0.00000000000E+00 0.  1.
</event>
<event>
 7    1  0.5290964E-013  0.5052886E+02  0.7816164E-02  0.1300439E+00
        -11   -1    0    0    0    0  0.00000000000E+00  0.00000000000E+00  0.45593999997E+02  0.45594000000E+02  0.51100000000E-03 0.  1.
         11   -1    0    0    0    0 -0.00000000000E+00 -0.00000000000E+00 -0.45593999997E+02  0.45594000000E+02  0.51100000000E-03 0. -1.
    9900012    2    1    2    0    0  0.14525157985E+02 -0.17333736010E+02  0.33789455985E+02  0.50528856449E+02  0.29999989662E+02 0.  0.
         12    1    1    2    0    0 -0.14525157985E+02  0.17333736010E+02 -0.33789455985E+02  0.40659143551E+02  0.00000000000E+00 0. -1.
         11    1    3    3    0    0 -0.43366810149E+01 -0.22419710495E+01  0.88053533026E+01  0.10068142006E+02  0.51100000000E-03 0. -1.
        -11    1    3    3    0    0  0.40194705714E+01  0.25674784520E+01  0.14231629376E+02  0.15009575751E+02  0.51100000000E-03 0.  1.
         12    1    3    3    0    0  0.14842368429E+02 -0.17659243412E+02  0.10752473306E+02  0.25451138691E+02  0.00000000000E+00 0. -1.
</event>
<event>
 7    1  0.5290964E-013  0.5052886E+02  0.7816164E-02  0.1300439E+00
        -11   -1    0    0    0    0  0.00000000000E+00  0.00000000000E+00  0.45593999997E+02  0.45594000000E+02  0.51100000000E-03 0.  1.
         11   -1    0    0    0    0 -0.00000000000E+00 -0.00000000000E+00 -0.45593999997E+02  0.45594000000E+02  0.51100000000E-03 0. -1.
    9900012    2    1    2    0    0 -0.28026813760E+02  0.97158932261E-02  0.29456123609E+02  0.50528860781E+02  0.30000002831E+02 0.  0.
         12    1    1    2    0    0  0.28026813760E+02 -0.97158932261E-02 -0.29456123609E+02  0.40659139219E+02  0.00000000000E+00 0. -1.
         11    1    3    3    0    0 -0.89031825011E+01 -0.72620330902E+01  0.48447134170E+01  0.12468962732E+02  0.51100000000E-03 0. -1.
        -11    1    3    3    0    0  0.42479794498E+01  0.29461130804E+01  0.56190213581E+01  0.76353331933E+01  0.51100000000E-03 0.  1.
        -12    1    3    3    0    0 -0.23371610709E+02  0.43256359030E+01  0.18992388833E+02  0.30424564856E+02  0.00000000000E+00 0.  1.
</event>
<event>
 7    1  0.5290964E-013  0.5052885E+02  0.7816164E-02  0.1300439E+00
        -11   -1    0    0    0    0  0.00000000000E+00  0.00000000000E+00  0.45593999997E+02  0.45594000000E+02  0.51100000000E-03 0.  1.
         11   -1    0    0    0    0 -0.00000000000E+00 -0.00000000000E+00 -0.45593999997E+02  0.45594000000E+02  0.51100000000E-03 0. -1.
    9900012    2    1    2    0    0 -0.12400329945E+02 -0.28978735485E+02  0.25683285675E+02  0.50528850278E+02  0.29999970905E+02 0.  0.
         12    1    1    2    0    0  0.12400329945E+02  0.28978735485E+02 -0.25683285675E+02  0.40659149722E+02  0.00000000000E+00 0. -1.
         11    1    3    3    0    0 -0.61099232004E+01 -0.24468922018E+01 -0.20399962646E+01  0.68905753013E+01  0.51100000000E-03 0. -1.
        -11    1    3    3    0    0 -0.19648679114E+01  0.98540295791E+00 -0.19505875549E+01  0.29387951561E+01  0.51100000000E-03 0.  1.
         12    1    3    3    0    0 -0.43255388327E+01 -0.27517246241E+02  0.29673869495E+02  0.40699479821E+02  0.00000000000E+00 0. -1.
</event>
<event>
 7    1  0.5290964E-013  0.5052886E+02  0.7816164E-02  0.1300439E+00
        -11   -1    0    0    0    0  0.00000000000E+00  0.00000000000E+00  0.45593999997E+02  0.45594000000E+02  0.51100000000E-03 0.  1.
         11   -1    0    0    0    0 -0.00000000000E+00 -0.00000000000E+00 -0.45593999997E+02  0.45594000000E+02  0.51100000000E-03 0. -1.
    9900012    2    1    2    0    0 -0.18737766166E+02  0.85192176660E+00  0.36074033565E+02  0.50528861430E+02  0.30000004802E+02 0.  0.
         12    1    1    2    0    0  0.18737766166E+02 -0.85192176660E+00 -0.36074033565E+02  0.40659138570E+02  0.00000000000E+00 0. -1.
         11    1    3    3    0    0 -0.93714774609E+01  0.43242307765E-02  0.60558020816E+01  0.11157837945E+02  0.51100000000E-03 0. -1.
        -11    1    3    3    0    0 -0.14040365340E+02  0.30343893441E+01  0.73748353113E+01  0.16147060838E+02  0.51100000000E-03 0.  1.
         12    1    3    3    0    0  0.46740766348E+01 -0.21867918083E+01  0.22643396172E+02  0.23223962647E+02  0.00000000000E+00 0. -1.
</event>
<event>
 7    1  0.5290964E-013  0.5052886E+02  0.7816164E-02  0.1300439E+00
        -11   -1    0    0    0    0  0.00000000000E+00  0.00000000000E+00  0.45593999997E+02  0.45594000000E+02  0.51100000000E-03 0. -1.
         11   -1    0    0    0    0 -0.00000000000E+00 -0.00000000000E+00 -0.45593999997E+02  0.45594000000E+02  0.51100000000E-03 0.  1.
    9900012    2    1    2    0    0 -0.26643758812E+02  0.92925928141E+01 -0.29273262333E+02  0.50528855242E+02  0.29999985993E+02 0.  0.
         12    1    1    2    0    0  0.26643758812E+02 -0.92925928141E+01  0.29273262333E+02  0.40659144758E+02  0.00000000000E+00 0. -1.
         11    1    3    3    0    0  0.40058947123E+00  0.44846358766E+01  0.14165985870E+01  0.47200829112E+01  0.51100000000E-03 0. -1.
        -11    1    3    3    0    0 -0.10523575505E+02  0.68230708414E+01 -0.20844453194E+01  0.12713962784E+02  0.51100000000E-03 0.  1.
         12    1    3    3    0    0 -0.16520772778E+02 -0.20151139039E+01 -0.28605415601E+02  0.33094809547E+02  0.00000000000E+00 0. -1.
</event>
<event>
 7    1  0.5290964E-013  0.5052886E+02  0.7816164E-02  0.1300439E+00
        -11   -1    0    0    0    0  0.00000000000E+00  0.00000000000E+00  0.45593999997E+02  0.45594000000E+02  0.51100000000E-03 0.  1.
         11   -1    0    0    0    0 -0.00000000000E+00 -0.00000000000E+00 -0.45593999997E+02  0.45594000000E+02  0.51100000000E-03 0. -1.
    9900012    2    1    2    0    0  0.91780736471E+00 -0.93932009513E+01  0.39548589860E+02  0.50528861367E+02  0.30000004610E+02 0.  0.
         12    1    1    2    0    0 -0.91780736471E+00  0.93932009513E+01 -0.39548589860E+02  0.40659138633E+02  0.00000000000E+00 0. -1.
         11    1    3    3    0    0  0.11448416826E+01 -0.54135295836E+01  0.16251629054E+02  0.17167772488E+02  0.51100000000E-03 0. -1.
        -11    1    3    3    0    0  0.70461646316E+01 -0.17838908161E+01  0.24601242059E+02  0.25652520609E+02  0.51100000000E-03 0.  1.
         12    1    3    3    0    0 -0.72731989495E+01 -0.21957805515E+01 -0.13042812527E+01  0.77085682701E+01  0.00000000000E+00 0. -1.
</event>
<event>
 7    1  0.5290964E-013  0.5052886E+02  0.7816164E-02  0.1300439E+00
        -11   -1    0    0    0    0  0.00000000000E+00  0.00000000000E+00  0.45593999997E+02  0.45594000000E+02  0.51100000000E-03 0.  1.
         11   -1    0    0    0    0 -0.00000000000E+00 -0.00000000000E+00 -0.45593999997E+02  0.45594000000E+02  0.51100000000E-03 0. -1.
    9900012    2    1    2    0    0 -0.21640994428E+02 -0.46513123096E+01  0.34105693678E+02  0.50528859733E+02  0.29999999644E+02 0.  0.
         12    1    1    2    0    0  0.21640994428E+02  0.46513123096E+01 -0.34105693678E+02  0.40659140267E+02  0.00000000000E+00 0. -1.
         11    1    3    3    0    0 -0.21771515772E+01  0.57806813445E+01  0.77661326876E+01  0.99231589214E+01  0.51100000000E-03 0. -1.
        -11    1    3    3    0    0 -0.14075952893E+02  0.17118228971E+01  0.42047047868E+01  0.14789940164E+02  0.51100000000E-03 0.  1.
         12    1    3    3    0    0 -0.53878899584E+01 -0.12143816551E+02  0.22134856203E+02  0.25815760647E+02  0.00000000000E+00 0. -1.
</event>
<event>
 7    1  0.5290964E-013  0.5052886E+02  0.7816164E-02  0.1300439E+00
        -11   -1    0    0    0    0  0.00000000000E+00  0.00000000000E+00  0.45593999997E+02  0.45594000000E+02  0.51100000000E-03 0.  1.
         11   -1    0    0    0    0 -0.00000000000E+00 -0.00000000000E+00 -0.45593999997E+02  0.45594000000E+02  0.51100000000E-03 0. -1.
    9900012    2    1    2    0    0 -0.22822813341E+02 -0.20262096411E+01  0.33588382864E+02  0.50528858374E+02  0.29999995514E+02 0.  0.
         12    1    1    2    0    0  0.22822813341E+02  0.20262096411E+01 -0.33588382864E+02  0.40659141626E+02  0.00000000000E+00 0. -1.
         11    1    3    3    0    0 -0.24712904839E+02  0.22741659534E-01  0.15454654139E+02  0.29147461598E+02  0.51100000000E-03 0. -1.
        -11    1    3    3    0    0 -0.39428980173E+01  0.14926742784E+01  0.47001239693E+01  0.63139280059E+01  0.51100000000E-03 0.  1.
        -12    1    3    3    0    0  0.58329895147E+01 -0.35416255790E+01  0.13433604756E+02  0.15067468771E+02  0.00000000000E+00 0.  1.
</event>
<event>
 7    1  0.5290964E-013  0.5052884E+02  0.7816164E-02  0.1300439E+00
        -11   -1    0    0    0    0  0.00000000000E+00  0.00000000000E+00  0.45593999997E+02  0.45594000000E+02  0.51100000000E-03 0. -1.
         11   -1    0    0    0    0 -0.00000000000E+00 -0.00000000000E+00 -0.45593999997E+02  0.45594000000E+02  0.51100000000E-03 0.  1.
    9900012    2    1    2    0    0 -0.91936427220E+00 -0.35407358785E+02 -0.19965992958E+02  0.50528841602E+02  0.29999944534E+02 0.  0.
         12    1    1    2    0    0  0.91936427220E+00  0.35407358785E+02  0.19965992958E+02  0.40659158398E+02  0.00000000000E+00 0. -1.
         11    1    3    3    0    0  0.27280747959E+01 -0.23320984233E+01 -0.11663248880E+02  0.12202968895E+02  0.51100000000E-03 0. -1.
        -11    1    3    3    0    0  0.41528935801E+01 -0.11267367851E+02 -0.92309981078E+01  0.15146333870E+02  0.51100000000E-03 0.  1.
         12    1    3    3    0    0 -0.78003326481E+01 -0.21807892510E+02  0.92825402952E+00  0.23179538837E+02  0.00000000000E+00 0. -1.
</event>
<event>
 7    1  0.5290964E-013  0.5052886E+02  0.7816164E-02  0.1300439E+00
        -11   -1    0    0    0    0  0.00000000000E+00  0.00000000000E+00  0.45593999997E+02  0.45594000000E+02  0.51100000000E-03 0.  1.
         11   -1    0    0    0    0 -0.00000000000E+00 -0.00000000000E+00 -0.45593999997E+02  0.45594000000E+02  0.51100000000E-03 0. -1.
    9900012    2    1    2    0    0 -0.25463414598E+02 -0.38057782263E+01  0.31468974418E+02  0.50528858570E+02  0.29999996110E+02 0.  0.
         12    1    1    2    0    0  0.25463414598E+02  0.38057782263E+01 -0.31468974418E+02  0.40659141430E+02  0.00000000000E+00 0. -1.
         11    1    3    3    0    0 -0.18749385139E+02 -0.11660196740E+01  0.74378748954E+01  0.20204480399E+02  0.51100000000E-03 0. -1.
        -11    1    3    3    0    0 -0.88046623195E+01  0.13580386425E+01  0.39543016633E+01  0.97469405159E+01  0.51100000000E-03 0.  1.
         12    1    3    3    0    0  0.20906328612E+01 -0.39977971949E+01  0.20076797859E+02  0.20577437655E+02  0.00000000000E+00 0. -1.
</event>
<event>
 7    1  0.5290964E-013  0.5052886E+02  0.7816164E-02  0.1300439E+00
        -11   -1    0    0    0    0  0.00000000000E+00  0.00000000000E+00  0.45593999997E+02  0.45594000000E+02  0.51100000000E-03 0.  1.
         11   -1    0    0    0    0 -0.00000000000E+00 -0.00000000000E+00 -0.45593999997E+02  0.45594000000E+02  0.51100000000E-03 0. -1.
    9900012    2    1    2    0    0  0.19511169298E+02  0.18934654312E+02  0.30231753620E+02  0.50528858491E+02  0.29999995869E+02 0.  0.
         12    1    1    2    0    0 -0.19511169298E+02 -0.18934654312E+02 -0.30231753620E+02  0.40659141509E+02  0.00000000000E+00 0. -1.
         11    1    3    3    0    0  0.41204034811E+01 -0.65859833355E+01  0.60946635674E+01  0.98740987236E+01  0.51100000000E-03 0. -1.
        -11    1    3    3    0    0  0.16999321961E+02  0.19133763997E+02  0.21941493529E+02  0.33712119637E+02  0.51100000000E-03 0.  1.
         12    1    3    3    0    0 -0.16085561442E+01  0.63868736498E+01  0.21955965241E+01  0.69426401307E+01  0.00000000000E+00 0. -1.
</event>
<event>
 7    1  0.5290964E-013  0.5052886E+02  0.7816164E-02  0.1300439E+00
        -11   -1    0    0    0    0  0.00000000000E+00  0.00000000000E+00  0.45593999997E+02  0.45594000000E+02  0.51100000000E-03 0. -1.
         11   -1    0    0    0    0 -0.00000000000E+00 -0.00000000000E+00 -0.45593999997E+02  0.45594000000E+02  0.51100000000E-03 0.  1.
    9900012    2    1    2    0    0 -0.36766932143E+01  0.11946152894E+02 -0.38690272087E+02  0.50528858395E+02  0.29999995576E+02 0.  0.
         12    1    1    2    0    0  0.36766932143E+01 -0.11946152894E+02  0.38690272087E+02  0.40659141605E+02  0.00000000000E+00 0. -1.
         11    1    3    3    0    0  0.41725870188E+01  0.42271120147E+01  0.17849052167E+01  0.62020033303E+01  0.51100000000E-03 0. -1.
        -11    1    3    3    0    0 -0.57099967596E+01 -0.16303363453E+01 -0.56192089982E+01  0.81754247364E+01  0.51100000000E-03 0.  1.
        -12    1    3    3    0    0 -0.21392834735E+01  0.93493772245E+01 -0.34855968305E+02  0.36151430328E+02  0.00000000000E+00 0.  1.
</event>
<event>
 7    1  0.5290964E-013  0.5052886E+02  0.7816164E-02  0.1300439E+00
        -11   -1    0    0    0    0  0.00000000000E+00  0.00000000000E+00  0.45593999997E+02  0.45594000000E+02  0.51100000000E-03 0.  1.
         11   -1    0    0    0    0 -0.00000000000E+00 -0.00000000000E+00 -0.45593999997E+02  0.45594000000E+02  0.51100000000E-03 0. -1.
    9900012    2    1    2    0    0 -0.33325199943E+02  0.17344664528E+02  0.15548614603E+02  0.50528858902E+02  0.29999997117E+02 0.  0.
         12    1    1    2    0    0  0.33325199943E+02 -0.17344664528E+02 -0.15548614603E+02  0.40659141098E+02  0.00000000000E+00 0. -1.
         11    1    3    3    0    0 -0.26274658125E+02  0.79313564583E+01  0.44362699119E+01  0.27801880617E+02  0.51100000000E-03 0. -1.
        -11    1    3    3    0    0 -0.99720051530E+01  0.45550508625E+01  0.84131439483E+00  0.10995325612E+02  0.51100000000E-03 0.  1.
         12    1    3    3    0    0  0.29214633350E+01  0.48582572068E+01  0.10271030296E+02  0.11731652673E+02  0.00000000000E+00 0. -1.
</event>
<event>
 7    1  0.5290964E-013  0.5052885E+02  0.7816164E-02  0.1300439E+00
        -11   -1    0    0    0    0  0.00000000000E+00  0.00000000000E+00  0.45593999997E+02  0.45594000000E+02  0.51100000000E-03 0.  1.
         11   -1    0    0    0    0 -0.00000000000E+00 -0.00000000000E+00 -0.45593999997E+02  0.45594000000E+02  0.51100000000E-03 0. -1.
    9900012    2    1    2    0    0  0.73297464434E+01  0.27171398176E+02  0.29345470571E+02  0.50528847220E+02  0.29999961610E+02 0.  0.
         12    1    1    2    0    0 -0.73297464434E+01 -0.27171398176E+02 -0.29345470571E+02  0.40659152780E+02  0.00000000000E+00 0. -1.
         11    1    3    3    0    0 -0.53676697267E+00  0.21664785847E+00 -0.21609970890E+01  0.22371776320E+01  0.51100000000E-03 0. -1.
        -11    1    3    3    0    0 -0.43205130475E+01  0.10264988134E+02  0.65253302606E+00  0.11156281369E+02  0.51100000000E-03 0.  1.
         12    1    3    3    0    0  0.12187026464E+02  0.16689762184E+02  0.30853934634E+02  0.37135388219E+02  0.00000000000E+00 0. -1.
</event>
<event>
 7    1  0.5290964E-013  0.5052887E+02  0.7816164E-02  0.1300439E+00
        -11   -1    0    0    0    0  0.00000000000E+00  0.00000000000E+00  0.45593999997E+02  0.45594000000E+02  0.51100000000E-03 0. -1.
         11   -1    0    0    0    0 -0.00000000000E+00 -0.00000000000E+00 -0.45593999997E+02  0.45594000000E+02  0.51100000000E-03 0.  1.
    9900012    2    1    2    0    0 -0.92673436576E+01 -0.36776734372E+02 -0.14654461697E+02  0.50528866990E+02  0.30000021702E+02 0.  0.
         12    1    1    2    0    0  0.92673436576E+01  0.36776734372E+02  0.14654461697E+02  0.40659133010E+02  0.00000000000E+00 0. -1.
         11    1    3    3    0    0 -0.29156844585E+01 -0.26223817350E+01 -0.38096757960E+01  0.54673331486E+01  0.51100000000E-03 0. -1.
        -11    1    3    3    0    0 -0.10504933731E+02 -0.35187621732E+02 -0.14452579023E+02  0.39463899915E+02  0.51100000000E-03 0.  1.
         12    1    3    3    0    0  0.41532745320E+01  0.10332690951E+01  0.36077931217E+01  0.55976339260E+01  0.00000000000E+00 0. -1.
</event>
<event>
 7    1  0.5290964E-013  0.5052886E+02  0.7816164E-02  0.1300439E+00
        -11   -1    0    0    0    0  0.00000000000E+00  0.00000000000E+00  0.45593999997E+02  0.45594000000E+02  0.51100000000E-03 0. -1.
         11   -1    0    0    0    0 -0.00000000000E+00 -0.00000000000E+00 -0.45593999997E+02  0.45594000000E+02  0.51100000000E-03 0.  1.
    9900012    2    1    2    0    0 -0.30124644501E+02  0.62300377742E+01 -0.26586806414E+02  0.50528857704E+02  0.29999993477E+02 0.  0.
         12    1    1    2    0    0  0.30124644501E+02 -0.62300377742E+01  0.26586806414E+02  0.40659142296E+02  0.00000000000E+00 0. -1.
         11    1    3    3    0    0 -0.12424471710E+02 -0.11256539987E+02 -0.68448640642E+01  0.18108819787E+02  0.51100000000E-03 0. -1.
        -11    1    3    3    0    0 -0.21365146997E+01 -0.75894368364E-01 -0.25635389673E+01  0.33379915091E+01  0.51100000000E-03 0.  1.
        -12    1    3    3    0    0 -0.15563658090E+02  0.17562472130E+02 -0.17178403383E+02  0.29082046407E+02  0.00000000000E+00 0.  1.
</event>
<event>
 7    1  0.5290964E-013  0.5052887E+02  0.7816164E-02  0.1300439E+00
        -11   -1    0    0    0    0  0.00000000000E+00  0.00000000000E+00  0.45593999997E+02  0.45594000000E+02  0.51100000000E-03 0.  1.
         11   -1    0    0    0    0 -0.00000000000E+00 -0.00000000000E+00 -0.45593999997E+02  0.45594000000E+02  0.51100000000E-03 0. -1.
    9900012    2    1    2    0    0 -0.24491376702E+02 -0.43160570613E+01  0.32166898287E+02  0.50528865396E+02  0.30000016858E+02 0.  0.
         12    1    1    2    0    0  0.24491376702E+02  0.43160570613E+01 -0.32166898287E+02  0.40659134604E+02  0.00000000000E+00 0. -1.
         11    1    3    3    0    0 -0.19452304566E+02 -0.62047005098E+01  0.82784897365E+01  0.22032336552E+02  0.51100000000E-03 0. -1.
        -11    1    3    3    0    0 -0.45755293179E+01 -0.57445059635E+01  0.79770524225E+01  0.10842886282E+02  0.51100000000E-03 0.  1.
         12    1    3    3    0    0 -0.46354281780E+00  0.76331494119E+01  0.15911356128E+02  0.17653642563E+02  0.00000000000E+00 0. -1.
</event>
<event>
 7    1  0.5290964E-013  0.5052885E+02  0.7816164E-02  0.1300439E+00
        -11   -1    0    0    0    0  0.00000000000E+00  0.00000000000E+00  0.45593999997E+02  0.45594000000E+02  0.51100000000E-03 0.  1.
         11   -1    0    0    0    0 -0.00000000000E+00 -0.00000000000E+00 -0.45593999997E+02  0.45594000000E+02  0.51100000000E-03 0. -1.
    9900012    2    1    2    0    0 -0.10885947118E+02  0.26781028960E+02  0.28590890318E+02  0.50528851386E+02  0.29999974274E+02 0.  0.
         12    1    1    2    0    0  0.10885947118E+02 -0.26781028960E+02 -0.28590890318E+02  0.40659148614E+02  0.00000000000E+00 0. -1.
         11    1    3    3    0    0  0.27412579375E+01  0.85785372734E+01  0.62904875162E+01  0.10985264234E+02  0.51100000000E-03 0. -1.
        -11    1    3    3    0    0  0.54811470582E+01 -0.99311438323E+00  0.38471769478E+01  0.67697872922E+01  0.51100000000E-03 0.  1.
        -12    1    3    3    0    0 -0.19108352113E+02  0.19195606070E+02  0.18453225854E+02  0.32773799860E+02  0.00000000000E+00 0.  1.
</event>
<event>
 7    1  0.5290964E-013  0.5052893E+02  0.7816164E-02  0.1300439E+00
        -11   -1    0    0    0    0  0.00000000000E+00  0.00000000000E+00  0.45593999997E+02  0.45594000000E+02  0.51100000000E-03 0. -1.
         11   -1    0    0    0    0 -0.00000000000E+00 -0.00000000000E+00 -0.45593999997E+02  0.45594000000E+02  0.51100000000E-03 0.  1.
    9900012    2    1    2    0    0  0.30736668905E+02  0.16553620566E+02 -0.20842142286E+02  0.50528928881E+02  0.30000209826E+02 0.  0.
         12    1    1    2    0    0 -0.30736668905E+02 -0.16553620566E+02  0.20842142286E+02  0.40659071119E+02  0.00000000000E+00 0. -1.
         11    1    3    3    0    0  0.24054308506E+02  0.21593797451E+02 -0.13632335386E+02  0.35081938578E+02  0.51100000000E-03 0. -1.
        -11    1    3    3    0    0  0.59681233554E+01  0.19679579047E+01 -0.51003019351E+01  0.80934810057E+01  0.51100000000E-03 0.  1.
         12    1    3    3    0    0  0.71423704352E+00 -0.70081347898E+01 -0.21095049650E+01  0.73535092972E+01  0.00000000000E+00 0. -1.
</event>
<event>
 7    1  0.5290964E-013  0.5052886E+02  0.7816164E-02  0.1300439E+00
        -11   -1    0    0    0    0  0.00000000000E+00  0.00000000000E+00  0.45593999997E+02  0.45594000000E+02  0.51100000000E-03 0. -1.
         11   -1    0    0    0    0 -0.00000000000E+00 -0.00000000000E+00 -0.45593999997E+02  0.45594000000E+02  0.51100000000E-03 0.  1.
    9900012    2    1    2    0    0  0.26037830294E+02  0.15109875473E+02 -0.27329268993E+02  0.50528857278E+02  0.29999992181E+02 0.  0.
         12    1    1    2    0    0 -0.26037830294E+02 -0.15109875473E+02  0.27329268993E+02  0.40659142722E+02  0.00000000000E+00 0. -1.
         11    1    3    3    0    0 -0.14303068681E+01  0.52360445579E-01 -0.64542631440E-03  0.14312651854E+01  0.51100000000E-03 0. -1.
        -11    1    3    3    0    0 -0.53764064405E+00  0.17195912344E+01 -0.15958193610E+02  0.16059576428E+02  0.51100000000E-03 0.  1.
        -12    1    3    3    0    0  0.28005777806E+02  0.13337923793E+02 -0.11370429956E+02  0.33038015664E+02  0.00000000000E+00 0.  1.
</event>
<event>
 7    1  0.5290964E-013  0.5052886E+02  0.7816164E-02  0.1300439E+00
        -11   -1    0    0    0    0  0.00000000000E+00  0.00000000000E+00  0.45593999997E+02  0.45594000000E+02  0.51100000000E-03 0.  1.
         11   -1    0    0    0    0 -0.00000000000E+00 -0.00000000000E+00 -0.45593999997E+02  0.45594000000E+02  0.51100000000E-03 0. -1.
    9900012    2    1    2    0    0  0.11913975813E+01 -0.15272209835E+02  0.37663053134E+02  0.50528863353E+02  0.30000010649E+02 0.  0.
         12    1    1    2    0    0 -0.11913975813E+01  0.15272209835E+02 -0.37663053134E+02  0.40659136647E+02  0.00000000000E+00 0. -1.
         11    1    3    3    0    0  0.21236586111E+01 -0.24621244108E+01 -0.96041440246E+00  0.33903360595E+01  0.51100000000E-03 0. -1.
        -11    1    3    3    0    0  0.85796185750E+01  0.22231801830E+01  0.93475284765E+01  0.12881330440E+02  0.51100000000E-03 0.  1.
        -12    1    3    3    0    0 -0.95118796049E+01 -0.15033265607E+02  0.29275939060E+02  0.34257196854E+02  0.00000000000E+00 0.  1.
</event>
<event>
 7    1  0.5290964E-013  0.5052886E+02  0.7816164E-02  0.1300439E+00
        -11   -1    0    0    0    0  0.00000000000E+00  0.00000000000E+00  0.45593999997E+02  0.45594000000E+02  0.51100000000E-03 0.  1.
         11   -1    0    0    0    0 -0.00000000000E+00 -0.00000000000E+00 -0.45593999997E+02  0.45594000000E+02  0.51100000000E-03 0. -1.
    9900012    2    1    2    0    0  0.74946358374E+01  0.30416065974E+02  0.25920247283E+02  0.50528857672E+02  0.29999993379E+02 0.  0.
         12    1    1    2    0    0 -0.74946358374E+01 -0.30416065974E+02 -0.25920247283E+02  0.40659142328E+02  0.00000000000E+00 0. -1.
         11    1    3    3    0    0 -0.24677569659E+01  0.83209647726E+01  0.22000261747E+02  0.23650365672E+02  0.51100000000E-03 0. -1.
        -11    1    3    3    0    0 -0.18223681481E+01  0.61280630863E+01  0.28636324856E+01  0.70053246984E+01  0.51100000000E-03 0.  1.
         12    1    3    3    0    0  0.11784760951E+02  0.15967038115E+02  0.10563530503E+01  0.19873167302E+02  0.00000000000E+00 0. -1.
</event>
<event>
 7    1  0.5290964E-013  0.5052885E+02  0.7816164E-02  0.1300439E+00
        -11   -1    0    0    0    0  0.00000000000E+00  0.00000000000E+00  0.45593999997E+02  0.45594000000E+02  0.51100000000E-03 0.  1.
         11   -1    0    0    0    0 -0.00000000000E+00 -0.00000000000E+00 -0.45593999997E+02  0.45594000000E+02  0.51100000000E-03 0. -1.
    9900012    2    1    2    0    0  0.88368875441E+01  0.82786282279E+01  0.38814171734E+02  0.50528853499E+02  0.29999980694E+02 0.  0.
         12    1    1    2    0    0 -0.88368875441E+01 -0.82786282279E+01 -0.38814171734E+02  0.40659146501E+02  0.00000000000E+00 0. -1.
         11    1    3    3    0    0  0.26416173263E+01  0.63071567370E+01  0.21078186395E+02  0.22159609883E+02  0.51100000000E-03 0. -1.
        -11    1    3    3    0    0 -0.45800547069E+01  0.75566561733E+01  0.12112124299E+02  0.14992781895E+02  0.51100000000E-03 0.  1.
         12    1    3    3    0    0  0.10775324925E+02 -0.55851846824E+01  0.56238610396E+01  0.13376461721E+02  0.00000000000E+00 0. -1.
</event>
<event>
 7    1  0.5290964E-013  0.5052885E+02  0.7816164E-02  0.1300439E+00
        -11   -1    0    0    0    0  0.00000000000E+00  0.00000000000E+00  0.45593999997E+02  0.45594000000E+02  0.51100000000E-03 0.  1.
         11   -1    0    0    0    0 -0.00000000000E+00 -0.00000000000E+00 -0.45593999997E+02  0.45594000000E+02  0.51100000000E-03 0. -1.
    9900012    2    1    2    0    0 -0.27750731751E+02  0.20689504289E+02 -0.21330906066E+02  0.50528852763E+02  0.29999978460E+02 0.  0.
         12    1    1    2    0    0  0.27750731751E+02 -0.20689504289E+02  0.21330906066E+02  0.40659147237E+02  0.00000000000E+00 0. -1.
         11    1    3    3    0    0  0.28064209850E+01  0.58443385327E+00 -0.61684575026E+01  0.68020166052E+01  0.51100000000E-03 0. -1.
        -11    1    3    3    0    0  0.65840381036E+00 -0.24162787584E+01 -0.62446132919E+00  0.25810561460E+01  0.51100000000E-03 0.  1.
        -12    1    3    3    0    0 -0.31215556546E+02  0.22521349194E+02 -0.14537987234E+02  0.41145780012E+02  0.00000000000E+00 0.  1.
</event>
<event>
 7    1  0.5290964E-013  0.5052886E+02  0.7816164E-02  0.1300439E+00
        -11   -1    0    0    0    0  0.00000000000E+00  0.00000000000E+00  0.45593999997E+02  0.45594000000E+02  0.51100000000E-03 0.  1.
         11   -1    0    0    0    0 -0.00000000000E+00 -0.00000000000E+00 -0.45593999997E+02  0.45594000000E+02  0.51100000000E-03 0. -1.
    9900012    2    1    2    0    0 -0.15229841893E+02  0.10598368645E+02  0.36178620292E+02  0.50528855048E+02  0.29999985404E+02 0.  0.
         12    1    1    2    0    0  0.15229841893E+02 -0.10598368645E+02 -0.36178620292E+02  0.40659144952E+02  0.00000000000E+00 0. -1.
         11    1    3    3    0    0  0.21938970646E+00  0.33862358476E+01  0.44090847681E+01  0.55636996515E+01  0.51100000000E-03 0. -1.
        -11    1    3    3    0    0  0.69175642377E+01 -0.24557405651E+01  0.90179966891E+01  0.11627881202E+02  0.51100000000E-03 0.  1.
         12    1    3    3    0    0 -0.22366795837E+02  0.96678733624E+01  0.22751538835E+02  0.33337274194E+02  0.00000000000E+00 0. -1.
</event>
<event>
 7    1  0.5290964E-013  0.5052886E+02  0.7816164E-02  0.1300439E+00
        -11   -1    0    0    0    0  0.00000000000E+00  0.00000000000E+00  0.45593999997E+02  0.45594000000E+02  0.51100000000E-03 0.  1.
         11   -1    0    0    0    0 -0.00000000000E+00 -0.00000000000E+00 -0.45593999997E+02  0.45594000000E+02  0.51100000000E-03 0. -1.
    9900012    2    1    2    0    0 -0.26239999411E+02 -0.84120147631E+01  0.29897591482E+02  0.50528861569E+02  0.30000005226E+02 0.  0.
         12    1    1    2    0    0  0.26239999411E+02  0.84120147631E+01 -0.29897591482E+02  0.40659138431E+02  0.00000000000E+00 0. -1.
         11    1    3    3    0    0 -0.39992215279E+01  0.55021614450E+01  0.95710949005E+01  0.11741950913E+02  0.51100000000E-03 0. -1.
        -11    1    3    3    0    0 -0.76330829858E+01 -0.10119692517E+02  0.20015039202E+02  0.23691220463E+02  0.51100000000E-03 0.  1.
         12    1    3    3    0    0 -0.14607694898E+02 -0.37944836914E+01  0.31145737988E+00  0.15095690193E+02  0.00000000000E+00 0. -1.
</event>
<event>
 7    1  0.5290964E-013  0.5052887E+02  0.7816164E-02  0.1300439E+00
        -11   -1    0    0    0    0  0.00000000000E+00  0.00000000000E+00  0.45593999997E+02  0.45594000000E+02  0.51100000000E-03 0.  1.
         11   -1    0    0    0    0 -0.00000000000E+00 -0.00000000000E+00 -0.45593999997E+02  0.45594000000E+02  0.51100000000E-03 0. -1.
    9900012    2    1    2    0    0 -0.17603653171E+02  0.21007314115E+02  0.30032799019E+02  0.50528869805E+02  0.30000030260E+02 0.  0.
         12    1    1    2    0    0  0.17603653171E+02 -0.21007314115E+02 -0.30032799019E+02  0.40659130195E+02  0.00000000000E+00 0. -1.
         11    1    3    3    0    0 -0.32439236924E+01 -0.54797899096E+01  0.32038004201E+01  0.71284974411E+01  0.51100000000E-03 0. -1.
        -11    1    3    3    0    0  0.24260657108E+01 -0.23262181918E+00  0.10487840489E+01  0.26532726936E+01  0.51100000000E-03 0.  1.
        -12    1    3    3    0    0 -0.16785795190E+02  0.26719725844E+02  0.25780214550E+02  0.40747099670E+02  0.00000000000E+00 0.  1.
</event>
<event>
 7    1  0.5290964E-013  0.5052886E+02  0.7816164E-02  0.1300439E+00
        -11   -1    0    0    0    0  0.00000000000E+00  0.00000000000E+00  0.45593999997E+02  0.45594000000E+02  0.51100000000E-03 0. -1.
         11   -1    0    0    0    0 -0.00000000000E+00 -0.00000000000E+00 -0.45593999997E+02  0.45594000000E+02  0.51100000000E-03 0.  1.
    9900012    2    1    2    0    0 -0.17032535570E+01 -0.14201465823E+02 -0.38060255413E+02  0.50528859007E+02  0.29999997439E+02 0.  0.
         12    1    1    2    0    0  0.17032535570E+01  0.14201465823E+02  0.38060255413E+02  0.40659140993E+02  0.00000000000E+00 0. -1.
         11    1    3    3    0    0  0.43471509852E+00 -0.57791254739E+01  0.34530624045E+01  0.67461773390E+01  0.51100000000E-03 0. -1.
        -11    1    3    3    0    0  0.37527613176E+01 -0.37163287436E+00 -0.14628608674E+02  0.15106869977E+02  0.51100000000E-03 0.  1.
        -12    1    3    3    0    0 -0.58907299731E+01 -0.80507074744E+01 -0.26884709143E+02  0.28675811691E+02  0.00000000000E+00 0.  1.
</event>
<event>
 7    1  0.5290964E-013  0.5052885E+02  0.7816164E-02  0.1300439E+00
        -11   -1    0    0    0    0  0.00000000000E+00  0.00000000000E+00  0.45593999997E+02  0.45594000000E+02  0.51100000000E-03 0.  1.
         11   -1    0    0    0    0 -0.00000000000E+00 -0.00000000000E+00 -0.45593999997E+02  0.45594000000E+02  0.51100000000E-03 0. -1.
    9900012    2    1    2    0    0  0.27383012217E+01 -0.28002473218E+02  0.29351829723E+02  0.50528847180E+02  0.29999961490E+02 0.  0.
         12    1    1    2    0    0 -0.27383012217E+01  0.28002473218E+02 -0.29351829723E+02  0.40659152820E+02  0.00000000000E+00 0. -1.
         11    1    3    3    0    0  0.84034602988E+01 -0.23672345651E+02  0.28422247136E+02  0.37931810215E+02  0.51100000000E-03 0. -1.
        -11    1    3    3    0    0 -0.84885527575E+01 -0.39849924738E+01  0.19446767453E+01  0.95769233492E+01  0.51100000000E-03 0.  1.
        -12    1    3    3    0    0  0.28233936804E+01 -0.34513509273E+00 -0.10150941582E+01  0.30201136166E+01  0.00000000000E+00 0.  1.
</event>
<event>
 7    1  0.5290964E-013  0.5052885E+02  0.7816164E-02  0.1300439E+00
        -11   -1    0    0    0    0  0.00000000000E+00  0.00000000000E+00  0.45593999997E+02  0.45594000000E+02  0.51100000000E-03 0. -1.
         11   -1    0    0    0    0 -0.00000000000E+00 -0.00000000000E+00 -0.45593999997E+02  0.45594000000E+02  0.51100000000E-03 0.  1.
    9900012    2    1    2    0    0  0.29319562372E+02 -0.24782389858E+02 -0.13392629754E+02  0.50528854454E+02  0.29999983600E+02 0.  0.
         12    1    1    2    0    0 -0.29319562372E+02  0.24782389858E+02  0.13392629754E+02  0.40659145546E+02  0.00000000000E+00 0. -1.
         11    1    3    3    0    0  0.31440933489E+01 -0.14424298815E+02 -0.70203779541E+01  0.16347214631E+02  0.51100000000E-03 0. -1.
        -11    1    3    3    0    0  0.18920251365E+02 -0.88059249874E+01 -0.12700549954E+02  0.24429985592E+02  0.51100000000E-03 0.  1.
        -12    1    3    3    0    0  0.72552176579E+01 -0.15521660554E+01  0.63282981547E+01  0.97516542320E+01  0.00000000000E+00 0.  1.
</event>
<event>
 7    1  0.5290964E-013  0.5052886E+02  0.7816164E-02  0.1300439E+00
        -11   -1    0    0    0    0  0.00000000000E+00  0.00000000000E+00  0.45593999997E+02  0.45594000000E+02  0.51100000000E-03 0. -1.
         11   -1    0    0    0    0 -0.00000000000E+00 -0.00000000000E+00 -0.45593999997E+02  0.45594000000E+02  0.51100000000E-03 0.  1.
    9900012    2    1    2    0    0  0.40971828051E+01 -0.30955086679E+02 -0.26041526524E+02  0.50528863241E+02  0.30000010308E+02 0.  0.
         12    1    1    2    0    0 -0.40971828051E+01  0.30955086679E+02  0.26041526524E+02  0.40659136759E+02  0.00000000000E+00 0. -1.
         11    1    3    3    0    0 -0.32084583400E+01 -0.84400028984E+01 -0.14639930490E+01  0.91471924520E+01  0.51100000000E-03 0. -1.
        -11    1    3    3    0    0 -0.51466937724E+01  0.15632453912E+01 -0.10341254744E+01  0.54773724264E+01  0.51100000000E-03 0.  1.
        -12    1    3    3    0    0  0.12452334918E+02 -0.24078329172E+02 -0.23543408001E+02  0.35904298363E+02  0.00000000000E+00 0.  1.
</event>
<event>
 7    1  0.5290964E-013  0.5052885E+02  0.7816164E-02  0.1300439E+00
        -11   -1    0    0    0    0  0.00000000000E+00  0.00000000000E+00  0.45593999997E+02  0.45594000000E+02  0.51100000000E-03 0.  1.
         11   -1    0    0    0    0 -0.00000000000E+00 -0.00000000000E+00 -0.45593999997E+02  0.45594000000E+02  0.51100000000E-03 0. -1.
    9900012    2    1    2    0    0  0.10856912745E+02 -0.35320560500E+02  0.16963244897E+02  0.50528853110E+02  0.29999979513E+02 0.  0.
         12    1    1    2    0    0 -0.10856912745E+02  0.35320560500E+02 -0.16963244897E+02  0.40659146890E+02  0.00000000000E+00 0. -1.
         11    1    3    3    0    0  0.90338816383E+01 -0.50838005860E+01 -0.50376561239E+00  0.10378334448E+02  0.51100000000E-03 0. -1.
        -11    1    3    3    0    0  0.88703424406E+01 -0.14615484399E+02  0.15176230732E+02  0.22860737930E+02  0.51100000000E-03 0.  1.
         12    1    3    3    0    0 -0.70473113341E+01 -0.15621275516E+02  0.22907797773E+01  0.17289780732E+02  0.00000000000E+00 0. -1.
</event>
<event>
 7    1  0.5290964E-013  0.5052885E+02  0.7816164E-02  0.1300439E+00
        -11   -1    0    0    0    0  0.00000000000E+00  0.00000000000E+00  0.45593999997E+02  0.45594000000E+02  0.51100000000E-03 0.  1.
         11   -1    0    0    0    0 -0.00000000000E+00 -0.00000000000E+00 -0.45593999997E+02  0.45594000000E+02  0.51100000000E-03 0. -1.
    9900012    2    1    2    0    0  0.32599173432E+00 -0.40657836238E+02 -0.15869874153E-01  0.50528853796E+02  0.29999981600E+02 0.  0.
         12    1    1    2    0    0 -0.32599173432E+00  0.40657836238E+02  0.15869874153E-01  0.40659146204E+02  0.00000000000E+00 0. -1.
         11    1    3    3    0    0  0.54098549507E+00 -0.10916062465E+02  0.89617296158E+01  0.14133848840E+02  0.51100000000E-03 0. -1.
        -11    1    3    3    0    0 -0.60992082355E+01 -0.33980980548E+01  0.19886121454E+01  0.72596136272E+01  0.51100000000E-03 0.  1.
        -12    1    3    3    0    0  0.58842144747E+01 -0.26343675718E+02 -0.10966211635E+02  0.29135391330E+02  0.00000000000E+00 0.  1.
</event>
<event>
 7    1  0.5290964E-013  0.5052884E+02  0.7816164E-02  0.1300439E+00
        -11   -1    0    0    0    0  0.00000000000E+00  0.00000000000E+00  0.45593999997E+02  0.45594000000E+02  0.51100000000E-03 0. -1.
         11   -1    0    0    0    0 -0.00000000000E+00 -0.00000000000E+00 -0.45593999997E+02  0.45594000000E+02  0.51100000000E-03 0.  1.
    9900012    2    1    2    0    0 -0.40285671797E+02 -0.34000109309E+01 -0.43210581290E+01  0.50528843960E+02  0.29999951702E+02 0.  0.
         12    1    1    2    0    0  0.40285671797E+02  0.34000109309E+01  0.43210581290E+01  0.40659156040E+02  0.00000000000E+00 0. -1.
         11    1    3    3    0    0 -0.11801947810E+02  0.88851738463E+01  0.42830862256E+01  0.15381063496E+02  0.51100000000E-03 0. -1.
        -11    1    3    3    0    0 -0.66447803871E+01  0.27088582087E+01 -0.41374317469E+01  0.82830767779E+01  0.51100000000E-03 0.  1.
        -12    1    3    3    0    0 -0.21838943601E+02 -0.14994042986E+02 -0.44667126077E+01  0.26864703687E+02  0.00000000000E+00 0.  1.
</event>
<event>
 7    1  0.5290964E-013  0.5052886E+02  0.7816164E-02  0.1300439E+00
        -11   -1    0    0    0    0  0.00000000000E+00  0.00000000000E+00  0.45593999997E+02  0.45594000000E+02  0.51100000000E-03 0.  1.
         11   -1    0    0    0    0 -0.00000000000E+00 -0.00000000000E+00 -0.45593999997E+02  0.45594000000E+02  0.51100000000E-03 0. -1.
    9900012    2    1    2    0    0 -0.21279952495E+02  0.30067272404E+02  0.17213039615E+02  0.50528856123E+02  0.29999988672E+02 0.  0.
         12    1    1    2    0    0  0.21279952495E+02 -0.30067272404E+02 -0.17213039615E+02  0.40659143877E+02  0.00000000000E+00 0. -1.
         11    1    3    3    0    0  0.42303091422E+01  0.22670256045E+01 -0.11202575515E+01  0.49284782411E+01  0.51100000000E-03 0. -1.
        -11    1    3    3    0    0 -0.69284989812E+00  0.17958453089E+01  0.79569446592E+01  0.81864564939E+01  0.51100000000E-03 0.  1.
         12    1    3    3    0    0 -0.24817411739E+02  0.26004401490E+02  0.10376352507E+02  0.37413921388E+02  0.00000000000E+00 0. -1.
</event>
<event>
 7    1  0.5290964E-013  0.5052887E+02  0.7816164E-02  0.1300439E+00
        -11   -1    0    0    0    0  0.00000000000E+00  0.00000000000E+00  0.45593999997E+02  0.45594000000E+02  0.51100000000E-03 0. -1.
         11   -1    0    0    0    0 -0.00000000000E+00 -0.00000000000E+00 -0.45593999997E+02  0.45594000000E+02  0.51100000000E-03 0.  1.
    9900012    2    1    2    0    0 -0.37123343408E+02 -0.12922982705E+02 -0.10393216908E+02  0.50528867380E+02  0.30000022887E+02 0.  0.
         12    1    1    2    0    0  0.37123343408E+02  0.12922982705E+02  0.10393216908E+02  0.40659132620E+02  0.00000000000E+00 0. -1.
         11    1    3    3    0    0 -0.18484584889E+01  0.60645943110E+01 -0.22254013693E+01  0.67192644283E+01  0.51100000000E-03 0. -1.
        -11    1    3    3    0    0 -0.10791779520E+02 -0.13418372794E+02 -0.72519268678E+01  0.18684369864E+02  0.51100000000E-03 0.  1.
        -12    1    3    3    0    0 -0.24483105399E+02 -0.55692042219E+01 -0.91588867057E+00  0.25125233087E+02  0.00000000000E+00 0.  1.
</event>
<event>
 7    1  0.5290964E-013  0.5052886E+02  0.7816164E-02  0.1300439E+00
        -11   -1    0    0    0    0  0.00000000000E+00  0.00000000000E+00  0.45593999997E+02  0.45594000000E+02  0.51100000000E-03 0.  1.
         11   -1    0    0    0    0 -0.00000000000E+00 -0.00000000000E+00 -0.45593999997E+02  0.45594000000E+02  0.51100000000E-03 0. -1.
    9900012    2    1    2    0    0 -0.35107345667E+02 -0.74402663314E+01 -0.19112352367E+02  0.50528864546E+02  0.30000014275E+02 0.  0.
         12    1    1    2    0    0  0.35107345667E+02  0.74402663314E+01  0.19112352367E+02  0.40659135454E+02  0.00000000000E+00 0. -1.
         11    1    3    3    0    0  0.29194480641E+01  0.51277615299E+01 -0.29127010030E+01  0.65803451809E+01  0.51100000000E-03 0. -1.
        -11    1    3    3    0    0  0.38668818366E+00 -0.15973745924E+00 -0.45711387309E+00  0.61967504497E+00  0.51100000000E-03 0.  1.
        -12    1    3    3    0    0 -0.38413481914E+02 -0.12408290402E+02 -0.15742537491E+02  0.43328844320E+02  0.00000000000E+00 0.  1.
</event>
<event>
 7    1  0.5290964E-013  0.5052886E+02  0.7816164E-02  0.1300439E+00
        -11   -1    0    0    0    0  0.00000000000E+00  0.00000000000E+00  0.45593999997E+02  0.45594000000E+02  0.51100000000E-03 0.  1.
         11   -1    0    0    0    0 -0.00000000000E+00 -0.00000000000E+00 -0.45593999997E+02  0.45594000000E+02  0.51100000000E-03 0. -1.
    9900012    2    1    2    0    0  0.30898406381E+01 -0.40019689208E+02  0.64840546613E+01  0.50528860753E+02  0.30000002746E+02 0.  0.
         12    1    1    2    0    0 -0.30898406381E+01  0.40019689208E+02 -0.64840546613E+01  0.40659139247E+02  0.00000000000E+00 0. -1.
         11    1    3    3    0    0 -0.25248136658E+01 -0.65822605784E+01 -0.42938561465E+01  0.82545768660E+01  0.51100000000E-03 0. -1.
        -11    1    3    3    0    0 -0.56498948784E+01 -0.61916904023E+01  0.96334152315E+01  0.12769535288E+02  0.51100000000E-03 0.  1.
         12    1    3    3    0    0  0.11264549182E+02 -0.27245738227E+02  0.11444955763E+01  0.29504748600E+02  0.00000000000E+00 0. -1.
</event>
<event>
 7    1  0.5290964E-013  0.5052886E+02  0.7816164E-02  0.1300439E+00
        -11   -1    0    0    0    0  0.00000000000E+00  0.00000000000E+00  0.45593999997E+02  0.45594000000E+02  0.51100000000E-03 0. -1.
         11   -1    0    0    0    0 -0.00000000000E+00 -0.00000000000E+00 -0.45593999997E+02  0.45594000000E+02  0.51100000000E-03 0.  1.
    9900012    2    1    2    0    0 -0.16213811981E+02  0.21892747478E+02 -0.30182542962E+02  0.50528856001E+02  0.29999988300E+02 0.  0.
         12    1    1    2    0    0  0.16213811981E+02 -0.21892747478E+02  0.30182542962E+02  0.40659143999E+02  0.00000000000E+00 0. -1.
         11    1    3    3    0    0  0.34920046864E+01  0.30304185889E+01  0.79056659317E+00  0.46906853820E+01  0.51100000000E-03 0. -1.
        -11    1    3    3    0    0 -0.75583294568E+01  0.71223375657E+01  0.19391540180E+00  0.10387186338E+02  0.51100000000E-03 0.  1.
        -12    1    3    3    0    0 -0.12147487211E+02  0.11739991323E+02 -0.31167024957E+02  0.35450984281E+02  0.00000000000E+00 0.  1.
</event>
<event>
 7    1  0.6324173E-013  0.5052884E+02  0.7816164E-02  0.1300439E+00
        -11   -1    0    0    0    0  0.00000000000E+00  0.00000000000E+00  0.45593999997E+02  0.45594000000E+02  0.51100000000E-03 0. -1.
         11   -1    0    0    0    0 -0.00000000000E+00 -0.00000000000E+00 -0.45593999997E+02  0.45594000000E+02  0.51100000000E-03 0.  1.
    9900012    2    1    2    0    0 -0.32338111685E+02 -0.15886352533E+02 -0.18842446453E+02  0.50528838025E+02  0.29999933661E+02 0.  0.
         12    1    1    2    0    0  0.32338111685E+02  0.15886352533E+02  0.18842446453E+02  0.40659161975E+02  0.00000000000E+00 0. -1.
         11    1    3    3    0    0 -0.21659189964E+00 -0.21966702386E+01 -0.11134701990E+02  0.11351381451E+02  0.51100000000E-03 0. -1.
        -11    1    3    3    0    0 -0.91537283081E+01 -0.75729799162E+01 -0.96839839036E+01  0.15327110336E+02  0.51100000000E-03 0.  1.
         12    1    3    3    0    0 -0.22967791478E+02 -0.61167023780E+01  0.19762394401E+01  0.23850346238E+02  0.00000000000E+00 0. -1.
</event>
<event>
 7    1  0.5290964E-013  0.5052886E+02  0.7816164E-02  0.1300439E+00
        -11   -1    0    0    0    0  0.00000000000E+00  0.00000000000E+00  0.45593999997E+02  0.45594000000E+02  0.51100000000E-03 0. -1.
         11   -1    0    0    0    0 -0.00000000000E+00 -0.00000000000E+00 -0.45593999997E+02  0.45594000000E+02  0.51100000000E-03 0.  1.
    9900012    2    1    2    0    0 -0.33421566320E+02 -0.91592253661E+01 -0.21266722817E+02  0.50528855838E+02  0.29999987806E+02 0.  0.
         12    1    1    2    0    0  0.33421566320E+02  0.91592253661E+01  0.21266722817E+02  0.40659144162E+02  0.00000000000E+00 0. -1.
         11    1    3    3    0    0 -0.84757001362E+01  0.10913702821E+01 -0.28623034125E+01  0.90122895525E+01  0.51100000000E-03 0.  1.
        -11    1    3    3    0    0 -0.74598516238E+01 -0.16550120203E+02 -0.12400594109E+02  0.21984781089E+02  0.51100000000E-03 0. -1.
         12    1    3    3    0    0 -0.17486014560E+02  0.62995245550E+01 -0.60038252950E+01  0.19531785197E+02  0.00000000000E+00 0. -1.
</event>
<event>
 7    1  0.5290964E-013  0.5052885E+02  0.7816164E-02  0.1300439E+00
        -11   -1    0    0    0    0  0.00000000000E+00  0.00000000000E+00  0.45593999997E+02  0.45594000000E+02  0.51100000000E-03 0. -1.
         11   -1    0    0    0    0 -0.00000000000E+00 -0.00000000000E+00 -0.45593999997E+02  0.45594000000E+02  0.51100000000E-03 0.  1.
    9900012    2    1    2    0    0  0.38368947132E+02  0.13440785291E+02 -0.57946180686E+00  0.50528848641E+02  0.29999965930E+02 0.  0.
         12    1    1    2    0    0 -0.38368947132E+02 -0.13440785291E+02  0.57946180686E+00  0.40659151359E+02  0.00000000000E+00 0. -1.
         11    1    3    3    0    0  0.63012664729E+01 -0.23181613843E+01  0.89209273376E+01  0.11165248595E+02  0.51100000000E-03 0. -1.
        -11    1    3    3    0    0  0.10429069940E+02  0.56035739172E+00  0.18163182414E+01  0.10600873192E+02  0.51100000000E-03 0.  1.
         12    1    3    3    0    0  0.21638610719E+02  0.15198589283E+02 -0.11316707386E+02  0.28762726854E+02  0.00000000000E+00 0. -1.
</event>
<event>
 7    1  0.5290964E-013  0.5052885E+02  0.7816164E-02  0.1300439E+00
        -11   -1    0    0    0    0  0.00000000000E+00  0.00000000000E+00  0.45593999997E+02  0.45594000000E+02  0.51100000000E-03 0.  1.
         11   -1    0    0    0    0 -0.00000000000E+00 -0.00000000000E+00 -0.45593999997E+02  0.45594000000E+02  0.51100000000E-03 0. -1.
    9900012    2    1    2    0    0  0.11787950818E+02 -0.10050136854E+02  0.37592621487E+02  0.50528853114E+02  0.29999979524E+02 0.  0.
         12    1    1    2    0    0 -0.11787950818E+02  0.10050136854E+02 -0.37592621487E+02  0.40659146886E+02  0.00000000000E+00 0. -1.
         11    1    3    3    0    0 -0.79258872906E+00  0.16196063471E+01 -0.12832735228E+01  0.22131680479E+01  0.51100000000E-03 0. -1.
        -11    1    3    3    0    0 -0.45508160398E+01  0.16748575390E+01  0.14765768664E+01  0.50690584834E+01  0.51100000000E-03 0.  1.
        -12    1    3    3    0    0  0.17131355587E+02 -0.13344600740E+02  0.37399318143E+02  0.43246626582E+02  0.00000000000E+00 0.  1.
</event>
<event>
 7    1  0.5290964E-013  0.5052884E+02  0.7816164E-02  0.1300439E+00
        -11   -1    0    0    0    0  0.00000000000E+00  0.00000000000E+00  0.45593999997E+02  0.45594000000E+02  0.51100000000E-03 0.  1.
         11   -1    0    0    0    0 -0.00000000000E+00 -0.00000000000E+00 -0.45593999997E+02  0.45594000000E+02  0.51100000000E-03 0. -1.
    9900012    2    1    2    0    0 -0.13474632125E+02 -0.33133919108E+02  0.19332492357E+02  0.50528836615E+02  0.29999929376E+02 0.  0.
         12    1    1    2    0    0  0.13474632125E+02  0.33133919108E+02 -0.19332492357E+02  0.40659163385E+02  0.00000000000E+00 0. -1.
         11    1    3    3    0    0 -0.97371409365E+01 -0.90131741151E+01  0.90214111251E+00  0.13298987935E+02  0.51100000000E-03 0. -1.
        -11    1    3    3    0    0 -0.12234081936E+02 -0.14642660513E+02  0.14309733469E+02  0.23850550097E+02  0.51100000000E-03 0.  1.
        -12    1    3    3    0    0  0.84965907471E+01 -0.94780844798E+01  0.41206177761E+01  0.13379298584E+02  0.00000000000E+00 0.  1.
</event>
<event>
 7    1  0.5290964E-013  0.5052886E+02  0.7816164E-02  0.1300439E+00
        -11   -1    0    0    0    0  0.00000000000E+00  0.00000000000E+00  0.45593999997E+02  0.45594000000E+02  0.51100000000E-03 0. -1.
         11   -1    0    0    0    0 -0.00000000000E+00 -0.00000000000E+00 -0.45593999997E+02  0.45594000000E+02  0.51100000000E-03 0.  1.
    9900012    2    1    2    0    0  0.28941320468E+02  0.26622483236E+02 -0.10334855708E+02  0.50528857281E+02  0.29999992192E+02 0.  0.
         12    1    1    2    0    0 -0.28941320468E+02 -0.26622483236E+02  0.10334855708E+02  0.40659142719E+02  0.00000000000E+00 0. -1.
         11    1    3    3    0    0  0.15716189676E+02  0.15548024287E+02 -0.95570726179E+01  0.24084794258E+02  0.51100000000E-03 0. -1.
        -11    1    3    3    0    0  0.15252063270E+02  0.12294659004E+02 -0.61836405762E+01  0.20543161516E+02  0.51100000000E-03 0.  1.
         12    1    3    3    0    0 -0.20269324778E+01 -0.12202000545E+01  0.54058574864E+01  0.59009015079E+01  0.00000000000E+00 0. -1.
</event>
<event>
 7    1  0.5290964E-013  0.5052886E+02  0.7816164E-02  0.1300439E+00
        -11   -1    0    0    0    0  0.00000000000E+00  0.00000000000E+00  0.45593999997E+02  0.45594000000E+02  0.51100000000E-03 0.  1.
         11   -1    0    0    0    0 -0.00000000000E+00 -0.00000000000E+00 -0.45593999997E+02  0.45594000000E+02  0.51100000000E-03 0. -1.
    9900012    2    1    2    0    0 -0.12130838463E+02  0.35357021828E+02  0.15996538991E+02  0.50528862109E+02  0.30000006865E+02 0.  0.
         12    1    1    2    0    0  0.12130838463E+02 -0.35357021828E+02 -0.15996538991E+02  0.40659137891E+02  0.00000000000E+00 0. -1.
         11    1    3    3    0    0 -0.66739424085E+01  0.96926333177E+01 -0.50430842014E+01  0.12803177200E+02  0.51100000000E-03 0. -1.
        -11    1    3    3    0    0  0.48349199371E+01  0.10479250086E+02  0.28401173098E+01  0.11885175630E+02  0.51100000000E-03 0.  1.
        -12    1    3    3    0    0 -0.10291815992E+02  0.15185138424E+02  0.18199505882E+02  0.25840509278E+02  0.00000000000E+00 0.  1.
</event>
<event>
 7    1  0.5290964E-013  0.5052887E+02  0.7816164E-02  0.1300439E+00
        -11   -1    0    0    0    0  0.00000000000E+00  0.00000000000E+00  0.45593999997E+02  0.45594000000E+02  0.51100000000E-03 0.  1.
         11   -1    0    0    0    0 -0.00000000000E+00 -0.00000000000E+00 -0.45593999997E+02  0.45594000000E+02  0.51100000000E-03 0. -1.
    9900012    2    1    2    0    0  0.32232762141E+02  0.18055032755E+02  0.16977340659E+02  0.50528865001E+02  0.30000015656E+02 0.  0.
         12    1    1    2    0    0 -0.32232762141E+02 -0.18055032755E+02 -0.16977340659E+02  0.40659134999E+02  0.00000000000E+00 0. -1.
         11    1    3    3    0    0  0.53657601317E-01  0.27976290022E+01  0.36610844035E+00  0.28219927044E+01  0.51100000000E-03 0. -1.
        -11    1    3    3    0    0  0.63100815125E+01  0.32114256018E+01  0.17789181213E+02  0.19146418767E+02  0.51100000000E-03 0.  1.
        -12    1    3    3    0    0  0.25869023027E+02  0.12045978151E+02 -0.11779489943E+01  0.28560453530E+02  0.00000000000E+00 0.  1.
</event>
<event>
 7    1  0.5290964E-013  0.5052886E+02  0.7816164E-02  0.1300439E+00
        -11   -1    0    0    0    0  0.00000000000E+00  0.00000000000E+00  0.45593999997E+02  0.45594000000E+02  0.51100000000E-03 0. -1.
         11   -1    0    0    0    0 -0.00000000000E+00 -0.00000000000E+00 -0.45593999997E+02  0.45594000000E+02  0.51100000000E-03 0.  1.
    9900012    2    1    2    0    0  0.13828218924E+02  0.36759160562E+02 -0.10521903037E+02  0.50528856288E+02  0.29999989173E+02 0.  0.
         12    1    1    2    0    0 -0.13828218924E+02 -0.36759160562E+02  0.10521903037E+02  0.40659143712E+02  0.00000000000E+00 0. -1.
         11    1    3    3    0    0  0.10408517736E+01  0.13844556822E+01 -0.55592649551E+01  0.58228444125E+01  0.51100000000E-03 0. -1.
        -11    1    3    3    0    0  0.12473997882E+01  0.22249770420E+02 -0.12637193466E+02  0.25618488420E+02  0.51100000000E-03 0.  1.
         12    1    3    3    0    0  0.11539967362E+02  0.13124934460E+02  0.76745553841E+01  0.19087523455E+02  0.00000000000E+00 0. -1.
</event>
<event>
 7    1  0.5290964E-013  0.5052896E+02  0.7816164E-02  0.1300438E+00
        -11   -1    0    0    0    0  0.00000000000E+00  0.00000000000E+00  0.45593999997E+02  0.45594000000E+02  0.51100000000E-03 0.  1.
         11   -1    0    0    0    0 -0.00000000000E+00 -0.00000000000E+00 -0.45593999997E+02  0.45594000000E+02  0.51100000000E-03 0. -1.
    9900012    2    1    2    0    0 -0.16760916871E+02  0.22353846973E+02  0.29538694757E+02  0.50528962914E+02  0.30000313272E+02 0.  0.
         12    1    1    2    0    0  0.16760916871E+02 -0.22353846973E+02 -0.29538694757E+02  0.40659037086E+02  0.00000000000E+00 0. -1.
         11    1    3    3    0    0  0.16785128760E+01  0.95005044444E+01 -0.10764368538E+01  0.97075077510E+01  0.51100000000E-03 0. -1.
        -11    1    3    3    0    0 -0.15283863168E+01 -0.11014797936E+00  0.13236907079E+02  0.13325306998E+02  0.51100000000E-03 0.  1.
        -12    1    3    3    0    0 -0.16911043431E+02  0.12963490507E+02  0.17378224531E+02  0.27496148165E+02  0.00000000000E+00 0.  1.
</event>
<event>
 7    1  0.5290964E-013  0.5052881E+02  0.7816164E-02  0.1300439E+00
        -11   -1    0    0    0    0  0.00000000000E+00  0.00000000000E+00  0.45593999997E+02  0.45594000000E+02  0.51100000000E-03 0.  1.
         11   -1    0    0    0    0 -0.00000000000E+00 -0.00000000000E+00 -0.45593999997E+02  0.45594000000E+02  0.51100000000E-03 0. -1.
    9900012    2    1    2    0    0 -0.32998241230E+02  0.20882572865E+02  0.11322722288E+02  0.50528808988E+02  0.29999845399E+02 0.  0.
         12    1    1    2    0    0  0.32998241230E+02 -0.20882572865E+02 -0.11322722288E+02  0.40659191012E+02  0.00000000000E+00 0. -1.
         11    1    3    3    0    0 -0.21730143490E+01 -0.33090208231E+01  0.30101369228E+01  0.49731815494E+01  0.51100000000E-03 0. -1.
        -11    1    3    3    0    0 -0.23534557164E+02  0.18904706141E+02  0.15591645949E+02  0.33975913804E+02  0.51100000000E-03 0.  1.
         12    1    3    3    0    0 -0.72906697173E+01  0.52868875473E+01 -0.72790605840E+01  0.11579713634E+02  0.00000000000E+00 0. -1.
</event>
<event>
 7    1  0.5290964E-013  0.5052887E+02  0.7816164E-02  0.1300439E+00
        -11   -1    0    0    0    0  0.00000000000E+00  0.00000000000E+00  0.45593999997E+02  0.45594000000E+02  0.51100000000E-03 0. -1.
         11   -1    0    0    0    0 -0.00000000000E+00 -0.00000000000E+00 -0.45593999997E+02  0.45594000000E+02  0.51100000000E-03 0.  1.
    9900012    2    1    2    0    0 -0.39910767425E+02  0.75704049436E+01 -0.17276685278E+01  0.50528865405E+02  0.30000016885E+02 0.  0.
         12    1    1    2    0    0  0.39910767425E+02 -0.75704049436E+01  0.17276685278E+01  0.40659134595E+02  0.00000000000E+00 0. -1.
         11    1    3    3    0    0 -0.90475748664E+01  0.43413655302E+01 -0.21441124752E+01  0.10261738849E+02  0.51100000000E-03 0. -1.
        -11    1    3    3    0    0 -0.18346126196E+02  0.10976315524E+02 -0.85561077267E+01  0.23027523283E+02  0.51100000000E-03 0.  1.
         12    1    3    3    0    0 -0.12517066363E+02 -0.77472761107E+01  0.89725516741E+01  0.17239603273E+02  0.00000000000E+00 0. -1.
</event>
<event>
 7    1  0.5290964E-013  0.5052888E+02  0.7816164E-02  0.1300439E+00
        -11   -1    0    0    0    0  0.00000000000E+00  0.00000000000E+00  0.45593999997E+02  0.45594000000E+02  0.51100000000E-03 0.  1.
         11   -1    0    0    0    0 -0.00000000000E+00 -0.00000000000E+00 -0.45593999997E+02  0.45594000000E+02  0.51100000000E-03 0. -1.
    9900012    2    1    2    0    0  0.16159089075E+02 -0.20158373413E+02  0.31395672131E+02  0.50528875477E+02  0.30000047501E+02 0.  0.
         12    1    1    2    0    0 -0.16159089075E+02  0.20158373413E+02 -0.31395672131E+02  0.40659124523E+02  0.00000000000E+00 0. -1.
         11    1    3    3    0    0 -0.48523012146E+01 -0.11848688311E+02  0.41470860202E+01  0.13458624168E+02  0.51100000000E-03 0. -1.
        -11    1    3    3    0    0 -0.85551261347E+00 -0.51060588668E+00 -0.30305354929E+00  0.10413750132E+01  0.51100000000E-03 0.  1.
        -12    1    3    3    0    0  0.21866902903E+02 -0.77990792150E+01  0.27551639660E+02  0.36028876296E+02  0.00000000000E+00 0.  1.
</event>
<event>
 7    1  0.5290964E-013  0.5052886E+02  0.7816164E-02  0.1300439E+00
        -11   -1    0    0    0    0  0.00000000000E+00  0.00000000000E+00  0.45593999997E+02  0.45594000000E+02  0.51100000000E-03 0. -1.
         11   -1    0    0    0    0 -0.00000000000E+00 -0.00000000000E+00 -0.45593999997E+02  0.45594000000E+02  0.51100000000E-03 0.  1.
    9900012    2    1    2    0    0  0.22099341654E+02  0.33796385942E+02 -0.47528160348E+01  0.50528857553E+02  0.29999993018E+02 0.  0.
         12    1    1    2    0    0 -0.22099341654E+02 -0.33796385942E+02  0.47528160348E+01  0.40659142447E+02  0.00000000000E+00 0. -1.
         11    1    3    3    0    0  0.54274202971E+01  0.24143736359E+01 -0.27050130636E+01  0.65271116943E+01  0.51100000000E-03 0. -1.
        -11    1    3    3    0    0 -0.22483934372E+00 -0.26289494731E+01 -0.52646398317E+01  0.58888335757E+01  0.51100000000E-03 0.  1.
         12    1    3    3    0    0  0.16896760700E+02  0.34010961779E+02  0.32168368606E+01  0.38112912283E+02  0.00000000000E+00 0. -1.
</event>
<event>
 7    1  0.5290964E-013  0.5052886E+02  0.7816164E-02  0.1300439E+00
        -11   -1    0    0    0    0  0.00000000000E+00  0.00000000000E+00  0.45593999997E+02  0.45594000000E+02  0.51100000000E-03 0.  1.
         11   -1    0    0    0    0 -0.00000000000E+00 -0.00000000000E+00 -0.45593999997E+02  0.45594000000E+02  0.51100000000E-03 0. -1.
    9900012    2    1    2    0    0 -0.18364578216E+02  0.32281125234E+01  0.36131523940E+02  0.50528862457E+02  0.30000007923E+02 0.  0.
         12    1    1    2    0    0  0.18364578216E+02 -0.32281125234E+01 -0.36131523940E+02  0.40659137543E+02  0.00000000000E+00 0. -1.
         11    1    3    3    0    0 -0.59181788929E+01  0.34710175214E+01  0.91387721281E+01  0.11427596436E+02  0.51100000000E-03 0. -1.
        -11    1    3    3    0    0 -0.38282269321E+01  0.67293730243E+01  0.26924684096E+02  0.28015681264E+02  0.51100000000E-03 0.  1.
         12    1    3    3    0    0 -0.86181723908E+01 -0.69722780223E+01  0.68067716199E-01  0.11085584756E+02  0.00000000000E+00 0. -1.
</event>
<event>
 7    1  0.5290964E-013  0.5052885E+02  0.7816164E-02  0.1300439E+00
        -11   -1    0    0    0    0  0.00000000000E+00  0.00000000000E+00  0.45593999997E+02  0.45594000000E+02  0.51100000000E-03 0. -1.
         11   -1    0    0    0    0 -0.00000000000E+00 -0.00000000000E+00 -0.45593999997E+02  0.45594000000E+02  0.51100000000E-03 0.  1.
    9900012    2    1    2    0    0 -0.86881646388E+01  0.38731021010E+02 -0.88085419111E+01  0.50528848461E+02  0.29999965382E+02 0.  0.
         12    1    1    2    0    0  0.86881646388E+01 -0.38731021010E+02  0.88085419111E+01  0.40659151539E+02  0.00000000000E+00 0. -1.
         11    1    3    3    0    0  0.82696235187E+00  0.18935192478E+02 -0.12745648451E+01  0.18996049503E+02  0.51100000000E-03 0.  1.
        -11    1    3    3    0    0 -0.15300625663E+02  0.77850179708E+01 -0.56243139323E+01  0.18065119926E+02  0.51100000000E-03 0. -1.
         12    1    3    3    0    0  0.57854986722E+01  0.12010810561E+02 -0.19096631337E+01  0.13467679032E+02  0.00000000000E+00 0. -1.
</event>
<event>
 7    1  0.5290964E-013  0.5052887E+02  0.7816164E-02  0.1300439E+00
        -11   -1    0    0    0    0  0.00000000000E+00  0.00000000000E+00  0.45593999997E+02  0.45594000000E+02  0.51100000000E-03 0.  1.
         11   -1    0    0    0    0 -0.00000000000E+00 -0.00000000000E+00 -0.45593999997E+02  0.45594000000E+02  0.51100000000E-03 0. -1.
    9900012    2    1    2    0    0 -0.12356836185E+02 -0.23874837166E+02  0.30503538215E+02  0.50528867030E+02  0.30000021824E+02 0.  0.
         12    1    1    2    0    0  0.12356836185E+02  0.23874837166E+02 -0.30503538215E+02  0.40659132970E+02  0.00000000000E+00 0. -1.
         11    1    3    3    0    0 -0.57557991164E+01 -0.17108250926E+02  0.84602434109E+01  0.19934823602E+02  0.51100000000E-03 0. -1.
        -11    1    3    3    0    0  0.22310469960E+01 -0.11137230332E+02  0.11571391160E+02  0.16214578743E+02  0.51100000000E-03 0.  1.
         12    1    3    3    0    0 -0.88320840649E+01  0.43706440914E+01  0.10471903644E+02  0.14379464685E+02  0.00000000000E+00 0. -1.
</event>
<event>
 7    1  0.5290964E-013  0.5052886E+02  0.7816164E-02  0.1300439E+00
        -11   -1    0    0    0    0  0.00000000000E+00  0.00000000000E+00  0.45593999997E+02  0.45594000000E+02  0.51100000000E-03 0. -1.
         11   -1    0    0    0    0 -0.00000000000E+00 -0.00000000000E+00 -0.45593999997E+02  0.45594000000E+02  0.51100000000E-03 0.  1.
    9900012    2    1    2    0    0  0.15509068381E+01  0.13469612035E+02 -0.38331838222E+02  0.50528861029E+02  0.30000003585E+02 0.  0.
         12    1    1    2    0    0 -0.15509068381E+01 -0.13469612035E+02  0.38331838222E+02  0.40659138971E+02  0.00000000000E+00 0. -1.
         11    1    3    3    0    0 -0.84620210504E+01 -0.20184386665E+00 -0.15337581343E+02  0.17518217458E+02  0.51100000000E-03 0. -1.
        -11    1    3    3    0    0 -0.14467430261E+01 -0.30540753239E+01 -0.38933439155E+01  0.51554406769E+01  0.51100000000E-03 0.  1.
        -12    1    3    3    0    0  0.11459670915E+02  0.16725531225E+02 -0.19100912963E+02  0.27855202894E+02  0.00000000000E+00 0.  1.
</event>
<event>
 7    1  0.5290964E-013  0.5052885E+02  0.7816164E-02  0.1300439E+00
        -11   -1    0    0    0    0  0.00000000000E+00  0.00000000000E+00  0.45593999997E+02  0.45594000000E+02  0.51100000000E-03 0.  1.
         11   -1    0    0    0    0 -0.00000000000E+00 -0.00000000000E+00 -0.45593999997E+02  0.45594000000E+02  0.51100000000E-03 0. -1.
    9900012    2    1    2    0    0 -0.38425554632E+02 -0.59625437811E+01 -0.11878175590E+02  0.50528853028E+02  0.29999979265E+02 0.  0.
         12    1    1    2    0    0  0.38425554632E+02  0.59625437811E+01  0.11878175590E+02  0.40659146972E+02  0.00000000000E+00 0. -1.
         11    1    3    3    0    0 -0.20953592788E+02 -0.61868093625E+01 -0.54923476426E+01  0.22527661745E+02  0.51100000000E-03 0. -1.
        -11    1    3    3    0    0 -0.18823065208E+02 -0.23841311581E+01  0.20354038869E+01  0.19082314703E+02  0.51100000000E-03 0.  1.
         12    1    3    3    0    0  0.13511033634E+01  0.26083967394E+01 -0.84212318346E+01  0.89188765806E+01  0.00000000000E+00 0. -1.
</event>
<event>
 7    1  0.5290964E-013  0.5052877E+02  0.7816164E-02  0.1300439E+00
        -11   -1    0    0    0    0  0.00000000000E+00  0.00000000000E+00  0.45593999997E+02  0.45594000000E+02  0.51100000000E-03 0.  1.
         11   -1    0    0    0    0 -0.00000000000E+00 -0.00000000000E+00 -0.45593999997E+02  0.45594000000E+02  0.51100000000E-03 0. -1.
    9900012    2    1    2    0    0 -0.27614342876E+02  0.29785090707E+02  0.18625361414E+01  0.50528774703E+02  0.29999741186E+02 0.  0.
         12    1    1    2    0    0  0.27614342876E+02 -0.29785090707E+02 -0.18625361414E+01  0.40659225297E+02  0.00000000000E+00 0. -1.
         11    1    3    3    0    0 -0.33625268271E+00  0.99718543124E+01  0.13266629058E+01  0.10065335515E+02  0.51100000000E-03 0. -1.
        -11    1    3    3    0    0 -0.18434535256E+00  0.26311184284E+00  0.65141318804E+01  0.65220491770E+01  0.51100000000E-03 0.  1.
        -12    1    3    3    0    0 -0.27093744841E+02  0.19550124551E+02 -0.59782586448E+01  0.33941390011E+02  0.00000000000E+00 0.  1.
</event>
<event>
 7    1  0.5290964E-013  0.5052887E+02  0.7816164E-02  0.1300439E+00
        -11   -1    0    0    0    0  0.00000000000E+00  0.00000000000E+00  0.45593999997E+02  0.45594000000E+02  0.51100000000E-03 0. -1.
         11   -1    0    0    0    0 -0.00000000000E+00 -0.00000000000E+00 -0.45593999997E+02  0.45594000000E+02  0.51100000000E-03 0.  1.
    9900012    2    1    2    0    0 -0.11641072569E+02  0.16524162089E+02 -0.35278923745E+02  0.50528868629E+02  0.30000026684E+02 0.  0.
         12    1    1    2    0    0  0.11641072569E+02 -0.16524162089E+02  0.35278923745E+02  0.40659131371E+02  0.00000000000E+00 0. -1.
         11    1    3    3    0    0  0.12820023076E+01  0.88227714686E+01 -0.98552453174E+01  0.13289495356E+02  0.51100000000E-03 0. -1.
        -11    1    3    3    0    0 -0.51142156311E+01  0.15361687686E+02 -0.13749854657E+02  0.21241354792E+02  0.51100000000E-03 0.  1.
         12    1    3    3    0    0 -0.78088592456E+01 -0.76602970657E+01 -0.11673823771E+02  0.15998018480E+02  0.00000000000E+00 0. -1.
</event>
<event>
 7    1  0.5290964E-013  0.5052886E+02  0.7816164E-02  0.1300439E+00
        -11   -1    0    0    0    0  0.00000000000E+00  0.00000000000E+00  0.45593999997E+02  0.45594000000E+02  0.51100000000E-03 0.  1.
         11   -1    0    0    0    0 -0.00000000000E+00 -0.00000000000E+00 -0.45593999997E+02  0.45594000000E+02  0.51100000000E-03 0. -1.
    9900012    2    1    2    0    0  0.26165153253E+02 -0.63807448244E+01  0.30460406852E+02  0.50528861607E+02  0.30000005341E+02 0.  0.
         12    1    1    2    0    0 -0.26165153253E+02  0.63807448244E+01 -0.30460406852E+02  0.40659138393E+02  0.00000000000E+00 0. -1.
         11    1    3    3    0    0  0.49471610447E+01 -0.20004838522E+01 -0.35025770623E+01  0.63831328033E+01  0.51100000000E-03 0. -1.
        -11    1    3    3    0    0  0.17815111486E+02  0.29398615354E+01  0.14781425195E+02  0.23334770497E+02  0.51100000000E-03 0.  1.
        -12    1    3    3    0    0  0.34028807227E+01 -0.73201225076E+01  0.19181558719E+02  0.20810958306E+02  0.00000000000E+00 0.  1.
</event>
<event>
 7    1  0.5290964E-013  0.5052886E+02  0.7816164E-02  0.1300439E+00
        -11   -1    0    0    0    0  0.00000000000E+00  0.00000000000E+00  0.45593999997E+02  0.45594000000E+02  0.51100000000E-03 0.  1.
         11   -1    0    0    0    0 -0.00000000000E+00 -0.00000000000E+00 -0.45593999997E+02  0.45594000000E+02  0.51100000000E-03 0. -1.
    9900012    2    1    2    0    0 -0.30341771447E+02 -0.76928679361E+00  0.27054590495E+02  0.50528858795E+02  0.29999996792E+02 0.  0.
         12    1    1    2    0    0  0.30341771447E+02  0.76928679361E+00 -0.27054590495E+02  0.40659141205E+02  0.00000000000E+00 0. -1.
         11    1    3    3    0    0 -0.26073887038E+01 -0.71990025808E+01  0.26851048696E+01  0.81138093663E+01  0.51100000000E-03 0. -1.
        -11    1    3    3    0    0 -0.52964365065E+01 -0.12239633030E+01  0.16599363020E+02  0.17466802190E+02  0.51100000000E-03 0.  1.
         12    1    3    3    0    0 -0.22437946237E+02  0.76536790901E+01  0.77701226053E+01  0.24948247238E+02  0.00000000000E+00 0. -1.
</event>
<event>
 7    1  0.5290964E-013  0.5052886E+02  0.7816164E-02  0.1300439E+00
        -11   -1    0    0    0    0  0.00000000000E+00  0.00000000000E+00  0.45593999997E+02  0.45594000000E+02  0.51100000000E-03 0.  1.
         11   -1    0    0    0    0 -0.00000000000E+00 -0.00000000000E+00 -0.45593999997E+02  0.45594000000E+02  0.51100000000E-03 0. -1.
    9900012    2    1    2    0    0 -0.90349414609E+01  0.34823103113E+02  0.18944302403E+02  0.50528864850E+02  0.30000015197E+02 0.  0.
         12    1    1    2    0    0  0.90349414609E+01 -0.34823103113E+02 -0.18944302403E+02  0.40659135150E+02  0.00000000000E+00 0. -1.
         11    1    3    3    0    0  0.47394787509E+01  0.48167099677E+01  0.12742351332E+01  0.68765564914E+01  0.51100000000E-03 0. -1.
        -11    1    3    3    0    0  0.33676447406E+01  0.19064010701E+02  0.63317014669E+01  0.20368308198E+02  0.51100000000E-03 0.  1.
        -12    1    3    3    0    0 -0.17142064952E+02  0.10942382445E+02  0.11338365803E+02  0.23284000160E+02  0.00000000000E+00 0.  1.
</event>
<event>
 7    1  0.5290964E-013  0.5052886E+02  0.7816164E-02  0.1300439E+00
        -11   -1    0    0    0    0  0.00000000000E+00  0.00000000000E+00  0.45593999997E+02  0.45594000000E+02  0.51100000000E-03 0.  1.
         11   -1    0    0    0    0 -0.00000000000E+00 -0.00000000000E+00 -0.45593999997E+02  0.45594000000E+02  0.51100000000E-03 0. -1.
    9900012    2    1    2    0    0 -0.22235615951E+02 -0.86329647838E+01  0.32927423418E+02  0.50528856987E+02  0.29999991297E+02 0.  0.
         12    1    1    2    0    0  0.22235615951E+02  0.86329647838E+01 -0.32927423418E+02  0.40659143013E+02  0.00000000000E+00 0. -1.
         11    1    3    3    0    0 -0.53623821888E+01  0.75455704503E+01  0.98389126025E+01  0.13509070198E+02  0.51100000000E-03 0. -1.
        -11    1    3    3    0    0 -0.12814094985E+02 -0.60867771755E+00  0.10906525889E+02  0.16838165758E+02  0.51100000000E-03 0.  1.
         12    1    3    3    0    0 -0.40591387764E+01 -0.15569857516E+02  0.12181984926E+02  0.20181621031E+02  0.00000000000E+00 0. -1.
</event>
<event>
 7    1  0.5290964E-013  0.5052883E+02  0.7816164E-02  0.1300439E+00
        -11   -1    0    0    0    0  0.00000000000E+00  0.00000000000E+00  0.45593999997E+02  0.45594000000E+02  0.51100000000E-03 0.  1.
         11   -1    0    0    0    0 -0.00000000000E+00 -0.00000000000E+00 -0.45593999997E+02  0.45594000000E+02  0.51100000000E-03 0. -1.
    9900012    2    1    2    0    0 -0.21037908692E+02 -0.15216177134E+02  0.31289653223E+02  0.50528830708E+02  0.29999911420E+02 0.  0.
         12    1    1    2    0    0  0.21037908692E+02  0.15216177134E+02 -0.31289653223E+02  0.40659169292E+02  0.00000000000E+00 0. -1.
         11    1    3    3    0    0 -0.13082356593E+02 -0.19523327377E+02  0.23571283225E+02  0.33285338500E+02  0.51100000000E-03 0. -1.
        -11    1    3    3    0    0 -0.49334797733E+01 -0.23201850124E+01  0.83066308425E+01  0.99359245861E+01  0.51100000000E-03 0.  1.
         12    1    3    3    0    0 -0.30220723257E+01  0.66273352555E+01 -0.58826084516E+00  0.73075676221E+01  0.00000000000E+00 0. -1.
</event>
<event>
 7    1  0.5290964E-013  0.5052886E+02  0.7816164E-02  0.1300439E+00
        -11   -1    0    0    0    0  0.00000000000E+00  0.00000000000E+00  0.45593999997E+02  0.45594000000E+02  0.51100000000E-03 0. -1.
         11   -1    0    0    0    0 -0.00000000000E+00 -0.00000000000E+00 -0.45593999997E+02  0.45594000000E+02  0.51100000000E-03 0.  1.
    9900012    2    1    2    0    0  0.27301906919E+02 -0.47143282009E+01 -0.29758140837E+02  0.50528856405E+02  0.29999989528E+02 0.  0.
         12    1    1    2    0    0 -0.27301906919E+02  0.47143282009E+01  0.29758140837E+02  0.40659143595E+02  0.00000000000E+00 0. -1.
         11    1    3    3    0    0  0.80230832822E+01 -0.59822370772E+01  0.15381218511E+00  0.10009030135E+02  0.51100000000E-03 0. -1.
        -11    1    3    3    0    0  0.11432567927E+02 -0.23134892739E+01 -0.26986238862E+01  0.11972402147E+02  0.51100000000E-03 0.  1.
         12    1    3    3    0    0  0.78462557102E+01  0.35813981502E+01 -0.27213329136E+02  0.28547424123E+02  0.00000000000E+00 0. -1.
</event>
<event>
 7    1  0.5290964E-013  0.5052886E+02  0.7816164E-02  0.1300439E+00
        -11   -1    0    0    0    0  0.00000000000E+00  0.00000000000E+00  0.45593999997E+02  0.45594000000E+02  0.51100000000E-03 0.  1.
         11   -1    0    0    0    0 -0.00000000000E+00 -0.00000000000E+00 -0.45593999997E+02  0.45594000000E+02  0.51100000000E-03 0. -1.
    9900012    2    1    2    0    0 -0.28989268120E+02  0.18922927863E+02  0.21323944220E+02  0.50528862501E+02  0.30000008057E+02 0.  0.
         12    1    1    2    0    0  0.28989268120E+02 -0.18922927863E+02 -0.21323944220E+02  0.40659137499E+02  0.00000000000E+00 0. -1.
         11    1    3    3    0    0  0.12223091064E+01 -0.31527221488E+01 -0.24747639213E+00  0.33904190485E+01  0.51100000000E-03 0. -1.
        -11    1    3    3    0    0 -0.12374356551E+02  0.16088113956E+02  0.26749670818E+01  0.20472116643E+02  0.51100000000E-03 0.  1.
         12    1    3    3    0    0 -0.17837220675E+02  0.59875360564E+01  0.18896453531E+02  0.26666326809E+02  0.00000000000E+00 0. -1.
</event>
<event>
 7    1  0.5290964E-013  0.5052886E+02  0.7816164E-02  0.1300439E+00
        -11   -1    0    0    0    0  0.00000000000E+00  0.00000000000E+00  0.45593999997E+02  0.45594000000E+02  0.51100000000E-03 0.  1.
         11   -1    0    0    0    0 -0.00000000000E+00 -0.00000000000E+00 -0.45593999997E+02  0.45594000000E+02  0.51100000000E-03 0. -1.
    9900012    2    1    2    0    0  0.21681809760E+02 -0.66646090214E+01  0.33743852850E+02  0.50528862121E+02  0.30000006904E+02 0.  0.
         12    1    1    2    0    0 -0.21681809760E+02  0.66646090214E+01 -0.33743852850E+02  0.40659137879E+02  0.00000000000E+00 0. -1.
         11    1    3    3    0    0  0.75230559658E+01 -0.22808824048E+01 -0.53700748136E+00  0.78795414146E+01  0.51100000000E-03 0. -1.
        -11    1    3    3    0    0  0.12267985794E+02 -0.85502109111E+01  0.10113110801E+02  0.18052273884E+02  0.51100000000E-03 0.  1.
         12    1    3    3    0    0  0.18907680001E+01  0.41664842944E+01  0.24167749531E+02  0.24597046822E+02  0.00000000000E+00 0. -1.
</event>
<event>
 7    1  0.5290964E-013  0.5052881E+02  0.7816164E-02  0.1300439E+00
        -11   -1    0    0    0    0  0.00000000000E+00  0.00000000000E+00  0.45593999997E+02  0.45594000000E+02  0.51100000000E-03 0. -1.
         11   -1    0    0    0    0 -0.00000000000E+00 -0.00000000000E+00 -0.45593999997E+02  0.45594000000E+02  0.51100000000E-03 0.  1.
    9900012    2    1    2    0    0 -0.29755222871E+02 -0.12831825573E+02  0.24558919703E+02  0.50528811954E+02  0.29999854414E+02 0.  0.
         12    1    1    2    0    0  0.29755222871E+02  0.12831825573E+02 -0.24558919703E+02  0.40659188046E+02  0.00000000000E+00 0. -1.
         11    1    3    3    0    0 -0.20080638008E+01  0.43277638619E+01  0.39131104443E+01  0.61704370901E+01  0.51100000000E-03 0. -1.
        -11    1    3    3    0    0 -0.12110392290E+02  0.41352125427E+01  0.77373437379E+01  0.14954199162E+02  0.51100000000E-03 0.  1.
         12    1    3    3    0    0 -0.15636766780E+02 -0.21294801978E+02  0.12908465521E+02  0.29404175702E+02  0.00000000000E+00 0. -1.
</event>
<event>
 7    1  0.5290964E-013  0.5052889E+02  0.7816164E-02  0.1300439E+00
        -11   -1    0    0    0    0  0.00000000000E+00  0.00000000000E+00  0.45593999997E+02  0.45594000000E+02  0.51100000000E-03 0. -1.
         11   -1    0    0    0    0 -0.00000000000E+00 -0.00000000000E+00 -0.45593999997E+02  0.45594000000E+02  0.51100000000E-03 0.  1.
    9900012    2    1    2    0    0  0.41072164645E+01 -0.28966999747E+02  0.28234852287E+02  0.50528890503E+02  0.30000093172E+02 0.  0.
         12    1    1    2    0    0 -0.41072164645E+01  0.28966999747E+02 -0.28234852287E+02  0.40659109497E+02  0.00000000000E+00 0. -1.
         11    1    3    3    0    0  0.59216417412E+01 -0.15474868308E+02  0.89178866488E+01  0.18816644031E+02  0.51100000000E-03 0. -1.
        -11    1    3    3    0    0  0.17332662627E+01 -0.17159528455E+02  0.74353426340E+01  0.18781319152E+02  0.51100000000E-03 0.  1.
         12    1    3    3    0    0 -0.35476915394E+01  0.36673970157E+01  0.11881623004E+02  0.12930927320E+02  0.00000000000E+00 0. -1.
</event>
<event>
 7    1  0.5290964E-013  0.5052886E+02  0.7816164E-02  0.1300439E+00
        -11   -1    0    0    0    0  0.00000000000E+00  0.00000000000E+00  0.45593999997E+02  0.45594000000E+02  0.51100000000E-03 0.  1.
         11   -1    0    0    0    0 -0.00000000000E+00 -0.00000000000E+00 -0.45593999997E+02  0.45594000000E+02  0.51100000000E-03 0. -1.
    9900012    2    1    2    0    0 -0.18885144857E+02  0.84229295846E+01  0.35008154574E+02  0.50528864179E+02  0.30000013157E+02 0.  0.
         12    1    1    2    0    0  0.18885144857E+02 -0.84229295846E+01 -0.35008154574E+02  0.40659135821E+02  0.00000000000E+00 0. -1.
         11    1    3    3    0    0 -0.69331897542E+01  0.14488772492E+02  0.12597207421E+02  0.20412821548E+02  0.51100000000E-03 0. -1.
        -11    1    3    3    0    0 -0.11288471074E+02  0.16624530994E+01  0.17642795982E+02  0.21010987122E+02  0.51100000000E-03 0.  1.
         12    1    3    3    0    0 -0.66348402920E+00 -0.77282960069E+01  0.47681511710E+01  0.91050555087E+01  0.00000000000E+00 0. -1.
</event>
<event>
 7    1  0.5290964E-013  0.5052887E+02  0.7816164E-02  0.1300439E+00
        -11   -1    0    0    0    0  0.00000000000E+00  0.00000000000E+00  0.45593999997E+02  0.45594000000E+02  0.51100000000E-03 0.  1.
         11   -1    0    0    0    0 -0.00000000000E+00 -0.00000000000E+00 -0.45593999997E+02  0.45594000000E+02  0.51100000000E-03 0. -1.
    9900012    2    1    2    0    0 -0.37115408393E+02  0.12790270887E+02 -0.10583971402E+02  0.50528867936E+02  0.30000024578E+02 0.  0.
         12    1    1    2    0    0  0.37115408393E+02 -0.12790270887E+02  0.10583971402E+02  0.40659132064E+02  0.00000000000E+00 0. -1.
         11    1    3    3    0    0  0.69568361960E+00  0.39018577842E+01 -0.44442729568E+01  0.59548326796E+01  0.51100000000E-03 0. -1.
        -11    1    3    3    0    0 -0.39704693254E+01  0.90806209458E+01  0.10860488715E+01  0.99700454281E+01  0.51100000000E-03 0.  1.
         12    1    3    3    0    0 -0.33840622688E+02 -0.19220784329E+00 -0.72257473169E+01  0.34603989828E+02  0.00000000000E+00 0. -1.
</event>
<event>
 7    1  0.5290964E-013  0.5052887E+02  0.7816164E-02  0.1300439E+00
        -11   -1    0    0    0    0  0.00000000000E+00  0.00000000000E+00  0.45593999997E+02  0.45594000000E+02  0.51100000000E-03 0.  1.
         11   -1    0    0    0    0 -0.00000000000E+00 -0.00000000000E+00 -0.45593999997E+02  0.45594000000E+02  0.51100000000E-03 0. -1.
    9900012    2    1    2    0    0 -0.97347211547E+01  0.27596036130E+02  0.28228689432E+02  0.50528869252E+02  0.30000028580E+02 0.  0.
         12    1    1    2    0    0  0.97347211547E+01 -0.27596036130E+02 -0.28228689432E+02  0.40659130748E+02  0.00000000000E+00 0. -1.
         11    1    3    3    0    0 -0.58364622084E+01  0.45201623901E+01  0.44682398805E+00  0.73956616391E+01  0.51100000000E-03 0. -1.
        -11    1    3    3    0    0 -0.26241520642E+01 -0.43402892217E+01  0.19223144503E+01  0.54239817193E+01  0.51100000000E-03 0.  1.
        -12    1    3    3    0    0 -0.12741068820E+01  0.27416162962E+02  0.25859550994E+02  0.37709225894E+02  0.00000000000E+00 0.  1.
</event>
<event>
 7    1  0.5290964E-013  0.5052886E+02  0.7816164E-02  0.1300439E+00
        -11   -1    0    0    0    0  0.00000000000E+00  0.00000000000E+00  0.45593999997E+02  0.45594000000E+02  0.51100000000E-03 0. -1.
         11   -1    0    0    0    0 -0.00000000000E+00 -0.00000000000E+00 -0.45593999997E+02  0.45594000000E+02  0.51100000000E-03 0.  1.
    9900012    2    1    2    0    0  0.18030943339E+02  0.21295319320E+02 -0.29572956365E+02  0.50528864609E+02  0.30000014465E+02 0.  0.
         12    1    1    2    0    0 -0.18030943339E+02 -0.21295319320E+02  0.29572956365E+02  0.40659135391E+02  0.00000000000E+00 0. -1.
         11    1    3    3    0    0  0.13461357403E+01  0.10781536807E+01  0.28060546070E+01  0.32936969364E+01  0.51100000000E-03 0. -1.
        -11    1    3    3    0    0  0.81825267538E+01  0.23027523912E+02 -0.28311286050E+02  0.37399859888E+02  0.51100000000E-03 0.  1.
         12    1    3    3    0    0  0.85022808445E+01 -0.28103582728E+01 -0.40677249216E+01  0.98353077846E+01  0.00000000000E+00 0. -1.
</event>
<event>
 7    1  0.5290964E-013  0.5052886E+02  0.7816164E-02  0.1300439E+00
        -11   -1    0    0    0    0  0.00000000000E+00  0.00000000000E+00  0.45593999997E+02  0.45594000000E+02  0.51100000000E-03 0. -1.
         11   -1    0    0    0    0 -0.00000000000E+00 -0.00000000000E+00 -0.45593999997E+02  0.45594000000E+02  0.51100000000E-03 0.  1.
    9900012    2    1    2    0    0  0.11507007691E+02 -0.17550339351E+02 -0.34824417506E+02  0.50528859675E+02  0.29999999467E+02 0.  0.
         12    1    1    2    0    0 -0.11507007691E+02  0.17550339351E+02  0.34824417506E+02  0.40659140325E+02  0.00000000000E+00 0. -1.
         11    1    3    3    0    0  0.10416653007E+01 -0.17463889228E+01  0.85177772050E+00  0.22046465509E+01  0.51100000000E-03 0. -1.
        -11    1    3    3    0    0  0.10509223524E+02 -0.22392438800E+02 -0.21833173785E+02  0.32993220095E+02  0.51100000000E-03 0.  1.
         12    1    3    3    0    0 -0.43881133901E-01  0.65884883720E+01 -0.13843021442E+02  0.15330993028E+02  0.00000000000E+00 0. -1.
</event>
<event>
 7    1  0.5290964E-013  0.5052886E+02  0.7816164E-02  0.1300439E+00
        -11   -1    0    0    0    0  0.00000000000E+00  0.00000000000E+00  0.45593999997E+02  0.45594000000E+02  0.51100000000E-03 0.  1.
         11   -1    0    0    0    0 -0.00000000000E+00 -0.00000000000E+00 -0.45593999997E+02  0.45594000000E+02  0.51100000000E-03 0. -1.
    9900012    2    1    2    0    0 -0.22115935726E+02 -0.23590318866E+02  0.24648485740E+02  0.50528860726E+02  0.30000002663E+02 0.  0.
         12    1    1    2    0    0  0.22115935726E+02  0.23590318866E+02 -0.24648485740E+02  0.40659139274E+02  0.00000000000E+00 0. -1.
         11    1    3    3    0    0 -0.18810978758E+02 -0.93425097911E+01  0.85547104598E+01  0.22678590837E+02  0.51100000000E-03 0. -1.
        -11    1    3    3    0    0 -0.57551091449E+01 -0.17156089313E+02  0.10021037846E+02  0.20685112558E+02  0.51100000000E-03 0.  1.
        -12    1    3    3    0    0  0.24501521769E+01  0.29082802379E+01  0.60727374339E+01  0.71651573306E+01  0.00000000000E+00 0.  1.
</event>
<event>
 7    1  0.5290964E-013  0.5052886E+02  0.7816164E-02  0.1300439E+00
        -11   -1    0    0    0    0  0.00000000000E+00  0.00000000000E+00  0.45593999997E+02  0.45594000000E+02  0.51100000000E-03 0.  1.
         11   -1    0    0    0    0 -0.00000000000E+00 -0.00000000000E+00 -0.45593999997E+02  0.45594000000E+02  0.51100000000E-03 0. -1.
    9900012    2    1    2    0    0  0.32153263789E+02  0.22832292714E+02  0.99004863045E+01  0.50528860905E+02  0.30000003208E+02 0.  0.
         12    1    1    2    0    0 -0.32153263789E+02 -0.22832292714E+02 -0.99004863045E+01  0.40659139095E+02  0.00000000000E+00 0. -1.
         11    1    3    3    0    0  0.26788048355E+02  0.18573529107E+02  0.16607407725E+02  0.36583896864E+02  0.51100000000E-03 0.  1.
        -11    1    3    3    0    0 -0.25844239678E+00  0.57733671148E+00  0.24813153588E+01  0.25606710687E+01  0.51100000000E-03 0. -1.
         12    1    3    3    0    0  0.56236578306E+01  0.36814268957E+01 -0.91882367792E+01  0.11384292973E+02  0.00000000000E+00 0. -1.
</event>
<event>
 7    1  0.5290964E-013  0.5052886E+02  0.7816164E-02  0.1300439E+00
        -11   -1    0    0    0    0  0.00000000000E+00  0.00000000000E+00  0.45593999997E+02  0.45594000000E+02  0.51100000000E-03 0.  1.
         11   -1    0    0    0    0 -0.00000000000E+00 -0.00000000000E+00 -0.45593999997E+02  0.45594000000E+02  0.51100000000E-03 0. -1.
    9900012    2    1    2    0    0  0.35502707413E+02  0.19327156710E+02  0.43800027275E+01  0.50528860264E+02  0.30000001259E+02 0.  0.
         12    1    1    2    0    0 -0.35502707413E+02 -0.19327156710E+02 -0.43800027275E+01  0.40659139736E+02  0.00000000000E+00 0. -1.
         11    1    3    3    0    0 -0.52608766989E+00  0.26039762892E+01 -0.51770201201E+01  0.58188485404E+01  0.51100000000E-03 0. -1.
        -11    1    3    3    0    0  0.17537489995E+02 -0.15766689358E+01  0.49379991314E+01  0.18287516943E+02  0.51100000000E-03 0.  1.
        -12    1    3    3    0    0  0.18491305088E+02  0.18299849357E+02  0.46190237162E+01  0.26422494781E+02  0.00000000000E+00 0.  1.
</event>
<event>
 7    1  0.5290964E-013  0.5052885E+02  0.7816164E-02  0.1300439E+00
        -11   -1    0    0    0    0  0.00000000000E+00  0.00000000000E+00  0.45593999997E+02  0.45594000000E+02  0.51100000000E-03 0.  1.
         11   -1    0    0    0    0 -0.00000000000E+00 -0.00000000000E+00 -0.45593999997E+02  0.45594000000E+02  0.51100000000E-03 0. -1.
    9900012    2    1    2    0    0 -0.29966398483E+01  0.37496707989E+01  0.40374823421E+02  0.50528852840E+02  0.29999978693E+02 0.  0.
         12    1    1    2    0    0  0.29966398483E+01 -0.37496707989E+01 -0.40374823421E+02  0.40659147160E+02  0.00000000000E+00 0. -1.
         11    1    3    3    0    0 -0.29056401192E+01 -0.81153248222E+01  0.17969201158E+02  0.19929712290E+02  0.51100000000E-03 0. -1.
        -11    1    3    3    0    0  0.27157506159E+01  0.14000572824E+00  0.17289875152E+02  0.17502419434E+02  0.51100000000E-03 0.  1.
         12    1    3    3    0    0 -0.28067503449E+01  0.11724989893E+02  0.51157471118E+01  0.13096721116E+02  0.00000000000E+00 0. -1.
</event>
<event>
 7    1  0.5290964E-013  0.5052886E+02  0.7816164E-02  0.1300439E+00
        -11   -1    0    0    0    0  0.00000000000E+00  0.00000000000E+00  0.45593999997E+02  0.45594000000E+02  0.51100000000E-03 0.  1.
         11   -1    0    0    0    0 -0.00000000000E+00 -0.00000000000E+00 -0.45593999997E+02  0.45594000000E+02  0.51100000000E-03 0. -1.
    9900012    2    1    2    0    0 -0.14242759497E+02 -0.33926343858E+02  0.17300654021E+02  0.50528860373E+02  0.30000001590E+02 0.  0.
         12    1    1    2    0    0  0.14242759497E+02  0.33926343858E+02 -0.17300654021E+02  0.40659139627E+02  0.00000000000E+00 0. -1.
         11    1    3    3    0    0 -0.81812478204E+01 -0.16002363654E+02  0.29884485769E+01  0.18219200959E+02  0.51100000000E-03 0. -1.
        -11    1    3    3    0    0 -0.86313608080E+01 -0.22017128817E+02  0.13965264142E+02  0.27464212232E+02  0.51100000000E-03 0.  1.
         12    1    3    3    0    0  0.25698491315E+01  0.40931486129E+01  0.34694130225E+00  0.48454471820E+01  0.00000000000E+00 0. -1.
</event>
<event>
 7    1  0.5290964E-013  0.5052889E+02  0.7816164E-02  0.1300439E+00
        -11   -1    0    0    0    0  0.00000000000E+00  0.00000000000E+00  0.45593999997E+02  0.45594000000E+02  0.51100000000E-03 0.  1.
         11   -1    0    0    0    0 -0.00000000000E+00 -0.00000000000E+00 -0.45593999997E+02  0.45594000000E+02  0.51100000000E-03 0. -1.
    9900012    2    1    2    0    0 -0.29633817382E+02 -0.39040203644E+01  0.27563723970E+02  0.50528888024E+02  0.30000085637E+02 0.  0.
         12    1    1    2    0    0  0.29633817382E+02  0.39040203644E+01 -0.27563723970E+02  0.40659111976E+02  0.00000000000E+00 0. -1.
         11    1    3    3    0    0  0.10897012155E+01 -0.75685891606E+01  0.35420656482E+01  0.84271715265E+01  0.51100000000E-03 0. -1.
        -11    1    3    3    0    0  0.12606537937E+01 -0.13330336210E+01  0.29551889007E+01  0.34784146277E+01  0.51100000000E-03 0.  1.
        -12    1    3    3    0    0 -0.31984172391E+02  0.49976024172E+01  0.21066469421E+02  0.38623301870E+02  0.00000000000E+00 0.  1.
</event>
<event>
 7    1  0.5290964E-013  0.5052895E+02  0.7816164E-02  0.1300438E+00
        -11   -1    0    0    0    0  0.00000000000E+00  0.00000000000E+00  0.45593999997E+02  0.45594000000E+02  0.51100000000E-03 0.  1.
         11   -1    0    0    0    0 -0.00000000000E+00 -0.00000000000E+00 -0.45593999997E+02  0.45594000000E+02  0.51100000000E-03 0. -1.
    9900012    2    1    2    0    0  0.16696409895E+02  0.18514983070E+02  0.32118270576E+02  0.50528954189E+02  0.30000286753E+02 0.  0.
         12    1    1    2    0    0 -0.16696409895E+02 -0.18514983070E+02 -0.32118270576E+02  0.40659045811E+02  0.00000000000E+00 0. -1.
         11    1    3    3    0    0  0.32041434473E+00  0.38169417194E+01 -0.14873157733E+01  0.41089923232E+01  0.51100000000E-03 0. -1.
        -11    1    3    3    0    0  0.92398940340E+01  0.74967801959E+01  0.62357213191E+00  0.11914956883E+02  0.51100000000E-03 0.  1.
        -12    1    3    3    0    0  0.71361015159E+01  0.72012611550E+01  0.32982014217E+02  0.34505004983E+02  0.00000000000E+00 0.  1.
</event>
<event>
 7    1  0.5290964E-013  0.5052886E+02  0.7816164E-02  0.1300439E+00
        -11   -1    0    0    0    0  0.00000000000E+00  0.00000000000E+00  0.45593999997E+02  0.45594000000E+02  0.51100000000E-03 0.  1.
         11   -1    0    0    0    0 -0.00000000000E+00 -0.00000000000E+00 -0.45593999997E+02  0.45594000000E+02  0.51100000000E-03 0. -1.
    9900012    2    1    2    0    0 -0.75160151812E+01  0.62696274723E+01  0.39463489732E+02  0.50528859150E+02  0.29999997872E+02 0.  0.
         12    1    1    2    0    0  0.75160151812E+01 -0.62696274723E+01 -0.39463489732E+02  0.40659140850E+02  0.00000000000E+00 0. -1.
         11    1    3    3    0    0 -0.37696527769E+01  0.84175426937E+01  0.14806079909E+02  0.17443775669E+02  0.51100000000E-03 0. -1.
        -11    1    3    3    0    0 -0.61446433358E+01 -0.10972436257E+02  0.17072207913E+02  0.21204039295E+02  0.51100000000E-03 0.  1.
         12    1    3    3    0    0  0.23982809316E+01  0.88245210354E+01  0.75852019105E+01  0.11881044186E+02  0.00000000000E+00 0. -1.
</event>
<event>
 7    1  0.5290964E-013  0.5052886E+02  0.7816164E-02  0.1300439E+00
        -11   -1    0    0    0    0  0.00000000000E+00  0.00000000000E+00  0.45593999997E+02  0.45594000000E+02  0.51100000000E-03 0.  1.
         11   -1    0    0    0    0 -0.00000000000E+00 -0.00000000000E+00 -0.45593999997E+02  0.45594000000E+02  0.51100000000E-03 0. -1.
    9900012    2    1    2    0    0 -0.21732650893E+02 -0.21805219427E+02  0.26559176222E+02  0.50528861413E+02  0.30000004750E+02 0.  0.
         12    1    1    2    0    0  0.21732650893E+02  0.21805219427E+02 -0.26559176222E+02  0.40659138587E+02  0.00000000000E+00 0. -1.
         11    1    3    3    0    0  0.59925376225E+00  0.25467407208E+01  0.21686267264E+01  0.33982253472E+01  0.51100000000E-03 0. -1.
        -11    1    3    3    0    0 -0.79772599977E+01  0.37146401199E+01  0.50345345953E+01  0.10138134303E+02  0.51100000000E-03 0.  1.
        -12    1    3    3    0    0 -0.14354644657E+02 -0.28066600268E+02  0.19356014900E+02  0.36992501763E+02  0.00000000000E+00 0.  1.
</event>
<event>
 7    1  0.5290964E-013  0.5052885E+02  0.7816164E-02  0.1300439E+00
        -11   -1    0    0    0    0  0.00000000000E+00  0.00000000000E+00  0.45593999997E+02  0.45594000000E+02  0.51100000000E-03 0.  1.
         11   -1    0    0    0    0 -0.00000000000E+00 -0.00000000000E+00 -0.45593999997E+02  0.45594000000E+02  0.51100000000E-03 0. -1.
    9900012    2    1    2    0    0 -0.11501179208E+01 -0.40641748836E+02  0.30272908667E+00  0.50528853863E+02  0.29999981802E+02 0.  0.
         12    1    1    2    0    0  0.11501179208E+01  0.40641748836E+02 -0.30272908667E+00  0.40659146137E+02  0.00000000000E+00 0. -1.
         11    1    3    3    0    0 -0.79607861972E+01 -0.18073414950E+02  0.52438760291E+01  0.20433322806E+02  0.51100000000E-03 0. -1.
        -11    1    3    3    0    0 -0.35792916963E+00 -0.22228374360E+02 -0.54862585252E+01  0.22898204577E+02  0.51100000000E-03 0.  1.
         12    1    3    3    0    0  0.71685974461E+01 -0.33995952646E+00  0.54511158279E+00  0.71973264801E+01  0.00000000000E+00 0. -1.
</event>
<event>
 7    1  0.5290964E-013  0.5052886E+02  0.7816164E-02  0.1300439E+00
        -11   -1    0    0    0    0  0.00000000000E+00  0.00000000000E+00  0.45593999997E+02  0.45594000000E+02  0.51100000000E-03 0. -1.
         11   -1    0    0    0    0 -0.00000000000E+00 -0.00000000000E+00 -0.45593999997E+02  0.45594000000E+02  0.51100000000E-03 0.  1.
    9900012    2    1    2    0    0 -0.14483794954E+02  0.28129023486E+02 -0.25537101975E+02  0.50528857661E+02  0.29999993345E+02 0.  0.
         12    1    1    2    0    0  0.14483794954E+02 -0.28129023486E+02  0.25537101975E+02  0.40659142339E+02  0.00000000000E+00 0. -1.
         11    1    3    3    0    0  0.44738488221E+00  0.70366877147E+00 -0.18104802368E+01  0.19932741712E+01  0.51100000000E-03 0. -1.
        -11    1    3    3    0    0 -0.17122246339E+02  0.20519021556E+02 -0.29104003858E+02  0.39512587946E+02  0.51100000000E-03 0.  1.
         12    1    3    3    0    0  0.21910665032E+01  0.69063331577E+01  0.53773821206E+01  0.90229955435E+01  0.00000000000E+00 0. -1.
</event>
<event>
 7    1  0.5290964E-013  0.5052888E+02  0.7816164E-02  0.1300439E+00
        -11   -1    0    0    0    0  0.00000000000E+00  0.00000000000E+00  0.45593999997E+02  0.45594000000E+02  0.51100000000E-03 0.  1.
         11   -1    0    0    0    0 -0.00000000000E+00 -0.00000000000E+00 -0.45593999997E+02  0.45594000000E+02  0.51100000000E-03 0. -1.
    9900012    2    1    2    0    0 -0.19700391075E+02  0.17149108174E+02  0.31160345106E+02  0.50528875233E+02  0.30000046759E+02 0.  0.
         12    1    1    2    0    0  0.19700391075E+02 -0.17149108174E+02 -0.31160345106E+02  0.40659124767E+02  0.00000000000E+00 0. -1.
         11    1    3    3    0    0 -0.84213479259E+01 -0.52968050230E+01  0.33089353135E+01  0.10484478886E+02  0.51100000000E-03 0. -1.
        -11    1    3    3    0    0  0.23208532636E+01 -0.20942163969E+00  0.18820065581E+01  0.29953574478E+01  0.51100000000E-03 0.  1.
        -12    1    3    3    0    0 -0.13599896413E+02  0.22655334837E+02  0.25969403234E+02  0.37049038899E+02  0.00000000000E+00 0.  1.
</event>
<event>
 7    1  0.5290964E-013  0.5052884E+02  0.7816164E-02  0.1300439E+00
        -11   -1    0    0    0    0  0.00000000000E+00  0.00000000000E+00  0.45593999997E+02  0.45594000000E+02  0.51100000000E-03 0.  1.
         11   -1    0    0    0    0 -0.00000000000E+00 -0.00000000000E+00 -0.45593999997E+02  0.45594000000E+02  0.51100000000E-03 0. -1.
    9900012    2    1    2    0    0 -0.30982755174E+02 -0.26265791055E+02  0.18286768001E+01  0.50528844122E+02  0.29999952192E+02 0.  0.
         12    1    1    2    0    0  0.30982755174E+02  0.26265791055E+02 -0.18286768001E+01  0.40659155878E+02  0.00000000000E+00 0. -1.
         11    1    3    3    0    0 -0.27067435059E+02 -0.15996219960E+02  0.16768791599E+01  0.31485504882E+02  0.51100000000E-03 0. -1.
        -11    1    3    3    0    0 -0.58850193461E+01 -0.13686137162E+02  0.12485055880E+01  0.14950002327E+02  0.51100000000E-03 0.  1.
         12    1    3    3    0    0  0.19696992310E+01  0.34165660677E+01 -0.10967079478E+01  0.40933369123E+01  0.00000000000E+00 0. -1.
</event>
<event>
 7    1  0.5290964E-013  0.5052886E+02  0.7816164E-02  0.1300439E+00
        -11   -1    0    0    0    0  0.00000000000E+00  0.00000000000E+00  0.45593999997E+02  0.45594000000E+02  0.51100000000E-03 0.  1.
         11   -1    0    0    0    0 -0.00000000000E+00 -0.00000000000E+00 -0.45593999997E+02  0.45594000000E+02  0.51100000000E-03 0. -1.
    9900012    2    1    2    0    0 -0.24591426947E+02  0.13439948329E+02  0.29458360407E+02  0.50528862180E+02  0.30000007084E+02 0.  0.
         12    1    1    2    0    0  0.24591426947E+02 -0.13439948329E+02 -0.29458360407E+02  0.40659137820E+02  0.00000000000E+00 0. -1.
         11    1    3    3    0    0 -0.39368761196E+01  0.78572069533E-01 -0.21536665662E+01  0.44881451726E+01  0.51100000000E-03 0. -1.
        -11    1    3    3    0    0 -0.51449387624E+01 -0.39895998183E+01 -0.33111378341E+00  0.65189675699E+01  0.51100000000E-03 0.  1.
        -12    1    3    3    0    0 -0.15509612065E+02  0.17350976078E+02  0.31943140756E+02  0.39521749438E+02  0.00000000000E+00 0.  1.
</event>
<event>
 7    1  0.5290964E-013  0.5052886E+02  0.7816164E-02  0.1300439E+00
        -11   -1    0    0    0    0  0.00000000000E+00  0.00000000000E+00  0.45593999997E+02  0.45594000000E+02  0.51100000000E-03 0.  1.
         11   -1    0    0    0    0 -0.00000000000E+00 -0.00000000000E+00 -0.45593999997E+02  0.45594000000E+02  0.51100000000E-03 0. -1.
    9900012    2    1    2    0    0 -0.34698387339E+02 -0.13071354302E+02 -0.16683153039E+02  0.50528856102E+02  0.29999988606E+02 0.  0.
         12    1    1    2    0    0  0.34698387339E+02  0.13071354302E+02  0.16683153039E+02  0.40659143898E+02  0.00000000000E+00 0. -1.
         11    1    3    3    0    0 -0.20563103001E+02 -0.82360130313E+00 -0.12151495160E+02  0.23899338046E+02  0.51100000000E-03 0. -1.
        -11    1    3    3    0    0 -0.49923895880E+00 -0.50580310932E+01 -0.92104350924E+01  0.10519744908E+02  0.51100000000E-03 0.  1.
        -12    1    3    3    0    0 -0.13636045379E+02 -0.71897219058E+01  0.46787772132E+01  0.16109773148E+02  0.00000000000E+00 0.  1.
</event>
<event>
 7    1  0.5290964E-013  0.5052886E+02  0.7816164E-02  0.1300439E+00
        -11   -1    0    0    0    0  0.00000000000E+00  0.00000000000E+00  0.45593999997E+02  0.45594000000E+02  0.51100000000E-03 0.  1.
         11   -1    0    0    0    0 -0.00000000000E+00 -0.00000000000E+00 -0.45593999997E+02  0.45594000000E+02  0.51100000000E-03 0. -1.
    9900012    2    1    2    0    0  0.11386999875E+02 -0.71972494294E+01  0.38362765745E+02  0.50528856365E+02  0.29999989407E+02 0.  0.
         12    1    1    2    0    0 -0.11386999875E+02  0.71972494294E+01 -0.38362765745E+02  0.40659143635E+02  0.00000000000E+00 0. -1.
         11    1    3    3    0    0  0.74248300755E-01 -0.27375187257E+01 -0.31286095819E+01  0.41578503774E+01  0.51100000000E-03 0. -1.
        -11    1    3    3    0    0 -0.12982115556E+00 -0.71220080901E+01  0.72220861748E+01  0.10143883958E+02  0.51100000000E-03 0.  1.
        -12    1    3    3    0    0  0.11442572730E+02  0.26622773864E+01  0.34269289152E+02  0.36227122030E+02  0.00000000000E+00 0.  1.
</event>
<event>
 7    1  0.5290964E-013  0.5052886E+02  0.7816164E-02  0.1300439E+00
        -11   -1    0    0    0    0  0.00000000000E+00  0.00000000000E+00  0.45593999997E+02  0.45594000000E+02  0.51100000000E-03 0.  1.
         11   -1    0    0    0    0 -0.00000000000E+00 -0.00000000000E+00 -0.45593999997E+02  0.45594000000E+02  0.51100000000E-03 0. -1.
    9900012    2    1    2    0    0 -0.28489202996E+02  0.13408560132E+02  0.25724333077E+02  0.50528862227E+02  0.30000007226E+02 0.  0.
         12    1    1    2    0    0  0.28489202996E+02 -0.13408560132E+02 -0.25724333077E+02  0.40659137773E+02  0.00000000000E+00 0. -1.
         11    1    3    3    0    0 -0.20926947161E+00  0.12923508249E+01 -0.32368417817E+01  0.34915769142E+01  0.51100000000E-03 0. -1.
        -11    1    3    3    0    0 -0.13783123144E+02  0.14692353054E+02  0.85860123213E+01  0.21898843113E+02  0.51100000000E-03 0.  1.
        -12    1    3    3    0    0 -0.14496810380E+02 -0.25761437469E+01  0.20375162538E+02  0.25138442200E+02  0.00000000000E+00 0.  1.
</event>
<event>
 7    1  0.5290964E-013  0.5052886E+02  0.7816164E-02  0.1300439E+00
        -11   -1    0    0    0    0  0.00000000000E+00  0.00000000000E+00  0.45593999997E+02  0.45594000000E+02  0.51100000000E-03 0. -1.
         11   -1    0    0    0    0 -0.00000000000E+00 -0.00000000000E+00 -0.45593999997E+02  0.45594000000E+02  0.51100000000E-03 0.  1.
    9900012    2    1    2    0    0  0.26262964413E+01 -0.26789156405E+02 -0.30473092844E+02  0.50528859314E+02  0.29999998371E+02 0.  0.
         12    1    1    2    0    0 -0.26262964413E+01  0.26789156405E+02  0.30473092844E+02  0.40659140686E+02  0.00000000000E+00 0. -1.
         11    1    3    3    0    0  0.11147850781E+01 -0.20391986955E+02 -0.25638320496E+02  0.32778031604E+02  0.51100000000E-03 0. -1.
        -11    1    3    3    0    0  0.32146109961E+01 -0.93816426405E+01 -0.82544927099E+01  0.12902929615E+02  0.51100000000E-03 0.  1.
         12    1    3    3    0    0 -0.17030996329E+01  0.29844731905E+01  0.34197203620E+01  0.48478980950E+01  0.00000000000E+00 0. -1.
</event>
<event>
 7    1  0.5290964E-013  0.5052887E+02  0.7816164E-02  0.1300439E+00
        -11   -1    0    0    0    0  0.00000000000E+00  0.00000000000E+00  0.45593999997E+02  0.45594000000E+02  0.51100000000E-03 0.  1.
         11   -1    0    0    0    0 -0.00000000000E+00 -0.00000000000E+00 -0.45593999997E+02  0.45594000000E+02  0.51100000000E-03 0. -1.
    9900012    2    1    2    0    0 -0.26972380814E+01 -0.40477733137E+02  0.27282291229E+01  0.50528865635E+02  0.30000017583E+02 0.  0.
         12    1    1    2    0    0  0.26972380814E+01  0.40477733137E+02 -0.27282291229E+01  0.40659134365E+02  0.00000000000E+00 0. -1.
         11    1    3    3    0    0  0.60166560658E+01 -0.18364501700E+02  0.56072345409E+01  0.20122031517E+02  0.51100000000E-03 0. -1.
        -11    1    3    3    0    0 -0.35805984744E+00  0.34016726541E+01 -0.42073236736E+00  0.34462442871E+01  0.51100000000E-03 0.  1.
        -12    1    3    3    0    0 -0.83558342998E+01 -0.25514904091E+02 -0.24582730506E+01  0.26960589830E+02  0.00000000000E+00 0.  1.
</event>
<event>
 7    1  0.5290964E-013  0.5052887E+02  0.7816164E-02  0.1300439E+00
        -11   -1    0    0    0    0  0.00000000000E+00  0.00000000000E+00  0.45593999997E+02  0.45594000000E+02  0.51100000000E-03 0. -1.
         11   -1    0    0    0    0 -0.00000000000E+00 -0.00000000000E+00 -0.45593999997E+02  0.45594000000E+02  0.51100000000E-03 0.  1.
    9900012    2    1    2    0    0  0.25977277549E+01 -0.17429311735E+02 -0.36641989255E+02  0.50528874657E+02  0.30000045009E+02 0.  0.
         12    1    1    2    0    0 -0.25977277549E+01  0.17429311735E+02  0.36641989255E+02  0.40659125343E+02  0.00000000000E+00 0. -1.
         11    1    3    3    0    0 -0.14054320164E+01 -0.99082423415E+01 -0.59537272380E+01  0.11644542659E+02  0.51100000000E-03 0. -1.
        -11    1    3    3    0    0  0.68843246404E+01 -0.66620842697E+01 -0.16867563641E+01  0.97274066361E+01  0.51100000000E-03 0.  1.
        -12    1    3    3    0    0 -0.28811648691E+01 -0.85898512406E+00 -0.29001505653E+02  0.29156925362E+02  0.00000000000E+00 0.  1.
</event>
<event>
 7    1  0.5290964E-013  0.5052887E+02  0.7816164E-02  0.1300439E+00
        -11   -1    0    0    0    0  0.00000000000E+00  0.00000000000E+00  0.45593999997E+02  0.45594000000E+02  0.51100000000E-03 0. -1.
         11   -1    0    0    0    0 -0.00000000000E+00 -0.00000000000E+00 -0.45593999997E+02  0.45594000000E+02  0.51100000000E-03 0.  1.
    9900012    2    1    2    0    0  0.36798364590E+02 -0.16193164842E+02 -0.60685236872E+01  0.50528865678E+02  0.30000017715E+02 0.  0.
         12    1    1    2    0    0 -0.36798364590E+02  0.16193164842E+02  0.60685236872E+01  0.40659134322E+02  0.00000000000E+00 0. -1.
         11    1    3    3    0    0  0.18471199056E+02 -0.15622548061E+01 -0.28971334212E+01  0.18762175166E+02  0.51100000000E-03 0. -1.
        -11    1    3    3    0    0  0.11336932812E+02  0.52346470103E+00 -0.85755654059E+01  0.14224640002E+02  0.51100000000E-03 0.  1.
        -12    1    3    3    0    0  0.69902327216E+01 -0.15154374737E+02  0.54041751399E+01  0.17542050510E+02  0.00000000000E+00 0.  1.
</event>
<event>
 7    1  0.5290964E-013  0.5052888E+02  0.7816164E-02  0.1300439E+00
        -11   -1    0    0    0    0  0.00000000000E+00  0.00000000000E+00  0.45593999997E+02  0.45594000000E+02  0.51100000000E-03 0. -1.
         11   -1    0    0    0    0 -0.00000000000E+00 -0.00000000000E+00 -0.45593999997E+02  0.45594000000E+02  0.51100000000E-03 0.  1.
    9900012    2    1    2    0    0 -0.26481731763E+02 -0.28848580373E+02 -0.10938082875E+02  0.50528876009E+02  0.30000049117E+02 0.  0.
         12    1    1    2    0    0  0.26481731763E+02  0.28848580373E+02  0.10938082875E+02  0.40659123991E+02  0.00000000000E+00 0. -1.
         11    1    3    3    0    0 -0.66349742905E+01 -0.40237838749E+01  0.70461199763E+01  0.10481484985E+02  0.51100000000E-03 0. -1.
        -11    1    3    3    0    0 -0.14455250949E+02 -0.65791194801E+01 -0.38385615787E+01  0.16339328272E+02  0.51100000000E-03 0.  1.
        -12    1    3    3    0    0 -0.53915065238E+01 -0.18245677018E+02 -0.14145641272E+02  0.23708062752E+02  0.00000000000E+00 0.  1.
</event>
<event>
 7    1  0.5290964E-013  0.5052884E+02  0.7816164E-02  0.1300439E+00
        -11   -1    0    0    0    0  0.00000000000E+00  0.00000000000E+00  0.45593999997E+02  0.45594000000E+02  0.51100000000E-03 0.  1.
         11   -1    0    0    0    0 -0.00000000000E+00 -0.00000000000E+00 -0.45593999997E+02  0.45594000000E+02  0.51100000000E-03 0. -1.
    9900012    2    1    2    0    0 -0.21392713455E+02 -0.30748745662E+02 -0.15812453918E+02  0.50528840544E+02  0.29999941318E+02 0.  0.
         12    1    1    2    0    0  0.21392713455E+02  0.30748745662E+02  0.15812453918E+02  0.40659159456E+02  0.00000000000E+00 0. -1.
         11    1    3    3    0    0  0.80041212410E-01  0.74120893375E+00 -0.70768532361E+00  0.10279183127E+01  0.51100000000E-03 0. -1.
        -11    1    3    3    0    0 -0.21265095430E+02 -0.15128646118E+02  0.15625255423E+01  0.26144247997E+02  0.51100000000E-03 0.  1.
         12    1    3    3    0    0 -0.20765923782E+00 -0.16361308478E+02 -0.16667294137E+02  0.23356674235E+02  0.00000000000E+00 0. -1.
</event>
<event>
 7    1  0.5290964E-013  0.5052886E+02  0.7816164E-02  0.1300439E+00
        -11   -1    0    0    0    0  0.00000000000E+00  0.00000000000E+00  0.45593999997E+02  0.45594000000E+02  0.51100000000E-03 0.  1.
         11   -1    0    0    0    0 -0.00000000000E+00 -0.00000000000E+00 -0.45593999997E+02  0.45594000000E+02  0.51100000000E-03 0. -1.
    9900012    2    1    2    0    0 -0.29080431412E+02 -0.26157386695E+02  0.11103374579E+02  0.50528864534E+02  0.30000014238E+02 0.  0.
         12    1    1    2    0    0  0.29080431412E+02  0.26157386695E+02 -0.11103374579E+02  0.40659135466E+02  0.00000000000E+00 0. -1.
         11    1    3    3    0    0 -0.17508465240E+02 -0.17076227882E+02  0.37952752053E+01  0.24749707632E+02  0.51100000000E-03 0.  1.
        -11    1    3    3    0    0 -0.34461410915E+01 -0.94710784745E+01  0.12554136465E+02  0.16099178816E+02  0.51100000000E-03 0. -1.
         12    1    3    3    0    0 -0.81258250800E+01  0.38991966128E+00 -0.52460370920E+01  0.96799780859E+01  0.00000000000E+00 0. -1.
</event>
<event>
 7    1  0.5290964E-013  0.5052885E+02  0.7816164E-02  0.1300439E+00
        -11   -1    0    0    0    0  0.00000000000E+00  0.00000000000E+00  0.45593999997E+02  0.45594000000E+02  0.51100000000E-03 0.  1.
         11   -1    0    0    0    0 -0.00000000000E+00 -0.00000000000E+00 -0.45593999997E+02  0.45594000000E+02  0.51100000000E-03 0. -1.
    9900012    2    1    2    0    0  0.16358315050E+02 -0.31053847438E+02  0.20523903035E+02  0.50528849643E+02  0.29999968974E+02 0.  0.
         12    1    1    2    0    0 -0.16358315050E+02  0.31053847438E+02 -0.20523903035E+02  0.40659150357E+02  0.00000000000E+00 0. -1.
         11    1    3    3    0    0  0.43633368377E+01 -0.12148273870E+02  0.28881805271E+01  0.13227276870E+02  0.51100000000E-03 0. -1.
        -11    1    3    3    0    0 -0.35498899580E+01 -0.16497971901E+02  0.67672777377E+01  0.18181882295E+02  0.51100000000E-03 0.  1.
         12    1    3    3    0    0  0.15544868171E+02 -0.24076016672E+01  0.10868444770E+02  0.19119690477E+02  0.00000000000E+00 0. -1.
</event>
<event>
 7    1  0.5290964E-013  0.5052886E+02  0.7816164E-02  0.1300439E+00
        -11   -1    0    0    0    0  0.00000000000E+00  0.00000000000E+00  0.45593999997E+02  0.45594000000E+02  0.51100000000E-03 0.  1.
         11   -1    0    0    0    0 -0.00000000000E+00 -0.00000000000E+00 -0.45593999997E+02  0.45594000000E+02  0.51100000000E-03 0. -1.
    9900012    2    1    2    0    0  0.31409613965E+02  0.23775486082E+02  0.10066196318E+02  0.50528857164E+02  0.29999991835E+02 0.  0.
         12    1    1    2    0    0 -0.31409613965E+02 -0.23775486082E+02 -0.10066196318E+02  0.40659142836E+02  0.00000000000E+00 0. -1.
         11    1    3    3    0    0 -0.28497723808E+01 -0.11976311485E+01  0.18347376012E+01  0.35946884867E+01  0.51100000000E-03 0. -1.
        -11    1    3    3    0    0  0.17950015329E+02  0.13760747216E+02  0.13645652650E+02  0.26415242773E+02  0.51100000000E-03 0.  1.
        -12    1    3    3    0    0  0.16309371017E+02  0.11212370015E+02 -0.54141939330E+01  0.20518925904E+02  0.00000000000E+00 0.  1.
</event>
<event>
 7    1  0.5290964E-013  0.5052886E+02  0.7816164E-02  0.1300439E+00
        -11   -1    0    0    0    0  0.00000000000E+00  0.00000000000E+00  0.45593999997E+02  0.45594000000E+02  0.51100000000E-03 0. -1.
         11   -1    0    0    0    0 -0.00000000000E+00 -0.00000000000E+00 -0.45593999997E+02  0.45594000000E+02  0.51100000000E-03 0.  1.
    9900012    2    1    2    0    0 -0.23952160054E+02 -0.32840644570E+02  0.97554867177E+00  0.50528860779E+02  0.30000002822E+02 0.  0.
         12    1    1    2    0    0  0.23952160054E+02  0.32840644570E+02 -0.97554867177E+00  0.40659139221E+02  0.00000000000E+00 0. -1.
         11    1    3    3    0    0 -0.24362611465E+00  0.62626732916E+00 -0.16185951442E+00  0.69120417739E+00  0.51100000000E-03 0. -1.
        -11    1    3    3    0    0 -0.14127895574E+02 -0.24543670298E+02  0.13906233320E+02  0.31549524726E+02  0.51100000000E-03 0.  1.
        -12    1    3    3    0    0 -0.95806383649E+01 -0.89232416018E+01 -0.12768825134E+02  0.18288131875E+02  0.00000000000E+00 0.  1.
</event>
<event>
 7    1  0.5290964E-013  0.5052885E+02  0.7816164E-02  0.1300439E+00
        -11   -1    0    0    0    0  0.00000000000E+00  0.00000000000E+00  0.45593999997E+02  0.45594000000E+02  0.51100000000E-03 0.  1.
         11   -1    0    0    0    0 -0.00000000000E+00 -0.00000000000E+00 -0.45593999997E+02  0.45594000000E+02  0.51100000000E-03 0. -1.
    9900012    2    1    2    0    0 -0.67037666362E+01  0.20784700037E+02  0.34296092362E+02  0.50528853500E+02  0.29999980700E+02 0.  0.
         12    1    1    2    0    0  0.67037666362E+01 -0.20784700037E+02 -0.34296092362E+02  0.40659146500E+02  0.00000000000E+00 0. -1.
         11    1    3    3    0    0 -0.53283777604E+01  0.66498485668E+00  0.21372082689E+02  0.22036327579E+02  0.51100000000E-03 0. -1.
        -11    1    3    3    0    0 -0.32066351847E+01  0.58137793900E+01  0.12393720576E+02  0.14060115575E+02  0.51100000000E-03 0.  1.
        -12    1    3    3    0    0  0.18312463089E+01  0.14305935790E+02  0.53028909693E+00  0.14432410347E+02  0.00000000000E+00 0.  1.
</event>
<event>
 7    1  0.5290964E-013  0.5052886E+02  0.7816164E-02  0.1300439E+00
        -11   -1    0    0    0    0  0.00000000000E+00  0.00000000000E+00  0.45593999997E+02  0.45594000000E+02  0.51100000000E-03 0.  1.
         11   -1    0    0    0    0 -0.00000000000E+00 -0.00000000000E+00 -0.45593999997E+02  0.45594000000E+02  0.51100000000E-03 0. -1.
    9900012    2    1    2    0    0  0.12874154568E+02 -0.15406573295E+01  0.38536322824E+02  0.50528860097E+02  0.30000000751E+02 0.  0.
         12    1    1    2    0    0 -0.12874154568E+02  0.15406573295E+01 -0.38536322824E+02  0.40659139903E+02  0.00000000000E+00 0. -1.
         11    1    3    3    0    0 -0.60259020147E+01  0.10653622684E+01  0.12664386813E+02  0.14065318534E+02  0.51100000000E-03 0. -1.
        -11    1    3    3    0    0  0.23879983579E+01  0.11585008936E+00  0.17662345672E+02  0.17823423137E+02  0.51100000000E-03 0.  1.
        -12    1    3    3    0    0  0.16512058225E+02 -0.27218696873E+01  0.82095903384E+01  0.18640118426E+02  0.00000000000E+00 0.  1.
</event>
<event>
 7    1  0.5290964E-013  0.5052884E+02  0.7816164E-02  0.1300439E+00
        -11   -1    0    0    0    0  0.00000000000E+00  0.00000000000E+00  0.45593999997E+02  0.45594000000E+02  0.51100000000E-03 0. -1.
         11   -1    0    0    0    0 -0.00000000000E+00 -0.00000000000E+00 -0.45593999997E+02  0.45594000000E+02  0.51100000000E-03 0.  1.
    9900012    2    1    2    0    0  0.23131998704E+02  0.19446687402E+02 -0.27201184977E+02  0.50528837698E+02  0.29999932667E+02 0.  0.
         12    1    1    2    0    0 -0.23131998704E+02 -0.19446687402E+02  0.27201184977E+02  0.40659162302E+02  0.00000000000E+00 0. -1.
         11    1    3    3    0    0  0.80074258636E+01 -0.31599505884E+01 -0.14467455628E+02  0.16834827867E+02  0.51100000000E-03 0. -1.
        -11    1    3    3    0    0  0.10830323946E+02  0.98855063802E+01  0.72751817981E+00  0.14681567904E+02  0.51100000000E-03 0.  1.
         12    1    3    3    0    0  0.42942488943E+01  0.12721131610E+02 -0.13461247529E+02  0.19012441927E+02  0.00000000000E+00 0. -1.
</event>
<event>
 7    1  0.5290964E-013  0.5052886E+02  0.7816164E-02  0.1300439E+00
        -11   -1    0    0    0    0  0.00000000000E+00  0.00000000000E+00  0.45593999997E+02  0.45594000000E+02  0.51100000000E-03 0.  1.
         11   -1    0    0    0    0 -0.00000000000E+00 -0.00000000000E+00 -0.45593999997E+02  0.45594000000E+02  0.51100000000E-03 0. -1.
    9900012    2    1    2    0    0 -0.32502595371E+02 -0.23876466661E+02 -0.51634247733E+01  0.50528864232E+02  0.30000013318E+02 0.  0.
         12    1    1    2    0    0  0.32502595371E+02  0.23876466661E+02  0.51634247733E+01  0.40659135768E+02  0.00000000000E+00 0. -1.
         11    1    3    3    0    0 -0.12232928538E+02 -0.84442117848E+01 -0.67699753076E+01  0.16333457050E+02  0.51100000000E-03 0. -1.
        -11    1    3    3    0    0 -0.21915175348E+02 -0.16401302434E+02 -0.45508692464E+01  0.27748658404E+02  0.51100000000E-03 0.  1.
         12    1    3    3    0    0  0.16455085154E+01  0.96904755747E+00  0.61574197807E+01  0.64467487774E+01  0.00000000000E+00 0. -1.
</event>
<event>
 7    1  0.5290964E-013  0.5052886E+02  0.7816164E-02  0.1300439E+00
        -11   -1    0    0    0    0  0.00000000000E+00  0.00000000000E+00  0.45593999997E+02  0.45594000000E+02  0.51100000000E-03 0. -1.
         11   -1    0    0    0    0 -0.00000000000E+00 -0.00000000000E+00 -0.45593999997E+02  0.45594000000E+02  0.51100000000E-03 0.  1.
    9900012    2    1    2    0    0 -0.22608525571E+02 -0.18949073753E+02 -0.27981289680E+02  0.50528863305E+02  0.30000010502E+02 0.  0.
         12    1    1    2    0    0  0.22608525571E+02  0.18949073753E+02  0.27981289680E+02  0.40659136695E+02  0.00000000000E+00 0. -1.
         11    1    3    3    0    0 -0.12995485065E+02 -0.23179659078E+01 -0.15398918305E+02  0.20282561063E+02  0.51100000000E-03 0. -1.
        -11    1    3    3    0    0 -0.21711231810E+01  0.17919261720E+01 -0.97839325446E+01  0.10180869883E+02  0.51100000000E-03 0.  1.
         12    1    3    3    0    0 -0.74419173257E+01 -0.18423034018E+02 -0.27984388299E+01  0.20065432360E+02  0.00000000000E+00 0. -1.
</event>
<event>
 7    1  0.5290964E-013  0.5052886E+02  0.7816164E-02  0.1300439E+00
        -11   -1    0    0    0    0  0.00000000000E+00  0.00000000000E+00  0.45593999997E+02  0.45594000000E+02  0.51100000000E-03 0. -1.
         11   -1    0    0    0    0 -0.00000000000E+00 -0.00000000000E+00 -0.45593999997E+02  0.45594000000E+02  0.51100000000E-03 0.  1.
    9900012    2    1    2    0    0  0.28686746268E+02  0.21679695705E+02 -0.18979655554E+02  0.50528856597E+02  0.29999990113E+02 0.  0.
         12    1    1    2    0    0 -0.28686746268E+02 -0.21679695705E+02  0.18979655554E+02  0.40659143403E+02  0.00000000000E+00 0. -1.
         11    1    3    3    0    0  0.11109013848E+02  0.46010311155E+01 -0.13183344219E+01  0.12096184601E+02  0.51100000000E-03 0.  1.
        -11    1    3    3    0    0  0.20095066512E+02  0.71485004709E+01 -0.18390550601E+02  0.28162476965E+02  0.51100000000E-03 0. -1.
         12    1    3    3    0    0 -0.25173340927E+01  0.99301641190E+01  0.72922946893E+00  0.10270195031E+02  0.00000000000E+00 0. -1.
</event>
<event>
 7    1  0.5290964E-013  0.5052886E+02  0.7816164E-02  0.1300439E+00
        -11   -1    0    0    0    0  0.00000000000E+00  0.00000000000E+00  0.45593999997E+02  0.45594000000E+02  0.51100000000E-03 0.  1.
         11   -1    0    0    0    0 -0.00000000000E+00 -0.00000000000E+00 -0.45593999997E+02  0.45594000000E+02  0.51100000000E-03 0. -1.
    9900012    2    1    2    0    0 -0.23785224434E+02  0.31678551797E+02  0.91595763365E+01  0.50528863463E+02  0.30000010981E+02 0.  0.
         12    1    1    2    0    0  0.23785224434E+02 -0.31678551797E+02 -0.91595763365E+01  0.40659136537E+02  0.00000000000E+00 0. -1.
         11    1    3    3    0    0 -0.81369346478E+01  0.10986198182E+02 -0.41458275937E+01  0.14286152129E+02  0.51100000000E-03 0. -1.
        -11    1    3    3    0    0 -0.11955763188E+02  0.15394319774E+02 -0.20357987224E+01  0.19597699646E+02  0.51100000000E-03 0.  1.
        -12    1    3    3    0    0 -0.36925265976E+01  0.52980338406E+01  0.15341202653E+02  0.16645011687E+02  0.00000000000E+00 0.  1.
</event>
<event>
 7    1  0.5290964E-013  0.5052886E+02  0.7816164E-02  0.1300439E+00
        -11   -1    0    0    0    0  0.00000000000E+00  0.00000000000E+00  0.45593999997E+02  0.45594000000E+02  0.51100000000E-03 0. -1.
         11   -1    0    0    0    0 -0.00000000000E+00 -0.00000000000E+00 -0.45593999997E+02  0.45594000000E+02  0.51100000000E-03 0.  1.
    9900012    2    1    2    0    0  0.22029653112E+02 -0.58516705904E+01 -0.33669242913E+02  0.50528861012E+02  0.30000003531E+02 0.  0.
         12    1    1    2    0    0 -0.22029653112E+02  0.58516705904E+01  0.33669242913E+02  0.40659138988E+02  0.00000000000E+00 0. -1.
         11    1    3    3    0    0 -0.40303872380E+01 -0.48295603175E+01 -0.71218359548E+01  0.95020640798E+01  0.51100000000E-03 0. -1.
        -11    1    3    3    0    0  0.43165659599E+01 -0.59929827512E+01 -0.15898125327E+01  0.75548718118E+01  0.51100000000E-03 0.  1.
        -12    1    3    3    0    0  0.21743474390E+02  0.49708724783E+01 -0.24957594426E+02  0.33471925120E+02  0.00000000000E+00 0.  1.
</event>
<event>
 7    1  0.5290964E-013  0.5052885E+02  0.7816164E-02  0.1300439E+00
        -11   -1    0    0    0    0  0.00000000000E+00  0.00000000000E+00  0.45593999997E+02  0.45594000000E+02  0.51100000000E-03 0. -1.
         11   -1    0    0    0    0 -0.00000000000E+00 -0.00000000000E+00 -0.45593999997E+02  0.45594000000E+02  0.51100000000E-03 0.  1.
    9900012    2    1    2    0    0 -0.82517003702E+01  0.25655686378E+02 -0.30444396802E+02  0.50528854667E+02  0.29999984246E+02 0.  0.
         12    1    1    2    0    0  0.82517003702E+01 -0.25655686378E+02  0.30444396802E+02  0.40659145333E+02  0.00000000000E+00 0. -1.
         11    1    3    3    0    0 -0.21957614323E+01 -0.26759485347E+01 -0.20051828210E+01  0.40003533887E+01  0.51100000000E-03 0. -1.
        -11    1    3    3    0    0 -0.93315580708E+01  0.16238076858E+01 -0.43899478134E+01  0.10439653706E+02  0.51100000000E-03 0.  1.
        -12    1    3    3    0    0  0.32756191329E+01  0.26707827227E+02 -0.24049266168E+02  0.36088847573E+02  0.00000000000E+00 0.  1.
</event>
<event>
 7    1  0.5290964E-013  0.5052886E+02  0.7816164E-02  0.1300439E+00
        -11   -1    0    0    0    0  0.00000000000E+00  0.00000000000E+00  0.45593999997E+02  0.45594000000E+02  0.51100000000E-03 0.  1.
         11   -1    0    0    0    0 -0.00000000000E+00 -0.00000000000E+00 -0.45593999997E+02  0.45594000000E+02  0.51100000000E-03 0. -1.
    9900012    2    1    2    0    0  0.17442013612E+01  0.38181182766E+02  0.13867961759E+02  0.50528864259E+02  0.30000013403E+02 0.  0.
         12    1    1    2    0    0 -0.17442013612E+01 -0.38181182766E+02 -0.13867961759E+02  0.40659135741E+02  0.00000000000E+00 0. -1.
         11    1    3    3    0    0  0.13744194452E+02  0.86783893330E+01  0.77521469887E+01  0.18008695281E+02  0.51100000000E-03 0.  1.
        -11    1    3    3    0    0 -0.66241876937E+01  0.13638681484E+02  0.35794312030E+01  0.15579018686E+02  0.51100000000E-03 0. -1.
        -12    1    3    3    0    0 -0.53758053970E+01  0.15864111949E+02  0.25363835673E+01  0.16941150292E+02  0.00000000000E+00 0.  1.
</event>
<event>
 7    1  0.5290964E-013  0.5052887E+02  0.7816164E-02  0.1300439E+00
        -11   -1    0    0    0    0  0.00000000000E+00  0.00000000000E+00  0.45593999997E+02  0.45594000000E+02  0.51100000000E-03 0.  1.
         11   -1    0    0    0    0 -0.00000000000E+00 -0.00000000000E+00 -0.45593999997E+02  0.45594000000E+02  0.51100000000E-03 0. -1.
    9900012    2    1    2    0    0  0.28132467833E+02  0.40968607110E+01  0.29067929842E+02  0.50528873603E+02  0.30000041804E+02 0.  0.
         12    1    1    2    0    0 -0.28132467833E+02 -0.40968607110E+01 -0.29067929842E+02  0.40659126397E+02  0.00000000000E+00 0. -1.
         11    1    3    3    0    0  0.18845053213E+02 -0.26209958900E+01  0.35244384775E+01  0.19350124467E+02  0.51100000000E-03 0. -1.
        -11    1    3    3    0    0 -0.11970466766E+01 -0.29045981751E+01  0.79636292409E+01  0.85608996170E+01  0.51100000000E-03 0.  1.
        -12    1    3    3    0    0  0.10484461297E+02  0.96224547761E+01  0.17579862123E+02  0.22617849519E+02  0.00000000000E+00 0.  1.
</event>
<event>
 7    1  0.5290964E-013  0.5052886E+02  0.7816164E-02  0.1300439E+00
        -11   -1    0    0    0    0  0.00000000000E+00  0.00000000000E+00  0.45593999997E+02  0.45594000000E+02  0.51100000000E-03 0.  1.
         11   -1    0    0    0    0 -0.00000000000E+00 -0.00000000000E+00 -0.45593999997E+02  0.45594000000E+02  0.51100000000E-03 0. -1.
    9900012    2    1    2    0    0  0.91731036520E+01 -0.32458429174E+02 -0.22703967998E+02  0.50528860586E+02  0.30000002238E+02 0.  0.
         12    1    1    2    0    0 -0.91731036520E+01  0.32458429174E+02  0.22703967998E+02  0.40659139414E+02  0.00000000000E+00 0. -1.
         11    1    3    3    0    0  0.32334890527E+01 -0.73620486433E+00  0.20439947529E-01  0.33163032293E+01  0.51100000000E-03 0. -1.
        -11    1    3    3    0    0  0.13082833677E+02 -0.16927244118E+02 -0.30972005776E+01  0.21616770854E+02  0.51100000000E-03 0.  1.
         12    1    3    3    0    0 -0.71432190781E+01 -0.14794980191E+02 -0.19627207368E+02  0.25595786503E+02  0.00000000000E+00 0. -1.
</event>
<event>
 7    1  0.5290964E-013  0.5052885E+02  0.7816164E-02  0.1300439E+00
        -11   -1    0    0    0    0  0.00000000000E+00  0.00000000000E+00  0.45593999997E+02  0.45594000000E+02  0.51100000000E-03 0. -1.
         11   -1    0    0    0    0 -0.00000000000E+00 -0.00000000000E+00 -0.45593999997E+02  0.45594000000E+02  0.51100000000E-03 0.  1.
    9900012    2    1    2    0    0  0.74665220835E+01  0.22247454350E+02 -0.33203442022E+02  0.50528846797E+02  0.29999960324E+02 0.  0.
         12    1    1    2    0    0 -0.74665220835E+01 -0.22247454350E+02  0.33203442022E+02  0.40659153203E+02  0.00000000000E+00 0. -1.
         11    1    3    3    0    0  0.74075183007E+01 -0.22329932566E+01 -0.16653751100E+01  0.79139788209E+01  0.51100000000E-03 0. -1.
        -11    1    3    3    0    0 -0.24064201474E+01  0.24835770606E+01  0.68150901708E+00  0.35246939928E+01  0.51100000000E-03 0.  1.
        -12    1    3    3    0    0  0.24654239303E+01  0.21996870546E+02 -0.32219575929E+02  0.39090173983E+02  0.00000000000E+00 0.  1.
</event>
<event>
 7    1  0.5290964E-013  0.5052887E+02  0.7816164E-02  0.1300439E+00
        -11   -1    0    0    0    0  0.00000000000E+00  0.00000000000E+00  0.45593999997E+02  0.45594000000E+02  0.51100000000E-03 0.  1.
         11   -1    0    0    0    0 -0.00000000000E+00 -0.00000000000E+00 -0.45593999997E+02  0.45594000000E+02  0.51100000000E-03 0. -1.
    9900012    2    1    2    0    0 -0.33137600157E+02  0.19717107723E+02  0.12895745879E+02  0.50528866427E+02  0.30000019991E+02 0.  0.
         12    1    1    2    0    0  0.33137600157E+02 -0.19717107723E+02 -0.12895745879E+02  0.40659133573E+02  0.00000000000E+00 0. -1.
         11    1    3    3    0    0 -0.12370776270E+02  0.17041239033E+01 -0.48281904690E+01  0.13388486370E+02  0.51100000000E-03 0. -1.
        -11    1    3    3    0    0 -0.15537039185E+02  0.13485192220E+02  0.28928955715E+01  0.20775438405E+02  0.51100000000E-03 0.  1.
        -12    1    3    3    0    0 -0.52297847020E+01  0.45277915995E+01  0.14831040776E+02  0.16364941653E+02  0.00000000000E+00 0.  1.
</event>
<event>
 7    1  0.5290964E-013  0.5052887E+02  0.7816164E-02  0.1300439E+00
        -11   -1    0    0    0    0  0.00000000000E+00  0.00000000000E+00  0.45593999997E+02  0.45594000000E+02  0.51100000000E-03 0.  1.
         11   -1    0    0    0    0 -0.00000000000E+00 -0.00000000000E+00 -0.45593999997E+02  0.45594000000E+02  0.51100000000E-03 0. -1.
    9900012    2    1    2    0    0  0.32321329574E+02  0.23249932071E+02  0.82424235235E+01  0.50528865328E+02  0.30000016651E+02 0.  0.
         12    1    1    2    0    0 -0.32321329574E+02 -0.23249932071E+02 -0.82424235235E+01  0.40659134672E+02  0.00000000000E+00 0. -1.
         11    1    3    3    0    0  0.11416833003E+02  0.68652803513E+01  0.11781194146E+02  0.17784057071E+02  0.51100000000E-03 0. -1.
        -11    1    3    3    0    0  0.37275490720E+01 -0.12762215400E+01  0.52708285388E+01  0.65806532540E+01  0.51100000000E-03 0.  1.
         12    1    3    3    0    0  0.17176947499E+02  0.17660873260E+02 -0.88095991610E+01  0.26164155003E+02  0.00000000000E+00 0. -1.
</event>
<event>
 7    1  0.5290964E-013  0.5052887E+02  0.7816164E-02  0.1300439E+00
        -11   -1    0    0    0    0  0.00000000000E+00  0.00000000000E+00  0.45593999997E+02  0.45594000000E+02  0.51100000000E-03 0.  1.
         11   -1    0    0    0    0 -0.00000000000E+00 -0.00000000000E+00 -0.45593999997E+02  0.45594000000E+02  0.51100000000E-03 0. -1.
    9900012    2    1    2    0    0  0.14484746895E+02  0.24915413383E+02  0.28680634999E+02  0.50528873834E+02  0.30000042506E+02 0.  0.
         12    1    1    2    0    0 -0.14484746895E+02 -0.24915413383E+02 -0.28680634999E+02  0.40659126166E+02  0.00000000000E+00 0. -1.
         11    1    3    3    0    0  0.41240200350E+01 -0.18632288592E+01  0.19936356135E+01  0.49450729268E+01  0.51100000000E-03 0. -1.
        -11    1    3    3    0    0  0.87375925033E+01  0.14567432092E+02  0.28454217450E+02  0.33139071977E+02  0.51100000000E-03 0.  1.
         12    1    3    3    0    0  0.16231343572E+01  0.12211210150E+02 -0.17672180651E+01  0.12444728931E+02  0.00000000000E+00 0. -1.
</event>
<event>
 7    1  0.5290964E-013  0.5052884E+02  0.7816164E-02  0.1300439E+00
        -11   -1    0    0    0    0  0.00000000000E+00  0.00000000000E+00  0.45593999997E+02  0.45594000000E+02  0.51100000000E-03 0. -1.
         11   -1    0    0    0    0 -0.00000000000E+00 -0.00000000000E+00 -0.45593999997E+02  0.45594000000E+02  0.51100000000E-03 0.  1.
    9900012    2    1    2    0    0 -0.32225176635E+02  0.22537806528E+02 -0.10332096575E+02  0.50528844182E+02  0.29999952375E+02 0.  0.
         12    1    1    2    0    0  0.32225176635E+02 -0.22537806528E+02  0.10332096575E+02  0.40659155818E+02  0.00000000000E+00 0. -1.
         11    1    3    3    0    0 -0.13232191648E+02  0.79887784805E+01 -0.34557874439E+01  0.15838369378E+02  0.51100000000E-03 0.  1.
        -11    1    3    3    0    0  0.14962415070E+01 -0.41992295630E+00  0.60264991428E+01  0.62236457254E+01  0.51100000000E-03 0. -1.
         12    1    3    3    0    0 -0.20489226494E+02  0.14968951003E+02 -0.12902808274E+02  0.28466829079E+02  0.00000000000E+00 0. -1.
</event>
<event>
 7    1  0.5290964E-013  0.5052885E+02  0.7816164E-02  0.1300439E+00
        -11   -1    0    0    0    0  0.00000000000E+00  0.00000000000E+00  0.45593999997E+02  0.45594000000E+02  0.51100000000E-03 0. -1.
         11   -1    0    0    0    0 -0.00000000000E+00 -0.00000000000E+00 -0.45593999997E+02  0.45594000000E+02  0.51100000000E-03 0.  1.
    9900012    2    1    2    0    0 -0.48939810710E+01 -0.39694520692E+02 -0.73185165736E+01  0.50528847174E+02  0.29999961469E+02 0.  0.
         12    1    1    2    0    0  0.48939810710E+01  0.39694520692E+02  0.73185165736E+01  0.40659152826E+02  0.00000000000E+00 0. -1.
         11    1    3    3    0    0 -0.37377795108E+01 -0.35462726908E+02 -0.10833270422E+02  0.37268428243E+02  0.51100000000E-03 0. -1.
        -11    1    3    3    0    0 -0.44296669910E+01 -0.59319849327E+01 -0.95547098880E+00  0.74648054204E+01  0.51100000000E-03 0.  1.
         12    1    3    3    0    0  0.32734654307E+01  0.17001911479E+01  0.44702248373E+01  0.57956135103E+01  0.00000000000E+00 0. -1.
</event>
<event>
 7    1  0.5290964E-013  0.5052886E+02  0.7816164E-02  0.1300439E+00
        -11   -1    0    0    0    0  0.00000000000E+00  0.00000000000E+00  0.45593999997E+02  0.45594000000E+02  0.51100000000E-03 0.  1.
         11   -1    0    0    0    0 -0.00000000000E+00 -0.00000000000E+00 -0.45593999997E+02  0.45594000000E+02  0.51100000000E-03 0. -1.
    9900012    2    1    2    0    0  0.10794412654E+02  0.37396320050E+02  0.11754205774E+02  0.50528862636E+02  0.30000008467E+02 0.  0.
         12    1    1    2    0    0 -0.10794412654E+02 -0.37396320050E+02 -0.11754205774E+02  0.40659137364E+02  0.00000000000E+00 0. -1.
         11    1    3    3    0    0  0.36240670304E+01  0.11923904971E+02  0.40815243370E+01  0.13113817627E+02  0.51100000000E-03 0. -1.
        -11    1    3    3    0    0  0.16269062739E+02  0.12822982348E+02  0.68241023905E+01  0.21810081439E+02  0.51100000000E-03 0.  1.
         12    1    3    3    0    0 -0.90987171157E+01  0.12649432732E+02  0.84857904605E+00  0.15604963569E+02  0.00000000000E+00 0. -1.
</event>
<event>
 7    1  0.5290964E-013  0.5052886E+02  0.7816164E-02  0.1300439E+00
        -11   -1    0    0    0    0  0.00000000000E+00  0.00000000000E+00  0.45593999997E+02  0.45594000000E+02  0.51100000000E-03 0.  1.
         11   -1    0    0    0    0 -0.00000000000E+00 -0.00000000000E+00 -0.45593999997E+02  0.45594000000E+02  0.51100000000E-03 0. -1.
    9900012    2    1    2    0    0  0.34791018155E+02 -0.20981689291E+02 -0.15872459068E+01  0.50528861061E+02  0.30000003680E+02 0.  0.
         12    1    1    2    0    0 -0.34791018155E+02  0.20981689291E+02  0.15872459068E+01  0.40659138939E+02  0.00000000000E+00 0. -1.
         11    1    3    3    0    0  0.29256331373E+01 -0.24192110939E+00 -0.91895752884E+00  0.30760913963E+01  0.51100000000E-03 0.  1.
        -11    1    3    3    0    0  0.37871075366E+00  0.26270801269E+01  0.70121469368E+01  0.74976780908E+01  0.51100000000E-03 0. -1.
         12    1    3    3    0    0  0.31486674264E+02 -0.23366848308E+02 -0.76804353148E+01  0.39955091574E+02  0.00000000000E+00 0. -1.
</event>
<event>
 7    1  0.5290964E-013  0.5052886E+02  0.7816164E-02  0.1300439E+00
        -11   -1    0    0    0    0  0.00000000000E+00  0.00000000000E+00  0.45593999997E+02  0.45594000000E+02  0.51100000000E-03 0.  1.
         11   -1    0    0    0    0 -0.00000000000E+00 -0.00000000000E+00 -0.45593999997E+02  0.45594000000E+02  0.51100000000E-03 0. -1.
    9900012    2    1    2    0    0  0.26746435716E+02 -0.30595690933E+02  0.13029743621E+01  0.50528857493E+02  0.29999992837E+02 0.  0.
         12    1    1    2    0    0 -0.26746435716E+02  0.30595690933E+02 -0.13029743621E+01  0.40659142507E+02  0.00000000000E+00 0. -1.
         11    1    3    3    0    0 -0.27249566624E+01  0.44397162854E+00  0.83586306590E+00  0.28846432960E+01  0.51100000000E-03 0. -1.
        -11    1    3    3    0    0  0.19919938958E+01 -0.45456354527E+01 -0.71663694736E+01  0.87170920061E+01  0.51100000000E-03 0.  1.
        -12    1    3    3    0    0  0.27479398483E+02 -0.26494027109E+02  0.76334807698E+01  0.38927122191E+02  0.00000000000E+00 0.  1.
</event>
<event>
 7    1  0.5290964E-013  0.5052889E+02  0.7816164E-02  0.1300439E+00
        -11   -1    0    0    0    0  0.00000000000E+00  0.00000000000E+00  0.45593999997E+02  0.45594000000E+02  0.51100000000E-03 0. -1.
         11   -1    0    0    0    0 -0.00000000000E+00 -0.00000000000E+00 -0.45593999997E+02  0.45594000000E+02  0.51100000000E-03 0.  1.
    9900012    2    1    2    0    0 -0.36701224876E+02  0.16641567529E+02 -0.54075089065E+01  0.50528894872E+02  0.30000106454E+02 0.  0.
         12    1    1    2    0    0  0.36701224876E+02 -0.16641567529E+02  0.54075089065E+01  0.40659105128E+02  0.00000000000E+00 0. -1.
         11    1    3    3    0    0 -0.23423595327E+02  0.18703156505E+02  0.29703797503E+01  0.30121355172E+02  0.51100000000E-03 0. -1.
        -11    1    3    3    0    0 -0.14992090232E+02  0.79622985279E+00 -0.81112076332E+01  0.17064244520E+02  0.51100000000E-03 0.  1.
        -12    1    3    3    0    0  0.17144606835E+01 -0.28578188286E+01 -0.26668102356E+00  0.33432951800E+01  0.00000000000E+00 0.  1.
</event>
<event>
 7    1  0.5290964E-013  0.5052890E+02  0.7816164E-02  0.1300439E+00
        -11   -1    0    0    0    0  0.00000000000E+00  0.00000000000E+00  0.45593999997E+02  0.45594000000E+02  0.51100000000E-03 0. -1.
         11   -1    0    0    0    0 -0.00000000000E+00 -0.00000000000E+00 -0.45593999997E+02  0.45594000000E+02  0.51100000000E-03 0.  1.
    9900012    2    1    2    0    0 -0.40140146050E+02  0.50894887183E+01 -0.40035374444E+01  0.50528898530E+02  0.30000117571E+02 0.  0.
         12    1    1    2    0    0  0.40140146050E+02 -0.50894887183E+01  0.40035374444E+01  0.40659101470E+02  0.00000000000E+00 0. -1.
         11    1    3    3    0    0 -0.13870200404E+02 -0.92554808499E+01 -0.81028497055E+01  0.18539216775E+02  0.51100000000E-03 0. -1.
        -11    1    3    3    0    0 -0.15307871103E+01  0.18844383216E+00 -0.23073083301E+01  0.27753364204E+01  0.51100000000E-03 0.  1.
        -12    1    3    3    0    0 -0.24739158535E+02  0.14156525736E+02  0.64066205911E+01  0.29214345335E+02  0.00000000000E+00 0.  1.
</event>
<event>
 7    1  0.5290964E-013  0.5052886E+02  0.7816164E-02  0.1300439E+00
        -11   -1    0    0    0    0  0.00000000000E+00  0.00000000000E+00  0.45593999997E+02  0.45594000000E+02  0.51100000000E-03 0.  1.
         11   -1    0    0    0    0 -0.00000000000E+00 -0.00000000000E+00 -0.45593999997E+02  0.45594000000E+02  0.51100000000E-03 0. -1.
    9900012    2    1    2    0    0 -0.13907074699E+02 -0.92917476018E+01  0.37059714486E+02  0.50528859110E+02  0.29999997750E+02 0.  0.
         12    1    1    2    0    0  0.13907074699E+02  0.92917476018E+01 -0.37059714486E+02  0.40659140890E+02  0.00000000000E+00 0. -1.
         11    1    3    3    0    0 -0.11601106192E+01  0.89614915682E+00 -0.15069419464E+01  0.21023354278E+01  0.51100000000E-03 0. -1.
        -11    1    3    3    0    0 -0.12047766340E+02  0.36151214429E+01  0.80709114088E+01  0.14945145970E+02  0.51100000000E-03 0.  1.
        -12    1    3    3    0    0 -0.69919773934E+00 -0.13803018201E+02  0.30495745023E+02  0.33481377712E+02  0.00000000000E+00 0.  1.
</event>
<event>
 7    1  0.5290964E-013  0.5052886E+02  0.7816164E-02  0.1300439E+00
        -11   -1    0    0    0    0  0.00000000000E+00  0.00000000000E+00  0.45593999997E+02  0.45594000000E+02  0.51100000000E-03 0.  1.
         11   -1    0    0    0    0 -0.00000000000E+00 -0.00000000000E+00 -0.45593999997E+02  0.45594000000E+02  0.51100000000E-03 0. -1.
    9900012    2    1    2    0    0 -0.15117250529E+02  0.32611648847E+02 -0.19003014893E+02  0.50528862293E+02  0.30000007427E+02 0.  0.
         12    1    1    2    0    0  0.15117250529E+02 -0.32611648847E+02  0.19003014893E+02  0.40659137707E+02  0.00000000000E+00 0. -1.
         11    1    3    3    0    0  0.13817530892E+00  0.97063591439E+01 -0.78015961463E+01  0.12453810780E+02  0.51100000000E-03 0. -1.
        -11    1    3    3    0    0 -0.18241285322E+02  0.20179426100E+02 -0.16188741564E+02  0.31654842940E+02  0.51100000000E-03 0.  1.
        -12    1    3    3    0    0  0.29858594838E+01  0.27258636030E+01  0.49873228176E+01  0.64202085734E+01  0.00000000000E+00 0.  1.
</event>
<event>
 7    1  0.5290964E-013  0.5052886E+02  0.7816164E-02  0.1300439E+00
        -11   -1    0    0    0    0  0.00000000000E+00  0.00000000000E+00  0.45593999997E+02  0.45594000000E+02  0.51100000000E-03 0. -1.
         11   -1    0    0    0    0 -0.00000000000E+00 -0.00000000000E+00 -0.45593999997E+02  0.45594000000E+02  0.51100000000E-03 0.  1.
    9900012    2    1    2    0    0  0.28755171324E+02 -0.10046178134E+02 -0.26932883046E+02  0.50528858812E+02  0.29999996844E+02 0.  0.
         12    1    1    2    0    0 -0.28755171324E+02  0.10046178134E+02  0.26932883046E+02  0.40659141188E+02  0.00000000000E+00 0. -1.
         11    1    3    3    0    0  0.10205887871E+01 -0.22333850376E+01  0.15432511347E+01  0.29002128413E+01  0.51100000000E-03 0. -1.
        -11    1    3    3    0    0 -0.36125304015E+01 -0.18276836092E+01 -0.99159162996E+01  0.10710564859E+02  0.51100000000E-03 0.  1.
         12    1    3    3    0    0  0.31347112939E+02 -0.59851094868E+01 -0.18560217881E+02  0.36918081112E+02  0.00000000000E+00 0. -1.
</event>
<event>
 7    1  0.5290964E-013  0.5052886E+02  0.7816164E-02  0.1300439E+00
        -11   -1    0    0    0    0  0.00000000000E+00  0.00000000000E+00  0.45593999997E+02  0.45594000000E+02  0.51100000000E-03 0.  1.
         11   -1    0    0    0    0 -0.00000000000E+00 -0.00000000000E+00 -0.45593999997E+02  0.45594000000E+02  0.51100000000E-03 0. -1.
    9900012    2    1    2    0    0  0.25754760514E+02 -0.11870783420E+02  0.29136615377E+02  0.50528861497E+02  0.30000005007E+02 0.  0.
         12    1    1    2    0    0 -0.25754760514E+02  0.11870783420E+02 -0.29136615377E+02  0.40659138503E+02  0.00000000000E+00 0. -1.
         11    1    3    3    0    0 -0.16604388586E+01  0.10887504934E+01  0.91454436649E+01  0.93585028145E+01  0.51100000000E-03 0. -1.
        -11    1    3    3    0    0  0.59635764731E+01  0.40171022555E+01  0.94010464264E+01  0.11835583173E+02  0.51100000000E-03 0.  1.
        -12    1    3    3    0    0  0.21451622899E+02 -0.16976636169E+02  0.10590125286E+02  0.29334775510E+02  0.00000000000E+00 0.  1.
</event>
<event>
 7    1  0.5290964E-013  0.5052886E+02  0.7816164E-02  0.1300439E+00
        -11   -1    0    0    0    0  0.00000000000E+00  0.00000000000E+00  0.45593999997E+02  0.45594000000E+02  0.51100000000E-03 0. -1.
         11   -1    0    0    0    0 -0.00000000000E+00 -0.00000000000E+00 -0.45593999997E+02  0.45594000000E+02  0.51100000000E-03 0.  1.
    9900012    2    1    2    0    0 -0.16748428834E+02  0.12236752983E+02 -0.34970238712E+02  0.50528860959E+02  0.30000003370E+02 0.  0.
         12    1    1    2    0    0  0.16748428834E+02 -0.12236752983E+02  0.34970238712E+02  0.40659139041E+02  0.00000000000E+00 0. -1.
         11    1    3    3    0    0  0.87180258473E+00  0.14593824363E+01 -0.25613825938E+01  0.30741694642E+01  0.51100000000E-03 0. -1.
        -11    1    3    3    0    0 -0.35529545883E+01  0.50450765729E+01 -0.31649423599E+02  0.32245345375E+02  0.51100000000E-03 0.  1.
         12    1    3    3    0    0 -0.14067276831E+02  0.57322939742E+01 -0.75943251960E+00  0.15209346120E+02  0.00000000000E+00 0. -1.
</event>
<event>
 7    1  0.5290964E-013  0.5052887E+02  0.7816164E-02  0.1300439E+00
        -11   -1    0    0    0    0  0.00000000000E+00  0.00000000000E+00  0.45593999997E+02  0.45594000000E+02  0.51100000000E-03 0.  1.
         11   -1    0    0    0    0 -0.00000000000E+00 -0.00000000000E+00 -0.45593999997E+02  0.45594000000E+02  0.51100000000E-03 0. -1.
    9900012    2    1    2    0    0 -0.10916838902E+02 -0.30601998285E+02  0.24443915609E+02  0.50528872108E+02  0.30000037259E+02 0.  0.
         12    1    1    2    0    0  0.10916838902E+02  0.30601998285E+02 -0.24443915609E+02  0.40659127892E+02  0.00000000000E+00 0. -1.
         11    1    3    3    0    0 -0.23538010097E+01  0.42860199752E+01  0.17763754097E+01  0.52024855866E+01  0.51100000000E-03 0. -1.
        -11    1    3    3    0    0 -0.30087742690E+01  0.75114395546E+00  0.26225809099E+01  0.40613877842E+01  0.51100000000E-03 0.  1.
        -12    1    3    3    0    0 -0.55542636233E+01 -0.35639162216E+02  0.20044959290E+02  0.41264998737E+02  0.00000000000E+00 0.  1.
</event>
<event>
 7    1  0.5290964E-013  0.5052888E+02  0.7816164E-02  0.1300439E+00
        -11   -1    0    0    0    0  0.00000000000E+00  0.00000000000E+00  0.45593999997E+02  0.45594000000E+02  0.51100000000E-03 0.  1.
         11   -1    0    0    0    0 -0.00000000000E+00 -0.00000000000E+00 -0.45593999997E+02  0.45594000000E+02  0.51100000000E-03 0. -1.
    9900012    2    1    2    0    0  0.64130111884E+01 -0.18526543125E+02  0.35620283466E+02  0.50528879168E+02  0.30000058718E+02 0.  0.
         12    1    1    2    0    0 -0.64130111884E+01  0.18526543125E+02 -0.35620283466E+02  0.40659120832E+02  0.00000000000E+00 0. -1.
         11    1    3    3    0    0  0.10106889463E+02 -0.82777131071E+01  0.65196040554E+01  0.14600513217E+02  0.51100000000E-03 0. -1.
        -11    1    3    3    0    0  0.28195069015E+01 -0.57212307492E+01  0.26971151247E+02  0.27715069913E+02  0.51100000000E-03 0.  1.
        -12    1    3    3    0    0 -0.65133851765E+01 -0.45275992689E+01  0.21295281637E+01  0.82132960374E+01  0.00000000000E+00 0.  1.
</event>
<event>
 7    1  0.5290964E-013  0.5052886E+02  0.7816164E-02  0.1300439E+00
        -11   -1    0    0    0    0  0.00000000000E+00  0.00000000000E+00  0.45593999997E+02  0.45594000000E+02  0.51100000000E-03 0.  1.
         11   -1    0    0    0    0 -0.00000000000E+00 -0.00000000000E+00 -0.45593999997E+02  0.45594000000E+02  0.51100000000E-03 0. -1.
    9900012    2    1    2    0    0  0.10890635020E+02  0.22365820160E+02  0.32160999742E+02  0.50528858998E+02  0.29999997411E+02 0.  0.
         12    1    1    2    0    0 -0.10890635020E+02 -0.22365820160E+02 -0.32160999742E+02  0.40659141002E+02  0.00000000000E+00 0. -1.
         11    1    3    3    0    0  0.12181687611E+02  0.34973423315E+01  0.24551997402E+02  0.27630155504E+02  0.51100000000E-03 0. -1.
        -11    1    3    3    0    0 -0.97038047839E+00  0.31483803736E+01  0.63143251719E+01  0.71221232710E+01  0.51100000000E-03 0.  1.
         12    1    3    3    0    0 -0.32067211313E+00  0.15720097455E+02  0.12946771681E+01  0.15776580224E+02  0.00000000000E+00 0. -1.
</event>
<event>
 7    1  0.5290964E-013  0.5052893E+02  0.7816164E-02  0.1300439E+00
        -11   -1    0    0    0    0  0.00000000000E+00  0.00000000000E+00  0.45593999997E+02  0.45594000000E+02  0.51100000000E-03 0.  1.
         11   -1    0    0    0    0 -0.00000000000E+00 -0.00000000000E+00 -0.45593999997E+02  0.45594000000E+02  0.51100000000E-03 0. -1.
    9900012    2    1    2    0    0 -0.27995895257E+02 -0.14651672473E+02  0.25587461704E+02  0.50528931467E+02  0.30000217687E+02 0.  0.
         12    1    1    2    0    0  0.27995895257E+02  0.14651672473E+02 -0.25587461704E+02  0.40659068533E+02  0.00000000000E+00 0. -1.
         11    1    3    3    0    0 -0.10513585436E+02 -0.15037657471E+02 -0.11123564566E+00  0.18348814527E+02  0.51100000000E-03 0. -1.
        -11    1    3    3    0    0  0.50477255759E+00 -0.92881174228E+00  0.30497594041E+01  0.32277731134E+01  0.51100000000E-03 0.  1.
        -12    1    3    3    0    0 -0.17987082379E+02  0.13147967406E+01  0.22648937946E+02  0.28952343826E+02  0.00000000000E+00 0.  1.
</event>
<event>
 7    1  0.5290964E-013  0.5052889E+02  0.7816164E-02  0.1300439E+00
        -11   -1    0    0    0    0  0.00000000000E+00  0.00000000000E+00  0.45593999997E+02  0.45594000000E+02  0.51100000000E-03 0. -1.
         11   -1    0    0    0    0 -0.00000000000E+00 -0.00000000000E+00 -0.45593999997E+02  0.45594000000E+02  0.51100000000E-03 0.  1.
    9900012    2    1    2    0    0  0.30384977540E+02 -0.58836381801E+01 -0.26368523999E+02  0.50528891350E+02  0.30000095747E+02 0.  0.
         12    1    1    2    0    0 -0.30384977540E+02  0.58836381801E+01  0.26368523999E+02  0.40659108650E+02  0.00000000000E+00 0. -1.
         11    1    3    3    0    0  0.73843108528E+01 -0.49663904679E+01 -0.32636591214E+01  0.94786366199E+01  0.51100000000E-03 0. -1.
        -11    1    3    3    0    0  0.20360255197E+02 -0.11140706779E+02 -0.17702011378E+02  0.29189322471E+02  0.51100000000E-03 0.  1.
         12    1    3    3    0    0  0.26404114903E+01  0.10223459067E+02 -0.54028534994E+01  0.11860932259E+02  0.00000000000E+00 0. -1.
</event>
<event>
 7    1  0.5290964E-013  0.5052886E+02  0.7816164E-02  0.1300439E+00
        -11   -1    0    0    0    0  0.00000000000E+00  0.00000000000E+00  0.45593999997E+02  0.45594000000E+02  0.51100000000E-03 0. -1.
         11   -1    0    0    0    0 -0.00000000000E+00 -0.00000000000E+00 -0.45593999997E+02  0.45594000000E+02  0.51100000000E-03 0.  1.
    9900012    2    1    2    0    0 -0.18867438159E+02 -0.35122546944E+02 -0.79744722124E+01  0.50528859163E+02  0.29999997913E+02 0.  0.
         12    1    1    2    0    0  0.18867438159E+02  0.35122546944E+02  0.79744722124E+01  0.40659140837E+02  0.00000000000E+00 0. -1.
         11    1    3    3    0    0 -0.14692441842E+02 -0.19050863324E+02  0.40267496461E+01  0.24392989847E+02  0.51100000000E-03 0. -1.
        -11    1    3    3    0    0 -0.92256667575E+01 -0.44836810694E+01 -0.32450577601E+01  0.10758565108E+02  0.51100000000E-03 0.  1.
        -12    1    3    3    0    0  0.50506704410E+01 -0.11588002550E+02 -0.87561640984E+01  0.15377304209E+02  0.00000000000E+00 0.  1.
</event>
<event>
 7    1  0.5290964E-013  0.5052886E+02  0.7816164E-02  0.1300439E+00
        -11   -1    0    0    0    0  0.00000000000E+00  0.00000000000E+00  0.45593999997E+02  0.45594000000E+02  0.51100000000E-03 0. -1.
         11   -1    0    0    0    0 -0.00000000000E+00 -0.00000000000E+00 -0.45593999997E+02  0.45594000000E+02  0.51100000000E-03 0.  1.
    9900012    2    1    2    0    0  0.22763763029E+02  0.33541776159E+02  0.31505227609E+01  0.50528862665E+02  0.30000008558E+02 0.  0.
         12    1    1    2    0    0 -0.22763763029E+02 -0.33541776159E+02 -0.31505227609E+01  0.40659137335E+02  0.00000000000E+00 0. -1.
         11    1    3    3    0    0 -0.36830244355E+01  0.30130330082E+01  0.19752747835E+01  0.51521595115E+01  0.51100000000E-03 0. -1.
        -11    1    3    3    0    0 -0.23766227936E+01  0.88792739868E+01  0.15765114267E+01  0.93260511995E+01  0.51100000000E-03 0.  1.
        -12    1    3    3    0    0  0.28823410258E+02  0.21649469164E+02 -0.40126344934E+00  0.36050651954E+02  0.00000000000E+00 0.  1.
</event>
<event>
 7    1  0.5290964E-013  0.5052886E+02  0.7816164E-02  0.1300439E+00
        -11   -1    0    0    0    0  0.00000000000E+00  0.00000000000E+00  0.45593999997E+02  0.45594000000E+02  0.51100000000E-03 0. -1.
         11   -1    0    0    0    0 -0.00000000000E+00 -0.00000000000E+00 -0.45593999997E+02  0.45594000000E+02  0.51100000000E-03 0.  1.
    9900012    2    1    2    0    0 -0.35103568078E+01 -0.39361586774E+02 -0.95660159443E+01  0.50528858601E+02  0.29999996203E+02 0.  0.
         12    1    1    2    0    0  0.35103568078E+01  0.39361586774E+02  0.95660159443E+01  0.40659141399E+02  0.00000000000E+00 0. -1.
         11    1    3    3    0    0 -0.51975388957E+01 -0.39312015346E+01  0.33124488225E+01  0.73103401796E+01  0.51100000000E-03 0. -1.
        -11    1    3    3    0    0  0.55853062517E+01 -0.19077514249E+02 -0.16718877977E+02  0.25974373466E+02  0.51100000000E-03 0.  1.
         12    1    3    3    0    0 -0.38981241638E+01 -0.16352870990E+02  0.38404132104E+01  0.17244144955E+02  0.00000000000E+00 0. -1.
</event>
<event>
 7    1  0.5290964E-013  0.5052886E+02  0.7816164E-02  0.1300439E+00
        -11   -1    0    0    0    0  0.00000000000E+00  0.00000000000E+00  0.45593999997E+02  0.45594000000E+02  0.51100000000E-03 0.  1.
         11   -1    0    0    0    0 -0.00000000000E+00 -0.00000000000E+00 -0.45593999997E+02  0.45594000000E+02  0.51100000000E-03 0. -1.
    9900012    2    1    2    0    0 -0.36634270984E+01 -0.80144615576E+01  0.39692736631E+02  0.50528860395E+02  0.30000001656E+02 0.  0.
         12    1    1    2    0    0  0.36634270984E+01  0.80144615576E+01 -0.39692736631E+02  0.40659139605E+02  0.00000000000E+00 0. -1.
         11    1    3    3    0    0  0.36279550437E+01 -0.81733141448E+01  0.11733444551E+01  0.90189721909E+01  0.51100000000E-03 0. -1.
        -11    1    3    3    0    0  0.76619178075E+00 -0.54305202212E+01  0.10914371075E+02  0.12214790049E+02  0.51100000000E-03 0.  1.
        -12    1    3    3    0    0 -0.80575739229E+01  0.55893728083E+01  0.27605021101E+02  0.29295098155E+02  0.00000000000E+00 0.  1.
</event>
<event>
 7    1  0.5290964E-013  0.5052878E+02  0.7816164E-02  0.1300439E+00
        -11   -1    0    0    0    0  0.00000000000E+00  0.00000000000E+00  0.45593999997E+02  0.45594000000E+02  0.51100000000E-03 0. -1.
         11   -1    0    0    0    0 -0.00000000000E+00 -0.00000000000E+00 -0.45593999997E+02  0.45594000000E+02  0.51100000000E-03 0.  1.
    9900012    2    1    2    0    0  0.39743410561E+02 -0.31624632017E+01 -0.79769978445E+01  0.50528777785E+02  0.29999750555E+02 0.  0.
         12    1    1    2    0    0 -0.39743410561E+02  0.31624632017E+01  0.79769978445E+01  0.40659222215E+02  0.00000000000E+00 0. -1.
         11    1    3    3    0    0 -0.52838663081E+00  0.20626158491E+01  0.22932482818E+01  0.31293073540E+01  0.51100000000E-03 0. -1.
        -11    1    3    3    0    0  0.16271537518E+01  0.58076620324E+01 -0.21173281205E+01  0.63921550549E+01  0.51100000000E-03 0.  1.
        -12    1    3    3    0    0  0.38644643440E+02 -0.11032741083E+02 -0.81529180057E+01  0.41007315377E+02  0.00000000000E+00 0.  1.
</event>
<event>
 7    1  0.5290964E-013  0.5052886E+02  0.7816164E-02  0.1300439E+00
        -11   -1    0    0    0    0  0.00000000000E+00  0.00000000000E+00  0.45593999997E+02  0.45594000000E+02  0.51100000000E-03 0.  1.
         11   -1    0    0    0    0 -0.00000000000E+00 -0.00000000000E+00 -0.45593999997E+02  0.45594000000E+02  0.51100000000E-03 0. -1.
    9900012    2    1    2    0    0 -0.24657614805E+02  0.17040194084E+02  0.27473613762E+02  0.50528860371E+02  0.30000001583E+02 0.  0.
         12    1    1    2    0    0  0.24657614805E+02 -0.17040194084E+02 -0.27473613762E+02  0.40659139629E+02  0.00000000000E+00 0. -1.
         11    1    3    3    0    0 -0.54465024114E+01 -0.17288867538E+01 -0.15292170037E+01  0.59153987888E+01  0.51100000000E-03 0. -1.
        -11    1    3    3    0    0 -0.15450405463E+02  0.70999873455E+01  0.51037047155E+01  0.17753102584E+02  0.51100000000E-03 0.  1.
        -12    1    3    3    0    0 -0.37607069300E+01  0.11669093492E+02  0.23899126050E+02  0.26860358998E+02  0.00000000000E+00 0.  1.
</event>
<event>
 7    1  0.5290964E-013  0.5052886E+02  0.7816164E-02  0.1300439E+00
        -11   -1    0    0    0    0  0.00000000000E+00  0.00000000000E+00  0.45593999997E+02  0.45594000000E+02  0.51100000000E-03 0. -1.
         11   -1    0    0    0    0 -0.00000000000E+00 -0.00000000000E+00 -0.45593999997E+02  0.45594000000E+02  0.51100000000E-03 0.  1.
    9900012    2    1    2    0    0  0.82686412060E+01 -0.78013028562E+01 -0.39037611293E+02  0.50528857743E+02  0.29999993596E+02 0.  0.
         12    1    1    2    0    0 -0.82686412060E+01  0.78013028562E+01  0.39037611293E+02  0.40659142257E+02  0.00000000000E+00 0. -1.
         11    1    3    3    0    0 -0.20319480384E+01 -0.30781931674E+01 -0.24046557726E+02  0.24327782980E+02  0.51100000000E-03 0. -1.
        -11    1    3    3    0    0 -0.12198853701E+01 -0.72582801657E+01 -0.30800108352E+00  0.73665199523E+01  0.51100000000E-03 0.  1.
        -12    1    3    3    0    0  0.11520474614E+02  0.25351704768E+01 -0.14683052483E+02  0.18834554811E+02  0.00000000000E+00 0.  1.
</event>
<event>
 7    1  0.5290964E-013  0.5052885E+02  0.7816164E-02  0.1300439E+00
        -11   -1    0    0    0    0  0.00000000000E+00  0.00000000000E+00  0.45593999997E+02  0.45594000000E+02  0.51100000000E-03 0.  1.
         11   -1    0    0    0    0 -0.00000000000E+00 -0.00000000000E+00 -0.45593999997E+02  0.45594000000E+02  0.51100000000E-03 0. -1.
    9900012    2    1    2    0    0  0.24099902739E+02  0.30826995114E+02  0.11047951100E+02  0.50528853879E+02  0.29999981850E+02 0.  0.
         12    1    1    2    0    0 -0.24099902739E+02 -0.30826995114E+02 -0.11047951100E+02  0.40659146121E+02  0.00000000000E+00 0. -1.
         11    1    3    3    0    0  0.22518546650E+02  0.11418006016E+02  0.16544241233E+02  0.30185554870E+02  0.51100000000E-03 0.  1.
        -11    1    3    3    0    0  0.68651182443E+00  0.17932127581E+01 -0.87102936572E+00  0.21084598402E+01  0.51100000000E-03 0. -1.
        -12    1    3    3    0    0  0.89484426466E+00  0.17615776340E+02 -0.46252607671E+01  0.18234839168E+02  0.00000000000E+00 0.  1.
</event>
<event>
 7    1  0.5290964E-013  0.5052887E+02  0.7816164E-02  0.1300439E+00
        -11   -1    0    0    0    0  0.00000000000E+00  0.00000000000E+00  0.45593999997E+02  0.45594000000E+02  0.51100000000E-03 0.  1.
         11   -1    0    0    0    0 -0.00000000000E+00 -0.00000000000E+00 -0.45593999997E+02  0.45594000000E+02  0.51100000000E-03 0. -1.
    9900012    2    1    2    0    0 -0.80617830703E+01  0.13818096970E+02  0.37379574137E+02  0.50528871716E+02  0.30000036068E+02 0.  0.
         12    1    1    2    0    0  0.80617830703E+01 -0.13818096970E+02 -0.37379574137E+02  0.40659128284E+02  0.00000000000E+00 0. -1.
         11    1    3    3    0    0 -0.33339724931E+01 -0.59149984220E+01  0.87880189085E+00  0.68465226167E+01  0.51100000000E-03 0. -1.
        -11    1    3    3    0    0 -0.18090332825E+01  0.14836046894E+02  0.14028693158E+02  0.20498417520E+02  0.51100000000E-03 0.  1.
        -12    1    3    3    0    0 -0.29187772946E+01  0.48970484972E+01  0.22472079089E+02  0.23183931579E+02  0.00000000000E+00 0.  1.
</event>
<event>
 7    1  0.5290964E-013  0.5052886E+02  0.7816164E-02  0.1300439E+00
        -11   -1    0    0    0    0  0.00000000000E+00  0.00000000000E+00  0.45593999997E+02  0.45594000000E+02  0.51100000000E-03 0.  1.
         11   -1    0    0    0    0 -0.00000000000E+00 -0.00000000000E+00 -0.45593999997E+02  0.45594000000E+02  0.51100000000E-03 0. -1.
    9900012    2    1    2    0    0  0.34522940511E+02  0.16252511478E+02  0.14042359445E+02  0.50528863146E+02  0.30000010019E+02 0.  0.
         12    1    1    2    0    0 -0.34522940511E+02 -0.16252511478E+02 -0.14042359445E+02  0.40659136854E+02  0.00000000000E+00 0. -1.
         11    1    3    3    0    0 -0.25689267726E+01  0.32132352377E+01  0.13555485895E+01  0.43314867766E+01  0.51100000000E-03 0. -1.
        -11    1    3    3    0    0  0.14939095228E+01 -0.44124397552E+01  0.23929903213E+01  0.52371550669E+01  0.51100000000E-03 0.  1.
        -12    1    3    3    0    0  0.35597957761E+02  0.17451715996E+02  0.10293820534E+02  0.40960221303E+02  0.00000000000E+00 0.  1.
</event>
<event>
 7    1  0.5290964E-013  0.5052886E+02  0.7816164E-02  0.1300439E+00
        -11   -1    0    0    0    0  0.00000000000E+00  0.00000000000E+00  0.45593999997E+02  0.45594000000E+02  0.51100000000E-03 0.  1.
         11   -1    0    0    0    0 -0.00000000000E+00 -0.00000000000E+00 -0.45593999997E+02  0.45594000000E+02  0.51100000000E-03 0. -1.
    9900012    2    1    2    0    0 -0.11954647186E+02 -0.37663570109E+02 -0.95763941373E+01  0.50528862929E+02  0.30000009359E+02 0.  0.
         12    1    1    2    0    0  0.11954647186E+02  0.37663570109E+02  0.95763941373E+01  0.40659137071E+02  0.00000000000E+00 0. -1.
         11    1    3    3    0    0 -0.86217934903E+01 -0.24604625221E+02 -0.87759110016E+01  0.27508898913E+02  0.51100000000E-03 0. -1.
        -11    1    3    3    0    0 -0.65708074609E+01 -0.16689554939E+02 -0.18867414407E+01  0.18035424815E+02  0.51100000000E-03 0.  1.
        -12    1    3    3    0    0  0.32379537656E+01  0.36306100510E+01  0.10862583050E+01  0.49845391999E+01  0.00000000000E+00 0.  1.
</event>
<event>
 7    1  0.5290964E-013  0.5052885E+02  0.7816164E-02  0.1300439E+00
        -11   -1    0    0    0    0  0.00000000000E+00  0.00000000000E+00  0.45593999997E+02  0.45594000000E+02  0.51100000000E-03 0.  1.
         11   -1    0    0    0    0 -0.00000000000E+00 -0.00000000000E+00 -0.45593999997E+02  0.45594000000E+02  0.51100000000E-03 0. -1.
    9900012    2    1    2    0    0 -0.10397862197E+02  0.23829544412E+02  0.31260257001E+02  0.50528851055E+02  0.29999973267E+02 0.  0.
         12    1    1    2    0    0  0.10397862197E+02 -0.23829544412E+02 -0.31260257001E+02  0.40659148945E+02  0.00000000000E+00 0. -1.
         11    1    3    3    0    0 -0.16514479173E+01 -0.18591151575E+01 -0.30342586205E-01  0.24868675731E+01  0.51100000000E-03 0. -1.
        -11    1    3    3    0    0 -0.12849104399E+02  0.58341601257E+01  0.21013156696E+02  0.25311848269E+02  0.51100000000E-03 0.  1.
        -12    1    3    3    0    0  0.41026901191E+01  0.19854499444E+02  0.10277442891E+02  0.22730135213E+02  0.00000000000E+00 0.  1.
</event>
<event>
 7    1  0.5290964E-013  0.5052887E+02  0.7816164E-02  0.1300439E+00
        -11   -1    0    0    0    0  0.00000000000E+00  0.00000000000E+00  0.45593999997E+02  0.45594000000E+02  0.51100000000E-03 0.  1.
         11   -1    0    0    0    0 -0.00000000000E+00 -0.00000000000E+00 -0.45593999997E+02  0.45594000000E+02  0.51100000000E-03 0. -1.
    9900012    2    1    2    0    0  0.46039492945E+01 -0.10262612795E-01  0.40397630965E+02  0.50528867667E+02  0.30000023762E+02 0.  0.
         12    1    1    2    0    0 -0.46039492945E+01  0.10262612795E-01 -0.40397630965E+02  0.40659132333E+02  0.00000000000E+00 0. -1.
         11    1    3    3    0    0  0.12227136055E+01  0.28382011411E+01  0.61794571550E+01  0.69091320200E+01  0.51100000000E-03 0. -1.
        -11    1    3    3    0    0  0.14885915228E+02 -0.68595363703E+00  0.23004217455E+02  0.27409031825E+02  0.51100000000E-03 0.  1.
        -12    1    3    3    0    0 -0.11504679539E+02 -0.21625101168E+01  0.11213956355E+02  0.16210703823E+02  0.00000000000E+00 0.  1.
</event>
<event>
 7    1  0.5290964E-013  0.5052885E+02  0.7816164E-02  0.1300439E+00
        -11   -1    0    0    0    0  0.00000000000E+00  0.00000000000E+00  0.45593999997E+02  0.45594000000E+02  0.51100000000E-03 0. -1.
         11   -1    0    0    0    0 -0.00000000000E+00 -0.00000000000E+00 -0.45593999997E+02  0.45594000000E+02  0.51100000000E-03 0.  1.
    9900012    2    1    2    0    0 -0.11222491598E+01  0.33769738868E+02 -0.22616628711E+02  0.50528848500E+02  0.29999965502E+02 0.  0.
         12    1    1    2    0    0  0.11222491598E+01 -0.33769738868E+02  0.22616628711E+02  0.40659151500E+02  0.00000000000E+00 0. -1.
         11    1    3    3    0    0 -0.24471842229E+01 -0.67153362600E-01 -0.19764498430E+01  0.31463589175E+01  0.51100000000E-03 0. -1.
        -11    1    3    3    0    0 -0.10483731344E+02  0.22323264305E+02 -0.18331204880E+02  0.30728973702E+02  0.51100000000E-03 0.  1.
        -12    1    3    3    0    0  0.11808666407E+02  0.11513627926E+02 -0.23089739879E+01  0.16653515881E+02  0.00000000000E+00 0.  1.
</event>
<event>
 7    1  0.5290964E-013  0.5052886E+02  0.7816164E-02  0.1300439E+00
        -11   -1    0    0    0    0  0.00000000000E+00  0.00000000000E+00  0.45593999997E+02  0.45594000000E+02  0.51100000000E-03 0.  1.
         11   -1    0    0    0    0 -0.00000000000E+00 -0.00000000000E+00 -0.45593999997E+02  0.45594000000E+02  0.51100000000E-03 0. -1.
    9900012    2    1    2    0    0 -0.29738600719E+01  0.20735445598E+02  0.34847713962E+02  0.50528859376E+02  0.29999998560E+02 0.  0.
         12    1    1    2    0    0  0.29738600719E+01 -0.20735445598E+02 -0.34847713962E+02  0.40659140624E+02  0.00000000000E+00 0. -1.
         11    1    3    3    0    0  0.24829198519E+01  0.67566064360E+00 -0.21484499562E+01  0.33522001389E+01  0.51100000000E-03 0. -1.
        -11    1    3    3    0    0 -0.86735787059E+01 -0.19609521211E+00  0.12711309744E+02  0.15389828348E+02  0.51100000000E-03 0.  1.
        -12    1    3    3    0    0  0.32167987821E+01  0.20255880166E+02  0.24284854174E+02  0.31786830889E+02  0.00000000000E+00 0.  1.
</event>
<event>
 7    1  0.5290964E-013  0.5052885E+02  0.7816164E-02  0.1300439E+00
        -11   -1    0    0    0    0  0.00000000000E+00  0.00000000000E+00  0.45593999997E+02  0.45594000000E+02  0.51100000000E-03 0. -1.
         11   -1    0    0    0    0 -0.00000000000E+00 -0.00000000000E+00 -0.45593999997E+02  0.45594000000E+02  0.51100000000E-03 0.  1.
    9900012    2    1    2    0    0  0.15811405282E+02  0.21351227124E+01 -0.37397956331E+02  0.50528850676E+02  0.29999972115E+02 0.  0.
         12    1    1    2    0    0 -0.15811405282E+02 -0.21351227124E+01  0.37397956331E+02  0.40659149324E+02  0.00000000000E+00 0. -1.
         11    1    3    3    0    0  0.21442090281E+01 -0.27020332237E+01 -0.14107744336E+01  0.37267815420E+01  0.51100000000E-03 0. -1.
        -11    1    3    3    0    0  0.14241303546E+02  0.77817626142E+01 -0.70233311200E+01  0.17683261474E+02  0.51100000000E-03 0.  1.
        -12    1    3    3    0    0 -0.57410729208E+00 -0.29446066780E+01 -0.28963850777E+02  0.29118807660E+02  0.00000000000E+00 0.  1.
</event>
<event>
 7    1  0.5290964E-013  0.5052887E+02  0.7816164E-02  0.1300439E+00
        -11   -1    0    0    0    0  0.00000000000E+00  0.00000000000E+00  0.45593999997E+02  0.45594000000E+02  0.51100000000E-03 0.  1.
         11   -1    0    0    0    0 -0.00000000000E+00 -0.00000000000E+00 -0.45593999997E+02  0.45594000000E+02  0.51100000000E-03 0. -1.
    9900012    2    1    2    0    0 -0.32007698131E+02 -0.43339508026E+01  0.24695928659E+02  0.50528871117E+02  0.30000034247E+02 0.  0.
         12    1    1    2    0    0  0.32007698131E+02  0.43339508026E+01 -0.24695928659E+02  0.40659128883E+02  0.00000000000E+00 0. -1.
         11    1    3    3    0    0 -0.96585416022E+01 -0.58920366698E+01  0.18220219343E+02  0.21447142354E+02  0.51100000000E-03 0. -1.
        -11    1    3    3    0    0 -0.45359983053E+01 -0.30316986523E+01  0.89897098631E+01  0.10515767258E+02  0.51100000000E-03 0.  1.
         12    1    3    3    0    0 -0.17813158223E+02  0.45897845196E+01 -0.25140005469E+01  0.18565961504E+02  0.00000000000E+00 0. -1.
</event>
<event>
 7    1  0.5290964E-013  0.5052885E+02  0.7816164E-02  0.1300439E+00
        -11   -1    0    0    0    0  0.00000000000E+00  0.00000000000E+00  0.45593999997E+02  0.45594000000E+02  0.51100000000E-03 0.  1.
         11   -1    0    0    0    0 -0.00000000000E+00 -0.00000000000E+00 -0.45593999997E+02  0.45594000000E+02  0.51100000000E-03 0. -1.
    9900012    2    1    2    0    0  0.21364194846E+02  0.34590178535E+02  0.50693503652E+00  0.50528852744E+02  0.29999978399E+02 0.  0.
         12    1    1    2    0    0 -0.21364194846E+02 -0.34590178535E+02 -0.50693503652E+00  0.40659147256E+02  0.00000000000E+00 0. -1.
         11    1    3    3    0    0 -0.56880346296E+00 -0.12434321678E+01 -0.12391986423E+01  0.18453385791E+01  0.51100000000E-03 0. -1.
        -11    1    3    3    0    0  0.12189450705E+02  0.84463790060E+01 -0.93921404916E+01  0.17553812409E+02  0.51100000000E-03 0.  1.
        -12    1    3    3    0    0  0.97435476039E+01  0.27387231697E+02  0.11138274170E+02  0.31129701756E+02  0.00000000000E+00 0.  1.
</event>
<event>
 7    1  0.5290964E-013  0.5052880E+02  0.7816164E-02  0.1300439E+00
        -11   -1    0    0    0    0  0.00000000000E+00  0.00000000000E+00  0.45593999997E+02  0.45594000000E+02  0.51100000000E-03 0.  1.
         11   -1    0    0    0    0 -0.00000000000E+00 -0.00000000000E+00 -0.45593999997E+02  0.45594000000E+02  0.51100000000E-03 0. -1.
    9900012    2    1    2    0    0  0.11742947224E+02 -0.30202276229E+02  0.24558024075E+02  0.50528796302E+02  0.29999806838E+02 0.  0.
         12    1    1    2    0    0 -0.11742947224E+02  0.30202276229E+02 -0.24558024075E+02  0.40659203698E+02  0.00000000000E+00 0. -1.
         11    1    3    3    0    0  0.10044233839E+02 -0.12120207182E+02  0.25501291565E+01  0.15946448335E+02  0.51100000000E-03 0. -1.
        -11    1    3    3    0    0  0.87695946277E+01 -0.46121720690E+01  0.32435576477E+01  0.10425861480E+02  0.51100000000E-03 0.  1.
        -12    1    3    3    0    0 -0.70708812423E+01 -0.13469896979E+02  0.18764337270E+02  0.24156486486E+02  0.00000000000E+00 0.  1.
</event>
<event>
 7    1  0.5290964E-013  0.5052886E+02  0.7816164E-02  0.1300439E+00
        -11   -1    0    0    0    0  0.00000000000E+00  0.00000000000E+00  0.45593999997E+02  0.45594000000E+02  0.51100000000E-03 0.  1.
         11   -1    0    0    0    0 -0.00000000000E+00 -0.00000000000E+00 -0.45593999997E+02  0.45594000000E+02  0.51100000000E-03 0. -1.
    9900012    2    1    2    0    0  0.14283317617E+02  0.25832589834E+02  0.27961221788E+02  0.50528858549E+02  0.29999996044E+02 0.  0.
         12    1    1    2    0    0 -0.14283317617E+02 -0.25832589834E+02 -0.27961221788E+02  0.40659141451E+02  0.00000000000E+00 0. -1.
         11    1    3    3    0    0  0.54683058016E+01  0.78883355860E+01 -0.13769646441E+01  0.96966096420E+01  0.51100000000E-03 0. -1.
        -11    1    3    3    0    0  0.82922208068E+01  0.53242092653E+00  0.18592566776E+02  0.20364870182E+02  0.51100000000E-03 0.  1.
         12    1    3    3    0    0  0.52279100860E+00  0.17411833322E+02  0.10745619656E+02  0.20467378724E+02  0.00000000000E+00 0. -1.
</event>
<event>
 7    1  0.5290964E-013  0.5052886E+02  0.7816164E-02  0.1300439E+00
        -11   -1    0    0    0    0  0.00000000000E+00  0.00000000000E+00  0.45593999997E+02  0.45594000000E+02  0.51100000000E-03 0.  1.
         11   -1    0    0    0    0 -0.00000000000E+00 -0.00000000000E+00 -0.45593999997E+02  0.45594000000E+02  0.51100000000E-03 0. -1.
    9900012    2    1    2    0    0 -0.12179228512E+02 -0.26235549002E+02  0.28574949980E+02  0.50528863204E+02  0.30000010196E+02 0.  0.
         12    1    1    2    0    0  0.12179228512E+02  0.26235549002E+02 -0.28574949980E+02  0.40659136796E+02  0.00000000000E+00 0. -1.
         11    1    3    3    0    0 -0.19207597149E+01 -0.13576953215E+02  0.18174561223E+01  0.13832068663E+02  0.51100000000E-03 0. -1.
        -11    1    3    3    0    0  0.90079055480E+00 -0.13013101913E+02  0.94777593116E+01  0.16123900485E+02  0.51100000000E-03 0.  1.
        -12    1    3    3    0    0 -0.11159259352E+02  0.35450612538E+00  0.17279734546E+02  0.20572894057E+02  0.00000000000E+00 0.  1.
</event>
<event>
 7    1  0.5290964E-013  0.5052885E+02  0.7816164E-02  0.1300439E+00
        -11   -1    0    0    0    0  0.00000000000E+00  0.00000000000E+00  0.45593999997E+02  0.45594000000E+02  0.51100000000E-03 0.  1.
         11   -1    0    0    0    0 -0.00000000000E+00 -0.00000000000E+00 -0.45593999997E+02  0.45594000000E+02  0.51100000000E-03 0. -1.
    9900012    2    1    2    0    0 -0.67525927709E+00  0.22275812482E+02  0.34007335663E+02  0.50528847577E+02  0.29999962696E+02 0.  0.
         12    1    1    2    0    0  0.67525927709E+00 -0.22275812482E+02 -0.34007335663E+02  0.40659152423E+02  0.00000000000E+00 0. -1.
         11    1    3    3    0    0 -0.83783723300E+01  0.14293576306E+02  0.20184158282E+02  0.26113285744E+02  0.51100000000E-03 0. -1.
        -11    1    3    3    0    0 -0.14046400373E+01 -0.35966203127E+01  0.73953681511E+01  0.83426711345E+01  0.51100000000E-03 0.  1.
        -12    1    3    3    0    0  0.91077530902E+01  0.11578856488E+02  0.64278092306E+01  0.16072890699E+02  0.00000000000E+00 0.  1.
</event>
<event>
 7    1  0.5290964E-013  0.5052887E+02  0.7816164E-02  0.1300439E+00
        -11   -1    0    0    0    0  0.00000000000E+00  0.00000000000E+00  0.45593999997E+02  0.45594000000E+02  0.51100000000E-03 0.  1.
         11   -1    0    0    0    0 -0.00000000000E+00 -0.00000000000E+00 -0.45593999997E+02  0.45594000000E+02  0.51100000000E-03 0. -1.
    9900012    2    1    2    0    0 -0.10894878033E+02  0.15113999213E+02  0.36139087292E+02  0.50528868555E+02  0.30000026459E+02 0.  0.
         12    1    1    2    0    0  0.10894878033E+02 -0.15113999213E+02 -0.36139087292E+02  0.40659131445E+02  0.00000000000E+00 0. -1.
         11    1    3    3    0    0 -0.56649037546E+00  0.30427054249E+01  0.48938855073E+01  0.57904303180E+01  0.51100000000E-03 0.  1.
        -11    1    3    3    0    0 -0.73547820895E+01  0.95266092210E+01  0.36358802588E+02  0.38298976862E+02  0.51100000000E-03 0. -1.
         12    1    3    3    0    0 -0.29736055683E+01  0.25446845672E+01 -0.51136008028E+01  0.64394613744E+01  0.00000000000E+00 0. -1.
</event>
<event>
 7    1  0.5290964E-013  0.5052886E+02  0.7816164E-02  0.1300439E+00
        -11   -1    0    0    0    0  0.00000000000E+00  0.00000000000E+00  0.45593999997E+02  0.45594000000E+02  0.51100000000E-03 0.  1.
         11   -1    0    0    0    0 -0.00000000000E+00 -0.00000000000E+00 -0.45593999997E+02  0.45594000000E+02  0.51100000000E-03 0. -1.
    9900012    2    1    2    0    0  0.13130292423E+02  0.35354436110E+02  0.15192928179E+02  0.50528858366E+02  0.29999995490E+02 0.  0.
         12    1    1    2    0    0 -0.13130292423E+02 -0.35354436110E+02 -0.15192928179E+02  0.40659141634E+02  0.00000000000E+00 0. -1.
         11    1    3    3    0    0 -0.32792753117E+01  0.31216624773E+01  0.35566030800E+01  0.57574168619E+01  0.51100000000E-03 0. -1.
        -11    1    3    3    0    0 -0.20742138599E+01  0.64734894221E+00 -0.43294042668E+01  0.48440856058E+01  0.51100000000E-03 0.  1.
        -12    1    3    3    0    0  0.18483781594E+02  0.31585424690E+02  0.15965729366E+02  0.39927355899E+02  0.00000000000E+00 0.  1.
</event>
<event>
 7    1  0.5290964E-013  0.5052887E+02  0.7816164E-02  0.1300439E+00
        -11   -1    0    0    0    0  0.00000000000E+00  0.00000000000E+00  0.45593999997E+02  0.45594000000E+02  0.51100000000E-03 0.  1.
         11   -1    0    0    0    0 -0.00000000000E+00 -0.00000000000E+00 -0.45593999997E+02  0.45594000000E+02  0.51100000000E-03 0. -1.
    9900012    2    1    2    0    0 -0.16258977547E+02 -0.12516897595E+02  0.35101825214E+02  0.50528865606E+02  0.30000017497E+02 0.  0.
         12    1    1    2    0    0  0.16258977547E+02  0.12516897595E+02 -0.35101825214E+02  0.40659134394E+02  0.00000000000E+00 0. -1.
         11    1    3    3    0    0  0.35671519824E+00 -0.50393892502E+01  0.89945977073E+01  0.10316272482E+02  0.51100000000E-03 0. -1.
        -11    1    3    3    0    0  0.48537633997E+01 -0.23145104226E+01 -0.76521504679E+00  0.54315312726E+01  0.51100000000E-03 0.  1.
        -12    1    3    3    0    0 -0.21469456145E+02 -0.51629979221E+01  0.26872442554E+02  0.34781061851E+02  0.00000000000E+00 0.  1.
</event>
<event>
 7    1  0.5290964E-013  0.5052885E+02  0.7816164E-02  0.1300439E+00
        -11   -1    0    0    0    0  0.00000000000E+00  0.00000000000E+00  0.45593999997E+02  0.45594000000E+02  0.51100000000E-03 0.  1.
         11   -1    0    0    0    0 -0.00000000000E+00 -0.00000000000E+00 -0.45593999997E+02  0.45594000000E+02  0.51100000000E-03 0. -1.
    9900012    2    1    2    0    0 -0.15836534693E+02 -0.19721157857E+02  0.31834670946E+02  0.50528853765E+02  0.29999981504E+02 0.  0.
         12    1    1    2    0    0  0.15836534693E+02  0.19721157857E+02 -0.31834670946E+02  0.40659146235E+02  0.00000000000E+00 0. -1.
         11    1    3    3    0    0  0.15279130551E+01 -0.94381911740E+01  0.41621020005E+00  0.95701202778E+01  0.51100000000E-03 0. -1.
        -11    1    3    3    0    0  0.28907301589E+01 -0.27937165313E+01  0.20715113232E+01  0.45224254921E+01  0.51100000000E-03 0.  1.
        -12    1    3    3    0    0 -0.20255177907E+02 -0.74892501519E+01  0.29346949423E+02  0.36436307995E+02  0.00000000000E+00 0.  1.
</event>
<event>
 7    1  0.5290964E-013  0.5052883E+02  0.7816164E-02  0.1300439E+00
        -11   -1    0    0    0    0  0.00000000000E+00  0.00000000000E+00  0.45593999997E+02  0.45594000000E+02  0.51100000000E-03 0.  1.
         11   -1    0    0    0    0 -0.00000000000E+00 -0.00000000000E+00 -0.45593999997E+02  0.45594000000E+02  0.51100000000E-03 0. -1.
    9900012    2    1    2    0    0 -0.10991029611E+02 -0.38803198160E+02  0.51650282375E+01  0.50528825930E+02  0.29999896896E+02 0.  0.
         12    1    1    2    0    0  0.10991029611E+02  0.38803198160E+02 -0.51650282375E+01  0.40659174070E+02  0.00000000000E+00 0. -1.
         11    1    3    3    0    0 -0.47905023241E+00 -0.29064438729E+02  0.62144627757E+01  0.29725252490E+02  0.51100000000E-03 0. -1.
        -11    1    3    3    0    0  0.72179651952E+00 -0.38671806381E+01  0.53208249749E+01  0.66171938900E+01  0.51100000000E-03 0.  1.
         12    1    3    3    0    0 -0.11233775898E+02 -0.58715787928E+01 -0.63702595130E+01  0.14186379549E+02  0.00000000000E+00 0. -1.
</event>
<event>
 7    1  0.5290964E-013  0.5052886E+02  0.7816164E-02  0.1300439E+00
        -11   -1    0    0    0    0  0.00000000000E+00  0.00000000000E+00  0.45593999997E+02  0.45594000000E+02  0.51100000000E-03 0.  1.
         11   -1    0    0    0    0 -0.00000000000E+00 -0.00000000000E+00 -0.45593999997E+02  0.45594000000E+02  0.51100000000E-03 0. -1.
    9900012    2    1    2    0    0 -0.11809012587E+02 -0.37602108726E+02  0.99896967450E+01  0.50528863265E+02  0.30000010381E+02 0.  0.
         12    1    1    2    0    0  0.11809012587E+02  0.37602108726E+02 -0.99896967450E+01  0.40659136735E+02  0.00000000000E+00 0. -1.
         11    1    3    3    0    0 -0.78600745959E+01 -0.11576087558E+02  0.10565567976E+02  0.17533334045E+02  0.51100000000E-03 0.  1.
        -11    1    3    3    0    0 -0.76184471713E+01 -0.21705610307E+01  0.32420753045E+01  0.85593881225E+01  0.51100000000E-03 0. -1.
         12    1    3    3    0    0  0.36695091803E+01 -0.23855460138E+02 -0.38179465359E+01  0.24436141098E+02  0.00000000000E+00 0. -1.
</event>
<event>
 7    1  0.5290964E-013  0.5052886E+02  0.7816164E-02  0.1300439E+00
        -11   -1    0    0    0    0  0.00000000000E+00  0.00000000000E+00  0.45593999997E+02  0.45594000000E+02  0.51100000000E-03 0.  1.
         11   -1    0    0    0    0 -0.00000000000E+00 -0.00000000000E+00 -0.45593999997E+02  0.45594000000E+02  0.51100000000E-03 0. -1.
    9900012    2    1    2    0    0 -0.18800846654E+02  0.25281813382E+02  0.25700657760E+02  0.50528859182E+02  0.29999997969E+02 0.  0.
         12    1    1    2    0    0  0.18800846654E+02 -0.25281813382E+02 -0.25700657760E+02  0.40659140818E+02  0.00000000000E+00 0. -1.
         11    1    3    3    0    0 -0.15834828556E+01  0.59731129839E+01  0.47741875131E+01  0.78088644081E+01  0.51100000000E-03 0. -1.
        -11    1    3    3    0    0 -0.18767174798E+02  0.11361632825E+02  0.25324719485E+02  0.33505745292E+02  0.51100000000E-03 0.  1.
         12    1    3    3    0    0  0.15498110004E+01  0.79470675731E+01 -0.43982492374E+01  0.92142494812E+01  0.00000000000E+00 0. -1.
</event>
<event>
 7    1  0.5311525E-013  0.5052887E+02  0.7816164E-02  0.1300439E+00
        -11   -1    0    0    0    0  0.00000000000E+00  0.00000000000E+00  0.45593999997E+02  0.45594000000E+02  0.51100000000E-03 0. -1.
         11   -1    0    0    0    0 -0.00000000000E+00 -0.00000000000E+00 -0.45593999997E+02  0.45594000000E+02  0.51100000000E-03 0.  1.
    9900012    2    1    2    0    0 -0.38593114152E+02  0.87082867488E+01 -0.93756293806E+01  0.50528866409E+02  0.30000019937E+02 0.  0.
         12    1    1    2    0    0  0.38593114152E+02 -0.87082867488E+01  0.93756293806E+01  0.40659133591E+02  0.00000000000E+00 0. -1.
         11    1    3    3    0    0 -0.36007492859E+01 -0.57070106629E+01 -0.34968459455E+00  0.67570441543E+01  0.51100000000E-03 0. -1.
        -11    1    3    3    0    0 -0.30213132676E+02  0.33313887950E+01 -0.38522594029E+01  0.30639377281E+02  0.51100000000E-03 0.  1.
         12    1    3    3    0    0 -0.47792321909E+01  0.11083908617E+02 -0.51736853832E+01  0.13132444974E+02  0.00000000000E+00 0. -1.
</event>
<event>
 7    1  0.5290964E-013  0.5052888E+02  0.7816164E-02  0.1300439E+00
        -11   -1    0    0    0    0  0.00000000000E+00  0.00000000000E+00  0.45593999997E+02  0.45594000000E+02  0.51100000000E-03 0.  1.
         11   -1    0    0    0    0 -0.00000000000E+00 -0.00000000000E+00 -0.45593999997E+02  0.45594000000E+02  0.51100000000E-03 0. -1.
    9900012    2    1    2    0    0  0.31554399713E+02 -0.22364069968E+02  0.12543224146E+02  0.50528877546E+02  0.30000053788E+02 0.  0.
         12    1    1    2    0    0 -0.31554399713E+02  0.22364069968E+02 -0.12543224146E+02  0.40659122454E+02  0.00000000000E+00 0. -1.
         11    1    3    3    0    0  0.26205291628E+01 -0.25126712145E+01 -0.72129625762E+01  0.80751172817E+01  0.51100000000E-03 0. -1.
        -11    1    3    3    0    0  0.14059685268E+02 -0.10979687129E+02  0.25139944717E+01  0.18015228218E+02  0.51100000000E-03 0.  1.
        -12    1    3    3    0    0  0.14874185282E+02 -0.88717116240E+01  0.17242192251E+02  0.24438532046E+02  0.00000000000E+00 0.  1.
</event>
<event>
 7    1  0.5290964E-013  0.5052885E+02  0.7816164E-02  0.1300439E+00
        -11   -1    0    0    0    0  0.00000000000E+00  0.00000000000E+00  0.45593999997E+02  0.45594000000E+02  0.51100000000E-03 0.  1.
         11   -1    0    0    0    0 -0.00000000000E+00 -0.00000000000E+00 -0.45593999997E+02  0.45594000000E+02  0.51100000000E-03 0. -1.
    9900012    2    1    2    0    0  0.13646583487E+02 -0.38278884749E+02  0.12898981552E+01  0.50528854710E+02  0.29999984376E+02 0.  0.
         12    1    1    2    0    0 -0.13646583487E+02  0.38278884749E+02 -0.12898981552E+01  0.40659145290E+02  0.00000000000E+00 0. -1.
         11    1    3    3    0    0 -0.20230026757E+01 -0.30424676127E+01  0.15830328833E+00  0.36570765910E+01  0.51100000000E-03 0. -1.
        -11    1    3    3    0    0 -0.69046608864E+01 -0.13916064950E+02 -0.20016600892E+01  0.15663264316E+02  0.51100000000E-03 0.  1.
         12    1    3    3    0    0  0.22574247049E+02 -0.21320352186E+02  0.31332549560E+01  0.31208513803E+02  0.00000000000E+00 0. -1.
</event>
<event>
 7    1  0.5290964E-013  0.5052886E+02  0.7816164E-02  0.1300439E+00
        -11   -1    0    0    0    0  0.00000000000E+00  0.00000000000E+00  0.45593999997E+02  0.45594000000E+02  0.51100000000E-03 0.  1.
         11   -1    0    0    0    0 -0.00000000000E+00 -0.00000000000E+00 -0.45593999997E+02  0.45594000000E+02  0.51100000000E-03 0. -1.
    9900012    2    1    2    0    0 -0.95862757355E+00  0.22348305001E+02  0.33952907220E+02  0.50528860659E+02  0.30000002461E+02 0.  0.
         12    1    1    2    0    0  0.95862757355E+00 -0.22348305001E+02 -0.33952907220E+02  0.40659139341E+02  0.00000000000E+00 0. -1.
         11    1    3    3    0    0 -0.36009404025E+01 -0.99097945122E+00 -0.90906158153E-01  0.37359170555E+01  0.51100000000E-03 0. -1.
        -11    1    3    3    0    0 -0.89241344278E+01  0.12399134179E+02  0.11173646430E+02  0.18926940547E+02  0.51100000000E-03 0.  1.
        -12    1    3    3    0    0  0.11566447257E+02  0.10940150274E+02  0.22870166948E+02  0.27866003057E+02  0.00000000000E+00 0.  1.
</event>
<event>
 7    1  0.5290964E-013  0.5052886E+02  0.7816164E-02  0.1300439E+00
        -11   -1    0    0    0    0  0.00000000000E+00  0.00000000000E+00  0.45593999997E+02  0.45594000000E+02  0.51100000000E-03 0.  1.
         11   -1    0    0    0    0 -0.00000000000E+00 -0.00000000000E+00 -0.45593999997E+02  0.45594000000E+02  0.51100000000E-03 0. -1.
    9900012    2    1    2    0    0 -0.10426012736E+02  0.23777171304E+02  0.31290738487E+02  0.50528856725E+02  0.29999990502E+02 0.  0.
         12    1    1    2    0    0  0.10426012736E+02 -0.23777171304E+02 -0.31290738487E+02  0.40659143275E+02  0.00000000000E+00 0. -1.
         11    1    3    3    0    0 -0.16828899624E+01 -0.83484338894E+00  0.36443653637E+01  0.41000586916E+01  0.51100000000E-03 0. -1.
        -11    1    3    3    0    0  0.62943678243E+01 -0.19335792486E+01  0.68785503285E+01  0.95221977453E+01  0.51100000000E-03 0.  1.
         12    1    3    3    0    0 -0.15037490598E+02  0.26545593942E+02  0.20767822794E+02  0.36906600288E+02  0.00000000000E+00 0. -1.
</event>
<event>
 7    1  0.5290964E-013  0.5052886E+02  0.7816164E-02  0.1300439E+00
        -11   -1    0    0    0    0  0.00000000000E+00  0.00000000000E+00  0.45593999997E+02  0.45594000000E+02  0.51100000000E-03 0.  1.
         11   -1    0    0    0    0 -0.00000000000E+00 -0.00000000000E+00 -0.45593999997E+02  0.45594000000E+02  0.51100000000E-03 0. -1.
    9900012    2    1    2    0    0  0.31163637735E+02 -0.21380175539E+01  0.26027334847E+02  0.50528860866E+02  0.30000003087E+02 0.  0.
         12    1    1    2    0    0 -0.31163637735E+02  0.21380175539E+01 -0.26027334847E+02  0.40659139134E+02  0.00000000000E+00 0. -1.
         11    1    3    3    0    0  0.10210793494E+02  0.98915285292E+01  0.68870685499E+01  0.15796656415E+02  0.51100000000E-03 0. -1.
        -11    1    3    3    0    0  0.16305864716E+02 -0.27720644852E+01  0.17782170600E+02  0.24285204491E+02  0.51100000000E-03 0.  1.
         12    1    3    3    0    0  0.46469795241E+01 -0.92574815979E+01  0.13580956972E+01  0.10446999960E+02  0.00000000000E+00 0. -1.
</event>
<event>
 7    1  0.5290964E-013  0.5052885E+02  0.7816164E-02  0.1300439E+00
        -11   -1    0    0    0    0  0.00000000000E+00  0.00000000000E+00  0.45593999997E+02  0.45594000000E+02  0.51100000000E-03 0.  1.
         11   -1    0    0    0    0 -0.00000000000E+00 -0.00000000000E+00 -0.45593999997E+02  0.45594000000E+02  0.51100000000E-03 0. -1.
    9900012    2    1    2    0    0  0.10297328856E+01  0.74796458086E+01  0.39951983306E+02  0.50528850706E+02  0.29999972205E+02 0.  0.
         12    1    1    2    0    0 -0.10297328856E+01 -0.74796458086E+01 -0.39951983306E+02  0.40659149294E+02  0.00000000000E+00 0. -1.
         11    1    3    3    0    0  0.41360720171E+01 -0.59363815367E+01  0.14215986436E+02  0.15951237823E+02  0.51100000000E-03 0. -1.
        -11    1    3    3    0    0 -0.34874151228E+00 -0.34027847757E+00  0.19014354000E+02  0.19020595900E+02  0.51100000000E-03 0.  1.
        -12    1    3    3    0    0 -0.27575976192E+01  0.13756305823E+02  0.67216428700E+01  0.15557016983E+02  0.00000000000E+00 0.  1.
</event>
<event>
 7    1  0.5290964E-013  0.5052885E+02  0.7816164E-02  0.1300439E+00
        -11   -1    0    0    0    0  0.00000000000E+00  0.00000000000E+00  0.45593999997E+02  0.45594000000E+02  0.51100000000E-03 0.  1.
         11   -1    0    0    0    0 -0.00000000000E+00 -0.00000000000E+00 -0.45593999997E+02  0.45594000000E+02  0.51100000000E-03 0. -1.
    9900012    2    1    2    0    0 -0.26596278973E+02  0.84551488757E+01  0.29568809525E+02  0.50528854726E+02  0.29999984424E+02 0.  0.
         12    1    1    2    0    0  0.26596278973E+02 -0.84551488757E+01 -0.29568809525E+02  0.40659145274E+02  0.00000000000E+00 0. -1.
         11    1    3    3    0    0 -0.19259179744E+02  0.85495613709E+01  0.72606163478E+01  0.22287385537E+02  0.51100000000E-03 0. -1.
        -11    1    3    3    0    0  0.19674850484E+01  0.47609753929E+01  0.22872806422E+01  0.56364472059E+01  0.51100000000E-03 0.  1.
        -12    1    3    3    0    0 -0.93045842771E+01 -0.48553878881E+01  0.20020912535E+02  0.22605021983E+02  0.00000000000E+00 0.  1.
</event>
<event>
 7    1  0.5290964E-013  0.5052884E+02  0.7816164E-02  0.1300439E+00
        -11   -1    0    0    0    0  0.00000000000E+00  0.00000000000E+00  0.45593999997E+02  0.45594000000E+02  0.51100000000E-03 0. -1.
         11   -1    0    0    0    0 -0.00000000000E+00 -0.00000000000E+00 -0.45593999997E+02  0.45594000000E+02  0.51100000000E-03 0.  1.
    9900012    2    1    2    0    0  0.32248726529E+02 -0.23451104707E+02 -0.79518993304E+01  0.50528838946E+02  0.29999936459E+02 0.  0.
         12    1    1    2    0    0 -0.32248726529E+02  0.23451104707E+02  0.79518993304E+01  0.40659161054E+02  0.00000000000E+00 0. -1.
         11    1    3    3    0    0  0.13908674849E+02 -0.52182645234E+01  0.25727883788E+01  0.15076496974E+02  0.51100000000E-03 0. -1.
        -11    1    3    3    0    0  0.17576160010E+02 -0.15002138025E+02  0.13253161133E+01  0.23146101380E+02  0.51100000000E-03 0.  1.
         12    1    3    3    0    0  0.76389166950E+00 -0.32307021579E+01 -0.11850003822E+02  0.12306240592E+02  0.00000000000E+00 0. -1.
</event>
<event>
 7    1  0.5290964E-013  0.5052886E+02  0.7816164E-02  0.1300439E+00
        -11   -1    0    0    0    0  0.00000000000E+00  0.00000000000E+00  0.45593999997E+02  0.45594000000E+02  0.51100000000E-03 0. -1.
         11   -1    0    0    0    0 -0.00000000000E+00 -0.00000000000E+00 -0.45593999997E+02  0.45594000000E+02  0.51100000000E-03 0.  1.
    9900012    2    1    2    0    0  0.27815457581E+01  0.33038161471E+02 -0.23535264453E+02  0.50528858555E+02  0.29999996062E+02 0.  0.
         12    1    1    2    0    0 -0.27815457581E+01 -0.33038161471E+02  0.23535264453E+02  0.40659141445E+02  0.00000000000E+00 0. -1.
         11    1    3    3    0    0  0.32016533619E+01  0.11515298084E+02 -0.66630194024E+01  0.13683877449E+02  0.51100000000E-03 0. -1.
        -11    1    3    3    0    0 -0.80155148532E+00  0.17589998725E+02 -0.23357359930E+02  0.29250928243E+02  0.51100000000E-03 0.  1.
        -12    1    3    3    0    0  0.38144388151E+00  0.39328646619E+01  0.64851148792E+01  0.75940528626E+01  0.00000000000E+00 0.  1.
</event>
<event>
 7    1  0.5290964E-013  0.5052887E+02  0.7816164E-02  0.1300439E+00
        -11   -1    0    0    0    0  0.00000000000E+00  0.00000000000E+00  0.45593999997E+02  0.45594000000E+02  0.51100000000E-03 0. -1.
         11   -1    0    0    0    0 -0.00000000000E+00 -0.00000000000E+00 -0.45593999997E+02  0.45594000000E+02  0.51100000000E-03 0.  1.
    9900012    2    1    2    0    0  0.24467776076E+02 -0.28237889629E+02  0.16034795122E+02  0.50528866568E+02  0.30000020421E+02 0.  0.
         12    1    1    2    0    0 -0.24467776076E+02  0.28237889629E+02 -0.16034795122E+02  0.40659133432E+02  0.00000000000E+00 0. -1.
         11    1    3    3    0    0  0.52392830109E+01 -0.10845221353E+02  0.30644986233E+01  0.12428196359E+02  0.51100000000E-03 0. -1.
        -11    1    3    3    0    0  0.75743663116E+01 -0.30265437119E+01 -0.70940153721E+01  0.10809997513E+02  0.51100000000E-03 0.  1.
         12    1    3    3    0    0  0.11654126754E+02 -0.14366124564E+02  0.20064311871E+02  0.27290672697E+02  0.00000000000E+00 0. -1.
</event>
<event>
 7    1  0.5290964E-013  0.5052885E+02  0.7816164E-02  0.1300439E+00
        -11   -1    0    0    0    0  0.00000000000E+00  0.00000000000E+00  0.45593999997E+02  0.45594000000E+02  0.51100000000E-03 0. -1.
         11   -1    0    0    0    0 -0.00000000000E+00 -0.00000000000E+00 -0.45593999997E+02  0.45594000000E+02  0.51100000000E-03 0.  1.
    9900012    2    1    2    0    0 -0.18619718250E+01 -0.13164768586E+01 -0.40595152307E+02  0.50528850462E+02  0.29999971463E+02 0.  0.
         12    1    1    2    0    0  0.18619718250E+01  0.13164768586E+01  0.40595152307E+02  0.40659149538E+02  0.00000000000E+00 0. -1.
         11    1    3    3    0    0  0.90859048639E+00 -0.90802445523E+01 -0.66635664154E+01  0.11299535187E+02  0.51100000000E-03 0. -1.
        -11    1    3    3    0    0  0.41724426626E+01 -0.41548843114E+01 -0.10577425986E+02  0.12105960605E+02  0.51100000000E-03 0.  1.
         12    1    3    3    0    0 -0.69430049740E+01  0.11918652005E+02 -0.23354159905E+02  0.27123354670E+02  0.00000000000E+00 0. -1.
</event>
<event>
 7    1  0.5290964E-013  0.5052887E+02  0.7816164E-02  0.1300439E+00
        -11   -1    0    0    0    0  0.00000000000E+00  0.00000000000E+00  0.45593999997E+02  0.45594000000E+02  0.51100000000E-03 0.  1.
         11   -1    0    0    0    0 -0.00000000000E+00 -0.00000000000E+00 -0.45593999997E+02  0.45594000000E+02  0.51100000000E-03 0. -1.
    9900012    2    1    2    0    0  0.16912253689E+02 -0.91087192724E+01  0.35835337653E+02  0.50528874132E+02  0.30000043412E+02 0.  0.
         12    1    1    2    0    0 -0.16912253689E+02  0.91087192724E+01 -0.35835337653E+02  0.40659125868E+02  0.00000000000E+00 0. -1.
         11    1    3    3    0    0  0.30829740827E+01  0.33664392114E+00 -0.22628062044E+01  0.38390559392E+01  0.51100000000E-03 0. -1.
        -11    1    3    3    0    0 -0.35779622941E+00  0.59283058052E+01  0.66120919450E+01  0.88877774506E+01  0.51100000000E-03 0.  1.
        -12    1    3    3    0    0  0.14187075835E+02 -0.15373668999E+02  0.31486051913E+02  0.37802040742E+02  0.00000000000E+00 0.  1.
</event>
<event>
 7    1  0.5290964E-013  0.5052886E+02  0.7816164E-02  0.1300439E+00
        -11   -1    0    0    0    0  0.00000000000E+00  0.00000000000E+00  0.45593999997E+02  0.45594000000E+02  0.51100000000E-03 0. -1.
         11   -1    0    0    0    0 -0.00000000000E+00 -0.00000000000E+00 -0.45593999997E+02  0.45594000000E+02  0.51100000000E-03 0.  1.
    9900012    2    1    2    0    0  0.24070789082E+02 -0.95866823210E+01 -0.31334621642E+02  0.50528857382E+02  0.29999992500E+02 0.  0.
         12    1    1    2    0    0 -0.24070789082E+02  0.95866823210E+01  0.31334621642E+02  0.40659142618E+02  0.00000000000E+00 0. -1.
         11    1    3    3    0    0  0.12923626221E+02 -0.62192631442E+01 -0.26923163432E+02  0.30505017263E+02  0.51100000000E-03 0. -1.
        -11    1    3    3    0    0 -0.41416759641E+00  0.17399295346E+01 -0.69120072048E+01  0.71396591966E+01  0.51100000000E-03 0.  1.
         12    1    3    3    0    0  0.11561330457E+02 -0.51073487114E+01  0.25005489943E+01  0.12884180923E+02  0.00000000000E+00 0. -1.
</event>
<event>
 7    1  0.5290964E-013  0.5052886E+02  0.7816164E-02  0.1300439E+00
        -11   -1    0    0    0    0  0.00000000000E+00  0.00000000000E+00  0.45593999997E+02  0.45594000000E+02  0.51100000000E-03 0. -1.
         11   -1    0    0    0    0 -0.00000000000E+00 -0.00000000000E+00 -0.45593999997E+02  0.45594000000E+02  0.51100000000E-03 0.  1.
    9900012    2    1    2    0    0 -0.14031106516E+02  0.27700243363E+02 -0.26248626339E+02  0.50528858136E+02  0.29999994791E+02 0.  0.
         12    1    1    2    0    0  0.14031106516E+02 -0.27700243363E+02  0.26248626339E+02  0.40659141864E+02  0.00000000000E+00 0. -1.
         11    1    3    3    0    0 -0.26919503461E+00  0.63238973780E+01  0.11155542787E+01  0.64271771116E+01  0.51100000000E-03 0. -1.
        -11    1    3    3    0    0 -0.88941991639E+01  0.22282915965E+02 -0.99095035538E+01  0.25958300862E+02  0.51100000000E-03 0.  1.
        -12    1    3    3    0    0 -0.48677123176E+01 -0.90656998058E+00 -0.17454677064E+02  0.18143380163E+02  0.00000000000E+00 0.  1.
</event>
<event>
 7    1  0.5290964E-013  0.5052885E+02  0.7816164E-02  0.1300439E+00
        -11   -1    0    0    0    0  0.00000000000E+00  0.00000000000E+00  0.45593999997E+02  0.45594000000E+02  0.51100000000E-03 0. -1.
         11   -1    0    0    0    0 -0.00000000000E+00 -0.00000000000E+00 -0.45593999997E+02  0.45594000000E+02  0.51100000000E-03 0.  1.
    9900012    2    1    2    0    0 -0.24604285927E+02 -0.31957349058E+02 -0.51500642299E+01  0.50528853350E+02  0.29999980241E+02 0.  0.
         12    1    1    2    0    0  0.24604285927E+02  0.31957349058E+02  0.51500642299E+01  0.40659146650E+02  0.00000000000E+00 0. -1.
         11    1    3    3    0    0  0.19598454038E+01 -0.12173583170E+02  0.43008697689E+01  0.13058889778E+02  0.51100000000E-03 0. -1.
        -11    1    3    3    0    0 -0.43360980642E+01 -0.83490916613E+01  0.25417230471E+01  0.97452262313E+01  0.51100000000E-03 0.  1.
        -12    1    3    3    0    0 -0.22228033267E+02 -0.11434674226E+02 -0.11992657046E+02  0.27724737340E+02  0.00000000000E+00 0.  1.
</event>
<event>
 7    1  0.5290964E-013  0.5052885E+02  0.7816164E-02  0.1300439E+00
        -11   -1    0    0    0    0  0.00000000000E+00  0.00000000000E+00  0.45593999997E+02  0.45594000000E+02  0.51100000000E-03 0. -1.
         11   -1    0    0    0    0 -0.00000000000E+00 -0.00000000000E+00 -0.45593999997E+02  0.45594000000E+02  0.51100000000E-03 0.  1.
    9900012    2    1    2    0    0 -0.22447882439E+02 -0.28608338335E+02 -0.18188504108E+02  0.50528854289E+02  0.29999983095E+02 0.  0.
         12    1    1    2    0    0  0.22447882439E+02  0.28608338335E+02  0.18188504108E+02  0.40659145711E+02  0.00000000000E+00 0. -1.
         11    1    3    3    0    0  0.14368846565E+01  0.17087914630E+01 -0.24083948263E+01  0.32840480631E+01  0.51100000000E-03 0. -1.
        -11    1    3    3    0    0 -0.25350577150E+02 -0.20214735180E+02 -0.17574345305E+02  0.36880142264E+02  0.51100000000E-03 0.  1.
         12    1    3    3    0    0  0.14658100546E+01 -0.10102394618E+02  0.17942360224E+01  0.10364663962E+02  0.00000000000E+00 0. -1.
</event>
<event>
 7    1  0.5290964E-013  0.5052886E+02  0.7816164E-02  0.1300439E+00
        -11   -1    0    0    0    0  0.00000000000E+00  0.00000000000E+00  0.45593999997E+02  0.45594000000E+02  0.51100000000E-03 0.  1.
         11   -1    0    0    0    0 -0.00000000000E+00 -0.00000000000E+00 -0.45593999997E+02  0.45594000000E+02  0.51100000000E-03 0. -1.
    9900012    2    1    2    0    0 -0.55761664278E+01  0.25769627629E+02  0.30951550763E+02  0.50528857919E+02  0.29999994129E+02 0.  0.
         12    1    1    2    0    0  0.55761664278E+01 -0.25769627629E+02 -0.30951550763E+02  0.40659142081E+02  0.00000000000E+00 0. -1.
         11    1    3    3    0    0 -0.20980702364E+01  0.45240551157E+01  0.36837231977E+01  0.61999024400E+01  0.51100000000E-03 0. -1.
        -11    1    3    3    0    0  0.19312576229E+01  0.23455656460E+02  0.29789528995E+02  0.37964636360E+02  0.51100000000E-03 0.  1.
         12    1    3    3    0    0 -0.54093538143E+01 -0.22100839471E+01 -0.25217014292E+01  0.63643191183E+01  0.00000000000E+00 0. -1.
</event>
<event>
 7    1  0.5290964E-013  0.5052887E+02  0.7816164E-02  0.1300439E+00
        -11   -1    0    0    0    0  0.00000000000E+00  0.00000000000E+00  0.45593999997E+02  0.45594000000E+02  0.51100000000E-03 0. -1.
         11   -1    0    0    0    0 -0.00000000000E+00 -0.00000000000E+00 -0.45593999997E+02  0.45594000000E+02  0.51100000000E-03 0.  1.
    9900012    2    1    2    0    0 -0.29149284025E+02  0.28301626421E+02  0.15818535716E+01  0.50528867225E+02  0.30000022418E+02 0.  0.
         12    1    1    2    0    0  0.29149284025E+02 -0.28301626421E+02 -0.15818535716E+01  0.40659132775E+02  0.00000000000E+00 0. -1.
         11    1    3    3    0    0 -0.10613785803E+02  0.71802450556E+01 -0.87481746325E+01  0.15515763848E+02  0.51100000000E-03 0. -1.
        -11    1    3    3    0    0 -0.19079709640E+02  0.19531046760E+02  0.29714689665E+01  0.27465009295E+02  0.51100000000E-03 0.  1.
         12    1    3    3    0    0  0.54421141759E+00  0.15903346058E+01  0.73585592377E+01  0.75480940826E+01  0.00000000000E+00 0. -1.
</event>
<event>
 7    1  0.5290964E-013  0.5052886E+02  0.7816164E-02  0.1300439E+00
        -11   -1    0    0    0    0  0.00000000000E+00  0.00000000000E+00  0.45593999997E+02  0.45594000000E+02  0.51100000000E-03 0.  1.
         11   -1    0    0    0    0 -0.00000000000E+00 -0.00000000000E+00 -0.45593999997E+02  0.45594000000E+02  0.51100000000E-03 0. -1.
    9900012    2    1    2    0    0  0.34243483260E+02  0.21807745712E+02  0.22297619416E+01  0.50528858873E+02  0.29999997031E+02 0.  0.
         12    1    1    2    0    0 -0.34243483260E+02 -0.21807745712E+02 -0.22297619416E+01  0.40659141127E+02  0.00000000000E+00 0. -1.
         11    1    3    3    0    0  0.40515593489E-01 -0.28175746470E+00  0.86872075297E+00  0.91416890670E+00  0.51100000000E-03 0. -1.
        -11    1    3    3    0    0  0.32951696228E+02  0.28078749493E+02 -0.22866739411E+00  0.43292987267E+02  0.51100000000E-03 0.  1.
        -12    1    3    3    0    0  0.12512714384E+01 -0.59892463160E+01  0.15897085828E+01  0.63217026998E+01  0.00000000000E+00 0.  1.
</event>
<event>
 7    1  0.5290964E-013  0.5052886E+02  0.7816164E-02  0.1300439E+00
        -11   -1    0    0    0    0  0.00000000000E+00  0.00000000000E+00  0.45593999997E+02  0.45594000000E+02  0.51100000000E-03 0.  1.
         11   -1    0    0    0    0 -0.00000000000E+00 -0.00000000000E+00 -0.45593999997E+02  0.45594000000E+02  0.51100000000E-03 0. -1.
    9900012    2    1    2    0    0 -0.15830402761E+02  0.34279918456E+02  0.15081485748E+02  0.50528859904E+02  0.30000000166E+02 0.  0.
         12    1    1    2    0    0  0.15830402761E+02 -0.34279918456E+02 -0.15081485748E+02  0.40659140096E+02  0.00000000000E+00 0. -1.
         11    1    3    3    0    0 -0.59413545303E+01  0.95852404698E+01  0.83634941927E+01  0.14040105551E+02  0.51100000000E-03 0. -1.
        -11    1    3    3    0    0 -0.67976658723E+01  0.18204597232E+01  0.10955386150E+02  0.13020860988E+02  0.51100000000E-03 0.  1.
         12    1    3    3    0    0 -0.30913823585E+01  0.22874218263E+02 -0.42373945947E+01  0.23467893365E+02  0.00000000000E+00 0. -1.
</event>
<event>
 7    1  0.5290964E-013  0.5052887E+02  0.7816164E-02  0.1300439E+00
        -11   -1    0    0    0    0  0.00000000000E+00  0.00000000000E+00  0.45593999997E+02  0.45594000000E+02  0.51100000000E-03 0. -1.
         11   -1    0    0    0    0 -0.00000000000E+00 -0.00000000000E+00 -0.45593999997E+02  0.45594000000E+02  0.51100000000E-03 0.  1.
    9900012    2    1    2    0    0 -0.24156940371E+02 -0.19454441730E+02  0.26289390814E+02  0.50528866456E+02  0.30000020081E+02 0.  0.
         12    1    1    2    0    0  0.24156940371E+02  0.19454441730E+02 -0.26289390814E+02  0.40659133544E+02  0.00000000000E+00 0. -1.
         11    1    3    3    0    0  0.16169357906E+00 -0.35887067218E+01  0.15647270530E+02  0.16054346329E+02  0.51100000000E-03 0. -1.
        -11    1    3    3    0    0 -0.18761643261E+01 -0.84026418350E+01  0.17591631902E+00  0.86113488605E+01  0.51100000000E-03 0.  1.
        -12    1    3    3    0    0 -0.22442469624E+02 -0.74630931736E+01  0.10466203965E+02  0.25863171267E+02  0.00000000000E+00 0.  1.
</event>
<event>
 7    1  0.5290964E-013  0.5052886E+02  0.7816164E-02  0.1300439E+00
        -11   -1    0    0    0    0  0.00000000000E+00  0.00000000000E+00  0.45593999997E+02  0.45594000000E+02  0.51100000000E-03 0.  1.
         11   -1    0    0    0    0 -0.00000000000E+00 -0.00000000000E+00 -0.45593999997E+02  0.45594000000E+02  0.51100000000E-03 0. -1.
    9900012    2    1    2    0    0 -0.14936122833E+02 -0.13420991923E+02  0.35354700289E+02  0.50528860535E+02  0.30000002082E+02 0.  0.
         12    1    1    2    0    0  0.14936122833E+02  0.13420991923E+02 -0.35354700289E+02  0.40659139465E+02  0.00000000000E+00 0. -1.
         11    1    3    3    0    0 -0.26335439509E+00 -0.14380417968E+02  0.29942076895E+02  0.33217371141E+02  0.51100000000E-03 0. -1.
        -11    1    3    3    0    0 -0.18316825737E+01 -0.12481087098E+01  0.34994254389E+01  0.41423200101E+01  0.51100000000E-03 0.  1.
         12    1    3    3    0    0 -0.12841085864E+02  0.22075347545E+01  0.19131979556E+01  0.13169169384E+02  0.00000000000E+00 0. -1.
</event>
<event>
 7    1  0.5290964E-013  0.5052886E+02  0.7816164E-02  0.1300439E+00
        -11   -1    0    0    0    0  0.00000000000E+00  0.00000000000E+00  0.45593999997E+02  0.45594000000E+02  0.51100000000E-03 0.  1.
         11   -1    0    0    0    0 -0.00000000000E+00 -0.00000000000E+00 -0.45593999997E+02  0.45594000000E+02  0.51100000000E-03 0. -1.
    9900012    2    1    2    0    0 -0.38505978242E+02  0.12947644540E+02  0.16773514609E+01  0.50528863666E+02  0.30000011599E+02 0.  0.
         12    1    1    2    0    0  0.38505978242E+02 -0.12947644540E+02 -0.16773514609E+01  0.40659136334E+02  0.00000000000E+00 0. -1.
         11    1    3    3    0    0 -0.15123992253E+01  0.49318604891E+01  0.35818062436E+01  0.62801222542E+01  0.51100000000E-03 0.  1.
        -11    1    3    3    0    0 -0.90288275841E+01  0.10128131218E+02  0.63980987415E+01  0.15001147865E+02  0.51100000000E-03 0. -1.
         12    1    3    3    0    0 -0.27964751433E+02 -0.21123471671E+01 -0.83025535242E+01  0.29247593547E+02  0.00000000000E+00 0. -1.
</event>
<event>
 7    1  0.5290964E-013  0.5052887E+02  0.7816164E-02  0.1300439E+00
        -11   -1    0    0    0    0  0.00000000000E+00  0.00000000000E+00  0.45593999997E+02  0.45594000000E+02  0.51100000000E-03 0.  1.
         11   -1    0    0    0    0 -0.00000000000E+00 -0.00000000000E+00 -0.45593999997E+02  0.45594000000E+02  0.51100000000E-03 0. -1.
    9900012    2    1    2    0    0  0.35777018284E+02 -0.13255420176E+02 -0.14052189612E+02  0.50528865304E+02  0.30000016579E+02 0.  0.
         12    1    1    2    0    0 -0.35777018284E+02  0.13255420176E+02  0.14052189612E+02  0.40659134696E+02  0.00000000000E+00 0. -1.
         11    1    3    3    0    0  0.13118390050E+02 -0.93209573021E+01 -0.66936866402E+01  0.17429223839E+02  0.51100000000E-03 0. -1.
        -11    1    3    3    0    0  0.21792850113E+02 -0.89403908444E+01  0.70868357413E+00  0.23566101442E+02  0.51100000000E-03 0.  1.
         12    1    3    3    0    0  0.86577812079E+00  0.50059279710E+01 -0.80671865464E+01  0.95335400235E+01  0.00000000000E+00 0. -1.
</event>
<event>
 7    1  0.5290964E-013  0.5052891E+02  0.7816164E-02  0.1300439E+00
        -11   -1    0    0    0    0  0.00000000000E+00  0.00000000000E+00  0.45593999997E+02  0.45594000000E+02  0.51100000000E-03 0.  1.
         11   -1    0    0    0    0 -0.00000000000E+00 -0.00000000000E+00 -0.45593999997E+02  0.45594000000E+02  0.51100000000E-03 0. -1.
    9900012    2    1    2    0    0 -0.14983657742E+02 -0.11696364794E+02  0.35942266804E+02  0.50528911327E+02  0.30000156470E+02 0.  0.
         12    1    1    2    0    0  0.14983657742E+02  0.11696364794E+02 -0.35942266804E+02  0.40659088673E+02  0.00000000000E+00 0. -1.
         11    1    3    3    0    0 -0.42018681450E+01  0.83234196242E+00  0.60080416637E+01  0.73786891752E+01  0.51100000000E-03 0. -1.
        -11    1    3    3    0    0 -0.13184765338E+02 -0.66042685831E+01  0.24700873137E+01  0.14951780233E+02  0.51100000000E-03 0.  1.
         12    1    3    3    0    0  0.24029757419E+01 -0.59244381731E+01  0.27464137827E+02  0.28198441919E+02  0.00000000000E+00 0. -1.
</event>
<event>
 7    1  0.5290964E-013  0.5052885E+02  0.7816164E-02  0.1300439E+00
        -11   -1    0    0    0    0  0.00000000000E+00  0.00000000000E+00  0.45593999997E+02  0.45594000000E+02  0.51100000000E-03 0.  1.
         11   -1    0    0    0    0 -0.00000000000E+00 -0.00000000000E+00 -0.45593999997E+02  0.45594000000E+02  0.51100000000E-03 0. -1.
    9900012    2    1    2    0    0  0.37312548065E+01 -0.11038821558E+02  0.38953674457E+02  0.50528848540E+02  0.29999965621E+02 0.  0.
         12    1    1    2    0    0 -0.37312548065E+01  0.11038821558E+02 -0.38953674457E+02  0.40659151460E+02  0.00000000000E+00 0. -1.
         11    1    3    3    0    0  0.69675522114E+01  0.19261523409E+01  0.29405007661E+02  0.30280543629E+02  0.51100000000E-03 0. -1.
        -11    1    3    3    0    0 -0.18163105628E+01 -0.24276442763E+01  0.91159535844E+01  0.96069272303E+01  0.51100000000E-03 0.  1.
         12    1    3    3    0    0 -0.14199868422E+01 -0.10537329623E+02  0.43271321073E+00  0.10641377680E+02  0.00000000000E+00 0. -1.
</event>
<event>
 7    1  0.5290964E-013  0.5052886E+02  0.7816164E-02  0.1300439E+00
        -11   -1    0    0    0    0  0.00000000000E+00  0.00000000000E+00  0.45593999997E+02  0.45594000000E+02  0.51100000000E-03 0. -1.
         11   -1    0    0    0    0 -0.00000000000E+00 -0.00000000000E+00 -0.45593999997E+02  0.45594000000E+02  0.51100000000E-03 0.  1.
    9900012    2    1    2    0    0  0.22595632357E+02  0.22969245138E+02 -0.24799538380E+02  0.50528856776E+02  0.29999990657E+02 0.  0.
         12    1    1    2    0    0 -0.22595632357E+02 -0.22969245138E+02  0.24799538380E+02  0.40659143224E+02  0.00000000000E+00 0. -1.
         11    1    3    3    0    0  0.12683814855E+02  0.13997336999E+02 -0.18033492950E+02  0.26115349329E+02  0.51100000000E-03 0. -1.
        -11    1    3    3    0    0  0.84600080355E+01  0.91776054623E+01 -0.12992454493E+02  0.18016771409E+02  0.51100000000E-03 0.  1.
         12    1    3    3    0    0  0.14518094670E+01 -0.20569732318E+00  0.62264090633E+01  0.63967360381E+01  0.00000000000E+00 0. -1.
</event>
<event>
 7    1  0.5290964E-013  0.5052885E+02  0.7816164E-02  0.1300439E+00
        -11   -1    0    0    0    0  0.00000000000E+00  0.00000000000E+00  0.45593999997E+02  0.45594000000E+02  0.51100000000E-03 0. -1.
         11   -1    0    0    0    0 -0.00000000000E+00 -0.00000000000E+00 -0.45593999997E+02  0.45594000000E+02  0.51100000000E-03 0.  1.
    9900012    2    1    2    0    0  0.26720316981E+02 -0.17125332599E+02 -0.25414833952E+02  0.50528854153E+02  0.29999982684E+02 0.  0.
         12    1    1    2    0    0 -0.26720316981E+02  0.17125332599E+02  0.25414833952E+02  0.40659145847E+02  0.00000000000E+00 0. -1.
         11    1    3    3    0    0  0.86783208355E+01 -0.93002587245E+01 -0.65364016941E+01  0.14301489861E+02  0.51100000000E-03 0. -1.
        -11    1    3    3    0    0  0.32979230956E+01 -0.14236953310E+02 -0.11187904827E+02  0.18404791522E+02  0.51100000000E-03 0.  1.
        -12    1    3    3    0    0  0.14744073050E+02  0.64118794356E+01 -0.76905274311E+01  0.17822572771E+02  0.00000000000E+00 0.  1.
</event>
<event>
 7    1  0.5290964E-013  0.5052888E+02  0.7816164E-02  0.1300439E+00
        -11   -1    0    0    0    0  0.00000000000E+00  0.00000000000E+00  0.45593999997E+02  0.45594000000E+02  0.51100000000E-03 0.  1.
         11   -1    0    0    0    0 -0.00000000000E+00 -0.00000000000E+00 -0.45593999997E+02  0.45594000000E+02  0.51100000000E-03 0. -1.
    9900012    2    1    2    0    0 -0.11322939333E+02 -0.90494292790E+01  0.37987667460E+02  0.50528880427E+02  0.30000062546E+02 0.  0.
         12    1    1    2    0    0  0.11322939333E+02  0.90494292790E+01 -0.37987667460E+02  0.40659119573E+02  0.00000000000E+00 0. -1.
         11    1    3    3    0    0 -0.92685753905E+01 -0.52937299003E+01  0.14606602205E+02  0.18090961673E+02  0.51100000000E-03 0. -1.
        -11    1    3    3    0    0 -0.10843549149E+02  0.19409275535E+01  0.16728999954E+02  0.20030207129E+02  0.51100000000E-03 0.  1.
         12    1    3    3    0    0  0.87891852063E+01 -0.56966269321E+01  0.66520653008E+01  0.12407711625E+02  0.00000000000E+00 0. -1.
</event>
<event>
 7    1  0.5290964E-013  0.5052886E+02  0.7816164E-02  0.1300439E+00
        -11   -1    0    0    0    0  0.00000000000E+00  0.00000000000E+00  0.45593999997E+02  0.45594000000E+02  0.51100000000E-03 0.  1.
         11   -1    0    0    0    0 -0.00000000000E+00 -0.00000000000E+00 -0.45593999997E+02  0.45594000000E+02  0.51100000000E-03 0. -1.
    9900012    2    1    2    0    0  0.29306671585E+02 -0.23591842356E+02  0.15417841009E+02  0.50528857774E+02  0.29999993689E+02 0.  0.
         12    1    1    2    0    0 -0.29306671585E+02  0.23591842356E+02 -0.15417841009E+02  0.40659142226E+02  0.00000000000E+00 0. -1.
         11    1    3    3    0    0  0.80971506391E+01 -0.29404392773E+01  0.79349061354E-01  0.86148899093E+01  0.51100000000E-03 0. -1.
        -11    1    3    3    0    0  0.14262905664E+02  0.28098904456E+01  0.55447882141E+01  0.15558619440E+02  0.51100000000E-03 0.  1.
        -12    1    3    3    0    0  0.69466152825E+01 -0.23461293525E+02  0.97937037337E+01  0.26355348424E+02  0.00000000000E+00 0.  1.
</event>
<event>
 7    1  0.5290964E-013  0.5052880E+02  0.7816164E-02  0.1300439E+00
        -11   -1    0    0    0    0  0.00000000000E+00  0.00000000000E+00  0.45593999997E+02  0.45594000000E+02  0.51100000000E-03 0. -1.
         11   -1    0    0    0    0 -0.00000000000E+00 -0.00000000000E+00 -0.45593999997E+02  0.45594000000E+02  0.51100000000E-03 0.  1.
    9900012    2    1    2    0    0 -0.12555281146E+02 -0.37920188438E+02 -0.75890955731E+01  0.50528804885E+02  0.29999832927E+02 0.  0.
         12    1    1    2    0    0  0.12555281146E+02  0.37920188438E+02  0.75890955731E+01  0.40659195115E+02  0.00000000000E+00 0. -1.
         11    1    3    3    0    0  0.78929701785E+00  0.69493240077E+00  0.65085676770E+01  0.65929791666E+01  0.51100000000E-03 0. -1.
        -11    1    3    3    0    0  0.31301145193E+00 -0.59220798603E+01 -0.38207473622E+00  0.59426414503E+01  0.51100000000E-03 0.  1.
        -12    1    3    3    0    0 -0.13657589616E+02 -0.32693040978E+02 -0.13715588514E+02  0.37993184268E+02  0.00000000000E+00 0.  1.
</event>
<event>
 7    1  0.5290964E-013  0.5052887E+02  0.7816164E-02  0.1300439E+00
        -11   -1    0    0    0    0  0.00000000000E+00  0.00000000000E+00  0.45593999997E+02  0.45594000000E+02  0.51100000000E-03 0.  1.
         11   -1    0    0    0    0 -0.00000000000E+00 -0.00000000000E+00 -0.45593999997E+02  0.45594000000E+02  0.51100000000E-03 0. -1.
    9900012    2    1    2    0    0  0.39070074424E+02 -0.86802692838E+01  0.71657130553E+01  0.50528865308E+02  0.30000016591E+02 0.  0.
         12    1    1    2    0    0 -0.39070074424E+02  0.86802692838E+01 -0.71657130553E+01  0.40659134692E+02  0.00000000000E+00 0. -1.
         11    1    3    3    0    0  0.18316855302E+01 -0.29371702173E+01  0.26729317782E+01  0.43733974572E+01  0.51100000000E-03 0. -1.
        -11    1    3    3    0    0  0.32110308805E+01 -0.62844509792E+01  0.94185175005E+01  0.11769176504E+02  0.51100000000E-03 0.  1.
        -12    1    3    3    0    0  0.34027358013E+02  0.54135191275E+00 -0.49257362233E+01  0.34386291346E+02  0.00000000000E+00 0.  1.
</event>
<event>
 7    1  0.5290964E-013  0.5052885E+02  0.7816164E-02  0.1300439E+00
        -11   -1    0    0    0    0  0.00000000000E+00  0.00000000000E+00  0.45593999997E+02  0.45594000000E+02  0.51100000000E-03 0.  1.
         11   -1    0    0    0    0 -0.00000000000E+00 -0.00000000000E+00 -0.45593999997E+02  0.45594000000E+02  0.51100000000E-03 0. -1.
    9900012    2    1    2    0    0  0.20764542723E+02 -0.13550260081E+02  0.32224075563E+02  0.50528845696E+02  0.29999956979E+02 0.  0.
         12    1    1    2    0    0 -0.20764542723E+02  0.13550260081E+02 -0.32224075563E+02  0.40659154304E+02  0.00000000000E+00 0. -1.
         11    1    3    3    0    0  0.12508737927E+02 -0.13195207285E+02  0.62387769706E+01  0.19222496148E+02  0.51100000000E-03 0. -1.
        -11    1    3    3    0    0  0.11783857451E+02  0.16755262355E+01  0.12674652963E+02  0.17387165168E+02  0.51100000000E-03 0.  1.
        -12    1    3    3    0    0 -0.35280526543E+01 -0.20305790313E+01  0.13310645630E+02  0.13919184381E+02  0.00000000000E+00 0.  1.
</event>
<event>
 7    1  0.5290964E-013  0.5052886E+02  0.7816164E-02  0.1300439E+00
        -11   -1    0    0    0    0  0.00000000000E+00  0.00000000000E+00  0.45593999997E+02  0.45594000000E+02  0.51100000000E-03 0.  1.
         11   -1    0    0    0    0 -0.00000000000E+00 -0.00000000000E+00 -0.45593999997E+02  0.45594000000E+02  0.51100000000E-03 0. -1.
    9900012    2    1    2    0    0  0.71063232977E+01 -0.18441247633E+02  0.35532887807E+02  0.50528861285E+02  0.30000004363E+02 0.  0.
         12    1    1    2    0    0 -0.71063232977E+01  0.18441247633E+02 -0.35532887807E+02  0.40659138715E+02  0.00000000000E+00 0. -1.
         11    1    3    3    0    0 -0.19286937941E+01 -0.26231013843E+01 -0.14142382899E+01  0.35497310919E+01  0.51100000000E-03 0. -1.
        -11    1    3    3    0    0  0.18297488016E+01 -0.39745241927E+01 -0.25882091000E+01  0.50836650010E+01  0.51100000000E-03 0.  1.
        -12    1    3    3    0    0  0.72052682902E+01 -0.11843622056E+02  0.39535335197E+02  0.41895465193E+02  0.00000000000E+00 0.  1.
</event>
<event>
 7    1  0.5290964E-013  0.5052886E+02  0.7816164E-02  0.1300439E+00
        -11   -1    0    0    0    0  0.00000000000E+00  0.00000000000E+00  0.45593999997E+02  0.45594000000E+02  0.51100000000E-03 0.  1.
         11   -1    0    0    0    0 -0.00000000000E+00 -0.00000000000E+00 -0.45593999997E+02  0.45594000000E+02  0.51100000000E-03 0. -1.
    9900012    2    1    2    0    0 -0.15005071479E+02 -0.37711014299E+02 -0.24275725356E+01  0.50528857388E+02  0.29999992516E+02 0.  0.
         12    1    1    2    0    0  0.15005071479E+02  0.37711014299E+02  0.24275725356E+01  0.40659142612E+02  0.00000000000E+00 0. -1.
         11    1    3    3    0    0 -0.58741420541E+01  0.28830981722E+01  0.14580335390E+01  0.67040034311E+01  0.51100000000E-03 0. -1.
        -11    1    3    3    0    0 -0.69250918964E+01 -0.65560834193E+01 -0.53364018113E+00  0.95511203363E+01  0.51100000000E-03 0.  1.
         12    1    3    3    0    0 -0.22058375286E+01 -0.34038029052E+02 -0.33519658935E+01  0.34273733620E+02  0.00000000000E+00 0. -1.
</event>
<event>
 7    1  0.5290964E-013  0.5052886E+02  0.7816164E-02  0.1300439E+00
        -11   -1    0    0    0    0  0.00000000000E+00  0.00000000000E+00  0.45593999997E+02  0.45594000000E+02  0.51100000000E-03 0.  1.
         11   -1    0    0    0    0 -0.00000000000E+00 -0.00000000000E+00 -0.45593999997E+02  0.45594000000E+02  0.51100000000E-03 0. -1.
    9900012    2    1    2    0    0 -0.34296727349E+02  0.18720882705E+02 -0.11244056431E+02  0.50528858825E+02  0.29999996884E+02 0.  0.
         12    1    1    2    0    0  0.34296727349E+02 -0.18720882705E+02  0.11244056431E+02  0.40659141175E+02  0.00000000000E+00 0. -1.
         11    1    3    3    0    0 -0.15341378060E+02  0.37360478779E+01 -0.14384168631E+02  0.21359312770E+02  0.51100000000E-03 0. -1.
        -11    1    3    3    0    0 -0.17408770227E+02  0.45000725361E+01 -0.43012642898E+00  0.17986131953E+02  0.51100000000E-03 0.  1.
        -12    1    3    3    0    0 -0.15465790617E+01  0.10484762291E+02  0.35702386297E+01  0.11183414101E+02  0.00000000000E+00 0.  1.
</event>
<event>
 7    1  0.5290964E-013  0.5052886E+02  0.7816164E-02  0.1300439E+00
        -11   -1    0    0    0    0  0.00000000000E+00  0.00000000000E+00  0.45593999997E+02  0.45594000000E+02  0.51100000000E-03 0.  1.
         11   -1    0    0    0    0 -0.00000000000E+00 -0.00000000000E+00 -0.45593999997E+02  0.45594000000E+02  0.51100000000E-03 0. -1.
    9900012    2    1    2    0    0 -0.37498565408E+02  0.66181607635E+01 -0.14255640557E+02  0.50528858996E+02  0.29999997404E+02 0.  0.
         12    1    1    2    0    0  0.37498565408E+02 -0.66181607635E+01  0.14255640557E+02  0.40659141004E+02  0.00000000000E+00 0. -1.
         11    1    3    3    0    0 -0.56709309217E-01 -0.22946122115E+01 -0.28115185769E+01  0.36294762868E+01  0.51100000000E-03 0. -1.
        -11    1    3    3    0    0 -0.17561861834E+02 -0.78842373252E+01 -0.70737126821E+01  0.20508963910E+02  0.51100000000E-03 0.  1.
         12    1    3    3    0    0 -0.19879994264E+02  0.16797010300E+02 -0.43704092980E+01  0.26390418799E+02  0.00000000000E+00 0. -1.
</event>
<event>
 7    1  0.5290964E-013  0.5052887E+02  0.7816164E-02  0.1300439E+00
        -11   -1    0    0    0    0  0.00000000000E+00  0.00000000000E+00  0.45593999997E+02  0.45594000000E+02  0.51100000000E-03 0.  1.
         11   -1    0    0    0    0 -0.00000000000E+00 -0.00000000000E+00 -0.45593999997E+02  0.45594000000E+02  0.51100000000E-03 0. -1.
    9900012    2    1    2    0    0 -0.79118509238E+00 -0.11993509683E+02  0.38841922048E+02  0.50528866257E+02  0.30000019474E+02 0.  0.
         12    1    1    2    0    0  0.79118509238E+00  0.11993509683E+02 -0.38841922048E+02  0.40659133743E+02  0.00000000000E+00 0. -1.
         11    1    3    3    0    0  0.46636094622E+01 -0.14889549034E+02  0.20183818538E+02  0.25511457322E+02  0.51100000000E-03 0. -1.
        -11    1    3    3    0    0 -0.29402022823E-01  0.37684357842E+01  0.19134156683E+02  0.19501741588E+02  0.51100000000E-03 0.  1.
         12    1    3    3    0    0 -0.54253925317E+01 -0.87239643262E+00 -0.47605317248E+00  0.55156673469E+01  0.00000000000E+00 0. -1.
</event>
<event>
 7    1  0.5290964E-013  0.5052885E+02  0.7816164E-02  0.1300439E+00
        -11   -1    0    0    0    0  0.00000000000E+00  0.00000000000E+00  0.45593999997E+02  0.45594000000E+02  0.51100000000E-03 0. -1.
         11   -1    0    0    0    0 -0.00000000000E+00 -0.00000000000E+00 -0.45593999997E+02  0.45594000000E+02  0.51100000000E-03 0.  1.
    9900012    2    1    2    0    0 -0.53127975293E+01  0.40002232205E+02 -0.49761270552E+01  0.50528852942E+02  0.29999979003E+02 0.  0.
         12    1    1    2    0    0  0.53127975293E+01 -0.40002232205E+02  0.49761270552E+01  0.40659147058E+02  0.00000000000E+00 0. -1.
         11    1    3    3    0    0  0.61824018091E+01  0.32402988292E+01 -0.22170586261E+01  0.73237270460E+01  0.51100000000E-03 0. -1.
        -11    1    3    3    0    0 -0.70525173356E+01  0.19040505465E+02 -0.11078449592E+02  0.23130302522E+02  0.51100000000E-03 0.  1.
        -12    1    3    3    0    0 -0.44426820028E+01  0.17721427911E+02  0.83193811626E+01  0.20074823375E+02  0.00000000000E+00 0.  1.
</event>
<event>
 7    1  0.5290964E-013  0.5052883E+02  0.7816164E-02  0.1300439E+00
        -11   -1    0    0    0    0  0.00000000000E+00  0.00000000000E+00  0.45593999997E+02  0.45594000000E+02  0.51100000000E-03 0.  1.
         11   -1    0    0    0    0 -0.00000000000E+00 -0.00000000000E+00 -0.45593999997E+02  0.45594000000E+02  0.51100000000E-03 0. -1.
    9900012    2    1    2    0    0  0.27725712904E+02 -0.11895080206E+02  0.27257287244E+02  0.50528833788E+02  0.29999920781E+02 0.  0.
         12    1    1    2    0    0 -0.27725712904E+02  0.11895080206E+02 -0.27257287244E+02  0.40659166212E+02  0.00000000000E+00 0. -1.
         11    1    3    3    0    0  0.11378131518E+02 -0.39120122376E+01  0.91566352621E+01  0.15119844119E+02  0.51100000000E-03 0. -1.
        -11    1    3    3    0    0  0.19710714842E+02 -0.77817754016E+01  0.21802001871E+02  0.30403874651E+02  0.51100000000E-03 0.  1.
        -12    1    3    3    0    0 -0.33631334557E+01 -0.20129256689E+00 -0.37013498888E+01  0.50051150174E+01  0.00000000000E+00 0.  1.
</event>
<event>
 7    1  0.5290964E-013  0.5052892E+02  0.7816164E-02  0.1300439E+00
        -11   -1    0    0    0    0  0.00000000000E+00  0.00000000000E+00  0.45593999997E+02  0.45594000000E+02  0.51100000000E-03 0.  1.
         11   -1    0    0    0    0 -0.00000000000E+00 -0.00000000000E+00 -0.45593999997E+02  0.45594000000E+02  0.51100000000E-03 0. -1.
    9900012    2    1    2    0    0 -0.22813016553E+02  0.97627677402E+01  0.32208930752E+02  0.50528922558E+02  0.30000190607E+02 0.  0.
         12    1    1    2    0    0  0.22813016553E+02 -0.97627677402E+01 -0.32208930752E+02  0.40659077442E+02  0.00000000000E+00 0. -1.
         11    1    3    3    0    0 -0.10805735694E+01 -0.86266335735E+00  0.18325338400E+01  0.22956497648E+01  0.51100000000E-03 0. -1.
        -11    1    3    3    0    0 -0.89709530227E+01 -0.94026583916E+01  0.15427866697E+02  0.20171937290E+02  0.51100000000E-03 0.  1.
         12    1    3    3    0    0 -0.12761489961E+02  0.20028089489E+02  0.14948530215E+02  0.28061335503E+02  0.00000000000E+00 0. -1.
</event>
<event>
 7    1  0.5290964E-013  0.5052887E+02  0.7816164E-02  0.1300439E+00
        -11   -1    0    0    0    0  0.00000000000E+00  0.00000000000E+00  0.45593999997E+02  0.45594000000E+02  0.51100000000E-03 0. -1.
         11   -1    0    0    0    0 -0.00000000000E+00 -0.00000000000E+00 -0.45593999997E+02  0.45594000000E+02  0.51100000000E-03 0.  1.
    9900012    2    1    2    0    0  0.16758007084E-01 -0.14425649168E+02 -0.38014014974E+02  0.50528868564E+02  0.30000026486E+02 0.  0.
         12    1    1    2    0    0 -0.16758007084E-01  0.14425649168E+02  0.38014014974E+02  0.40659131436E+02  0.00000000000E+00 0. -1.
         11    1    3    3    0    0 -0.81549619470E+01 -0.31122592331E+01 -0.15694829068E+02  0.17958764480E+02  0.51100000000E-03 0. -1.
        -11    1    3    3    0    0  0.43336282866E+01 -0.16579157567E+02 -0.17245885904E+02  0.24311918489E+02  0.51100000000E-03 0.  1.
        -12    1    3    3    0    0  0.38380916674E+01  0.52657676324E+01 -0.50733000016E+01  0.82581855945E+01  0.00000000000E+00 0.  1.
</event>
<event>
 7    1  0.5290964E-013  0.5052886E+02  0.7816164E-02  0.1300439E+00
        -11   -1    0    0    0    0  0.00000000000E+00  0.00000000000E+00  0.45593999997E+02  0.45594000000E+02  0.51100000000E-03 0.  1.
         11   -1    0    0    0    0 -0.00000000000E+00 -0.00000000000E+00 -0.45593999997E+02  0.45594000000E+02  0.51100000000E-03 0. -1.
    9900012    2    1    2    0    0  0.66215755621E+01 -0.34624126380E+02  0.20260550922E+02  0.50528864321E+02  0.30000013589E+02 0.  0.
         12    1    1    2    0    0 -0.66215755621E+01  0.34624126380E+02 -0.20260550922E+02  0.40659135679E+02  0.00000000000E+00 0. -1.
         11    1    3    3    0    0 -0.42794754636E+01  0.10941053320E+01 -0.12213070745E+01  0.45828558730E+01  0.51100000000E-03 0. -1.
        -11    1    3    3    0    0 -0.38688605665E+01 -0.43455486014E+01  0.43791875481E+01  0.72821122329E+01  0.51100000000E-03 0.  1.
         12    1    3    3    0    0  0.14769911592E+02 -0.31372683111E+02  0.17102670449E+02  0.38663896215E+02  0.00000000000E+00 0. -1.
</event>
<event>
 7    1  0.5290964E-013  0.5052886E+02  0.7816164E-02  0.1300439E+00
        -11   -1    0    0    0    0  0.00000000000E+00  0.00000000000E+00  0.45593999997E+02  0.45594000000E+02  0.51100000000E-03 0.  1.
         11   -1    0    0    0    0 -0.00000000000E+00 -0.00000000000E+00 -0.45593999997E+02  0.45594000000E+02  0.51100000000E-03 0. -1.
    9900012    2    1    2    0    0  0.18424628397E+02  0.16496894648E+02  0.32273072583E+02  0.50528859840E+02  0.29999999970E+02 0.  0.
         12    1    1    2    0    0 -0.18424628397E+02 -0.16496894648E+02 -0.32273072583E+02  0.40659140160E+02  0.00000000000E+00 0. -1.
         11    1    3    3    0    0 -0.36626772408E+01 -0.22089203381E+01  0.69449831029E+01  0.81564283967E+01  0.51100000000E-03 0. -1.
        -11    1    3    3    0    0  0.64753322535E+01  0.40302867332E+00  0.14708865711E+02  0.16076165298E+02  0.51100000000E-03 0.  1.
         12    1    3    3    0    0  0.15611973384E+02  0.18302786313E+02  0.10619223769E+02  0.26296266146E+02  0.00000000000E+00 0. -1.
</event>
<event>
 7    1  0.5290964E-013  0.5052878E+02  0.7816164E-02  0.1300439E+00
        -11   -1    0    0    0    0  0.00000000000E+00  0.00000000000E+00  0.45593999997E+02  0.45594000000E+02  0.51100000000E-03 0. -1.
         11   -1    0    0    0    0 -0.00000000000E+00 -0.00000000000E+00 -0.45593999997E+02  0.45594000000E+02  0.51100000000E-03 0.  1.
    9900012    2    1    2    0    0 -0.35087241983E+02  0.19121918534E+02 -0.75106658612E+01  0.50528776937E+02  0.29999747976E+02 0.  0.
         12    1    1    2    0    0  0.35087241983E+02 -0.19121918534E+02  0.75106658612E+01  0.40659223063E+02  0.00000000000E+00 0. -1.
         11    1    3    3    0    0 -0.77720621751E+01  0.14786471202E+00  0.42284970831E+01  0.88491243787E+01  0.51100000000E-03 0. -1.
        -11    1    3    3    0    0 -0.25158472059E+02  0.71481590167E+01 -0.20399517807E+01  0.26233686306E+02  0.51100000000E-03 0.  1.
         12    1    3    3    0    0 -0.21567077496E+01  0.11825894805E+02 -0.96992111636E+01  0.15445966252E+02  0.00000000000E+00 0. -1.
</event>
<event>
 7    1  0.5290964E-013  0.5052886E+02  0.7816164E-02  0.1300439E+00
        -11   -1    0    0    0    0  0.00000000000E+00  0.00000000000E+00  0.45593999997E+02  0.45594000000E+02  0.51100000000E-03 0.  1.
         11   -1    0    0    0    0 -0.00000000000E+00 -0.00000000000E+00 -0.45593999997E+02  0.45594000000E+02  0.51100000000E-03 0. -1.
    9900012    2    1    2    0    0 -0.70414170160E+01  0.19526701261E+02  0.34961290753E+02  0.50528862443E+02  0.30000007883E+02 0.  0.
         12    1    1    2    0    0  0.70414170160E+01 -0.19526701261E+02 -0.34961290753E+02  0.40659137557E+02  0.00000000000E+00 0. -1.
         11    1    3    3    0    0 -0.45161976321E+00  0.52317408057E+01  0.16029843175E+02  0.16868045078E+02  0.51100000000E-03 0. -1.
        -11    1    3    3    0    0  0.73582201076E+01  0.34239591373E+00  0.88213739238E+01  0.11492487819E+02  0.51100000000E-03 0.  1.
         12    1    3    3    0    0 -0.13948017360E+02  0.13952564542E+02  0.10110073655E+02  0.22168329546E+02  0.00000000000E+00 0. -1.
</event>
<event>
 7    1  0.5290964E-013  0.5052886E+02  0.7816164E-02  0.1300439E+00
        -11   -1    0    0    0    0  0.00000000000E+00  0.00000000000E+00  0.45593999997E+02  0.45594000000E+02  0.51100000000E-03 0.  1.
         11   -1    0    0    0    0 -0.00000000000E+00 -0.00000000000E+00 -0.45593999997E+02  0.45594000000E+02  0.51100000000E-03 0. -1.
    9900012    2    1    2    0    0  0.34238453206E+01 -0.16550289191E+02  0.36980143897E+02  0.50528857956E+02  0.29999994244E+02 0.  0.
         12    1    1    2    0    0 -0.34238453206E+01  0.16550289191E+02 -0.36980143897E+02  0.40659142044E+02  0.00000000000E+00 0. -1.
         11    1    3    3    0    0  0.39277036162E+01 -0.55767690701E+00  0.81053566928E+00  0.40490526746E+01  0.51100000000E-03 0. -1.
        -11    1    3    3    0    0  0.79268399065E+01 -0.14483436625E+02  0.10864698111E+02  0.19764776565E+02  0.51100000000E-03 0.  1.
        -12    1    3    3    0    0 -0.84306982020E+01 -0.15091756599E+01  0.25304910116E+02  0.26715028717E+02  0.00000000000E+00 0.  1.
</event>
<event>
 7    1  0.5290964E-013  0.5052887E+02  0.7816164E-02  0.1300439E+00
        -11   -1    0    0    0    0  0.00000000000E+00  0.00000000000E+00  0.45593999997E+02  0.45594000000E+02  0.51100000000E-03 0. -1.
         11   -1    0    0    0    0 -0.00000000000E+00 -0.00000000000E+00 -0.45593999997E+02  0.45594000000E+02  0.51100000000E-03 0.  1.
    9900012    2    1    2    0    0  0.15951791026E+02 -0.35103167837E+02 -0.12902450415E+02  0.50528865039E+02  0.30000015771E+02 0.  0.
         12    1    1    2    0    0 -0.15951791026E+02  0.35103167837E+02  0.12902450415E+02  0.40659134961E+02  0.00000000000E+00 0. -1.
         11    1    3    3    0    0  0.22004024544E+01  0.14512368536E+01 -0.50209038403E+01  0.56707437785E+01  0.51100000000E-03 0. -1.
        -11    1    3    3    0    0  0.98945799650E+01 -0.14140480528E+02 -0.12925601301E+02  0.21562167597E+02  0.51100000000E-03 0.  1.
         12    1    3    3    0    0  0.38568086066E+01 -0.22413924162E+02  0.50440547261E+01  0.23295953663E+02  0.00000000000E+00 0. -1.
</event>
<event>
 7    1  0.5290964E-013  0.5052889E+02  0.7816164E-02  0.1300439E+00
        -11   -1    0    0    0    0  0.00000000000E+00  0.00000000000E+00  0.45593999997E+02  0.45594000000E+02  0.51100000000E-03 0.  1.
         11   -1    0    0    0    0 -0.00000000000E+00 -0.00000000000E+00 -0.45593999997E+02  0.45594000000E+02  0.51100000000E-03 0. -1.
    9900012    2    1    2    0    0 -0.27621734392E+02 -0.29746783528E+02  0.23091151423E+01  0.50528888428E+02  0.30000086867E+02 0.  0.
         12    1    1    2    0    0  0.27621734392E+02  0.29746783528E+02 -0.23091151423E+01  0.40659111572E+02  0.00000000000E+00 0. -1.
         11    1    3    3    0    0  0.10653927854E+00 -0.34725682145E+01 -0.46212035904E+01  0.57814880011E+01  0.51100000000E-03 0. -1.
        -11    1    3    3    0    0 -0.58203234582E+01 -0.24028540189E+01 -0.70558390020E+01  0.94569940720E+01  0.51100000000E-03 0.  1.
        -12    1    3    3    0    0 -0.21907950212E+02 -0.23871361294E+02  0.13986157735E+02  0.35290406355E+02  0.00000000000E+00 0.  1.
</event>
<event>
 7    1  0.5290964E-013  0.5052888E+02  0.7816164E-02  0.1300439E+00
        -11   -1    0    0    0    0  0.00000000000E+00  0.00000000000E+00  0.45593999997E+02  0.45594000000E+02  0.51100000000E-03 0.  1.
         11   -1    0    0    0    0 -0.00000000000E+00 -0.00000000000E+00 -0.45593999997E+02  0.45594000000E+02  0.51100000000E-03 0. -1.
    9900012    2    1    2    0    0  0.72765102448E+01 -0.28604656618E+02  0.27964087007E+02  0.50528878714E+02  0.30000057340E+02 0.  0.
         12    1    1    2    0    0 -0.72765102448E+01  0.28604656618E+02 -0.27964087007E+02  0.40659121286E+02  0.00000000000E+00 0. -1.
         11    1    3    3    0    0 -0.23627328248E+01  0.33991931260E+01  0.11809350433E+02  0.12513903396E+02  0.51100000000E-03 0. -1.
        -11    1    3    3    0    0  0.48868925972E+00 -0.13205863903E+02  0.38873168496E+01  0.13774791874E+02  0.51100000000E-03 0.  1.
        -12    1    3    3    0    0  0.91505538098E+01 -0.18797985841E+02  0.12267419725E+02  0.24240183444E+02  0.00000000000E+00 0.  1.
</event>
<event>
 7    1  0.5290964E-013  0.5052885E+02  0.7816164E-02  0.1300439E+00
        -11   -1    0    0    0    0  0.00000000000E+00  0.00000000000E+00  0.45593999997E+02  0.45594000000E+02  0.51100000000E-03 0.  1.
         11   -1    0    0    0    0 -0.00000000000E+00 -0.00000000000E+00 -0.45593999997E+02  0.45594000000E+02  0.51100000000E-03 0. -1.
    9900012    2    1    2    0    0  0.27914471366E+02 -0.37670724664E+01  0.29321623609E+02  0.50528853948E+02  0.29999982060E+02 0.  0.
         12    1    1    2    0    0 -0.27914471366E+02  0.37670724664E+01 -0.29321623609E+02  0.40659146052E+02  0.00000000000E+00 0. -1.
         11    1    3    3    0    0  0.22726524225E+01  0.60004095188E+01  0.11484318534E+02  0.13155205657E+02  0.51100000000E-03 0. -1.
        -11    1    3    3    0    0  0.99020166677E+01 -0.12927370326E+02  0.12243060526E+02  0.20373005889E+02  0.51100000000E-03 0.  1.
         12    1    3    3    0    0  0.15739802276E+02  0.31598883406E+01  0.55942445490E+01  0.17000642402E+02  0.00000000000E+00 0. -1.
</event>
<event>
 7    1  0.5290964E-013  0.5052888E+02  0.7816164E-02  0.1300439E+00
        -11   -1    0    0    0    0  0.00000000000E+00  0.00000000000E+00  0.45593999997E+02  0.45594000000E+02  0.51100000000E-03 0. -1.
         11   -1    0    0    0    0 -0.00000000000E+00 -0.00000000000E+00 -0.45593999997E+02  0.45594000000E+02  0.51100000000E-03 0.  1.
    9900012    2    1    2    0    0  0.31218040672E+02 -0.19638207075E+02  0.17115462436E+02  0.50528876854E+02  0.30000051686E+02 0.  0.
         12    1    1    2    0    0 -0.31218040672E+02  0.19638207075E+02 -0.17115462436E+02  0.40659123146E+02  0.00000000000E+00 0. -1.
         11    1    3    3    0    0  0.35808333039E+01  0.36271819751E+01  0.14967355901E+01  0.53121590637E+01  0.51100000000E-03 0. -1.
        -11    1    3    3    0    0  0.12002643463E+02 -0.22028986303E+01 -0.35719807152E+01  0.12715158629E+02  0.51100000000E-03 0.  1.
        -12    1    3    3    0    0  0.15634563906E+02 -0.21062490420E+02  0.19190707561E+02  0.32501559162E+02  0.00000000000E+00 0.  1.
</event>
<event>
 7    1  0.5290964E-013  0.5052886E+02  0.7816164E-02  0.1300439E+00
        -11   -1    0    0    0    0  0.00000000000E+00  0.00000000000E+00  0.45593999997E+02  0.45594000000E+02  0.51100000000E-03 0. -1.
         11   -1    0    0    0    0 -0.00000000000E+00 -0.00000000000E+00 -0.45593999997E+02  0.45594000000E+02  0.51100000000E-03 0.  1.
    9900012    2    1    2    0    0 -0.39647365671E+02  0.84413377808E+01 -0.31616285813E+01  0.50528859780E+02  0.29999999786E+02 0.  0.
         12    1    1    2    0    0  0.39647365671E+02 -0.84413377808E+01  0.31616285813E+01  0.40659140220E+02  0.00000000000E+00 0. -1.
         11    1    3    3    0    0  0.25631068310E+01 -0.18922143836E+01 -0.11429322124E+01  0.33847136074E+01  0.51100000000E-03 0. -1.
        -11    1    3    3    0    0 -0.72138799106E+01 -0.49755949044E+01  0.10320805028E+01  0.88239332750E+01  0.51100000000E-03 0.  1.
         12    1    3    3    0    0 -0.34996592591E+02  0.15309147069E+02 -0.30507768717E+01  0.38320212897E+02  0.00000000000E+00 0. -1.
</event>
<event>
 7    1  0.5290964E-013  0.5052884E+02  0.7816164E-02  0.1300439E+00
        -11   -1    0    0    0    0  0.00000000000E+00  0.00000000000E+00  0.45593999997E+02  0.45594000000E+02  0.51100000000E-03 0.  1.
         11   -1    0    0    0    0 -0.00000000000E+00 -0.00000000000E+00 -0.45593999997E+02  0.45594000000E+02  0.51100000000E-03 0. -1.
    9900012    2    1    2    0    0  0.25772343211E+02  0.31432481797E+02  0.97622648339E+00  0.50528836154E+02  0.29999927974E+02 0.  0.
         12    1    1    2    0    0 -0.25772343211E+02 -0.31432481797E+02 -0.97622648339E+00  0.40659163846E+02  0.00000000000E+00 0. -1.
         11    1    3    3    0    0  0.17567743166E+02  0.22723274343E+02  0.94242822639E+00  0.28737796854E+02  0.51100000000E-03 0. -1.
        -11    1    3    3    0    0  0.10484895450E+02  0.13047783574E+02  0.11016982952E+01  0.16774725875E+02  0.51100000000E-03 0.  1.
         12    1    3    3    0    0 -0.22802954047E+01 -0.43385761203E+01 -0.10679000382E+01  0.50163134248E+01  0.00000000000E+00 0. -1.
</event>
<event>
 7    1  0.5290964E-013  0.5052886E+02  0.7816164E-02  0.1300439E+00
        -11   -1    0    0    0    0  0.00000000000E+00  0.00000000000E+00  0.45593999997E+02  0.45594000000E+02  0.51100000000E-03 0. -1.
         11   -1    0    0    0    0 -0.00000000000E+00 -0.00000000000E+00 -0.45593999997E+02  0.45594000000E+02  0.51100000000E-03 0.  1.
    9900012    2    1    2    0    0  0.96839318646E+01 -0.22853045419E+02 -0.32204432742E+02  0.50528859459E+02  0.29999998813E+02 0.  0.
         12    1    1    2    0    0 -0.96839318646E+01  0.22853045419E+02  0.32204432742E+02  0.40659140541E+02  0.00000000000E+00 0. -1.
         11    1    3    3    0    0  0.86466930301E+00 -0.17103120553E+02 -0.19885932458E+01  0.17240037384E+02  0.51100000000E-03 0. -1.
        -11    1    3    3    0    0 -0.31544018838E+00 -0.98121666267E+00  0.30543661955E+00  0.10749792748E+01  0.51100000000E-03 0.  1.
        -12    1    3    3    0    0  0.91347027500E+01 -0.47687082033E+01 -0.30521276116E+02  0.32213842801E+02  0.00000000000E+00 0.  1.
</event>
<event>
 7    1  0.5290964E-013  0.5052886E+02  0.7816164E-02  0.1300439E+00
        -11   -1    0    0    0    0  0.00000000000E+00  0.00000000000E+00  0.45593999997E+02  0.45594000000E+02  0.51100000000E-03 0.  1.
         11   -1    0    0    0    0 -0.00000000000E+00 -0.00000000000E+00 -0.45593999997E+02  0.45594000000E+02  0.51100000000E-03 0. -1.
    9900012    2    1    2    0    0 -0.35903788210E+02  0.14255931220E+02  0.12682748082E+02  0.50528859801E+02  0.29999999852E+02 0.  0.
         12    1    1    2    0    0  0.35903788210E+02 -0.14255931220E+02 -0.12682748082E+02  0.40659140199E+02  0.00000000000E+00 0. -1.
         11    1    3    3    0    0 -0.14518282621E+01  0.27101017636E+01  0.20791352810E+00  0.30815069638E+01  0.51100000000E-03 0. -1.
        -11    1    3    3    0    0 -0.56899490142E+01  0.15056279542E+02  0.52394179165E+00  0.16104086087E+02  0.51100000000E-03 0.  1.
        -12    1    3    3    0    0 -0.28762010934E+02 -0.35104500859E+01  0.11950892762E+02  0.31343266750E+02  0.00000000000E+00 0.  1.
</event>
<event>
 7    1  0.5290964E-013  0.5052886E+02  0.7816164E-02  0.1300439E+00
        -11   -1    0    0    0    0  0.00000000000E+00  0.00000000000E+00  0.45593999997E+02  0.45594000000E+02  0.51100000000E-03 0.  1.
         11   -1    0    0    0    0 -0.00000000000E+00 -0.00000000000E+00 -0.45593999997E+02  0.45594000000E+02  0.51100000000E-03 0. -1.
    9900012    2    1    2    0    0 -0.34050429104E+02  0.39868113722E+01  0.21859538215E+02  0.50528858370E+02  0.29999995502E+02 0.  0.
         12    1    1    2    0    0  0.34050429104E+02 -0.39868113722E+01 -0.21859538215E+02  0.40659141630E+02  0.00000000000E+00 0. -1.
         11    1    3    3    0    0 -0.54019229168E+01  0.55902358433E+01 -0.40800159898E+01  0.87794099301E+01  0.51100000000E-03 0. -1.
        -11    1    3    3    0    0 -0.21545446587E+01  0.49392167309E+01  0.35818496630E+01  0.64705155800E+01  0.51100000000E-03 0.  1.
        -12    1    3    3    0    0 -0.26493961529E+02 -0.65426412020E+01  0.22357704541E+02  0.35278932860E+02  0.00000000000E+00 0.  1.
</event>
<event>
 7    1  0.5290964E-013  0.5052886E+02  0.7816164E-02  0.1300439E+00
        -11   -1    0    0    0    0  0.00000000000E+00  0.00000000000E+00  0.45593999997E+02  0.45594000000E+02  0.51100000000E-03 0.  1.
         11   -1    0    0    0    0 -0.00000000000E+00 -0.00000000000E+00 -0.45593999997E+02  0.45594000000E+02  0.51100000000E-03 0. -1.
    9900012    2    1    2    0    0 -0.74705346084E+00  0.17155616186E+02  0.36855018878E+02  0.50528859920E+02  0.30000000212E+02 0.  0.
         12    1    1    2    0    0  0.74705346084E+00 -0.17155616186E+02 -0.36855018878E+02  0.40659140080E+02  0.00000000000E+00 0. -1.
         11    1    3    3    0    0 -0.80546105175E+00  0.23272334800E+00  0.10036011613E+00  0.84439331867E+00  0.51100000000E-03 0. -1.
        -11    1    3    3    0    0 -0.11068438263E+02  0.14076484974E+02  0.33097447820E+02  0.37631088309E+02  0.51100000000E-03 0.  1.
         12    1    3    3    0    0  0.11126845854E+02  0.28464078634E+01  0.36572109411E+01  0.12053378292E+02  0.00000000000E+00 0. -1.
</event>
<event>
 7    1  0.5290964E-013  0.5052885E+02  0.7816164E-02  0.1300439E+00
        -11   -1    0    0    0    0  0.00000000000E+00  0.00000000000E+00  0.45593999997E+02  0.45594000000E+02  0.51100000000E-03 0. -1.
         11   -1    0    0    0    0 -0.00000000000E+00 -0.00000000000E+00 -0.45593999997E+02  0.45594000000E+02  0.51100000000E-03 0.  1.
    9900012    2    1    2    0    0  0.21746441248E+02  0.80037085153E+01 -0.33409576803E+02  0.50528845076E+02  0.29999955093E+02 0.  0.
         12    1    1    2    0    0 -0.21746441248E+02 -0.80037085153E+01  0.33409576803E+02  0.40659154924E+02  0.00000000000E+00 0. -1.
         11    1    3    3    0    0  0.17796736353E+02  0.80889159241E+00 -0.15638703315E+02  0.23705424950E+02  0.51100000000E-03 0. -1.
        -11    1    3    3    0    0  0.10958797840E+02  0.48287252064E+01 -0.14299516129E+02  0.18651755923E+02  0.51100000000E-03 0.  1.
         12    1    3    3    0    0 -0.70090929456E+01  0.23660917165E+01 -0.34713573591E+01  0.81716642029E+01  0.00000000000E+00 0. -1.
</event>
<event>
 7    1  0.5290964E-013  0.5052887E+02  0.7816164E-02  0.1300439E+00
        -11   -1    0    0    0    0  0.00000000000E+00  0.00000000000E+00  0.45593999997E+02  0.45594000000E+02  0.51100000000E-03 0.  1.
         11   -1    0    0    0    0 -0.00000000000E+00 -0.00000000000E+00 -0.45593999997E+02  0.45594000000E+02  0.51100000000E-03 0. -1.
    9900012    2    1    2    0    0  0.11857620835E+02 -0.75580226949E+01  0.38150199714E+02  0.50528872892E+02  0.30000039643E+02 0.  0.
         12    1    1    2    0    0 -0.11857620835E+02  0.75580226949E+01 -0.38150199714E+02  0.40659127108E+02  0.00000000000E+00 0. -1.
         11    1    3    3    0    0 -0.25786210433E+01 -0.69429986921E+01 -0.14708309834E+01  0.75510172404E+01  0.51100000000E-03 0.  1.
        -11    1    3    3    0    0  0.17500407853E+01  0.24925348065E-01  0.16540445283E+02  0.16632786732E+02  0.51100000000E-03 0. -1.
        -12    1    3    3    0    0  0.12686201093E+02 -0.63994935096E+00  0.23080585414E+02  0.26345068920E+02  0.00000000000E+00 0.  1.
</event>
<event>
 7    1  0.5290964E-013  0.5052886E+02  0.7816164E-02  0.1300439E+00
        -11   -1    0    0    0    0  0.00000000000E+00  0.00000000000E+00  0.45593999997E+02  0.45594000000E+02  0.51100000000E-03 0. -1.
         11   -1    0    0    0    0 -0.00000000000E+00 -0.00000000000E+00 -0.45593999997E+02  0.45594000000E+02  0.51100000000E-03 0.  1.
    9900012    2    1    2    0    0  0.49375150097E+01 -0.72599656970E+01 -0.39699865786E+02  0.50528862038E+02  0.30000006650E+02 0.  0.
         12    1    1    2    0    0 -0.49375150097E+01  0.72599656970E+01  0.39699865786E+02  0.40659137962E+02  0.00000000000E+00 0. -1.
         11    1    3    3    0    0 -0.10993263371E+02 -0.24117706921E+01 -0.14947272121E+02  0.18710676672E+02  0.51100000000E-03 0. -1.
        -11    1    3    3    0    0  0.93526763066E+01 -0.63292478828E+01 -0.82330012960E+01  0.13975487235E+02  0.51100000000E-03 0.  1.
        -12    1    3    3    0    0  0.65781020741E+01  0.14810528779E+01 -0.16519592369E+02  0.17842698130E+02  0.00000000000E+00 0.  1.
</event>
<event>
 7    1  0.5290964E-013  0.5052887E+02  0.7816164E-02  0.1300439E+00
        -11   -1    0    0    0    0  0.00000000000E+00  0.00000000000E+00  0.45593999997E+02  0.45594000000E+02  0.51100000000E-03 0.  1.
         11   -1    0    0    0    0 -0.00000000000E+00 -0.00000000000E+00 -0.45593999997E+02  0.45594000000E+02  0.51100000000E-03 0. -1.
    9900012    2    1    2    0    0  0.77883928848E+01  0.19083324783E+02  0.35047577609E+02  0.50528867634E+02  0.30000023660E+02 0.  0.
         12    1    1    2    0    0 -0.77883928848E+01 -0.19083324783E+02 -0.35047577609E+02  0.40659132366E+02  0.00000000000E+00 0. -1.
         11    1    3    3    0    0 -0.74435739964E+00 -0.16035967480E+01  0.20042310141E+01  0.26725517184E+01  0.51100000000E-03 0. -1.
        -11    1    3    3    0    0 -0.74067084718E+01  0.23971463968E+01  0.17202201450E+02  0.18881773651E+02  0.51100000000E-03 0.  1.
        -12    1    3    3    0    0  0.15939458756E+02  0.18289775135E+02  0.15841145145E+02  0.28974542264E+02  0.00000000000E+00 0.  1.
</event>
<event>
 7    1  0.5290964E-013  0.5052885E+02  0.7816164E-02  0.1300439E+00
        -11   -1    0    0    0    0  0.00000000000E+00  0.00000000000E+00  0.45593999997E+02  0.45594000000E+02  0.51100000000E-03 0.  1.
         11   -1    0    0    0    0 -0.00000000000E+00 -0.00000000000E+00 -0.45593999997E+02  0.45594000000E+02  0.51100000000E-03 0. -1.
    9900012    2    1    2    0    0  0.15060361359E+02 -0.29397835044E+02  0.23709060005E+02  0.50528847084E+02  0.29999961197E+02 0.  0.
         12    1    1    2    0    0 -0.15060361359E+02  0.29397835044E+02 -0.23709060005E+02  0.40659152916E+02  0.00000000000E+00 0. -1.
         11    1    3    3    0    0  0.43258433142E+01 -0.10076355333E+01 -0.19024867159E+01  0.48319463690E+01  0.51100000000E-03 0.  1.
        -11    1    3    3    0    0  0.15744616473E+02 -0.14647609476E+02  0.83438482536E+01  0.23066538864E+02  0.51100000000E-03 0. -1.
        -12    1    3    3    0    0 -0.50100984287E+01 -0.13742590035E+02  0.17267698468E+02  0.22630361851E+02  0.00000000000E+00 0.  1.
</event>
<event>
 7    1  0.5290964E-013  0.5052886E+02  0.7816164E-02  0.1300439E+00
        -11   -1    0    0    0    0  0.00000000000E+00  0.00000000000E+00  0.45593999997E+02  0.45594000000E+02  0.51100000000E-03 0.  1.
         11   -1    0    0    0    0 -0.00000000000E+00 -0.00000000000E+00 -0.45593999997E+02  0.45594000000E+02  0.51100000000E-03 0. -1.
    9900012    2    1    2    0    0 -0.27858456237E+02  0.24285473869E+02 -0.16949571129E+02  0.50528858514E+02  0.29999995938E+02 0.  0.
         12    1    1    2    0    0  0.27858456237E+02 -0.24285473869E+02  0.16949571129E+02  0.40659141486E+02  0.00000000000E+00 0. -1.
         11    1    3    3    0    0  0.45204329970E+00  0.34800765589E+01  0.76793841211E+00  0.35923537780E+01  0.51100000000E-03 0. -1.
        -11    1    3    3    0    0 -0.15904380837E+02  0.25605466507E+02 -0.12927741834E+02  0.32798105952E+02  0.51100000000E-03 0.  1.
         12    1    3    3    0    0 -0.12406118700E+02 -0.48000691964E+01 -0.47897677064E+01  0.14138398784E+02  0.00000000000E+00 0. -1.
</event>
<event>
 7    1  0.5290964E-013  0.5052886E+02  0.7816164E-02  0.1300439E+00
        -11   -1    0    0    0    0  0.00000000000E+00  0.00000000000E+00  0.45593999997E+02  0.45594000000E+02  0.51100000000E-03 0. -1.
         11   -1    0    0    0    0 -0.00000000000E+00 -0.00000000000E+00 -0.45593999997E+02  0.45594000000E+02  0.51100000000E-03 0.  1.
    9900012    2    1    2    0    0  0.56918852517E+01 -0.33327490497E+01 -0.40120577617E+02  0.50528861762E+02  0.30000005812E+02 0.  0.
         12    1    1    2    0    0 -0.56918852517E+01  0.33327490497E+01  0.40120577617E+02  0.40659138238E+02  0.00000000000E+00 0. -1.
         11    1    3    3    0    0 -0.75177887601E+00 -0.59433681551E+01 -0.13431705602E+02  0.14707124537E+02  0.51100000000E-03 0. -1.
        -11    1    3    3    0    0  0.29270328907E+01 -0.76376679626E+01 -0.22943388369E+02  0.24357761875E+02  0.51100000000E-03 0.  1.
         12    1    3    3    0    0  0.35166312370E+01  0.10248287068E+02 -0.37454836456E+01  0.11463975350E+02  0.00000000000E+00 0. -1.
</event>
<event>
 7    1  0.5290964E-013  0.5052887E+02  0.7816164E-02  0.1300439E+00
        -11   -1    0    0    0    0  0.00000000000E+00  0.00000000000E+00  0.45593999997E+02  0.45594000000E+02  0.51100000000E-03 0.  1.
         11   -1    0    0    0    0 -0.00000000000E+00 -0.00000000000E+00 -0.45593999997E+02  0.45594000000E+02  0.51100000000E-03 0. -1.
    9900012    2    1    2    0    0  0.19380048485E+02  0.29116855474E+02  0.20731316651E+02  0.50528867668E+02  0.30000023762E+02 0.  0.
         12    1    1    2    0    0 -0.19380048485E+02 -0.29116855474E+02 -0.20731316651E+02  0.40659132332E+02  0.00000000000E+00 0. -1.
         11    1    3    3    0    0  0.69597565068E+01 -0.69910713407E+00 -0.41138619160E+00  0.70068680792E+01  0.51100000000E-03 0. -1.
        -11    1    3    3    0    0  0.14115245872E+02  0.98383984980E+01  0.54078273078E+01  0.18035488557E+02  0.51100000000E-03 0.  1.
        -12    1    3    3    0    0 -0.16949538941E+01  0.19977564110E+02  0.15734875535E+02  0.25486511032E+02  0.00000000000E+00 0.  1.
</event>
<event>
 7    1  0.5290964E-013  0.5052886E+02  0.7816164E-02  0.1300439E+00
        -11   -1    0    0    0    0  0.00000000000E+00  0.00000000000E+00  0.45593999997E+02  0.45594000000E+02  0.51100000000E-03 0.  1.
         11   -1    0    0    0    0 -0.00000000000E+00 -0.00000000000E+00 -0.45593999997E+02  0.45594000000E+02  0.51100000000E-03 0. -1.
    9900012    2    1    2    0    0 -0.15913383496E+02 -0.66848023110E+01  0.36813628055E+02  0.50528861214E+02  0.30000004146E+02 0.  0.
         12    1    1    2    0    0  0.15913383496E+02  0.66848023110E+01 -0.36813628055E+02  0.40659138786E+02  0.00000000000E+00 0. -1.
         11    1    3    3    0    0 -0.79544116199E+01 -0.19877265411E+01  0.78639634774E+01  0.11360706090E+02  0.51100000000E-03 0. -1.
        -11    1    3    3    0    0 -0.84289772759E+01  0.64161401136E+01  0.25354467934E+02  0.27478419830E+02  0.51100000000E-03 0.  1.
         12    1    3    3    0    0  0.47000539990E+00 -0.11113215883E+02  0.35951966439E+01  0.11689735295E+02  0.00000000000E+00 0. -1.
</event>
<event>
 7    1  0.5290964E-013  0.5052888E+02  0.7816164E-02  0.1300439E+00
        -11   -1    0    0    0    0  0.00000000000E+00  0.00000000000E+00  0.45593999997E+02  0.45594000000E+02  0.51100000000E-03 0.  1.
         11   -1    0    0    0    0 -0.00000000000E+00 -0.00000000000E+00 -0.45593999997E+02  0.45594000000E+02  0.51100000000E-03 0. -1.
    9900012    2    1    2    0    0 -0.20451961616E+02 -0.30039241327E+02  0.18235271008E+02  0.50528882176E+02  0.30000067863E+02 0.  0.
         12    1    1    2    0    0  0.20451961616E+02  0.30039241327E+02 -0.18235271008E+02  0.40659117824E+02  0.00000000000E+00 0. -1.
         11    1    3    3    0    0 -0.11401900562E+02 -0.21628761626E+02  0.36667526586E+01  0.24723505844E+02  0.51100000000E-03 0. -1.
        -11    1    3    3    0    0 -0.56859839559E+01 -0.13773802541E+02  0.92674264528E+01  0.17548026764E+02  0.51100000000E-03 0.  1.
         12    1    3    3    0    0 -0.33640770985E+01  0.53633228396E+01  0.53010918966E+01  0.82573495688E+01  0.00000000000E+00 0. -1.
</event>
<event>
 7    1  0.5290964E-013  0.5052886E+02  0.7816164E-02  0.1300439E+00
        -11   -1    0    0    0    0  0.00000000000E+00  0.00000000000E+00  0.45593999997E+02  0.45594000000E+02  0.51100000000E-03 0. -1.
         11   -1    0    0    0    0 -0.00000000000E+00 -0.00000000000E+00 -0.45593999997E+02  0.45594000000E+02  0.51100000000E-03 0.  1.
    9900012    2    1    2    0    0 -0.29674968621E+02  0.14889764874E+02 -0.23470342191E+02  0.50528858061E+02  0.29999994563E+02 0.  0.
         12    1    1    2    0    0  0.29674968621E+02 -0.14889764874E+02  0.23470342191E+02  0.40659141939E+02  0.00000000000E+00 0. -1.
         11    1    3    3    0    0 -0.97246805331E+01 -0.34592873322E+01 -0.11079257701E+02  0.15142193757E+02  0.51100000000E-03 0. -1.
        -11    1    3    3    0    0 -0.16304198746E+02  0.31818285073E+01 -0.10550771615E+02  0.19679169478E+02  0.51100000000E-03 0.  1.
         12    1    3    3    0    0 -0.36460893417E+01  0.15167223699E+02 -0.18403128743E+01  0.15707494826E+02  0.00000000000E+00 0. -1.
</event>
<event>
 7    1  0.5290964E-013  0.5052887E+02  0.7816164E-02  0.1300439E+00
        -11   -1    0    0    0    0  0.00000000000E+00  0.00000000000E+00  0.45593999997E+02  0.45594000000E+02  0.51100000000E-03 0.  1.
         11   -1    0    0    0    0 -0.00000000000E+00 -0.00000000000E+00 -0.45593999997E+02  0.45594000000E+02  0.51100000000E-03 0. -1.
    9900012    2    1    2    0    0  0.22335948434E+02 -0.26010546367E+02  0.21856842809E+02  0.50528871968E+02  0.30000036833E+02 0.  0.
         12    1    1    2    0    0 -0.22335948434E+02  0.26010546367E+02 -0.21856842809E+02  0.40659128032E+02  0.00000000000E+00 0. -1.
         11    1    3    3    0    0  0.68465355819E+01 -0.15140758742E+02  0.40985359875E+01  0.17114777891E+02  0.51100000000E-03 0. -1.
        -11    1    3    3    0    0  0.91400771965E+01 -0.16706371258E+02  0.15350829803E+02  0.24460004654E+02  0.51100000000E-03 0.  1.
         12    1    3    3    0    0  0.63493356559E+01  0.58365836339E+01  0.24074770183E+01  0.89540894222E+01  0.00000000000E+00 0. -1.
</event>
<event>
 7    1  0.5290964E-013  0.5052886E+02  0.7816164E-02  0.1300439E+00
        -11   -1    0    0    0    0  0.00000000000E+00  0.00000000000E+00  0.45593999997E+02  0.45594000000E+02  0.51100000000E-03 0.  1.
         11   -1    0    0    0    0 -0.00000000000E+00 -0.00000000000E+00 -0.45593999997E+02  0.45594000000E+02  0.51100000000E-03 0. -1.
    9900012    2    1    2    0    0 -0.12108778877E+02  0.37605582218E+01  0.38631615488E+02  0.50528855405E+02  0.29999986488E+02 0.  0.
         12    1    1    2    0    0  0.12108778877E+02 -0.37605582218E+01 -0.38631615488E+02  0.40659144595E+02  0.00000000000E+00 0. -1.
         11    1    3    3    0    0 -0.32274197736E+01 -0.81975553040E+01  0.16348824503E+02  0.18571489285E+02  0.51100000000E-03 0. -1.
        -11    1    3    3    0    0 -0.11237068451E+02  0.80012174711E+00  0.87776526002E+01  0.14281424565E+02  0.51100000000E-03 0.  1.
         12    1    3    3    0    0  0.23557093475E+01  0.11157991779E+02  0.13505138384E+02  0.17675941555E+02  0.00000000000E+00 0. -1.
</event>
<event>
 7    1  0.5290964E-013  0.5052886E+02  0.7816164E-02  0.1300439E+00
        -11   -1    0    0    0    0  0.00000000000E+00  0.00000000000E+00  0.45593999997E+02  0.45594000000E+02  0.51100000000E-03 0.  1.
         11   -1    0    0    0    0 -0.00000000000E+00 -0.00000000000E+00 -0.45593999997E+02  0.45594000000E+02  0.51100000000E-03 0. -1.
    9900012    2    1    2    0    0  0.12994758241E+02 -0.10307322195E+02  0.37122246238E+02  0.50528858367E+02  0.29999995493E+02 0.  0.
         12    1    1    2    0    0 -0.12994758241E+02  0.10307322195E+02 -0.37122246238E+02  0.40659141633E+02  0.00000000000E+00 0. -1.
         11    1    3    3    0    0 -0.54824994860E+01 -0.74929921971E+01  0.59680927478E+01  0.11037248932E+02  0.51100000000E-03 0. -1.
        -11    1    3    3    0    0  0.32081292457E+01 -0.25565847983E+01  0.20413152326E+02  0.20821263344E+02  0.51100000000E-03 0.  1.
         12    1    3    3    0    0  0.15269128481E+02 -0.25774519965E+00  0.10741001164E+02  0.18670346092E+02  0.00000000000E+00 0. -1.
</event>
<event>
 7    1  0.5290964E-013  0.5052887E+02  0.7816164E-02  0.1300439E+00
        -11   -1    0    0    0    0  0.00000000000E+00  0.00000000000E+00  0.45593999997E+02  0.45594000000E+02  0.51100000000E-03 0.  1.
         11   -1    0    0    0    0 -0.00000000000E+00 -0.00000000000E+00 -0.45593999997E+02  0.45594000000E+02  0.51100000000E-03 0. -1.
    9900012    2    1    2    0    0  0.37708831145E+02  0.14706416132E+02 -0.38640050844E+01  0.50528866253E+02  0.30000019462E+02 0.  0.
         12    1    1    2    0    0 -0.37708831145E+02 -0.14706416132E+02  0.38640050844E+01  0.40659133747E+02  0.00000000000E+00 0. -1.
         11    1    3    3    0    0  0.52348283099E+01 -0.62951932562E+01 -0.22281969575E+01  0.84851486439E+01  0.51100000000E-03 0.  1.
        -11    1    3    3    0    0  0.19095841714E+02  0.55236551901E+01 -0.66830525013E+01  0.20972008211E+02  0.51100000000E-03 0. -1.
        -12    1    3    3    0    0  0.13378161122E+02  0.15477954198E+02  0.50472443744E+01  0.21071709398E+02  0.00000000000E+00 0.  1.
</event>
<event>
 7    1  0.5290964E-013  0.5052886E+02  0.7816164E-02  0.1300439E+00
        -11   -1    0    0    0    0  0.00000000000E+00  0.00000000000E+00  0.45593999997E+02  0.45594000000E+02  0.51100000000E-03 0.  1.
         11   -1    0    0    0    0 -0.00000000000E+00 -0.00000000000E+00 -0.45593999997E+02  0.45594000000E+02  0.51100000000E-03 0. -1.
    9900012    2    1    2    0    0  0.25264959289E+02 -0.29298094188E+02  0.12508755220E+02  0.50528862674E+02  0.30000008583E+02 0.  0.
         12    1    1    2    0    0 -0.25264959289E+02  0.29298094188E+02 -0.12508755220E+02  0.40659137326E+02  0.00000000000E+00 0. -1.
         11    1    3    3    0    0  0.54526811978E+00 -0.29258527776E+01  0.45326743760E+01  0.54224596872E+01  0.51100000000E-03 0. -1.
        -11    1    3    3    0    0  0.29619757419E+02 -0.25150512315E+02  0.91538367857E+01  0.39920809454E+02  0.51100000000E-03 0.  1.
         12    1    3    3    0    0 -0.49000662494E+01 -0.12217290954E+01 -0.11777559418E+01  0.51855935330E+01  0.00000000000E+00 0. -1.
</event>
<event>
 7    1  0.5290964E-013  0.5052887E+02  0.7816164E-02  0.1300439E+00
        -11   -1    0    0    0    0  0.00000000000E+00  0.00000000000E+00  0.45593999997E+02  0.45594000000E+02  0.51100000000E-03 0. -1.
         11   -1    0    0    0    0 -0.00000000000E+00 -0.00000000000E+00 -0.45593999997E+02  0.45594000000E+02  0.51100000000E-03 0.  1.
    9900012    2    1    2    0    0  0.59704259390E+01 -0.32790496508E+02 -0.23287382371E+02  0.50528870339E+02  0.30000031883E+02 0.  0.
         12    1    1    2    0    0 -0.59704259390E+01  0.32790496508E+02  0.23287382371E+02  0.40659129661E+02  0.00000000000E+00 0. -1.
         11    1    3    3    0    0  0.91184765427E+01 -0.23139978821E+02 -0.14623010679E+02  0.28851996046E+02  0.51100000000E-03 0. -1.
        -11    1    3    3    0    0  0.22477591674E+01 -0.10929757494E+02 -0.10991626690E+02  0.15662946010E+02  0.51100000000E-03 0.  1.
        -12    1    3    3    0    0 -0.53958097712E+01  0.12792398074E+01  0.23272549976E+01  0.60139282832E+01  0.00000000000E+00 0.  1.
</event>
<event>
 7    1  0.5290964E-013  0.5052886E+02  0.7816164E-02  0.1300439E+00
        -11   -1    0    0    0    0  0.00000000000E+00  0.00000000000E+00  0.45593999997E+02  0.45594000000E+02  0.51100000000E-03 0. -1.
         11   -1    0    0    0    0 -0.00000000000E+00 -0.00000000000E+00 -0.45593999997E+02  0.45594000000E+02  0.51100000000E-03 0.  1.
    9900012    2    1    2    0    0 -0.20183018228E+02  0.27925502340E+02 -0.21586521204E+02  0.50528858305E+02  0.29999995303E+02 0.  0.
         12    1    1    2    0    0  0.20183018228E+02 -0.27925502340E+02  0.21586521204E+02  0.40659141695E+02  0.00000000000E+00 0. -1.
         11    1    3    3    0    0 -0.15423799593E+02  0.19057391052E+02 -0.14445205581E+02  0.28455960924E+02  0.51100000000E-03 0. -1.
        -11    1    3    3    0    0 -0.69975351205E+01  0.97600778578E+01 -0.11794705220E+02  0.16832697022E+02  0.51100000000E-03 0.  1.
         12    1    3    3    0    0  0.22383164855E+01 -0.89196656965E+00  0.46533895972E+01  0.52402003582E+01  0.00000000000E+00 0. -1.
</event>
<event>
 7    1  0.5290964E-013  0.5052889E+02  0.7816164E-02  0.1300439E+00
        -11   -1    0    0    0    0  0.00000000000E+00  0.00000000000E+00  0.45593999997E+02  0.45594000000E+02  0.51100000000E-03 0. -1.
         11   -1    0    0    0    0 -0.00000000000E+00 -0.00000000000E+00 -0.45593999997E+02  0.45594000000E+02  0.51100000000E-03 0.  1.
    9900012    2    1    2    0    0 -0.36111909910E+02 -0.44272290344E+01 -0.18151946505E+02  0.50528885939E+02  0.30000079300E+02 0.  0.
         12    1    1    2    0    0  0.36111909910E+02  0.44272290344E+01  0.18151946505E+02  0.40659114061E+02  0.00000000000E+00 0. -1.
         11    1    3    3    0    0 -0.14771801346E+02 -0.12276528467E+02 -0.36877981887E+01  0.19558096072E+02  0.51100000000E-03 0. -1.
        -11    1    3    3    0    0 -0.56962832921E+01 -0.44059320096E+01 -0.59894583168E+01  0.93666157926E+01  0.51100000000E-03 0.  1.
         12    1    3    3    0    0 -0.15643825272E+02  0.12255231443E+02 -0.84746899997E+01  0.21604174075E+02  0.00000000000E+00 0. -1.
</event>
<event>
 7    1  0.5290964E-013  0.5052886E+02  0.7816164E-02  0.1300439E+00
        -11   -1    0    0    0    0  0.00000000000E+00  0.00000000000E+00  0.45593999997E+02  0.45594000000E+02  0.51100000000E-03 0. -1.
         11   -1    0    0    0    0 -0.00000000000E+00 -0.00000000000E+00 -0.45593999997E+02  0.45594000000E+02  0.51100000000E-03 0.  1.
    9900012    2    1    2    0    0 -0.97871900727E+01 -0.39382539159E+02  0.25282072393E+01  0.50528864348E+02  0.30000013671E+02 0.  0.
         12    1    1    2    0    0  0.97871900727E+01  0.39382539159E+02 -0.25282072393E+01  0.40659135652E+02  0.00000000000E+00 0. -1.
         11    1    3    3    0    0  0.31922494124E+01  0.28667106167E+01  0.14515142219E+01  0.45293906730E+01  0.51100000000E-03 0. -1.
        -11    1    3    3    0    0 -0.23987440211E+01 -0.19254493054E+01 -0.27623482667E+01  0.41342346467E+01  0.51100000000E-03 0.  1.
        -12    1    3    3    0    0 -0.10580695464E+02 -0.40323800471E+02  0.38390412840E+01  0.41865239028E+02  0.00000000000E+00 0.  1.
</event>
<event>
 7    1  0.5290964E-013  0.5052886E+02  0.7816164E-02  0.1300439E+00
        -11   -1    0    0    0    0  0.00000000000E+00  0.00000000000E+00  0.45593999997E+02  0.45594000000E+02  0.51100000000E-03 0.  1.
         11   -1    0    0    0    0 -0.00000000000E+00 -0.00000000000E+00 -0.45593999997E+02  0.45594000000E+02  0.51100000000E-03 0. -1.
    9900012    2    1    2    0    0 -0.12589133593E+02 -0.32164175133E+02  0.21450995288E+02  0.50528860247E+02  0.30000001207E+02 0.  0.
         12    1    1    2    0    0  0.12589133593E+02  0.32164175133E+02 -0.21450995288E+02  0.40659139753E+02  0.00000000000E+00 0. -1.
         11    1    3    3    0    0  0.68663733022E+01 -0.23666372566E+01  0.49922714369E+00  0.72799232298E+01  0.51100000000E-03 0.  1.
        -11    1    3    3    0    0  0.17737289150E+01 -0.10608908774E+01  0.70894217178E+00  0.21849949615E+01  0.51100000000E-03 0. -1.
        -12    1    3    3    0    0 -0.21229235810E+02 -0.28736646999E+02  0.20242825973E+02  0.41063942056E+02  0.00000000000E+00 0.  1.
</event>
<event>
 7    1  0.5290964E-013  0.5052887E+02  0.7816164E-02  0.1300439E+00
        -11   -1    0    0    0    0  0.00000000000E+00  0.00000000000E+00  0.45593999997E+02  0.45594000000E+02  0.51100000000E-03 0. -1.
         11   -1    0    0    0    0 -0.00000000000E+00 -0.00000000000E+00 -0.45593999997E+02  0.45594000000E+02  0.51100000000E-03 0.  1.
    9900012    2    1    2    0    0 -0.31718905755E+02 -0.23429417613E+02 -0.99064845970E+01  0.50528867827E+02  0.30000024246E+02 0.  0.
         12    1    1    2    0    0  0.31718905755E+02  0.23429417613E+02  0.99064845970E+01  0.40659132173E+02  0.00000000000E+00 0. -1.
         11    1    3    3    0    0 -0.54666256423E+01 -0.74430713477E+01 -0.10435267724E+02  0.13934780936E+02  0.51100000000E-03 0. -1.
        -11    1    3    3    0    0 -0.30375735915E+01 -0.32599545165E+01  0.79376098663E+01  0.91027362603E+01  0.51100000000E-03 0.  1.
        -12    1    3    3    0    0 -0.23214706522E+02 -0.12726391749E+02 -0.74088267389E+01  0.27491350630E+02  0.00000000000E+00 0.  1.
</event>
<event>
 7    1  0.5290964E-013  0.5052886E+02  0.7816164E-02  0.1300439E+00
        -11   -1    0    0    0    0  0.00000000000E+00  0.00000000000E+00  0.45593999997E+02  0.45594000000E+02  0.51100000000E-03 0.  1.
         11   -1    0    0    0    0 -0.00000000000E+00 -0.00000000000E+00 -0.45593999997E+02  0.45594000000E+02  0.51100000000E-03 0. -1.
    9900012    2    1    2    0    0  0.73443726280E+01  0.17753614023E+02  0.35833433252E+02  0.50528861313E+02  0.30000004447E+02 0.  0.
         12    1    1    2    0    0 -0.73443726280E+01 -0.17753614023E+02 -0.35833433252E+02  0.40659138687E+02  0.00000000000E+00 0. -1.
         11    1    3    3    0    0  0.21375220709E+01  0.76739174625E+01  0.12458145512E+02  0.14787271543E+02  0.51100000000E-03 0. -1.
        -11    1    3    3    0    0 -0.70365779082E+01  0.93791495328E+01  0.19724230761E+02  0.22946179507E+02  0.51100000000E-03 0.  1.
         12    1    3    3    0    0  0.12243428465E+02  0.70054702769E+00  0.36510569786E+01  0.12795410262E+02  0.00000000000E+00 0. -1.
</event>
<event>
 7    1  0.5290964E-013  0.5052886E+02  0.7816164E-02  0.1300439E+00
        -11   -1    0    0    0    0  0.00000000000E+00  0.00000000000E+00  0.45593999997E+02  0.45594000000E+02  0.51100000000E-03 0.  1.
         11   -1    0    0    0    0 -0.00000000000E+00 -0.00000000000E+00 -0.45593999997E+02  0.45594000000E+02  0.51100000000E-03 0. -1.
    9900012    2    1    2    0    0 -0.97803275018E+01 -0.26450617452E+02  0.29289515554E+02  0.50528859686E+02  0.29999999503E+02 0.  0.
         12    1    1    2    0    0  0.97803275018E+01  0.26450617452E+02 -0.29289515554E+02  0.40659140314E+02  0.00000000000E+00 0. -1.
         11    1    3    3    0    0 -0.60524726912E+01 -0.15736687320E+02  0.92262309588E+01  0.19219757841E+02  0.51100000000E-03 0. -1.
        -11    1    3    3    0    0 -0.11253353733E+02 -0.77818269612E+00  0.11971829381E+02  0.16448958555E+02  0.51100000000E-03 0.  1.
         12    1    3    3    0    0  0.75254989225E+01 -0.99357474354E+01  0.80914552148E+01  0.14860143291E+02  0.00000000000E+00 0. -1.
</event>
<event>
 7    1  0.5290964E-013  0.5052877E+02  0.7816164E-02  0.1300439E+00
        -11   -1    0    0    0    0  0.00000000000E+00  0.00000000000E+00  0.45593999997E+02  0.45594000000E+02  0.51100000000E-03 0. -1.
         11   -1    0    0    0    0 -0.00000000000E+00 -0.00000000000E+00 -0.45593999997E+02  0.45594000000E+02  0.51100000000E-03 0.  1.
    9900012    2    1    2    0    0  0.36980490887E+02  0.15226085534E+02  0.73336583442E+01  0.50528770647E+02  0.29999728856E+02 0.  0.
         12    1    1    2    0    0 -0.36980490887E+02 -0.15226085534E+02 -0.73336583442E+01  0.40659229353E+02  0.00000000000E+00 0. -1.
         11    1    3    3    0    0  0.28575880037E+02  0.12005606345E+02  0.23130386592E+01  0.31081596672E+02  0.51100000000E-03 0. -1.
        -11    1    3    3    0    0  0.12252997858E+02  0.63464881228E+01  0.41810547106E+01  0.14418567431E+02  0.51100000000E-03 0.  1.
         12    1    3    3    0    0 -0.38483870084E+01 -0.31260089343E+01  0.83956497441E+00  0.50286065435E+01  0.00000000000E+00 0. -1.
</event>
<event>
 7    1  0.5290964E-013  0.5052887E+02  0.7816164E-02  0.1300439E+00
        -11   -1    0    0    0    0  0.00000000000E+00  0.00000000000E+00  0.45593999997E+02  0.45594000000E+02  0.51100000000E-03 0.  1.
         11   -1    0    0    0    0 -0.00000000000E+00 -0.00000000000E+00 -0.45593999997E+02  0.45594000000E+02  0.51100000000E-03 0. -1.
    9900012    2    1    2    0    0  0.16596336796E+02  0.36789426836E+02 -0.49259411169E+01  0.50528865505E+02  0.30000017190E+02 0.  0.
         12    1    1    2    0    0 -0.16596336796E+02 -0.36789426836E+02  0.49259411169E+01  0.40659134495E+02  0.00000000000E+00 0. -1.
         11    1    3    3    0    0  0.26820911124E+01  0.73250960783E+01 -0.68238656460E+01  0.10364158813E+02  0.51100000000E-03 0. -1.
        -11    1    3    3    0    0  0.13484253618E+02  0.32793574049E+02 -0.13642106858E+01  0.35483864863E+02  0.51100000000E-03 0.  1.
        -12    1    3    3    0    0  0.42999206572E+00 -0.33292432912E+01  0.32621352149E+01  0.46808418291E+01  0.00000000000E+00 0.  1.
</event>
<event>
 7    1  0.5290964E-013  0.5052891E+02  0.7816164E-02  0.1300439E+00
        -11   -1    0    0    0    0  0.00000000000E+00  0.00000000000E+00  0.45593999997E+02  0.45594000000E+02  0.51100000000E-03 0. -1.
         11   -1    0    0    0    0 -0.00000000000E+00 -0.00000000000E+00 -0.45593999997E+02  0.45594000000E+02  0.51100000000E-03 0.  1.
    9900012    2    1    2    0    0 -0.24726819986E+02 -0.34824390209E+01 -0.32087664611E+02  0.50528914566E+02  0.30000166314E+02 0.  0.
         12    1    1    2    0    0  0.24726819986E+02  0.34824390209E+01  0.32087664611E+02  0.40659085434E+02  0.00000000000E+00 0. -1.
         11    1    3    3    0    0 -0.31020861497E+00  0.73188193153E+01 -0.19985690428E+01  0.75931300552E+01  0.51100000000E-03 0. -1.
        -11    1    3    3    0    0 -0.21437902093E+02 -0.41075331199E+01 -0.16028247256E+02  0.27080623789E+02  0.51100000000E-03 0.  1.
        -12    1    3    3    0    0 -0.29787092788E+01 -0.66937252163E+01 -0.14060848312E+02  0.15855160721E+02  0.00000000000E+00 0.  1.
</event>
<event>
 7    1  0.5290964E-013  0.5052887E+02  0.7816164E-02  0.1300439E+00
        -11   -1    0    0    0    0  0.00000000000E+00  0.00000000000E+00  0.45593999997E+02  0.45594000000E+02  0.51100000000E-03 0. -1.
         11   -1    0    0    0    0 -0.00000000000E+00 -0.00000000000E+00 -0.45593999997E+02  0.45594000000E+02  0.51100000000E-03 0.  1.
    9900012    2    1    2    0    0 -0.18231741020E+02 -0.15658027063E+02 -0.32796263933E+02  0.50528866708E+02  0.30000020844E+02 0.  0.
         12    1    1    2    0    0  0.18231741020E+02  0.15658027063E+02  0.32796263933E+02  0.40659133292E+02  0.00000000000E+00 0. -1.
         11    1    3    3    0    0 -0.20081377352E+02 -0.11748748794E+02 -0.13417372926E+02  0.26857414452E+02  0.51100000000E-03 0. -1.
        -11    1    3    3    0    0 -0.44451127143E+01 -0.80353971065E+00 -0.20221618773E+01  0.49491253802E+01  0.51100000000E-03 0.  1.
        -12    1    3    3    0    0  0.62947490458E+01 -0.31057385582E+01 -0.17356729129E+02  0.18722326875E+02  0.00000000000E+00 0.  1.
</event>
<event>
 7    1  0.5290964E-013  0.5052886E+02  0.7816164E-02  0.1300439E+00
        -11   -1    0    0    0    0  0.00000000000E+00  0.00000000000E+00  0.45593999997E+02  0.45594000000E+02  0.51100000000E-03 0.  1.
         11   -1    0    0    0    0 -0.00000000000E+00 -0.00000000000E+00 -0.45593999997E+02  0.45594000000E+02  0.51100000000E-03 0. -1.
    9900012    2    1    2    0    0 -0.10312007109E+02 -0.38636750449E+02 -0.73504790457E+01  0.50528861814E+02  0.30000005970E+02 0.  0.
         12    1    1    2    0    0  0.10312007109E+02  0.38636750449E+02  0.73504790457E+01  0.40659138186E+02  0.00000000000E+00 0. -1.
         11    1    3    3    0    0 -0.52917910307E+01 -0.23083538180E+02 -0.12850838912E+02  0.26944328684E+02  0.51100000000E-03 0. -1.
        -11    1    3    3    0    0  0.34458601875E+01 -0.72087575976E+01 -0.34515480244E+01  0.87036384667E+01  0.51100000000E-03 0.  1.
         12    1    3    3    0    0 -0.84660762654E+01 -0.83444546705E+01  0.89519078910E+01  0.14880894663E+02  0.00000000000E+00 0. -1.
</event>
<event>
 7    1  0.5290964E-013  0.5052887E+02  0.7816164E-02  0.1300439E+00
        -11   -1    0    0    0    0  0.00000000000E+00  0.00000000000E+00  0.45593999997E+02  0.45594000000E+02  0.51100000000E-03 0. -1.
         11   -1    0    0    0    0 -0.00000000000E+00 -0.00000000000E+00 -0.45593999997E+02  0.45594000000E+02  0.51100000000E-03 0.  1.
    9900012    2    1    2    0    0 -0.23354481837E+02 -0.30576402483E+02 -0.13145981650E+02  0.50528867640E+02  0.30000023679E+02 0.  0.
         12    1    1    2    0    0  0.23354481837E+02  0.30576402483E+02  0.13145981650E+02  0.40659132360E+02  0.00000000000E+00 0. -1.
         11    1    3    3    0    0 -0.20197330660E+01 -0.15964089202E+02 -0.64373653826E+01  0.17331218626E+02  0.51100000000E-03 0. -1.
        -11    1    3    3    0    0  0.74893970855E-01 -0.10229084845E+02 -0.46826845112E+01  0.11250214237E+02  0.51100000000E-03 0.  1.
         12    1    3    3    0    0 -0.21409642742E+02 -0.43832284358E+01 -0.20259317567E+01  0.21947434778E+02  0.00000000000E+00 0. -1.
</event>
<event>
 7    1  0.5290964E-013  0.5052886E+02  0.7816164E-02  0.1300439E+00
        -11   -1    0    0    0    0  0.00000000000E+00  0.00000000000E+00  0.45593999997E+02  0.45594000000E+02  0.51100000000E-03 0.  1.
         11   -1    0    0    0    0 -0.00000000000E+00 -0.00000000000E+00 -0.45593999997E+02  0.45594000000E+02  0.51100000000E-03 0. -1.
    9900012    2    1    2    0    0  0.24093123081E+02 -0.14227432687E+02  0.29500289523E+02  0.50528862004E+02  0.30000006547E+02 0.  0.
         12    1    1    2    0    0 -0.24093123081E+02  0.14227432687E+02 -0.29500289523E+02  0.40659137996E+02  0.00000000000E+00 0. -1.
         11    1    3    3    0    0 -0.18928218529E+01 -0.42661977024E+01 -0.11659330693E+01  0.48106774561E+01  0.51100000000E-03 0. -1.
        -11    1    3    3    0    0 -0.77664074573E+00 -0.64801330457E+01  0.34198033990E+01  0.73681986053E+01  0.51100000000E-03 0.  1.
         12    1    3    3    0    0  0.26762585679E+02 -0.34811019393E+01  0.27246419193E+02  0.38349985943E+02  0.00000000000E+00 0. -1.
</event>
<event>
 7    1  0.5290964E-013  0.5052886E+02  0.7816164E-02  0.1300439E+00
        -11   -1    0    0    0    0  0.00000000000E+00  0.00000000000E+00  0.45593999997E+02  0.45594000000E+02  0.51100000000E-03 0.  1.
         11   -1    0    0    0    0 -0.00000000000E+00 -0.00000000000E+00 -0.45593999997E+02  0.45594000000E+02  0.51100000000E-03 0. -1.
    9900012    2    1    2    0    0  0.11822492734E+02  0.36683244054E+01  0.38729027705E+02  0.50528861724E+02  0.30000005695E+02 0.  0.
         12    1    1    2    0    0 -0.11822492734E+02 -0.36683244054E+01 -0.38729027705E+02  0.40659138276E+02  0.00000000000E+00 0. -1.
         11    1    3    3    0    0  0.12254877157E+02 -0.84583508811E+00  0.14956591210E+02  0.19354510379E+02  0.51100000000E-03 0. -1.
        -11    1    3    3    0    0  0.36537063698E+01 -0.62751328074E+01  0.15053140333E+02  0.16712985853E+02  0.51100000000E-03 0.  1.
         12    1    3    3    0    0 -0.40860907926E+01  0.10789292301E+02  0.87192961628E+01  0.14461365492E+02  0.00000000000E+00 0. -1.
</event>
<event>
 7    1  0.5290964E-013  0.5052885E+02  0.7816164E-02  0.1300439E+00
        -11   -1    0    0    0    0  0.00000000000E+00  0.00000000000E+00  0.45593999997E+02  0.45594000000E+02  0.51100000000E-03 0.  1.
         11   -1    0    0    0    0 -0.00000000000E+00 -0.00000000000E+00 -0.45593999997E+02  0.45594000000E+02  0.51100000000E-03 0. -1.
    9900012    2    1    2    0    0 -0.82914573947E+01 -0.66128984356E+01  0.39251596006E+02  0.50528849979E+02  0.29999969996E+02 0.  0.
         12    1    1    2    0    0  0.82914573947E+01  0.66128984356E+01 -0.39251596006E+02  0.40659150021E+02  0.00000000000E+00 0. -1.
         11    1    3    3    0    0  0.27525883999E+01  0.26303203173E+01  0.10019209512E+02  0.10718203552E+02  0.51100000000E-03 0. -1.
        -11    1    3    3    0    0  0.10065204063E+01  0.66216953401E+01  0.45779169669E+01  0.81127835249E+01  0.51100000000E-03 0.  1.
        -12    1    3    3    0    0 -0.12050566201E+02 -0.15864914093E+02  0.24654469527E+02  0.31697862902E+02  0.00000000000E+00 0.  1.
</event>
<event>
 7    1  0.5290964E-013  0.5052885E+02  0.7816164E-02  0.1300439E+00
        -11   -1    0    0    0    0  0.00000000000E+00  0.00000000000E+00  0.45593999997E+02  0.45594000000E+02  0.51100000000E-03 0.  1.
         11   -1    0    0    0    0 -0.00000000000E+00 -0.00000000000E+00 -0.45593999997E+02  0.45594000000E+02  0.51100000000E-03 0. -1.
    9900012    2    1    2    0    0  0.23249056493E+02  0.77041234336E+01  0.32454492946E+02  0.50528852713E+02  0.29999978308E+02 0.  0.
         12    1    1    2    0    0 -0.23249056493E+02 -0.77041234336E+01 -0.32454492946E+02  0.40659147287E+02  0.00000000000E+00 0. -1.
         11    1    3    3    0    0  0.12270310895E+02 -0.68229805033E+01  0.26426295480E+02  0.29924282539E+02  0.51100000000E-03 0. -1.
        -11    1    3    3    0    0  0.48731518030E+01  0.12697397717E+01  0.23232559774E+01  0.55459323995E+01  0.51100000000E-03 0.  1.
        -12    1    3    3    0    0  0.61055937943E+01  0.13257364165E+02  0.37049414882E+01  0.15058637775E+02  0.00000000000E+00 0.  1.
</event>
<event>
 7    1  0.5290964E-013  0.5052886E+02  0.7816164E-02  0.1300439E+00
        -11   -1    0    0    0    0  0.00000000000E+00  0.00000000000E+00  0.45593999997E+02  0.45594000000E+02  0.51100000000E-03 0.  1.
         11   -1    0    0    0    0 -0.00000000000E+00 -0.00000000000E+00 -0.45593999997E+02  0.45594000000E+02  0.51100000000E-03 0. -1.
    9900012    2    1    2    0    0  0.10436505170E+02  0.39107814811E+02  0.38501903792E+01  0.50528858526E+02  0.29999995975E+02 0.  0.
         12    1    1    2    0    0 -0.10436505170E+02 -0.39107814811E+02 -0.38501903792E+01  0.40659141474E+02  0.00000000000E+00 0. -1.
         11    1    3    3    0    0 -0.99851263025E+00 -0.18725460076E+01 -0.50159186248E+01  0.54463653876E+01  0.51100000000E-03 0. -1.
        -11    1    3    3    0    0  0.11120250629E+01  0.75179918967E+01 -0.29086839617E+01  0.81373978979E+01  0.51100000000E-03 0.  1.
        -12    1    3    3    0    0  0.10322992737E+02  0.33462368922E+02  0.11774792966E+02  0.36945095240E+02  0.00000000000E+00 0.  1.
</event>
<event>
 7    1  0.5290964E-013  0.5052886E+02  0.7816164E-02  0.1300439E+00
        -11   -1    0    0    0    0  0.00000000000E+00  0.00000000000E+00  0.45593999997E+02  0.45594000000E+02  0.51100000000E-03 0.  1.
         11   -1    0    0    0    0 -0.00000000000E+00 -0.00000000000E+00 -0.45593999997E+02  0.45594000000E+02  0.51100000000E-03 0. -1.
    9900012    2    1    2    0    0 -0.31171099043E+02  0.25747701069E+02  0.43109646412E+01  0.50528856599E+02  0.29999990120E+02 0.  0.
         12    1    1    2    0    0  0.31171099043E+02 -0.25747701069E+02 -0.43109646412E+01  0.40659143401E+02  0.00000000000E+00 0. -1.
         11    1    3    3    0    0 -0.26902503871E+02  0.23809145916E+02  0.10167739928E+02  0.37336350642E+02  0.51100000000E-03 0.  1.
        -11    1    3    3    0    0 -0.67067388915E+00  0.11561329226E+01  0.31718465507E+01  0.34419554911E+01  0.51100000000E-03 0. -1.
         12    1    3    3    0    0 -0.35979212833E+01  0.78242223109E+00 -0.90286218377E+01  0.97505504663E+01  0.00000000000E+00 0. -1.
</event>
<event>
 7    1  0.5290964E-013  0.5052885E+02  0.7816164E-02  0.1300439E+00
        -11   -1    0    0    0    0  0.00000000000E+00  0.00000000000E+00  0.45593999997E+02  0.45594000000E+02  0.51100000000E-03 0. -1.
         11   -1    0    0    0    0 -0.00000000000E+00 -0.00000000000E+00 -0.45593999997E+02  0.45594000000E+02  0.51100000000E-03 0.  1.
    9900012    2    1    2    0    0 -0.83070836892E+01 -0.24326401648E+02 -0.31502139889E+02  0.50528852516E+02  0.29999977707E+02 0.  0.
         12    1    1    2    0    0  0.83070836892E+01  0.24326401648E+02  0.31502139889E+02  0.40659147484E+02  0.00000000000E+00 0. -1.
         11    1    3    3    0    0 -0.49322195614E+01 -0.78603243215E+01 -0.17061778256E+01  0.94351752117E+01  0.51100000000E-03 0. -1.
        -11    1    3    3    0    0 -0.12744153439E+02 -0.11265024594E+02 -0.14127043833E+02  0.22110802647E+02  0.51100000000E-03 0.  1.
         12    1    3    3    0    0  0.93692893113E+01 -0.52010527320E+01 -0.15668918230E+02  0.18982874657E+02  0.00000000000E+00 0. -1.
</event>
<event>
 7    1  0.5290964E-013  0.5052886E+02  0.7816164E-02  0.1300439E+00
        -11   -1    0    0    0    0  0.00000000000E+00  0.00000000000E+00  0.45593999997E+02  0.45594000000E+02  0.51100000000E-03 0.  1.
         11   -1    0    0    0    0 -0.00000000000E+00 -0.00000000000E+00 -0.45593999997E+02  0.45594000000E+02  0.51100000000E-03 0. -1.
    9900012    2    1    2    0    0 -0.12182880381E+02 -0.28683477146E+00  0.38789954741E+02  0.50528862806E+02  0.30000008986E+02 0.  0.
         12    1    1    2    0    0  0.12182880381E+02  0.28683477146E+00 -0.38789954741E+02  0.40659137194E+02  0.00000000000E+00 0. -1.
         11    1    3    3    0    0 -0.60153759008E+01  0.64294479778E+01  0.65222898454E+01  0.10957317811E+02  0.51100000000E-03 0. -1.
        -11    1    3    3    0    0 -0.10392752859E+02 -0.25603722851E+01  0.31883915491E+02  0.33632556928E+02  0.51100000000E-03 0.  1.
        -12    1    3    3    0    0  0.42252483788E+01 -0.41559104642E+01  0.38374940405E+00  0.59389880665E+01  0.00000000000E+00 0.  1.
</event>
<event>
 7    1  0.5290964E-013  0.5052887E+02  0.7816164E-02  0.1300439E+00
        -11   -1    0    0    0    0  0.00000000000E+00  0.00000000000E+00  0.45593999997E+02  0.45594000000E+02  0.51100000000E-03 0. -1.
         11   -1    0    0    0    0 -0.00000000000E+00 -0.00000000000E+00 -0.45593999997E+02  0.45594000000E+02  0.51100000000E-03 0.  1.
    9900012    2    1    2    0    0  0.25097030440E+02  0.30356604467E+02  0.10088617860E+02  0.50528873325E+02  0.30000040959E+02 0.  0.
         12    1    1    2    0    0 -0.25097030440E+02 -0.30356604467E+02 -0.10088617860E+02  0.40659126675E+02  0.00000000000E+00 0. -1.
         11    1    3    3    0    0  0.59337997912E+01  0.11339357701E+01  0.55335923537E+01  0.81924620775E+01  0.51100000000E-03 0. -1.
        -11    1    3    3    0    0  0.22692636828E+02  0.15083860446E+02  0.52397071821E+01  0.27747669160E+02  0.51100000000E-03 0.  1.
         12    1    3    3    0    0 -0.35294061797E+01  0.14138808250E+02 -0.68468167554E+00  0.14588742088E+02  0.00000000000E+00 0. -1.
</event>
<event>
 7    1  0.5290964E-013  0.5052884E+02  0.7816164E-02  0.1300439E+00
        -11   -1    0    0    0    0  0.00000000000E+00  0.00000000000E+00  0.45593999997E+02  0.45594000000E+02  0.51100000000E-03 0. -1.
         11   -1    0    0    0    0 -0.00000000000E+00 -0.00000000000E+00 -0.45593999997E+02  0.45594000000E+02  0.51100000000E-03 0.  1.
    9900012    2    1    2    0    0 -0.33409849595E+02 -0.10045831297E+02 -0.20881339634E+02  0.50528842098E+02  0.29999946040E+02 0.  0.
         12    1    1    2    0    0  0.33409849595E+02  0.10045831297E+02  0.20881339634E+02  0.40659157902E+02  0.00000000000E+00 0. -1.
         11    1    3    3    0    0 -0.15756475985E+02 -0.17211249894E+02 -0.12120825160E+02  0.26294639400E+02  0.51100000000E-03 0. -1.
        -11    1    3    3    0    0  0.99914286336E+00 -0.10840510973E+01  0.83506879056E+00  0.16943415798E+01  0.51100000000E-03 0.  1.
        -12    1    3    3    0    0 -0.18652516473E+02  0.82494696940E+01 -0.95955832651E+01  0.22539861118E+02  0.00000000000E+00 0.  1.
</event>
<event>
 7    1  0.5290964E-013  0.5052886E+02  0.7816164E-02  0.1300439E+00
        -11   -1    0    0    0    0  0.00000000000E+00  0.00000000000E+00  0.45593999997E+02  0.45594000000E+02  0.51100000000E-03 0.  1.
         11   -1    0    0    0    0 -0.00000000000E+00 -0.00000000000E+00 -0.45593999997E+02  0.45594000000E+02  0.51100000000E-03 0. -1.
    9900012    2    1    2    0    0  0.23500217721E+00 -0.28353913862E+02  0.29140446923E+02  0.50528864444E+02  0.30000013964E+02 0.  0.
         12    1    1    2    0    0 -0.23500217721E+00  0.28353913862E+02 -0.29140446923E+02  0.40659135556E+02  0.00000000000E+00 0. -1.
         11    1    3    3    0    0  0.10958265334E+02 -0.85392898072E+01  0.56034870892E+01  0.14980057322E+02  0.51100000000E-03 0. -1.
        -11    1    3    3    0    0  0.28571088743E+01 -0.83635975033E+01  0.87348516098E+01  0.12426200836E+02  0.51100000000E-03 0.  1.
         12    1    3    3    0    0 -0.13580372031E+02 -0.11451026551E+02  0.14802108224E+02  0.23122606286E+02  0.00000000000E+00 0. -1.
</event>
<event>
 7    1  0.5290964E-013  0.5052885E+02  0.7816164E-02  0.1300439E+00
        -11   -1    0    0    0    0  0.00000000000E+00  0.00000000000E+00  0.45593999997E+02  0.45594000000E+02  0.51100000000E-03 0.  1.
         11   -1    0    0    0    0 -0.00000000000E+00 -0.00000000000E+00 -0.45593999997E+02  0.45594000000E+02  0.51100000000E-03 0. -1.
    9900012    2    1    2    0    0  0.11861747298E+02 -0.26298050468E+01  0.38801408574E+02  0.50528853048E+02  0.29999979324E+02 0.  0.
         12    1    1    2    0    0 -0.11861747298E+02  0.26298050468E+01 -0.38801408574E+02  0.40659146952E+02  0.00000000000E+00 0. -1.
         11    1    3    3    0    0  0.17706190228E+01 -0.18814653724E+01 -0.18159937785E+01  0.31579799455E+01  0.51100000000E-03 0. -1.
        -11    1    3    3    0    0  0.47655599462E+01 -0.11348935943E+02  0.23739558986E+02  0.26740896951E+02  0.51100000000E-03 0.  1.
         12    1    3    3    0    0  0.53255683292E+01  0.10600596269E+02  0.16877843367E+02  0.20629976151E+02  0.00000000000E+00 0. -1.
</event>
<event>
 7    1  0.5290964E-013  0.5052886E+02  0.7816164E-02  0.1300439E+00
        -11   -1    0    0    0    0  0.00000000000E+00  0.00000000000E+00  0.45593999997E+02  0.45594000000E+02  0.51100000000E-03 0.  1.
         11   -1    0    0    0    0 -0.00000000000E+00 -0.00000000000E+00 -0.45593999997E+02  0.45594000000E+02  0.51100000000E-03 0. -1.
    9900012    2    1    2    0    0  0.12050733336E+02  0.12373982500E+02  0.36808015532E+02  0.50528860508E+02  0.30000001999E+02 0.  0.
         12    1    1    2    0    0 -0.12050733336E+02 -0.12373982500E+02 -0.36808015532E+02  0.40659139492E+02  0.00000000000E+00 0. -1.
         11    1    3    3    0    0  0.11072779945E+00  0.94964493018E+01  0.10598211599E+02  0.14230843240E+02  0.51100000000E-03 0. -1.
        -11    1    3    3    0    0  0.66172888717E+01  0.11010713486E+02  0.66711121993E+01  0.14475084170E+02  0.51100000000E-03 0.  1.
        -12    1    3    3    0    0  0.53227166648E+01 -0.81331802877E+01  0.19538691734E+02  0.21822933098E+02  0.00000000000E+00 0.  1.
</event>
<event>
 7    1  0.5290964E-013  0.5052886E+02  0.7816164E-02  0.1300439E+00
        -11   -1    0    0    0    0  0.00000000000E+00  0.00000000000E+00  0.45593999997E+02  0.45594000000E+02  0.51100000000E-03 0.  1.
         11   -1    0    0    0    0 -0.00000000000E+00 -0.00000000000E+00 -0.45593999997E+02  0.45594000000E+02  0.51100000000E-03 0. -1.
    9900012    2    1    2    0    0 -0.13707336300E+02  0.11102035144E+02  0.36633582891E+02  0.50528860213E+02  0.30000001104E+02 0.  0.
         12    1    1    2    0    0  0.13707336300E+02 -0.11102035144E+02 -0.36633582891E+02  0.40659139787E+02  0.00000000000E+00 0. -1.
         11    1    3    3    0    0 -0.77822252235E+01 -0.24347502250E+01 -0.44464164690E+00  0.81663176856E+01  0.51100000000E-03 0. -1.
        -11    1    3    3    0    0 -0.51720646453E+01  0.57673982899E+01  0.47096878874E+01  0.90661069918E+01  0.51100000000E-03 0.  1.
         12    1    3    3    0    0 -0.75304643130E+00  0.77693870793E+01  0.32368536650E+02  0.33296435536E+02  0.00000000000E+00 0. -1.
</event>
<event>
 7    1  0.5290964E-013  0.5052887E+02  0.7816164E-02  0.1300439E+00
        -11   -1    0    0    0    0  0.00000000000E+00  0.00000000000E+00  0.45593999997E+02  0.45594000000E+02  0.51100000000E-03 0. -1.
         11   -1    0    0    0    0 -0.00000000000E+00 -0.00000000000E+00 -0.45593999997E+02  0.45594000000E+02  0.51100000000E-03 0.  1.
    9900012    2    1    2    0    0  0.22200845134E+02  0.95915575684E+01 -0.32684699221E+02  0.50528867392E+02  0.30000022925E+02 0.  0.
         12    1    1    2    0    0 -0.22200845134E+02 -0.95915575684E+01  0.32684699221E+02  0.40659132608E+02  0.00000000000E+00 0. -1.
         11    1    3    3    0    0  0.12387091058E+02  0.22862330680E+01 -0.32650849053E+02  0.34996354534E+02  0.51100000000E-03 0. -1.
        -11    1    3    3    0    0 -0.15619946720E+01  0.59535504391E+00 -0.14976731959E+01  0.22443930686E+01  0.51100000000E-03 0.  1.
         12    1    3    3    0    0  0.11375748747E+02  0.67099694565E+01  0.14638230284E+01  0.13288119789E+02  0.00000000000E+00 0. -1.
</event>
<event>
 7    1  0.5290964E-013  0.5052885E+02  0.7816164E-02  0.1300439E+00
        -11   -1    0    0    0    0  0.00000000000E+00  0.00000000000E+00  0.45593999997E+02  0.45594000000E+02  0.51100000000E-03 0.  1.
         11   -1    0    0    0    0 -0.00000000000E+00 -0.00000000000E+00 -0.45593999997E+02  0.45594000000E+02  0.51100000000E-03 0. -1.
    9900012    2    1    2    0    0 -0.28949741585E+02 -0.19309488305E+02  0.21029083183E+02  0.50528853231E+02  0.29999979881E+02 0.  0.
         12    1    1    2    0    0  0.28949741585E+02  0.19309488305E+02 -0.21029083183E+02  0.40659146769E+02  0.00000000000E+00 0. -1.
         11    1    3    3    0    0 -0.14174425062E+02  0.28359748223E+01  0.25177311861E+01  0.14672970034E+02  0.51100000000E-03 0. -1.
        -11    1    3    3    0    0  0.20934761648E+01 -0.16363881230E+01  0.58739735362E+01  0.64470127894E+01  0.51100000000E-03 0.  1.
        -12    1    3    3    0    0 -0.16868792689E+02 -0.20509075005E+02  0.12637378461E+02  0.29408870408E+02  0.00000000000E+00 0.  1.
</event>
<event>
 7    1  0.5290964E-013  0.5052886E+02  0.7816164E-02  0.1300439E+00
        -11   -1    0    0    0    0  0.00000000000E+00  0.00000000000E+00  0.45593999997E+02  0.45594000000E+02  0.51100000000E-03 0.  1.
         11   -1    0    0    0    0 -0.00000000000E+00 -0.00000000000E+00 -0.45593999997E+02  0.45594000000E+02  0.51100000000E-03 0. -1.
    9900012    2    1    2    0    0 -0.35361117430E+02  0.97259802613E+01  0.17554549859E+02  0.50528861560E+02  0.30000005196E+02 0.  0.
         12    1    1    2    0    0  0.35361117430E+02 -0.97259802613E+01 -0.17554549859E+02  0.40659138440E+02  0.00000000000E+00 0. -1.
         11    1    3    3    0    0 -0.60968917802E+01  0.13424944324E+02  0.56944138838E+01  0.15805934620E+02  0.51100000000E-03 0. -1.
        -11    1    3    3    0    0 -0.27986364932E+00 -0.35056167631E+01  0.34253131980E+00  0.35334120221E+01  0.51100000000E-03 0.  1.
        -12    1    3    3    0    0 -0.28984362001E+02 -0.19334729942E+00  0.11517604656E+02  0.31189514917E+02  0.00000000000E+00 0.  1.
</event>
<event>
 7    1  0.5290964E-013  0.5052887E+02  0.7816164E-02  0.1300439E+00
        -11   -1    0    0    0    0  0.00000000000E+00  0.00000000000E+00  0.45593999997E+02  0.45594000000E+02  0.51100000000E-03 0.  1.
         11   -1    0    0    0    0 -0.00000000000E+00 -0.00000000000E+00 -0.45593999997E+02  0.45594000000E+02  0.51100000000E-03 0. -1.
    9900012    2    1    2    0    0 -0.37297289220E+02  0.47700324358E+01  0.15470097283E+02  0.50528869383E+02  0.30000028977E+02 0.  0.
         12    1    1    2    0    0  0.37297289220E+02 -0.47700324358E+01 -0.15470097283E+02  0.40659130617E+02  0.00000000000E+00 0. -1.
         11    1    3    3    0    0 -0.70558757732E+01 -0.23379916262E+01  0.93944310449E+00  0.74922721106E+01  0.51100000000E-03 0. -1.
        -11    1    3    3    0    0 -0.22469316729E+02 -0.65861201885E+01  0.31881414691E+01  0.23630730410E+02  0.51100000000E-03 0.  1.
        -12    1    3    3    0    0 -0.77720967175E+01  0.13694144250E+02  0.11342512709E+02  0.19405866863E+02  0.00000000000E+00 0.  1.
</event>
<event>
 7    1  0.5290964E-013  0.5052886E+02  0.7816164E-02  0.1300439E+00
        -11   -1    0    0    0    0  0.00000000000E+00  0.00000000000E+00  0.45593999997E+02  0.45594000000E+02  0.51100000000E-03 0. -1.
         11   -1    0    0    0    0 -0.00000000000E+00 -0.00000000000E+00 -0.45593999997E+02  0.45594000000E+02  0.51100000000E-03 0.  1.
    9900012    2    1    2    0    0  0.50880178390E+01  0.26299886391E+02 -0.30587479873E+02  0.50528857428E+02  0.29999992638E+02 0.  0.
         12    1    1    2    0    0 -0.50880178390E+01 -0.26299886391E+02  0.30587479873E+02  0.40659142572E+02  0.00000000000E+00 0. -1.
         11    1    3    3    0    0 -0.51760305038E+01  0.40855511170E+01 -0.34150855947E+01  0.74260238073E+01  0.51100000000E-03 0. -1.
        -11    1    3    3    0    0  0.22152916381E+01  0.20755738751E+02 -0.81716352110E+01  0.22416151107E+02  0.51100000000E-03 0.  1.
        -12    1    3    3    0    0  0.80487567047E+01  0.14585965232E+01 -0.19000759067E+02  0.20686682514E+02  0.00000000000E+00 0.  1.
</event>
<event>
 7    1  0.5290964E-013  0.5052891E+02  0.7816164E-02  0.1300439E+00
        -11   -1    0    0    0    0  0.00000000000E+00  0.00000000000E+00  0.45593999997E+02  0.45594000000E+02  0.51100000000E-03 0.  1.
         11   -1    0    0    0    0 -0.00000000000E+00 -0.00000000000E+00 -0.45593999997E+02  0.45594000000E+02  0.51100000000E-03 0. -1.
    9900012    2    1    2    0    0 -0.22166348607E+01 -0.24921317177E+02  0.32049592352E+02  0.50528906431E+02  0.30000141586E+02 0.  0.
         12    1    1    2    0    0  0.22166348607E+01  0.24921317177E+02 -0.32049592352E+02  0.40659093569E+02  0.00000000000E+00 0. -1.
         11    1    3    3    0    0 -0.16515185427E+01  0.32680534871E+01  0.52087436508E+01  0.63670006889E+01  0.51100000000E-03 0. -1.
        -11    1    3    3    0    0 -0.32088132321E+01 -0.66871774820E+01  0.20175364113E+02  0.21495584253E+02  0.51100000000E-03 0.  1.
         12    1    3    3    0    0  0.26436969141E+01 -0.21502193182E+02  0.66654845880E+01  0.22666321488E+02  0.00000000000E+00 0. -1.
</event>
<event>
 7    1  0.5290964E-013  0.5052886E+02  0.7816164E-02  0.1300439E+00
        -11   -1    0    0    0    0  0.00000000000E+00  0.00000000000E+00  0.45593999997E+02  0.45594000000E+02  0.51100000000E-03 0.  1.
         11   -1    0    0    0    0 -0.00000000000E+00 -0.00000000000E+00 -0.45593999997E+02  0.45594000000E+02  0.51100000000E-03 0. -1.
    9900012    2    1    2    0    0  0.27938865333E+02  0.10532010011E+02  0.27598230026E+02  0.50528859188E+02  0.29999997989E+02 0.  0.
         12    1    1    2    0    0 -0.27938865333E+02 -0.10532010011E+02 -0.27598230026E+02  0.40659140812E+02  0.00000000000E+00 0. -1.
         11    1    3    3    0    0  0.18589932150E+02  0.16097322058E+02  0.22516287976E+02  0.33342054215E+02  0.51100000000E-03 0. -1.
        -11    1    3    3    0    0 -0.75035196503E+00  0.18708463372E+01  0.41463458853E+01  0.46103447323E+01  0.51100000000E-03 0.  1.
         12    1    3    3    0    0  0.10099285148E+02 -0.74361583842E+01  0.93559616472E+00  0.12576460241E+02  0.00000000000E+00 0. -1.
</event>
<event>
 7    1  0.5290964E-013  0.5052886E+02  0.7816164E-02  0.1300439E+00
        -11   -1    0    0    0    0  0.00000000000E+00  0.00000000000E+00  0.45593999997E+02  0.45594000000E+02  0.51100000000E-03 0.  1.
         11   -1    0    0    0    0 -0.00000000000E+00 -0.00000000000E+00 -0.45593999997E+02  0.45594000000E+02  0.51100000000E-03 0. -1.
    9900012    2    1    2    0    0  0.31783541989E+02  0.15848891833E+02 -0.19793547067E+02  0.50528863029E+02  0.30000009663E+02 0.  0.
         12    1    1    2    0    0 -0.31783541989E+02 -0.15848891833E+02  0.19793547067E+02  0.40659136971E+02  0.00000000000E+00 0. -1.
         11    1    3    3    0    0  0.93816090566E+01 -0.38029302057E+01  0.37960224223E+01  0.10811413096E+02  0.51100000000E-03 0.  1.
        -11    1    3    3    0    0 -0.88661061260E-01 -0.94486950782E+00  0.28071765669E+00  0.98966753735E+00  0.51100000000E-03 0. -1.
         12    1    3    3    0    0  0.22490593994E+02  0.20596691547E+02 -0.23870287146E+02  0.38727782396E+02  0.00000000000E+00 0. -1.
</event>
<event>
 7    1  0.5290964E-013  0.5052886E+02  0.7816164E-02  0.1300439E+00
        -11   -1    0    0    0    0  0.00000000000E+00  0.00000000000E+00  0.45593999997E+02  0.45594000000E+02  0.51100000000E-03 0.  1.
         11   -1    0    0    0    0 -0.00000000000E+00 -0.00000000000E+00 -0.45593999997E+02  0.45594000000E+02  0.51100000000E-03 0. -1.
    9900012    2    1    2    0    0  0.32826694919E+02 -0.21475428758E+02  0.10694838160E+02  0.50528861999E+02  0.30000006534E+02 0.  0.
         12    1    1    2    0    0 -0.32826694919E+02  0.21475428758E+02 -0.10694838160E+02  0.40659138001E+02  0.00000000000E+00 0. -1.
         11    1    3    3    0    0 -0.84010361439E+00 -0.63119512519E+01  0.14463983069E+01  0.65298216678E+01  0.51100000000E-03 0. -1.
        -11    1    3    3    0    0  0.17177882591E+02 -0.19405842931E+02  0.43195862472E+01  0.26274040721E+02  0.51100000000E-03 0.  1.
        -12    1    3    3    0    0  0.16488915942E+02  0.42423654244E+01  0.49288536057E+01  0.17724999611E+02  0.00000000000E+00 0.  1.
</event>
<event>
 7    1  0.5290964E-013  0.5052886E+02  0.7816164E-02  0.1300439E+00
        -11   -1    0    0    0    0  0.00000000000E+00  0.00000000000E+00  0.45593999997E+02  0.45594000000E+02  0.51100000000E-03 0. -1.
         11   -1    0    0    0    0 -0.00000000000E+00 -0.00000000000E+00 -0.45593999997E+02  0.45594000000E+02  0.51100000000E-03 0.  1.
    9900012    2    1    2    0    0 -0.34506399894E+02  0.59675741810E+01  0.20660640888E+02  0.50528860103E+02  0.30000000769E+02 0.  0.
         12    1    1    2    0    0  0.34506399894E+02 -0.59675741810E+01 -0.20660640888E+02  0.40659139897E+02  0.00000000000E+00 0. -1.
         11    1    3    3    0    0 -0.26284078023E+01  0.60939389897E+01  0.84839465958E+01  0.10771349502E+02  0.51100000000E-03 0. -1.
        -11    1    3    3    0    0 -0.67698254086E+01  0.79138168354E+01 -0.65826918072E+00  0.10435149809E+02  0.51100000000E-03 0.  1.
        -12    1    3    3    0    0 -0.25108166683E+02 -0.80401816441E+01  0.12834963473E+02  0.29322360792E+02  0.00000000000E+00 0.  1.
</event>
<event>
 7    1  0.5290964E-013  0.5052886E+02  0.7816164E-02  0.1300439E+00
        -11   -1    0    0    0    0  0.00000000000E+00  0.00000000000E+00  0.45593999997E+02  0.45594000000E+02  0.51100000000E-03 0. -1.
         11   -1    0    0    0    0 -0.00000000000E+00 -0.00000000000E+00 -0.45593999997E+02  0.45594000000E+02  0.51100000000E-03 0.  1.
    9900012    2    1    2    0    0 -0.35619982571E+02 -0.19525960830E+02  0.17660874473E+01  0.50528863639E+02  0.30000011519E+02 0.  0.
         12    1    1    2    0    0  0.35619982571E+02  0.19525960830E+02 -0.17660874473E+01  0.40659136361E+02  0.00000000000E+00 0. -1.
         11    1    3    3    0    0  0.75189165109E+00 -0.36410331574E+01  0.40112762305E+01  0.54692596177E+01  0.51100000000E-03 0. -1.
        -11    1    3    3    0    0  0.39857244822E+00 -0.47353760149E+01  0.39000747655E+01  0.61476198188E+01  0.51100000000E-03 0.  1.
        -12    1    3    3    0    0 -0.36770446671E+02 -0.11149551657E+02 -0.61452635486E+01  0.38911984203E+02  0.00000000000E+00 0.  1.
</event>
<event>
 7    1  0.5290964E-013  0.5052886E+02  0.7816164E-02  0.1300439E+00
        -11   -1    0    0    0    0  0.00000000000E+00  0.00000000000E+00  0.45593999997E+02  0.45594000000E+02  0.51100000000E-03 0.  1.
         11   -1    0    0    0    0 -0.00000000000E+00 -0.00000000000E+00 -0.45593999997E+02  0.45594000000E+02  0.51100000000E-03 0. -1.
    9900012    2    1    2    0    0 -0.59952925510E+01  0.98515830377E+01  0.38989339899E+02  0.50528857770E+02  0.29999993677E+02 0.  0.
         12    1    1    2    0    0  0.59952925510E+01 -0.98515830377E+01 -0.38989339899E+02  0.40659142230E+02  0.00000000000E+00 0. -1.
         11    1    3    3    0    0 -0.14287219395E+01  0.29955077139E+01  0.43611930109E-01  0.33190684093E+01  0.51100000000E-03 0. -1.
        -11    1    3    3    0    0 -0.13125557322E+02 -0.26620924836E+01  0.15395546795E+02  0.20405632869E+02  0.51100000000E-03 0.  1.
        -12    1    3    3    0    0  0.85589867102E+01  0.95181678074E+01  0.23550181173E+02  0.26804156491E+02  0.00000000000E+00 0.  1.
</event>
<event>
 7    1  0.5290964E-013  0.5052885E+02  0.7816164E-02  0.1300439E+00
        -11   -1    0    0    0    0  0.00000000000E+00  0.00000000000E+00  0.45593999997E+02  0.45594000000E+02  0.51100000000E-03 0. -1.
         11   -1    0    0    0    0 -0.00000000000E+00 -0.00000000000E+00 -0.45593999997E+02  0.45594000000E+02  0.51100000000E-03 0.  1.
    9900012    2    1    2    0    0 -0.15056542570E+02  0.32987668271E+02  0.18392405621E+02  0.50528851993E+02  0.29999976118E+02 0.  0.
         12    1    1    2    0    0  0.15056542570E+02 -0.32987668271E+02 -0.18392405621E+02  0.40659148007E+02  0.00000000000E+00 0. -1.
         11    1    3    3    0    0 -0.84114943582E+01  0.24676990245E+02  0.19378500673E+02  0.32484355827E+02  0.51100000000E-03 0. -1.
        -11    1    3    3    0    0 -0.51934490441E+01  0.11838771937E+02  0.21506598550E+01  0.13105486333E+02  0.51100000000E-03 0.  1.
         12    1    3    3    0    0 -0.14515991674E+01 -0.35280939108E+01 -0.31367549072E+01  0.49390098334E+01  0.00000000000E+00 0. -1.
</event>
<event>
 7    1  0.5290964E-013  0.5052895E+02  0.7816164E-02  0.1300438E+00
        -11   -1    0    0    0    0  0.00000000000E+00  0.00000000000E+00  0.45593999997E+02  0.45594000000E+02  0.51100000000E-03 0.  1.
         11   -1    0    0    0    0 -0.00000000000E+00 -0.00000000000E+00 -0.45593999997E+02  0.45594000000E+02  0.51100000000E-03 0. -1.
    9900012    2    1    2    0    0 -0.23030168184E+02 -0.27391926278E+02  0.19299010279E+02  0.50528953411E+02  0.30000284387E+02 0.  0.
         12    1    1    2    0    0  0.23030168184E+02  0.27391926278E+02 -0.19299010279E+02  0.40659046589E+02  0.00000000000E+00 0. -1.
         11    1    3    3    0    0 -0.13463922231E+02 -0.20607557598E+02  0.12151908469E+02  0.27452094851E+02  0.51100000000E-03 0. -1.
        -11    1    3    3    0    0 -0.42560393725E+01 -0.99324578425E+01 -0.29864882778E+01  0.11211008092E+02  0.51100000000E-03 0.  1.
         12    1    3    3    0    0 -0.53102065798E+01  0.31480891624E+01  0.10133590087E+02  0.11865850469E+02  0.00000000000E+00 0. -1.
</event>
<event>
 7    1  0.5290964E-013  0.5052886E+02  0.7816164E-02  0.1300439E+00
        -11   -1    0    0    0    0  0.00000000000E+00  0.00000000000E+00  0.45593999997E+02  0.45594000000E+02  0.51100000000E-03 0.  1.
         11   -1    0    0    0    0 -0.00000000000E+00 -0.00000000000E+00 -0.45593999997E+02  0.45594000000E+02  0.51100000000E-03 0. -1.
    9900012    2    1    2    0    0 -0.39202646217E+01 -0.36533207556E+02 -0.17410387728E+02  0.50528864128E+02  0.30000013003E+02 0.  0.
         12    1    1    2    0    0  0.39202646217E+01  0.36533207556E+02  0.17410387728E+02  0.40659135872E+02  0.00000000000E+00 0. -1.
         11    1    3    3    0    0 -0.54641958595E+00 -0.15905329189E+02 -0.62423198791E+01  0.17095163898E+02  0.51100000000E-03 0. -1.
        -11    1    3    3    0    0  0.38894088944E+01 -0.22246231813E+02 -0.36883781110E+01  0.22882885849E+02  0.51100000000E-03 0.  1.
         12    1    3    3    0    0 -0.72632539302E+01  0.16183534457E+01 -0.74796897382E+01  0.10550814381E+02  0.00000000000E+00 0. -1.
</event>
<event>
 7    1  0.5290964E-013  0.5052886E+02  0.7816164E-02  0.1300439E+00
        -11   -1    0    0    0    0  0.00000000000E+00  0.00000000000E+00  0.45593999997E+02  0.45594000000E+02  0.51100000000E-03 0.  1.
         11   -1    0    0    0    0 -0.00000000000E+00 -0.00000000000E+00 -0.45593999997E+02  0.45594000000E+02  0.51100000000E-03 0. -1.
    9900012    2    1    2    0    0  0.41936330497E+00 -0.40235714389E+02  0.58375446994E+01  0.50528861960E+02  0.30000006415E+02 0.  0.
         12    1    1    2    0    0 -0.41936330497E+00  0.40235714389E+02 -0.58375446994E+01  0.40659138040E+02  0.00000000000E+00 0. -1.
         11    1    3    3    0    0  0.29424281818E+01 -0.23154397023E+02  0.10752691397E+02  0.25698333752E+02  0.51100000000E-03 0. -1.
        -11    1    3    3    0    0  0.43240618378E+01 -0.14015932164E+02  0.17800635921E+01  0.14775401580E+02  0.51100000000E-03 0.  1.
         12    1    3    3    0    0 -0.68471267146E+01 -0.30653852026E+01 -0.66952102897E+01  0.10055126628E+02  0.00000000000E+00 0. -1.
</event>
<event>
 7    1  0.5290964E-013  0.5052886E+02  0.7816164E-02  0.1300439E+00
        -11   -1    0    0    0    0  0.00000000000E+00  0.00000000000E+00  0.45593999997E+02  0.45594000000E+02  0.51100000000E-03 0.  1.
         11   -1    0    0    0    0 -0.00000000000E+00 -0.00000000000E+00 -0.45593999997E+02  0.45594000000E+02  0.51100000000E-03 0. -1.
    9900012    2    1    2    0    0 -0.10977362910E+02  0.27865301912E+02  0.27498879913E+02  0.50528856581E+02  0.29999990063E+02 0.  0.
         12    1    1    2    0    0  0.10977362910E+02 -0.27865301912E+02 -0.27498879913E+02  0.40659143419E+02  0.00000000000E+00 0. -1.
         11    1    3    3    0    0  0.35414435169E+01 -0.22591759325E+01  0.17647979712E+01  0.45563373687E+01  0.51100000000E-03 0. -1.
        -11    1    3    3    0    0  0.56600802809E+00  0.13994624034E+01  0.96357146231E+01  0.97532485186E+01  0.51100000000E-03 0.  1.
        -12    1    3    3    0    0 -0.15084814455E+02  0.28725015441E+02  0.16098367318E+02  0.36219270694E+02  0.00000000000E+00 0.  1.
</event>
<event>
 7    1  0.5290964E-013  0.5052888E+02  0.7816164E-02  0.1300439E+00
        -11   -1    0    0    0    0  0.00000000000E+00  0.00000000000E+00  0.45593999997E+02  0.45594000000E+02  0.51100000000E-03 0.  1.
         11   -1    0    0    0    0 -0.00000000000E+00 -0.00000000000E+00 -0.45593999997E+02  0.45594000000E+02  0.51100000000E-03 0. -1.
    9900012    2    1    2    0    0  0.10528950884E+02 -0.35167868989E+02  0.17479306092E+02  0.50528881005E+02  0.30000064304E+02 0.  0.
         12    1    1    2    0    0 -0.10528950884E+02  0.35167868989E+02 -0.17479306092E+02  0.40659118995E+02  0.00000000000E+00 0. -1.
         11    1    3    3    0    0 -0.50201815915E+01 -0.19875472125E+02  0.95815056707E+01  0.22628342109E+02  0.51100000000E-03 0. -1.
        -11    1    3    3    0    0  0.29921191522E+01 -0.13376934391E+02  0.63414457108E+01  0.15103280593E+02  0.51100000000E-03 0.  1.
         12    1    3    3    0    0  0.12557013324E+02 -0.19154624731E+01  0.15563547106E+01  0.12797258303E+02  0.00000000000E+00 0. -1.
</event>
<event>
 7    1  0.5290964E-013  0.5052888E+02  0.7816164E-02  0.1300439E+00
        -11   -1    0    0    0    0  0.00000000000E+00  0.00000000000E+00  0.45593999997E+02  0.45594000000E+02  0.51100000000E-03 0.  1.
         11   -1    0    0    0    0 -0.00000000000E+00 -0.00000000000E+00 -0.45593999997E+02  0.45594000000E+02  0.51100000000E-03 0. -1.
    9900012    2    1    2    0    0 -0.77038432376E+01  0.69125912966E+01  0.39319595316E+02  0.50528884234E+02  0.30000074119E+02 0.  0.
         12    1    1    2    0    0  0.77038432376E+01 -0.69125912966E+01 -0.39319595316E+02  0.40659115766E+02  0.00000000000E+00 0. -1.
         11    1    3    3    0    0 -0.53705064719E+01 -0.39479140665E+01  0.14140003260E+02  0.15632276152E+02  0.51100000000E-03 0. -1.
        -11    1    3    3    0    0  0.87449769765E+01  0.64417099945E+01  0.17857862750E+02  0.20901519376E+02  0.51100000000E-03 0.  1.
         12    1    3    3    0    0 -0.11078313742E+02  0.44187953686E+01  0.73217293065E+01  0.13995088707E+02  0.00000000000E+00 0. -1.
</event>
<event>
 7    1  0.5290964E-013  0.5052886E+02  0.7816164E-02  0.1300439E+00
        -11   -1    0    0    0    0  0.00000000000E+00  0.00000000000E+00  0.45593999997E+02  0.45594000000E+02  0.51100000000E-03 0.  1.
         11   -1    0    0    0    0 -0.00000000000E+00 -0.00000000000E+00 -0.45593999997E+02  0.45594000000E+02  0.51100000000E-03 0. -1.
    9900012    2    1    2    0    0  0.78556202008E+01  0.31791844539E+02  0.24098414660E+02  0.50528859121E+02  0.29999997783E+02 0.  0.
         12    1    1    2    0    0 -0.78556202008E+01 -0.31791844539E+02 -0.24098414660E+02  0.40659140879E+02  0.00000000000E+00 0. -1.
         11    1    3    3    0    0  0.14825672759E+02  0.17792748151E+02  0.10869922662E+02  0.25583933991E+02  0.51100000000E-03 0. -1.
        -11    1    3    3    0    0  0.37197805596E+01  0.79601669749E+01  0.44290994002E+01  0.98396111427E+01  0.51100000000E-03 0.  1.
        -12    1    3    3    0    0 -0.10689833118E+02  0.60389294134E+01  0.87993925976E+01  0.15105313987E+02  0.00000000000E+00 0.  1.
</event>
<event>
 7    1  0.5290964E-013  0.5052886E+02  0.7816164E-02  0.1300439E+00
        -11   -1    0    0    0    0  0.00000000000E+00  0.00000000000E+00  0.45593999997E+02  0.45594000000E+02  0.51100000000E-03 0.  1.
         11   -1    0    0    0    0 -0.00000000000E+00 -0.00000000000E+00 -0.45593999997E+02  0.45594000000E+02  0.51100000000E-03 0. -1.
    9900012    2    1    2    0    0 -0.96931411678E+01  0.34346352204E+02 -0.19481702208E+02  0.50528860605E+02  0.30000002296E+02 0.  0.
         12    1    1    2    0    0  0.96931411678E+01 -0.34346352204E+02  0.19481702208E+02  0.40659139395E+02  0.00000000000E+00 0. -1.
         11    1    3    3    0    0  0.14711700553E+01  0.22819116988E+00 -0.68193141066E+01  0.69799324988E+01  0.51100000000E-03 0. -1.
        -11    1    3    3    0    0 -0.18582974826E+01  0.31981752079E+02 -0.85804801333E+01  0.33164896730E+02  0.51100000000E-03 0.  1.
         12    1    3    3    0    0 -0.93060137405E+01  0.21364089554E+01 -0.40819079676E+01  0.10384031376E+02  0.00000000000E+00 0. -1.
</event>
<event>
 7    1  0.5290964E-013  0.5052886E+02  0.7816164E-02  0.1300439E+00
        -11   -1    0    0    0    0  0.00000000000E+00  0.00000000000E+00  0.45593999997E+02  0.45594000000E+02  0.51100000000E-03 0.  1.
         11   -1    0    0    0    0 -0.00000000000E+00 -0.00000000000E+00 -0.45593999997E+02  0.45594000000E+02  0.51100000000E-03 0. -1.
    9900012    2    1    2    0    0  0.45469778981E+01  0.14318919737E+02  0.37781729851E+02  0.50528861040E+02  0.30000003618E+02 0.  0.
         12    1    1    2    0    0 -0.45469778981E+01 -0.14318919737E+02 -0.37781729851E+02  0.40659138960E+02  0.00000000000E+00 0. -1.
         11    1    3    3    0    0 -0.66338537316E+01 -0.31334627331E+01  0.13954432330E+02  0.15765556950E+02  0.51100000000E-03 0. -1.
        -11    1    3    3    0    0 -0.25178443666E+01 -0.10995855426E+00  0.49989751794E+01  0.55983376321E+01  0.51100000000E-03 0.  1.
        -12    1    3    3    0    0  0.13698675996E+02  0.17562341024E+02  0.18828322341E+02  0.29164966458E+02  0.00000000000E+00 0.  1.
</event>
<event>
 7    1  0.5290964E-013  0.5052885E+02  0.7816164E-02  0.1300439E+00
        -11   -1    0    0    0    0  0.00000000000E+00  0.00000000000E+00  0.45593999997E+02  0.45594000000E+02  0.51100000000E-03 0. -1.
         11   -1    0    0    0    0 -0.00000000000E+00 -0.00000000000E+00 -0.45593999997E+02  0.45594000000E+02  0.51100000000E-03 0.  1.
    9900012    2    1    2    0    0 -0.35550522471E+01 -0.11003131405E+02 -0.38980236488E+02  0.50528854241E+02  0.29999982951E+02 0.  0.
         12    1    1    2    0    0  0.35550522471E+01  0.11003131405E+02  0.38980236488E+02  0.40659145759E+02  0.00000000000E+00 0. -1.
         11    1    3    3    0    0 -0.34763556611E+01 -0.88376393787E+00  0.80404038005E+00  0.36759445826E+01  0.51100000000E-03 0. -1.
        -11    1    3    3    0    0 -0.96605914070E+01 -0.93989603923E+01 -0.31124409434E+02  0.33917493210E+02  0.51100000000E-03 0.  1.
        -12    1    3    3    0    0  0.95818948209E+01 -0.72040707462E+00 -0.86598674345E+01  0.12935416448E+02  0.00000000000E+00 0.  1.
</event>
<event>
 7    1  0.5290964E-013  0.5052886E+02  0.7816164E-02  0.1300439E+00
        -11   -1    0    0    0    0  0.00000000000E+00  0.00000000000E+00  0.45593999997E+02  0.45594000000E+02  0.51100000000E-03 0. -1.
         11   -1    0    0    0    0 -0.00000000000E+00 -0.00000000000E+00 -0.45593999997E+02  0.45594000000E+02  0.51100000000E-03 0.  1.
    9900012    2    1    2    0    0 -0.21190418718E+02  0.27949249749E+02 -0.20566264545E+02  0.50528860261E+02  0.30000001250E+02 0.  0.
         12    1    1    2    0    0  0.21190418718E+02 -0.27949249749E+02  0.20566264545E+02  0.40659139739E+02  0.00000000000E+00 0. -1.
         11    1    3    3    0    0  0.21663452414E+01 -0.80045851554E+00 -0.58289469277E+01  0.62698012797E+01  0.51100000000E-03 0. -1.
        -11    1    3    3    0    0 -0.11253560391E+02  0.17099261376E+02 -0.17866662127E+02  0.27170663903E+02  0.51100000000E-03 0.  1.
        -12    1    3    3    0    0 -0.12103203568E+02  0.11650446889E+02  0.31293445103E+01  0.17088395079E+02  0.00000000000E+00 0.  1.
</event>
<event>
 7    1  0.5290964E-013  0.5052886E+02  0.7816164E-02  0.1300439E+00
        -11   -1    0    0    0    0  0.00000000000E+00  0.00000000000E+00  0.45593999997E+02  0.45594000000E+02  0.51100000000E-03 0.  1.
         11   -1    0    0    0    0 -0.00000000000E+00 -0.00000000000E+00 -0.45593999997E+02  0.45594000000E+02  0.51100000000E-03 0. -1.
    9900012    2    1    2    0    0 -0.38262889350E+02  0.12638621420E+02 -0.54205652416E+01  0.50528856129E+02  0.29999988690E+02 0.  0.
         12    1    1    2    0    0  0.38262889350E+02 -0.12638621420E+02  0.54205652416E+01  0.40659143871E+02  0.00000000000E+00 0. -1.
         11    1    3    3    0    0  0.31135037794E+01 -0.18009703282E+01 -0.27299777485E+01  0.45155485465E+01  0.51100000000E-03 0. -1.
        -11    1    3    3    0    0 -0.25137895616E+01 -0.24395566399E+01 -0.84408496723E+00  0.36032005568E+01  0.51100000000E-03 0.  1.
        -12    1    3    3    0    0 -0.38862603568E+02  0.16879148388E+02 -0.18465025259E+01  0.42410107026E+02  0.00000000000E+00 0.  1.
</event>
<event>
 7    1  0.5290964E-013  0.5052888E+02  0.7816164E-02  0.1300439E+00
        -11   -1    0    0    0    0  0.00000000000E+00  0.00000000000E+00  0.45593999997E+02  0.45594000000E+02  0.51100000000E-03 0. -1.
         11   -1    0    0    0    0 -0.00000000000E+00 -0.00000000000E+00 -0.45593999997E+02  0.45594000000E+02  0.51100000000E-03 0.  1.
    9900012    2    1    2    0    0 -0.36527981409E+02  0.15545278259E+02 -0.87872255308E+01  0.50528875138E+02  0.30000046471E+02 0.  0.
         12    1    1    2    0    0  0.36527981409E+02 -0.15545278259E+02  0.87872255308E+01  0.40659124862E+02  0.00000000000E+00 0. -1.
         11    1    3    3    0    0 -0.17807214121E+02  0.35982903679E+01  0.73917389350E+01  0.19613321317E+02  0.51100000000E-03 0. -1.
        -11    1    3    3    0    0 -0.20007618950E+02  0.96613233314E+01 -0.10323451385E+02  0.24499380264E+02  0.51100000000E-03 0.  1.
        -12    1    3    3    0    0  0.12868516621E+01  0.22856645596E+01 -0.58555130806E+01  0.64161735572E+01  0.00000000000E+00 0.  1.
</event>
<event>
 7    1  0.5290964E-013  0.5052886E+02  0.7816164E-02  0.1300439E+00
        -11   -1    0    0    0    0  0.00000000000E+00  0.00000000000E+00  0.45593999997E+02  0.45594000000E+02  0.51100000000E-03 0.  1.
         11   -1    0    0    0    0 -0.00000000000E+00 -0.00000000000E+00 -0.45593999997E+02  0.45594000000E+02  0.51100000000E-03 0. -1.
    9900012    2    1    2    0    0 -0.98827131229E+01 -0.25734186051E+02  0.29887278087E+02  0.50528859061E+02  0.29999997603E+02 0.  0.
         12    1    1    2    0    0  0.98827131229E+01  0.25734186051E+02 -0.29887278087E+02  0.40659140939E+02  0.00000000000E+00 0. -1.
         11    1    3    3    0    0 -0.12082447756E+02 -0.15589914286E+02  0.95305199448E+01  0.21905747691E+02  0.51100000000E-03 0. -1.
        -11    1    3    3    0    0 -0.45950795923E+01 -0.12052156328E+02  0.14862773242E+02  0.19679208757E+02  0.51100000000E-03 0.  1.
         12    1    3    3    0    0  0.67948142257E+01  0.19078845622E+01  0.54939849006E+01  0.89439026131E+01  0.00000000000E+00 0. -1.
</event>
<event>
 7    1  0.5290964E-013  0.5052886E+02  0.7816164E-02  0.1300439E+00
        -11   -1    0    0    0    0  0.00000000000E+00  0.00000000000E+00  0.45593999997E+02  0.45594000000E+02  0.51100000000E-03 0.  1.
         11   -1    0    0    0    0 -0.00000000000E+00 -0.00000000000E+00 -0.45593999997E+02  0.45594000000E+02  0.51100000000E-03 0. -1.
    9900012    2    1    2    0    0  0.76954190496E+01  0.12219567081E+02  0.38008263613E+02  0.50528863304E+02  0.30000010499E+02 0.  0.
         12    1    1    2    0    0 -0.76954190496E+01 -0.12219567081E+02 -0.38008263613E+02  0.40659136696E+02  0.00000000000E+00 0. -1.
         11    1    3    3    0    0  0.44464371197E+01  0.13909338466E+02  0.50577465715E+01  0.15453844190E+02  0.51100000000E-03 0. -1.
        -11    1    3    3    0    0 -0.26693049691E+01  0.29191787664E+01  0.16920538583E+02  0.17376749405E+02  0.51100000000E-03 0.  1.
        -12    1    3    3    0    0  0.59182868990E+01 -0.46089501509E+01  0.16029978458E+02  0.17698269708E+02  0.00000000000E+00 0.  1.
</event>
<event>
 7    1  0.5290964E-013  0.5052887E+02  0.7816164E-02  0.1300439E+00
        -11   -1    0    0    0    0  0.00000000000E+00  0.00000000000E+00  0.45593999997E+02  0.45594000000E+02  0.51100000000E-03 0.  1.
         11   -1    0    0    0    0 -0.00000000000E+00 -0.00000000000E+00 -0.45593999997E+02  0.45594000000E+02  0.51100000000E-03 0. -1.
    9900012    2    1    2    0    0 -0.29646808701E+02 -0.23778351488E+02  0.14450659976E+02  0.50528870159E+02  0.30000031336E+02 0.  0.
         12    1    1    2    0    0  0.29646808701E+02  0.23778351488E+02 -0.14450659976E+02  0.40659129841E+02  0.00000000000E+00 0. -1.
         11    1    3    3    0    0 -0.32075596070E+02 -0.16517861211E+02  0.62884591890E+01  0.36622784185E+02  0.51100000000E-03 0.  1.
        -11    1    3    3    0    0 -0.12419827431E+01 -0.24033338183E+01  0.72647033261E+01  0.77520609682E+01  0.51100000000E-03 0. -1.
        -12    1    3    3    0    0  0.36707701121E+01 -0.48571564588E+01  0.89749746115E+00  0.61540250059E+01  0.00000000000E+00 0.  1.
</event>
<event>
 7    1  0.5290964E-013  0.5052886E+02  0.7816164E-02  0.1300439E+00
        -11   -1    0    0    0    0  0.00000000000E+00  0.00000000000E+00  0.45593999997E+02  0.45594000000E+02  0.51100000000E-03 0. -1.
         11   -1    0    0    0    0 -0.00000000000E+00 -0.00000000000E+00 -0.45593999997E+02  0.45594000000E+02  0.51100000000E-03 0.  1.
    9900012    2    1    2    0    0  0.18424830699E+01 -0.15339267331E+02 -0.37609544665E+02  0.50528859379E+02  0.29999998570E+02 0.  0.
         12    1    1    2    0    0 -0.18424830699E+01  0.15339267331E+02  0.37609544665E+02  0.40659140621E+02  0.00000000000E+00 0. -1.
         11    1    3    3    0    0  0.13194297892E+01 -0.24579628111E+01 -0.27615647510E+02  0.27756196854E+02  0.51100000000E-03 0. -1.
        -11    1    3    3    0    0 -0.51664742802E+00 -0.75961946908E+01 -0.14083397213E+02  0.16009721287E+02  0.51100000000E-03 0.  1.
         12    1    3    3    0    0  0.10397007087E+01 -0.52851098296E+01  0.40895000584E+01  0.67629412390E+01  0.00000000000E+00 0. -1.
</event>
<event>
 7    1  0.5290964E-013  0.5052886E+02  0.7816164E-02  0.1300439E+00
        -11   -1    0    0    0    0  0.00000000000E+00  0.00000000000E+00  0.45593999997E+02  0.45594000000E+02  0.51100000000E-03 0.  1.
         11   -1    0    0    0    0 -0.00000000000E+00 -0.00000000000E+00 -0.45593999997E+02  0.45594000000E+02  0.51100000000E-03 0. -1.
    9900012    2    1    2    0    0 -0.93707742023E+01 -0.30993784205E+02 -0.24591445716E+02  0.50528864853E+02  0.30000015208E+02 0.  0.
         12    1    1    2    0    0  0.93707742023E+01  0.30993784205E+02  0.24591445716E+02  0.40659135147E+02  0.00000000000E+00 0. -1.
         11    1    3    3    0    0  0.39746001446E+01 -0.21250375389E+02 -0.12789447179E+02  0.25118635710E+02  0.51100000000E-03 0. -1.
        -11    1    3    3    0    0 -0.90349387715E+00 -0.93928764618E+01 -0.80687441608E+01  0.12415597529E+02  0.51100000000E-03 0.  1.
         12    1    3    3    0    0 -0.12441880470E+02 -0.35053235347E+00 -0.37332543762E+01  0.12994631614E+02  0.00000000000E+00 0. -1.
</event>
<event>
 7    1  0.5290964E-013  0.5052886E+02  0.7816164E-02  0.1300439E+00
        -11   -1    0    0    0    0  0.00000000000E+00  0.00000000000E+00  0.45593999997E+02  0.45594000000E+02  0.51100000000E-03 0.  1.
         11   -1    0    0    0    0 -0.00000000000E+00 -0.00000000000E+00 -0.45593999997E+02  0.45594000000E+02  0.51100000000E-03 0. -1.
    9900012    2    1    2    0    0  0.28538364874E+01 -0.20280359994E+02  0.35124468835E+02  0.50528859636E+02  0.29999999350E+02 0.  0.
         12    1    1    2    0    0 -0.28538364874E+01  0.20280359994E+02 -0.35124468835E+02  0.40659140364E+02  0.00000000000E+00 0. -1.
         11    1    3    3    0    0 -0.21424890999E+01 -0.22878996751E+01  0.43759947613E+01  0.53827571818E+01  0.51100000000E-03 0. -1.
        -11    1    3    3    0    0 -0.76252859108E+01  0.22429665134E+01  0.28514879146E+01  0.84443393815E+01  0.51100000000E-03 0.  1.
        -12    1    3    3    0    0  0.12621611498E+02 -0.20235426832E+02  0.27896986159E+02  0.36701763073E+02  0.00000000000E+00 0.  1.
</event>
<event>
 7    1  0.5290964E-013  0.5052886E+02  0.7816164E-02  0.1300439E+00
        -11   -1    0    0    0    0  0.00000000000E+00  0.00000000000E+00  0.45593999997E+02  0.45594000000E+02  0.51100000000E-03 0.  1.
         11   -1    0    0    0    0 -0.00000000000E+00 -0.00000000000E+00 -0.45593999997E+02  0.45594000000E+02  0.51100000000E-03 0. -1.
    9900012    2    1    2    0    0  0.11326480760E+02  0.25972254561E+02  0.29160217659E+02  0.50528862438E+02  0.30000007866E+02 0.  0.
         12    1    1    2    0    0 -0.11326480760E+02 -0.25972254561E+02 -0.29160217659E+02  0.40659137562E+02  0.00000000000E+00 0. -1.
         11    1    3    3    0    0  0.61078170322E+01  0.63195868857E+01  0.16796335081E+02  0.18956779255E+02  0.51100000000E-03 0.  1.
        -11    1    3    3    0    0  0.12278504845E+02  0.77376746931E+01  0.29060313822E+01  0.14801294185E+02  0.51100000000E-03 0. -1.
        -12    1    3    3    0    0 -0.70598411177E+01  0.11914992982E+02  0.94578511958E+01  0.16770788998E+02  0.00000000000E+00 0.  1.
</event>
<event>
 7    1  0.5290964E-013  0.5052885E+02  0.7816164E-02  0.1300439E+00
        -11   -1    0    0    0    0  0.00000000000E+00  0.00000000000E+00  0.45593999997E+02  0.45594000000E+02  0.51100000000E-03 0. -1.
         11   -1    0    0    0    0 -0.00000000000E+00 -0.00000000000E+00 -0.45593999997E+02  0.45594000000E+02  0.51100000000E-03 0.  1.
    9900012    2    1    2    0    0 -0.31861518330E+02 -0.25205020953E+02  0.16482749926E+01  0.50528852911E+02  0.29999978908E+02 0.  0.
         12    1    1    2    0    0  0.31861518330E+02  0.25205020953E+02 -0.16482749926E+01  0.40659147089E+02  0.00000000000E+00 0. -1.
         11    1    3    3    0    0 -0.61763805556E+01 -0.41000907959E+01  0.10885189862E+02  0.13169881544E+02  0.51100000000E-03 0. -1.
        -11    1    3    3    0    0 -0.55422642741E+01 -0.17604370910E+01  0.33664622823E+01  0.67192931619E+01  0.51100000000E-03 0.  1.
        -12    1    3    3    0    0 -0.20142873501E+02 -0.19344493066E+02 -0.12603377152E+02  0.30639678205E+02  0.00000000000E+00 0.  1.
</event>
<event>
 7    1  0.5290964E-013  0.5052886E+02  0.7816164E-02  0.1300439E+00
        -11   -1    0    0    0    0  0.00000000000E+00  0.00000000000E+00  0.45593999997E+02  0.45594000000E+02  0.51100000000E-03 0.  1.
         11   -1    0    0    0    0 -0.00000000000E+00 -0.00000000000E+00 -0.45593999997E+02  0.45594000000E+02  0.51100000000E-03 0. -1.
    9900012    2    1    2    0    0  0.19403508051E+02 -0.16129698067E+02  0.31882633176E+02  0.50528861020E+02  0.30000003556E+02 0.  0.
         12    1    1    2    0    0 -0.19403508051E+02  0.16129698067E+02 -0.31882633176E+02  0.40659138980E+02  0.00000000000E+00 0. -1.
         11    1    3    3    0    0  0.61924770772E+00 -0.48150765951E+01 -0.22669448571E+01  0.53579351980E+01  0.51100000000E-03 0. -1.
        -11    1    3    3    0    0  0.95980826590E+01  0.48490300637E+01  0.15246586694E+02  0.18657295875E+02  0.51100000000E-03 0.  1.
         12    1    3    3    0    0  0.91861776844E+01 -0.16163651535E+02  0.18902991339E+02  0.26513629947E+02  0.00000000000E+00 0. -1.
</event>
<event>
 7    1  0.5290964E-013  0.5052886E+02  0.7816164E-02  0.1300439E+00
        -11   -1    0    0    0    0  0.00000000000E+00  0.00000000000E+00  0.45593999997E+02  0.45594000000E+02  0.51100000000E-03 0.  1.
         11   -1    0    0    0    0 -0.00000000000E+00 -0.00000000000E+00 -0.45593999997E+02  0.45594000000E+02  0.51100000000E-03 0. -1.
    9900012    2    1    2    0    0 -0.22583747337E+02 -0.74588807680E+01  0.32977341666E+02  0.50528860690E+02  0.30000002553E+02 0.  0.
         12    1    1    2    0    0  0.22583747337E+02  0.74588807680E+01 -0.32977341666E+02  0.40659139310E+02  0.00000000000E+00 0. -1.
         11    1    3    3    0    0  0.24862573937E+01  0.95496923655E+00 -0.31500177118E+01  0.41250519895E+01  0.51100000000E-03 0. -1.
        -11    1    3    3    0    0 -0.27445635109E+01 -0.10564685435E+01 -0.39845460445E+00  0.29677467853E+01  0.51100000000E-03 0.  1.
        -12    1    3    3    0    0 -0.22325441220E+02 -0.73573814611E+01  0.36525813982E+02  0.43436061915E+02  0.00000000000E+00 0.  1.
</event>
<event>
 7    1  0.5290964E-013  0.5052886E+02  0.7816164E-02  0.1300439E+00
        -11   -1    0    0    0    0  0.00000000000E+00  0.00000000000E+00  0.45593999997E+02  0.45594000000E+02  0.51100000000E-03 0. -1.
         11   -1    0    0    0    0 -0.00000000000E+00 -0.00000000000E+00 -0.45593999997E+02  0.45594000000E+02  0.51100000000E-03 0.  1.
    9900012    2    1    2    0    0  0.23647350568E+02 -0.30599820442E+02  0.12554655749E+02  0.50528861040E+02  0.30000003616E+02 0.  0.
         12    1    1    2    0    0 -0.23647350568E+02  0.30599820442E+02 -0.12554655749E+02  0.40659138960E+02  0.00000000000E+00 0. -1.
         11    1    3    3    0    0 -0.19490300977E+01  0.22706621080E+01  0.29627572043E+01  0.42110040659E+01  0.51100000000E-03 0. -1.
        -11    1    3    3    0    0  0.39483597020E+01  0.18540195212E+01  0.41507211493E+00  0.43816912081E+01  0.51100000000E-03 0.  1.
        -12    1    3    3    0    0  0.21648020964E+02 -0.34724502072E+02  0.91768264302E+01  0.41936165766E+02  0.00000000000E+00 0.  1.
</event>
<event>
 7    1  0.5290964E-013  0.5052889E+02  0.7816164E-02  0.1300439E+00
        -11   -1    0    0    0    0  0.00000000000E+00  0.00000000000E+00  0.45593999997E+02  0.45594000000E+02  0.51100000000E-03 0.  1.
         11   -1    0    0    0    0 -0.00000000000E+00 -0.00000000000E+00 -0.45593999997E+02  0.45594000000E+02  0.51100000000E-03 0. -1.
    9900012    2    1    2    0    0 -0.24313150877E+02 -0.23953283454E+02  0.22096928073E+02  0.50528888794E+02  0.30000087978E+02 0.  0.
         12    1    1    2    0    0  0.24313150877E+02  0.23953283454E+02 -0.22096928073E+02  0.40659111206E+02  0.00000000000E+00 0. -1.
         11    1    3    3    0    0 -0.21966865305E+01 -0.33691438670E+01  0.93982890725E+01  0.10222739352E+02  0.51100000000E-03 0. -1.
        -11    1    3    3    0    0 -0.19312956648E+02 -0.16976588306E+02  0.19389091969E+02  0.32204529691E+02  0.51100000000E-03 0.  1.
         12    1    3    3    0    0 -0.28035076983E+01 -0.36075512814E+01 -0.66904529683E+01  0.81016197507E+01  0.00000000000E+00 0. -1.
</event>
<event>
 7    1  0.5290964E-013  0.5052887E+02  0.7816164E-02  0.1300439E+00
        -11   -1    0    0    0    0  0.00000000000E+00  0.00000000000E+00  0.45593999997E+02  0.45594000000E+02  0.51100000000E-03 0.  1.
         11   -1    0    0    0    0 -0.00000000000E+00 -0.00000000000E+00 -0.45593999997E+02  0.45594000000E+02  0.51100000000E-03 0. -1.
    9900012    2    1    2    0    0 -0.60484887291E+01  0.44547353117E+01  0.39959181544E+02  0.50528867295E+02  0.30000022631E+02 0.  0.
         12    1    1    2    0    0  0.60484887291E+01 -0.44547353117E+01 -0.39959181544E+02  0.40659132705E+02  0.00000000000E+00 0. -1.
         11    1    3    3    0    0 -0.10059180150E+02  0.78336033194E+01  0.22254397433E+02  0.25647819627E+02  0.51100000000E-03 0. -1.
        -11    1    3    3    0    0 -0.63111045891E+01  0.74247469775E+00  0.59857053275E+01  0.87298326639E+01  0.51100000000E-03 0.  1.
        -12    1    3    3    0    0  0.10321796010E+02 -0.41213427054E+01  0.11719078784E+02  0.16151215004E+02  0.00000000000E+00 0.  1.
</event>
<event>
 7    1  0.5290964E-013  0.5052886E+02  0.7816164E-02  0.1300439E+00
        -11   -1    0    0    0    0  0.00000000000E+00  0.00000000000E+00  0.45593999997E+02  0.45594000000E+02  0.51100000000E-03 0.  1.
         11   -1    0    0    0    0 -0.00000000000E+00 -0.00000000000E+00 -0.45593999997E+02  0.45594000000E+02  0.51100000000E-03 0. -1.
    9900012    2    1    2    0    0 -0.22209584431E+02  0.89001448362E+01  0.32873815289E+02  0.50528856498E+02  0.29999989810E+02 0.  0.
         12    1    1    2    0    0  0.22209584431E+02 -0.89001448362E+01 -0.32873815289E+02  0.40659143502E+02  0.00000000000E+00 0. -1.
         11    1    3    3    0    0  0.13377842107E+01 -0.11469331066E+01 -0.19788447561E+01  0.26497073376E+01  0.51100000000E-03 0. -1.
        -11    1    3    3    0    0 -0.74083101901E+01  0.11972267045E+02  0.72238786275E+01  0.15824116429E+02  0.51100000000E-03 0.  1.
        -12    1    3    3    0    0 -0.16139058451E+02 -0.19251891021E+01  0.27628781418E+02  0.32055032731E+02  0.00000000000E+00 0.  1.
</event>
<event>
 7    1  0.5290964E-013  0.5052886E+02  0.7816164E-02  0.1300439E+00
        -11   -1    0    0    0    0  0.00000000000E+00  0.00000000000E+00  0.45593999997E+02  0.45594000000E+02  0.51100000000E-03 0.  1.
         11   -1    0    0    0    0 -0.00000000000E+00 -0.00000000000E+00 -0.45593999997E+02  0.45594000000E+02  0.51100000000E-03 0. -1.
    9900012    2    1    2    0    0 -0.10156927079E+02 -0.28805664848E+01  0.39264547396E+02  0.50528861873E+02  0.30000006150E+02 0.  0.
         12    1    1    2    0    0  0.10156927079E+02  0.28805664848E+01 -0.39264547396E+02  0.40659138127E+02  0.00000000000E+00 0. -1.
         11    1    3    3    0    0  0.12383943532E+01  0.38830935722E+01  0.51988222678E+01  0.66060418934E+01  0.51100000000E-03 0. -1.
        -11    1    3    3    0    0  0.58294699655E+01  0.39781050149E+01  0.12143327681E+02  0.14045228621E+02  0.51100000000E-03 0.  1.
         12    1    3    3    0    0 -0.17224791398E+02 -0.10741765072E+02  0.21922397447E+02  0.29877591359E+02  0.00000000000E+00 0. -1.
</event>
<event>
 7    1  0.5290964E-013  0.5052886E+02  0.7816164E-02  0.1300439E+00
        -11   -1    0    0    0    0  0.00000000000E+00  0.00000000000E+00  0.45593999997E+02  0.45594000000E+02  0.51100000000E-03 0. -1.
         11   -1    0    0    0    0 -0.00000000000E+00 -0.00000000000E+00 -0.45593999997E+02  0.45594000000E+02  0.51100000000E-03 0.  1.
    9900012    2    1    2    0    0 -0.36359666113E+02 -0.15786258758E+02  0.90517615692E+01  0.50528859909E+02  0.30000000180E+02 0.  0.
         12    1    1    2    0    0  0.36359666113E+02  0.15786258758E+02 -0.90517615692E+01  0.40659140091E+02  0.00000000000E+00 0. -1.
         11    1    3    3    0    0 -0.89340748648E+01  0.59123006979E+01  0.39797322646E+01  0.11428528444E+02  0.51100000000E-03 0. -1.
        -11    1    3    3    0    0 -0.30222902075E+01 -0.98105553438E+00  0.63100040874E+01  0.70649033896E+01  0.51100000000E-03 0.  1.
        -12    1    3    3    0    0 -0.24403301041E+02 -0.20717503922E+02 -0.12379747828E+01  0.32035428076E+02  0.00000000000E+00 0.  1.
</event>
<event>
 7    1  0.5290964E-013  0.5052886E+02  0.7816164E-02  0.1300439E+00
        -11   -1    0    0    0    0  0.00000000000E+00  0.00000000000E+00  0.45593999997E+02  0.45594000000E+02  0.51100000000E-03 0.  1.
         11   -1    0    0    0    0 -0.00000000000E+00 -0.00000000000E+00 -0.45593999997E+02  0.45594000000E+02  0.51100000000E-03 0. -1.
    9900012    2    1    2    0    0  0.13603414584E+02  0.46669714179E+01  0.38030672990E+02  0.50528860823E+02  0.30000002958E+02 0.  0.
         12    1    1    2    0    0 -0.13603414584E+02 -0.46669714179E+01 -0.38030672990E+02  0.40659139177E+02  0.00000000000E+00 0. -1.
         11    1    3    3    0    0 -0.16159421083E+01  0.36706394542E+01 -0.95857805695E+00  0.41235585424E+01  0.51100000000E-03 0. -1.
        -11    1    3    3    0    0  0.72382526156E+00  0.69614243093E+00 -0.23723587949E+01  0.25761645534E+01  0.51100000000E-03 0.  1.
        -12    1    3    3    0    0  0.14495531431E+02  0.30018953274E+00  0.41361609842E+02  0.43829137727E+02  0.00000000000E+00 0.  1.
</event>
<event>
 7    1  0.5290964E-013  0.5052886E+02  0.7816164E-02  0.1300439E+00
        -11   -1    0    0    0    0  0.00000000000E+00  0.00000000000E+00  0.45593999997E+02  0.45594000000E+02  0.51100000000E-03 0.  1.
         11   -1    0    0    0    0 -0.00000000000E+00 -0.00000000000E+00 -0.45593999997E+02  0.45594000000E+02  0.51100000000E-03 0. -1.
    9900012    2    1    2    0    0  0.60896393171E+01  0.29042409151E+02  0.27796054046E+02  0.50528857647E+02  0.29999993305E+02 0.  0.
         12    1    1    2    0    0 -0.60896393171E+01 -0.29042409151E+02 -0.27796054046E+02  0.40659142353E+02  0.00000000000E+00 0. -1.
         11    1    3    3    0    0  0.76091965990E-02  0.35019605577E+01  0.30813290528E+01  0.46645872958E+01  0.51100000000E-03 0.  1.
        -11    1    3    3    0    0 -0.31035814445E+01  0.19537358179E+02  0.10863266416E+01  0.19812134873E+02  0.51100000000E-03 0. -1.
         12    1    3    3    0    0  0.91856115651E+01  0.60030904151E+01  0.23628398351E+02  0.26052135479E+02  0.00000000000E+00 0. -1.
</event>
<event>
 7    1  0.5290964E-013  0.5052886E+02  0.7816164E-02  0.1300439E+00
        -11   -1    0    0    0    0  0.00000000000E+00  0.00000000000E+00  0.45593999997E+02  0.45594000000E+02  0.51100000000E-03 0. -1.
         11   -1    0    0    0    0 -0.00000000000E+00 -0.00000000000E+00 -0.45593999997E+02  0.45594000000E+02  0.51100000000E-03 0.  1.
    9900012    2    1    2    0    0 -0.23135767108E+02  0.13610117165E+02 -0.30539586996E+02  0.50528863476E+02  0.30000011023E+02 0.  0.
         12    1    1    2    0    0  0.23135767108E+02 -0.13610117165E+02  0.30539586996E+02  0.40659136524E+02  0.00000000000E+00 0. -1.
         11    1    3    3    0    0 -0.14176506256E+02 -0.61172938764E+00 -0.13991783743E+02  0.19927808586E+02  0.51100000000E-03 0. -1.
        -11    1    3    3    0    0 -0.61748102853E+01  0.60064312401E+00 -0.15456849810E+02  0.16655427360E+02  0.51100000000E-03 0.  1.
        -12    1    3    3    0    0 -0.27844505667E+01  0.13621203429E+02 -0.10909534432E+01  0.13945627530E+02  0.00000000000E+00 0.  1.
</event>
<event>
 7    1  0.5290964E-013  0.5052886E+02  0.7816164E-02  0.1300439E+00
        -11   -1    0    0    0    0  0.00000000000E+00  0.00000000000E+00  0.45593999997E+02  0.45594000000E+02  0.51100000000E-03 0. -1.
         11   -1    0    0    0    0 -0.00000000000E+00 -0.00000000000E+00 -0.45593999997E+02  0.45594000000E+02  0.51100000000E-03 0.  1.
    9900012    2    1    2    0    0 -0.21368167456E+02 -0.28590939679E+02 -0.19471129453E+02  0.50528864565E+02  0.30000014331E+02 0.  0.
         12    1    1    2    0    0  0.21368167456E+02  0.28590939679E+02  0.19471129453E+02  0.40659135435E+02  0.00000000000E+00 0. -1.
         11    1    3    3    0    0 -0.54497132681E+01 -0.64635299642E+01 -0.17412369165E+02  0.19356321823E+02  0.51100000000E-03 0. -1.
        -11    1    3    3    0    0 -0.77205463861E+01 -0.86337524782E+01 -0.82428113041E+01  0.14215922651E+02  0.51100000000E-03 0.  1.
        -12    1    3    3    0    0 -0.81979078021E+01 -0.13493657236E+02  0.61840510164E+01  0.16956620091E+02  0.00000000000E+00 0.  1.
</event>
<event>
 7    1  0.5290964E-013  0.5052881E+02  0.7816164E-02  0.1300439E+00
        -11   -1    0    0    0    0  0.00000000000E+00  0.00000000000E+00  0.45593999997E+02  0.45594000000E+02  0.51100000000E-03 0.  1.
         11   -1    0    0    0    0 -0.00000000000E+00 -0.00000000000E+00 -0.45593999997E+02  0.45594000000E+02  0.51100000000E-03 0. -1.
    9900012    2    1    2    0    0  0.37243337526E+02 -0.38734825902E+01 -0.15846134247E+02  0.50528806353E+02  0.29999837389E+02 0.  0.
         12    1    1    2    0    0 -0.37243337526E+02  0.38734825902E+01  0.15846134247E+02  0.40659193647E+02  0.00000000000E+00 0. -1.
         11    1    3    3    0    0  0.25743895066E+01  0.34208052479E+01 -0.83773531351E-01  0.42821032380E+01  0.51100000000E-03 0.  1.
        -11    1    3    3    0    0  0.63355076329E+01  0.76080607173E+01  0.12742941927E+01  0.99822377649E+01  0.51100000000E-03 0. -1.
        -12    1    3    3    0    0  0.28333440387E+02 -0.14902348555E+02 -0.17036654908E+02  0.36264465350E+02  0.00000000000E+00 0.  1.
</event>
<event>
 7    1  0.5290964E-013  0.5052884E+02  0.7816164E-02  0.1300439E+00
        -11   -1    0    0    0    0  0.00000000000E+00  0.00000000000E+00  0.45593999997E+02  0.45594000000E+02  0.51100000000E-03 0.  1.
         11   -1    0    0    0    0 -0.00000000000E+00 -0.00000000000E+00 -0.45593999997E+02  0.45594000000E+02  0.51100000000E-03 0. -1.
    9900012    2    1    2    0    0 -0.10783832393E+02  0.10314994401E+00  0.39202874227E+02  0.50528843237E+02  0.29999949504E+02 0.  0.
         12    1    1    2    0    0  0.10783832393E+02 -0.10314994401E+00 -0.39202874227E+02  0.40659156763E+02  0.00000000000E+00 0. -1.
         11    1    3    3    0    0 -0.22106470846E+01 -0.15773005982E+01  0.84421928371E+00  0.28438607860E+01  0.51100000000E-03 0. -1.
        -11    1    3    3    0    0 -0.17480022773E+02 -0.21889490184E+01  0.18312123949E+02  0.25410166819E+02  0.51100000000E-03 0.  1.
         12    1    3    3    0    0  0.89068374644E+01  0.38693995606E+01  0.20046530994E+02  0.22274815633E+02  0.00000000000E+00 0. -1.
</event>
<event>
 7    1  0.5290964E-013  0.5052887E+02  0.7816164E-02  0.1300439E+00
        -11   -1    0    0    0    0  0.00000000000E+00  0.00000000000E+00  0.45593999997E+02  0.45594000000E+02  0.51100000000E-03 0.  1.
         11   -1    0    0    0    0 -0.00000000000E+00 -0.00000000000E+00 -0.45593999997E+02  0.45594000000E+02  0.51100000000E-03 0. -1.
    9900012    2    1    2    0    0  0.25827181016E+02  0.26726743581E+02  0.16486433954E+02  0.50528873028E+02  0.30000040055E+02 0.  0.
         12    1    1    2    0    0 -0.25827181016E+02 -0.26726743581E+02 -0.16486433954E+02  0.40659126972E+02  0.00000000000E+00 0. -1.
         11    1    3    3    0    0  0.40584298984E+01  0.14386366647E+02  0.13710673591E+02  0.20283514714E+02  0.51100000000E-03 0. -1.
        -11    1    3    3    0    0  0.57604882950E+01  0.59769651870E+01  0.87034626328E+01  0.12027368802E+02  0.51100000000E-03 0.  1.
         12    1    3    3    0    0  0.16008262822E+02  0.63634117463E+01 -0.59277022704E+01  0.18217989512E+02  0.00000000000E+00 0. -1.
</event>
<event>
 7    1  0.5290964E-013  0.5052888E+02  0.7816164E-02  0.1300439E+00
        -11   -1    0    0    0    0  0.00000000000E+00  0.00000000000E+00  0.45593999997E+02  0.45594000000E+02  0.51100000000E-03 0.  1.
         11   -1    0    0    0    0 -0.00000000000E+00 -0.00000000000E+00 -0.45593999997E+02  0.45594000000E+02  0.51100000000E-03 0. -1.
    9900012    2    1    2    0    0  0.32587233855E+02 -0.23852206918E+02  0.47232218564E+01  0.50528875441E+02  0.30000047390E+02 0.  0.
         12    1    1    2    0    0 -0.32587233855E+02  0.23852206918E+02 -0.47232218564E+01  0.40659124559E+02  0.00000000000E+00 0. -1.
         11    1    3    3    0    0  0.16717575713E+02 -0.46169801728E+01  0.29363476295E+01  0.17590224026E+02  0.51100000000E-03 0. -1.
        -11    1    3    3    0    0  0.12153316839E+02  0.97875259560E+00 -0.82524189680E+00  0.12220560187E+02  0.51100000000E-03 0.  1.
         12    1    3    3    0    0  0.37163413035E+01 -0.20213979341E+02  0.26121161237E+01  0.20718091228E+02  0.00000000000E+00 0. -1.
</event>
<event>
 7    1  0.5290964E-013  0.5052886E+02  0.7816164E-02  0.1300439E+00
        -11   -1    0    0    0    0  0.00000000000E+00  0.00000000000E+00  0.45593999997E+02  0.45594000000E+02  0.51100000000E-03 0. -1.
         11   -1    0    0    0    0 -0.00000000000E+00 -0.00000000000E+00 -0.45593999997E+02  0.45594000000E+02  0.51100000000E-03 0.  1.
    9900012    2    1    2    0    0  0.12937392738E+02  0.37238897974E+02 -0.99525915663E+01  0.50528859182E+02  0.29999997969E+02 0.  0.
         12    1    1    2    0    0 -0.12937392738E+02 -0.37238897974E+02  0.99525915663E+01  0.40659140818E+02  0.00000000000E+00 0. -1.
         11    1    3    3    0    0  0.32308029041E+01 -0.18388714018E+01  0.11948833946E+01  0.39047768214E+01  0.51100000000E-03 0. -1.
        -11    1    3    3    0    0  0.25177068729E+01  0.10934682140E+02  0.61715397577E+01  0.12806015174E+02  0.51100000000E-03 0.  1.
        -12    1    3    3    0    0  0.71888829614E+01  0.28143087236E+02 -0.17319014719E+02  0.33818067186E+02  0.00000000000E+00 0.  1.
</event>
<event>
 7    1  0.5290964E-013  0.5052886E+02  0.7816164E-02  0.1300439E+00
        -11   -1    0    0    0    0  0.00000000000E+00  0.00000000000E+00  0.45593999997E+02  0.45594000000E+02  0.51100000000E-03 0.  1.
         11   -1    0    0    0    0 -0.00000000000E+00 -0.00000000000E+00 -0.45593999997E+02  0.45594000000E+02  0.51100000000E-03 0. -1.
    9900012    2    1    2    0    0 -0.30628071790E+01 -0.38498357493E+02 -0.12714598698E+02  0.50528864033E+02  0.30000012716E+02 0.  0.
         12    1    1    2    0    0  0.30628071790E+01  0.38498357493E+02  0.12714598698E+02  0.40659135967E+02  0.00000000000E+00 0. -1.
         11    1    3    3    0    0 -0.26672772996E+01 -0.18073214112E+02 -0.11642512558E+02  0.21663414677E+02  0.51100000000E-03 0. -1.
        -11    1    3    3    0    0  0.78595503608E+01 -0.10186142279E+02  0.57001064093E+01  0.14072001980E+02  0.51100000000E-03 0.  1.
         12    1    3    3    0    0 -0.82550802402E+01 -0.10239001103E+02 -0.67721925489E+01  0.14793447376E+02  0.00000000000E+00 0. -1.
</event>
<event>
 7    1  0.5290964E-013  0.5052886E+02  0.7816164E-02  0.1300439E+00
        -11   -1    0    0    0    0  0.00000000000E+00  0.00000000000E+00  0.45593999997E+02  0.45594000000E+02  0.51100000000E-03 0. -1.
         11   -1    0    0    0    0 -0.00000000000E+00 -0.00000000000E+00 -0.45593999997E+02  0.45594000000E+02  0.51100000000E-03 0.  1.
    9900012    2    1    2    0    0  0.27043012177E+02  0.13070559751E+02 -0.27404402198E+02  0.50528864500E+02  0.30000014134E+02 0.  0.
         12    1    1    2    0    0 -0.27043012177E+02 -0.13070559751E+02  0.27404402198E+02  0.40659135500E+02  0.00000000000E+00 0. -1.
         11    1    3    3    0    0  0.37634654006E+01 -0.40575523665E+01 -0.18642462739E+01  0.58397617639E+01  0.51100000000E-03 0. -1.
        -11    1    3    3    0    0 -0.13894052413E+01 -0.34942538954E+01 -0.59476433249E+01  0.70366695668E+01  0.51100000000E-03 0.  1.
         12    1    3    3    0    0  0.24668952017E+02  0.20622366013E+02 -0.19592512599E+02  0.37652433169E+02  0.00000000000E+00 0. -1.
</event>
<event>
 7    1  0.5290964E-013  0.5052882E+02  0.7816164E-02  0.1300439E+00
        -11   -1    0    0    0    0  0.00000000000E+00  0.00000000000E+00  0.45593999997E+02  0.45594000000E+02  0.51100000000E-03 0. -1.
         11   -1    0    0    0    0 -0.00000000000E+00 -0.00000000000E+00 -0.45593999997E+02  0.45594000000E+02  0.51100000000E-03 0.  1.
    9900012    2    1    2    0    0 -0.22774668489E+02  0.32669066749E+02  0.81985140578E+01  0.50528818014E+02  0.29999872834E+02 0.  0.
         12    1    1    2    0    0  0.22774668489E+02 -0.32669066749E+02 -0.81985140578E+01  0.40659181986E+02  0.00000000000E+00 0. -1.
         11    1    3    3    0    0 -0.19927746820E+02  0.17986320492E+02  0.58597857145E+01  0.27476533752E+02  0.51100000000E-03 0. -1.
        -11    1    3    3    0    0 -0.95946070428E+01  0.12455101893E+02  0.58424297257E+00  0.15733003133E+02  0.51100000000E-03 0.  1.
         12    1    3    3    0    0  0.67476853738E+01  0.22276443641E+01  0.17544853707E+01  0.73192811281E+01  0.00000000000E+00 0. -1.
</event>
<event>
 7    1  0.5290964E-013  0.5052887E+02  0.7816164E-02  0.1300439E+00
        -11   -1    0    0    0    0  0.00000000000E+00  0.00000000000E+00  0.45593999997E+02  0.45594000000E+02  0.51100000000E-03 0.  1.
         11   -1    0    0    0    0 -0.00000000000E+00 -0.00000000000E+00 -0.45593999997E+02  0.45594000000E+02  0.51100000000E-03 0. -1.
    9900012    2    1    2    0    0  0.47114426888E+01  0.25595594782E+02  0.31238324154E+02  0.50528867442E+02  0.30000023076E+02 0.  0.
         12    1    1    2    0    0 -0.47114426888E+01 -0.25595594782E+02 -0.31238324154E+02  0.40659132558E+02  0.00000000000E+00 0. -1.
         11    1    3    3    0    0 -0.83859235553E+00  0.97749964847E+01  0.24127272094E+01  0.10103219599E+02  0.51100000000E-03 0. -1.
        -11    1    3    3    0    0 -0.69149757280E+01  0.13160522443E+02  0.10916648923E+02  0.18444225771E+02  0.51100000000E-03 0.  1.
        -12    1    3    3    0    0  0.12465010772E+02  0.26600758544E+01  0.17908948021E+02  0.21981422072E+02  0.00000000000E+00 0.  1.
</event>
<event>
 7    1  0.5290964E-013  0.5052885E+02  0.7816164E-02  0.1300439E+00
        -11   -1    0    0    0    0  0.00000000000E+00  0.00000000000E+00  0.45593999997E+02  0.45594000000E+02  0.51100000000E-03 0.  1.
         11   -1    0    0    0    0 -0.00000000000E+00 -0.00000000000E+00 -0.45593999997E+02  0.45594000000E+02  0.51100000000E-03 0. -1.
    9900012    2    1    2    0    0  0.16438943748E+02  0.18572250092E+01  0.37141330155E+02  0.50528848976E+02  0.29999966949E+02 0.  0.
         12    1    1    2    0    0 -0.16438943748E+02 -0.18572250092E+01 -0.37141330155E+02  0.40659151024E+02  0.00000000000E+00 0. -1.
         11    1    3    3    0    0 -0.40590234265E+01  0.32271413330E+01 -0.20027956896E+01  0.55588940622E+01  0.51100000000E-03 0. -1.
        -11    1    3    3    0    0  0.36174719444E+01  0.40813883892E+00  0.20528790665E+01  0.41793532159E+01  0.51100000000E-03 0.  1.
        -12    1    3    3    0    0  0.16880495230E+02 -0.17780551627E+01  0.37091246778E+02  0.40790601698E+02  0.00000000000E+00 0.  1.
</event>
<event>
 7    1  0.5290964E-013  0.5052889E+02  0.7816164E-02  0.1300439E+00
        -11   -1    0    0    0    0  0.00000000000E+00  0.00000000000E+00  0.45593999997E+02  0.45594000000E+02  0.51100000000E-03 0. -1.
         11   -1    0    0    0    0 -0.00000000000E+00 -0.00000000000E+00 -0.45593999997E+02  0.45594000000E+02  0.51100000000E-03 0.  1.
    9900012    2    1    2    0    0 -0.31393035698E+02 -0.25833698374E+02  0.51071311471E+00  0.50528886754E+02  0.30000081778E+02 0.  0.
         12    1    1    2    0    0  0.31393035698E+02  0.25833698374E+02 -0.51071311471E+00  0.40659113246E+02  0.00000000000E+00 0. -1.
         11    1    3    3    0    0 -0.51591290630E+01  0.35358879201E+01  0.32334506391E+01  0.70409033063E+01  0.51100000000E-03 0. -1.
        -11    1    3    3    0    0 -0.23973792886E+02 -0.14456683243E+02  0.76903037684E+00  0.28005889447E+02  0.51100000000E-03 0.  1.
        -12    1    3    3    0    0 -0.22601137489E+01 -0.14912903051E+02 -0.34917679012E+01  0.15482094001E+02  0.00000000000E+00 0.  1.
</event>
<event>
 7    1  0.5290964E-013  0.5052886E+02  0.7816164E-02  0.1300439E+00
        -11   -1    0    0    0    0  0.00000000000E+00  0.00000000000E+00  0.45593999997E+02  0.45594000000E+02  0.51100000000E-03 0. -1.
         11   -1    0    0    0    0 -0.00000000000E+00 -0.00000000000E+00 -0.45593999997E+02  0.45594000000E+02  0.51100000000E-03 0.  1.
    9900012    2    1    2    0    0  0.33405670138E+02  0.39815509138E+01 -0.22833624340E+02  0.50528856557E+02  0.29999989991E+02 0.  0.
         12    1    1    2    0    0 -0.33405670138E+02 -0.39815509138E+01  0.22833624340E+02  0.40659143443E+02  0.00000000000E+00 0. -1.
         11    1    3    3    0    0  0.61955736993E+01  0.42515396080E+01  0.27231167621E+01  0.79922517267E+01  0.51100000000E-03 0. -1.
        -11    1    3    3    0    0  0.98939461079E+01  0.27823061730E+01  0.13790437236E+01  0.10369819626E+02  0.51100000000E-03 0.  1.
         12    1    3    3    0    0  0.17316150330E+02 -0.30522948672E+01 -0.26935784825E+02  0.32166785204E+02  0.00000000000E+00 0. -1.
</event>
<event>
 7    1  0.5290964E-013  0.5052887E+02  0.7816164E-02  0.1300439E+00
        -11   -1    0    0    0    0  0.00000000000E+00  0.00000000000E+00  0.45593999997E+02  0.45594000000E+02  0.51100000000E-03 0. -1.
         11   -1    0    0    0    0 -0.00000000000E+00 -0.00000000000E+00 -0.45593999997E+02  0.45594000000E+02  0.51100000000E-03 0.  1.
    9900012    2    1    2    0    0 -0.28151764422E+02 -0.14909689601E+02 -0.25265481751E+02  0.50528865083E+02  0.30000015907E+02 0.  0.
         12    1    1    2    0    0  0.28151764422E+02  0.14909689601E+02  0.25265481751E+02  0.40659134917E+02  0.00000000000E+00 0. -1.
         11    1    3    3    0    0 -0.25426416317E+01  0.12404057542E+00 -0.47816085119E+01  0.54170280370E+01  0.51100000000E-03 0. -1.
        -11    1    3    3    0    0 -0.34057417330E+01 -0.11296880633E+02 -0.19230031067E+02  0.22561309445E+02  0.51100000000E-03 0.  1.
         12    1    3    3    0    0 -0.22203381058E+02 -0.37368495431E+01 -0.12538421725E+01  0.22550527601E+02  0.00000000000E+00 0. -1.
</event>
<event>
 7    1  0.5290964E-013  0.5052886E+02  0.7816164E-02  0.1300439E+00
        -11   -1    0    0    0    0  0.00000000000E+00  0.00000000000E+00  0.45593999997E+02  0.45594000000E+02  0.51100000000E-03 0.  1.
         11   -1    0    0    0    0 -0.00000000000E+00 -0.00000000000E+00 -0.45593999997E+02  0.45594000000E+02  0.51100000000E-03 0. -1.
    9900012    2    1    2    0    0 -0.18353275693E+02 -0.27586719598E+01  0.36176129280E+02  0.50528864134E+02  0.30000013022E+02 0.  0.
         12    1    1    2    0    0  0.18353275693E+02  0.27586719598E+01 -0.36176129280E+02  0.40659135866E+02  0.00000000000E+00 0. -1.
         11    1    3    3    0    0  0.32218244731E+01 -0.38424404332E+01  0.10711568811E+01  0.51275607010E+01  0.51100000000E-03 0. -1.
        -11    1    3    3    0    0 -0.11453691214E+01  0.49712968487E+01  0.63103541076E+00  0.51404152296E+01  0.51100000000E-03 0.  1.
         12    1    3    3    0    0 -0.20429731045E+02 -0.38875283754E+01  0.34473936989E+02  0.40260888203E+02  0.00000000000E+00 0. -1.
</event>
<event>
 7    1  0.5290964E-013  0.5052886E+02  0.7816164E-02  0.1300439E+00
        -11   -1    0    0    0    0  0.00000000000E+00  0.00000000000E+00  0.45593999997E+02  0.45594000000E+02  0.51100000000E-03 0.  1.
         11   -1    0    0    0    0 -0.00000000000E+00 -0.00000000000E+00 -0.45593999997E+02  0.45594000000E+02  0.51100000000E-03 0. -1.
    9900012    2    1    2    0    0 -0.23945778416E+02  0.38124849795E+00  0.32857575555E+02  0.50528856800E+02  0.29999990729E+02 0.  0.
         12    1    1    2    0    0  0.23945778416E+02 -0.38124849795E+00 -0.32857575555E+02  0.40659143200E+02  0.00000000000E+00 0. -1.
         11    1    3    3    0    0  0.46848882878E+01  0.17994949804E+01  0.12977547882E+01  0.51836790222E+01  0.51100000000E-03 0. -1.
        -11    1    3    3    0    0 -0.97990980393E+01  0.12476894083E+01  0.18211229554E+01  0.10044677213E+02  0.51100000000E-03 0.  1.
         12    1    3    3    0    0 -0.18831568665E+02 -0.26659358908E+01  0.29738697812E+02  0.35300500564E+02  0.00000000000E+00 0. -1.
</event>
<event>
 7    1  0.5290964E-013  0.5052885E+02  0.7816164E-02  0.1300439E+00
        -11   -1    0    0    0    0  0.00000000000E+00  0.00000000000E+00  0.45593999997E+02  0.45594000000E+02  0.51100000000E-03 0.  1.
         11   -1    0    0    0    0 -0.00000000000E+00 -0.00000000000E+00 -0.45593999997E+02  0.45594000000E+02  0.51100000000E-03 0. -1.
    9900012    2    1    2    0    0 -0.90894605118E+00  0.53005235166E+01  0.40301917661E+02  0.50528852203E+02  0.29999976756E+02 0.  0.
         12    1    1    2    0    0  0.90894605118E+00 -0.53005235166E+01 -0.40301917661E+02  0.40659147797E+02  0.00000000000E+00 0. -1.
         11    1    3    3    0    0  0.45044031767E+01  0.69394623041E+01  0.85653763379E+01  0.11908461576E+02  0.51100000000E-03 0. -1.
        -11    1    3    3    0    0 -0.12123982657E+01  0.59797298469E+01  0.41779904824E+00  0.61156876066E+01  0.51100000000E-03 0.  1.
        -12    1    3    3    0    0 -0.42009509622E+01 -0.76186686343E+01  0.31318742274E+02  0.32504703020E+02  0.00000000000E+00 0.  1.
</event>
<event>
 7    1  0.5290964E-013  0.5052885E+02  0.7816164E-02  0.1300439E+00
        -11   -1    0    0    0    0  0.00000000000E+00  0.00000000000E+00  0.45593999997E+02  0.45594000000E+02  0.51100000000E-03 0.  1.
         11   -1    0    0    0    0 -0.00000000000E+00 -0.00000000000E+00 -0.45593999997E+02  0.45594000000E+02  0.51100000000E-03 0. -1.
    9900012    2    1    2    0    0 -0.18555060579E+02 -0.12249259797E+02  0.34041614438E+02  0.50528854015E+02  0.29999982264E+02 0.  0.
         12    1    1    2    0    0  0.18555060579E+02  0.12249259797E+02 -0.34041614438E+02  0.40659145985E+02  0.00000000000E+00 0. -1.
         11    1    3    3    0    0 -0.84608875725E+00 -0.44296879294E+01  0.45421198341E+01  0.64006916958E+01  0.51100000000E-03 0. -1.
        -11    1    3    3    0    0 -0.21616853865E+02 -0.10914138461E+02  0.30600716551E+02  0.39023206468E+02  0.51100000000E-03 0.  1.
        -12    1    3    3    0    0  0.39078820435E+01  0.30945665926E+01 -0.11012219471E+01  0.51049558508E+01  0.00000000000E+00 0.  1.
</event>
<event>
 7    1  0.5290964E-013  0.5052886E+02  0.7816164E-02  0.1300439E+00
        -11   -1    0    0    0    0  0.00000000000E+00  0.00000000000E+00  0.45593999997E+02  0.45594000000E+02  0.51100000000E-03 0.  1.
         11   -1    0    0    0    0 -0.00000000000E+00 -0.00000000000E+00 -0.45593999997E+02  0.45594000000E+02  0.51100000000E-03 0. -1.
    9900012    2    1    2    0    0 -0.15454151485E+02 -0.37786585358E+01  0.37417326825E+02  0.50528863202E+02  0.30000010188E+02 0.  0.
         12    1    1    2    0    0  0.15454151485E+02  0.37786585358E+01 -0.37417326825E+02  0.40659136798E+02  0.00000000000E+00 0. -1.
         11    1    3    3    0    0 -0.18433954100E+02 -0.70791955654E+01  0.26508396407E+02  0.33054814384E+02  0.51100000000E-03 0. -1.
        -11    1    3    3    0    0 -0.35971623614E+01 -0.16731175145E+01  0.76308688396E+01  0.86005266571E+01  0.51100000000E-03 0.  1.
         12    1    3    3    0    0  0.65769649766E+01  0.49736545441E+01  0.32780615782E+01  0.88735221608E+01  0.00000000000E+00 0. -1.
</event>
<event>
 7    1  0.5290964E-013  0.5052887E+02  0.7816164E-02  0.1300439E+00
        -11   -1    0    0    0    0  0.00000000000E+00  0.00000000000E+00  0.45593999997E+02  0.45594000000E+02  0.51100000000E-03 0.  1.
         11   -1    0    0    0    0 -0.00000000000E+00 -0.00000000000E+00 -0.45593999997E+02  0.45594000000E+02  0.51100000000E-03 0. -1.
    9900012    2    1    2    0    0  0.21476960315E+02 -0.34600884160E+01  0.34350155887E+02  0.50528865164E+02  0.30000016151E+02 0.  0.
         12    1    1    2    0    0 -0.21476960315E+02  0.34600884160E+01 -0.34350155887E+02  0.40659134836E+02  0.00000000000E+00 0. -1.
         11    1    3    3    0    0  0.56443238694E+00 -0.16948055308E+00  0.91515299204E+01  0.91704856863E+01  0.51100000000E-03 0. -1.
        -11    1    3    3    0    0  0.76455380971E+01 -0.11642819026E+02  0.20876134963E+02  0.25096264641E+02  0.51100000000E-03 0.  1.
        -12    1    3    3    0    0  0.13266989831E+02  0.83522111630E+01  0.43224910034E+01  0.16262114837E+02  0.00000000000E+00 0.  1.
</event>
<event>
 7    1  0.5290964E-013  0.5052886E+02  0.7816164E-02  0.1300439E+00
        -11   -1    0    0    0    0  0.00000000000E+00  0.00000000000E+00  0.45593999997E+02  0.45594000000E+02  0.51100000000E-03 0.  1.
         11   -1    0    0    0    0 -0.00000000000E+00 -0.00000000000E+00 -0.45593999997E+02  0.45594000000E+02  0.51100000000E-03 0. -1.
    9900012    2    1    2    0    0  0.25727147917E+02  0.12600764815E+02  0.28853074584E+02  0.50528864165E+02  0.30000013117E+02 0.  0.
         12    1    1    2    0    0 -0.25727147917E+02 -0.12600764815E+02 -0.28853074584E+02  0.40659135835E+02  0.00000000000E+00 0. -1.
         11    1    3    3    0    0 -0.38576330151E+01  0.38630223652E+01  0.11610499075E+02  0.12829963495E+02  0.51100000000E-03 0. -1.
        -11    1    3    3    0    0 -0.50515878180E+00  0.22807958018E+01  0.29611526740E+01  0.37716893170E+01  0.51100000000E-03 0.  1.
         12    1    3    3    0    0  0.30089939714E+02  0.64569466481E+01  0.14281422836E+02  0.33927211353E+02  0.00000000000E+00 0. -1.
</event>
<event>
 7    1  0.5290964E-013  0.5052879E+02  0.7816164E-02  0.1300439E+00
        -11   -1    0    0    0    0  0.00000000000E+00  0.00000000000E+00  0.45593999997E+02  0.45594000000E+02  0.51100000000E-03 0. -1.
         11   -1    0    0    0    0 -0.00000000000E+00 -0.00000000000E+00 -0.45593999997E+02  0.45594000000E+02  0.51100000000E-03 0.  1.
    9900012    2    1    2    0    0 -0.10320941196E+02 -0.39312748587E+02 -0.10756906221E+01  0.50528792691E+02  0.29999795863E+02 0.  0.
         12    1    1    2    0    0  0.10320941196E+02  0.39312748587E+02  0.10756906221E+01  0.40659207309E+02  0.00000000000E+00 0. -1.
         11    1    3    3    0    0 -0.11474513620E+02 -0.19790201393E+02 -0.10600376999E+02  0.25212784987E+02  0.51100000000E-03 0. -1.
        -11    1    3    3    0    0  0.47949184255E+00 -0.64821195633E+01 -0.30571525208E+01  0.71828941421E+01  0.51100000000E-03 0.  1.
         12    1    3    3    0    0  0.67408058078E+00 -0.13040427631E+02  0.12581838898E+02  0.18133113562E+02  0.00000000000E+00 0. -1.
</event>
<event>
 7    1  0.5290964E-013  0.5052886E+02  0.7816164E-02  0.1300439E+00
        -11   -1    0    0    0    0  0.00000000000E+00  0.00000000000E+00  0.45593999997E+02  0.45594000000E+02  0.51100000000E-03 0.  1.
         11   -1    0    0    0    0 -0.00000000000E+00 -0.00000000000E+00 -0.45593999997E+02  0.45594000000E+02  0.51100000000E-03 0. -1.
    9900012    2    1    2    0    0 -0.61969320057E+01 -0.19595116179E+02  0.35082684656E+02  0.50528864408E+02  0.30000013855E+02 0.  0.
         12    1    1    2    0    0  0.61969320057E+01  0.19595116179E+02 -0.35082684656E+02  0.40659135592E+02  0.00000000000E+00 0. -1.
         11    1    3    3    0    0  0.51429530761E+01 -0.14331641656E+02  0.45269731788E+01  0.15885194532E+02  0.51100000000E-03 0. -1.
        -11    1    3    3    0    0 -0.16096520799E+01  0.24198485303E+01  0.20442634337E+01  0.35532604711E+01  0.51100000000E-03 0.  1.
        -12    1    3    3    0    0 -0.97302330019E+01 -0.76833230537E+01  0.28511448044E+02  0.31090409405E+02  0.00000000000E+00 0.  1.
</event>
<event>
 7    1  0.5290964E-013  0.5052886E+02  0.7816164E-02  0.1300439E+00
        -11   -1    0    0    0    0  0.00000000000E+00  0.00000000000E+00  0.45593999997E+02  0.45594000000E+02  0.51100000000E-03 0.  1.
         11   -1    0    0    0    0 -0.00000000000E+00 -0.00000000000E+00 -0.45593999997E+02  0.45594000000E+02  0.51100000000E-03 0. -1.
    9900012    2    1    2    0    0  0.18043225572E+02 -0.27568479504E+02 -0.23824069291E+02  0.50528864141E+02  0.30000013043E+02 0.  0.
         12    1    1    2    0    0 -0.18043225572E+02  0.27568479504E+02  0.23824069291E+02  0.40659135859E+02  0.00000000000E+00 0. -1.
         11    1    3    3    0    0  0.56440779398E+01 -0.11277947340E+02 -0.11544687006E+02  0.17097587851E+02  0.51100000000E-03 0. -1.
        -11    1    3    3    0    0  0.30501021121E+01 -0.45675292407E+01 -0.16876676285E+02  0.17747891394E+02  0.51100000000E-03 0.  1.
        -12    1    3    3    0    0  0.93490455206E+01 -0.11723002923E+02  0.45972939997E+01  0.15683384896E+02  0.00000000000E+00 0.  1.
</event>
<event>
 7    1  0.5290964E-013  0.5052886E+02  0.7816164E-02  0.1300439E+00
        -11   -1    0    0    0    0  0.00000000000E+00  0.00000000000E+00  0.45593999997E+02  0.45594000000E+02  0.51100000000E-03 0. -1.
         11   -1    0    0    0    0 -0.00000000000E+00 -0.00000000000E+00 -0.45593999997E+02  0.45594000000E+02  0.51100000000E-03 0.  1.
    9900012    2    1    2    0    0  0.12375237329E+02 -0.49205420101E+01 -0.38416241949E+02  0.50528857386E+02  0.29999992510E+02 0.  0.
         12    1    1    2    0    0 -0.12375237329E+02  0.49205420101E+01  0.38416241949E+02  0.40659142614E+02  0.00000000000E+00 0. -1.
         11    1    3    3    0    0  0.88699321949E+01  0.82227018303E+01 -0.10731385575E+02  0.16169451418E+02  0.51100000000E-03 0. -1.
        -11    1    3    3    0    0 -0.27351250693E+01  0.10006205362E+01 -0.11954336032E+02  0.12303995319E+02  0.51100000000E-03 0.  1.
        -12    1    3    3    0    0  0.62404302035E+01 -0.14143864377E+02 -0.15730520343E+02  0.22055410649E+02  0.00000000000E+00 0.  1.
</event>
<event>
 7    1  0.5290964E-013  0.5052886E+02  0.7816164E-02  0.1300439E+00
        -11   -1    0    0    0    0  0.00000000000E+00  0.00000000000E+00  0.45593999997E+02  0.45594000000E+02  0.51100000000E-03 0. -1.
         11   -1    0    0    0    0 -0.00000000000E+00 -0.00000000000E+00 -0.45593999997E+02  0.45594000000E+02  0.51100000000E-03 0.  1.
    9900012    2    1    2    0    0  0.72231086991E+01 -0.39157077100E+02 -0.82289477258E+01  0.50528861212E+02  0.30000004141E+02 0.  0.
         12    1    1    2    0    0 -0.72231086991E+01  0.39157077100E+02  0.82289477258E+01  0.40659138788E+02  0.00000000000E+00 0. -1.
         11    1    3    3    0    0 -0.16240724947E+01 -0.14000971565E+01  0.46989416684E+01  0.51650688843E+01  0.51100000000E-03 0. -1.
        -11    1    3    3    0    0 -0.20660133384E+01 -0.89654546884E+01  0.42181080270E+01  0.10121275832E+02  0.51100000000E-03 0.  1.
        -12    1    3    3    0    0  0.10913194532E+02 -0.28791525255E+02 -0.17145997421E+02  0.35242516496E+02  0.00000000000E+00 0.  1.
</event>
<event>
 7    1  0.5290964E-013  0.5052885E+02  0.7816164E-02  0.1300439E+00
        -11   -1    0    0    0    0  0.00000000000E+00  0.00000000000E+00  0.45593999997E+02  0.45594000000E+02  0.51100000000E-03 0. -1.
         11   -1    0    0    0    0 -0.00000000000E+00 -0.00000000000E+00 -0.45593999997E+02  0.45594000000E+02  0.51100000000E-03 0.  1.
    9900012    2    1    2    0    0  0.21004004932E+02 -0.33397187721E+02 -0.98298659632E+01  0.50528848070E+02  0.29999964192E+02 0.  0.
         12    1    1    2    0    0 -0.21004004932E+02  0.33397187721E+02  0.98298659632E+01  0.40659151930E+02  0.00000000000E+00 0. -1.
         11    1    3    3    0    0  0.62334270394E+01 -0.19135765772E+01 -0.79591195550E+01  0.10289070528E+02  0.51100000000E-03 0.  1.
        -11    1    3    3    0    0  0.29675405243E+01 -0.11551069364E+02  0.87145851667E+01  0.14770832580E+02  0.51100000000E-03 0. -1.
         12    1    3    3    0    0  0.11803037368E+02 -0.19932541780E+02 -0.10585331575E+02  0.25468944962E+02  0.00000000000E+00 0. -1.
</event>
<event>
 7    1  0.5290964E-013  0.5052886E+02  0.7816164E-02  0.1300439E+00
        -11   -1    0    0    0    0  0.00000000000E+00  0.00000000000E+00  0.45593999997E+02  0.45594000000E+02  0.51100000000E-03 0. -1.
         11   -1    0    0    0    0 -0.00000000000E+00 -0.00000000000E+00 -0.45593999997E+02  0.45594000000E+02  0.51100000000E-03 0.  1.
    9900012    2    1    2    0    0 -0.23987380695E+02 -0.15801830489E+02 -0.28776262046E+02  0.50528861584E+02  0.30000005270E+02 0.  0.
         12    1    1    2    0    0  0.23987380695E+02  0.15801830489E+02  0.28776262046E+02  0.40659138416E+02  0.00000000000E+00 0. -1.
         11    1    3    3    0    0  0.18438194953E+01  0.30239247150E+01  0.28725841344E+00  0.35533517516E+01  0.51100000000E-03 0. -1.
        -11    1    3    3    0    0 -0.91870505230E+00 -0.10032580914E+02 -0.11306152770E+02  0.15143506512E+02  0.51100000000E-03 0.  1.
        -12    1    3    3    0    0 -0.24912495138E+02 -0.87931742905E+01 -0.17757367690E+02  0.31832003320E+02  0.00000000000E+00 0.  1.
</event>
<event>
 7    1  0.5290964E-013  0.5052886E+02  0.7816164E-02  0.1300439E+00
        -11   -1    0    0    0    0  0.00000000000E+00  0.00000000000E+00  0.45593999997E+02  0.45594000000E+02  0.51100000000E-03 0. -1.
         11   -1    0    0    0    0 -0.00000000000E+00 -0.00000000000E+00 -0.45593999997E+02  0.45594000000E+02  0.51100000000E-03 0.  1.
    9900012    2    1    2    0    0 -0.16081986794E+02 -0.45649860023E+01 -0.37063408537E+02  0.50528860205E+02  0.30000001080E+02 0.  0.
         12    1    1    2    0    0  0.16081986794E+02  0.45649860023E+01  0.37063408537E+02  0.40659139795E+02  0.00000000000E+00 0. -1.
         11    1    3    3    0    0  0.10030535772E+01  0.31276778678E+01 -0.18664250129E+02  0.18951061144E+02  0.51100000000E-03 0. -1.
        -11    1    3    3    0    0  0.27424360350E+01  0.17405779784E+01 -0.46466213683E+01  0.56693612961E+01  0.51100000000E-03 0.  1.
        -12    1    3    3    0    0 -0.19827476406E+02 -0.94332418485E+01 -0.13752537040E+02  0.25908437766E+02  0.00000000000E+00 0.  1.
</event>
<event>
 7    1  0.5290964E-013  0.5052886E+02  0.7816164E-02  0.1300439E+00
        -11   -1    0    0    0    0  0.00000000000E+00  0.00000000000E+00  0.45593999997E+02  0.45594000000E+02  0.51100000000E-03 0.  1.
         11   -1    0    0    0    0 -0.00000000000E+00 -0.00000000000E+00 -0.45593999997E+02  0.45594000000E+02  0.51100000000E-03 0. -1.
    9900012    2    1    2    0    0 -0.20369685168E+02 -0.19340141806E+02  0.29397286625E+02  0.50528860562E+02  0.30000002164E+02 0.  0.
         12    1    1    2    0    0  0.20369685168E+02  0.19340141806E+02 -0.29397286625E+02  0.40659139438E+02  0.00000000000E+00 0. -1.
         11    1    3    3    0    0 -0.19459428513E+02 -0.87203850689E+01  0.12449043560E+02  0.24691965487E+02  0.51100000000E-03 0. -1.
        -11    1    3    3    0    0 -0.74048219059E+01 -0.75871208120E+00  0.45919323459E+01  0.87460204899E+01  0.51100000000E-03 0.  1.
         12    1    3    3    0    0  0.64945652503E+01 -0.98610446561E+01  0.12356310719E+02  0.17090874585E+02  0.00000000000E+00 0. -1.
</event>
<event>
 7    1  0.5290964E-013  0.5052886E+02  0.7816164E-02  0.1300439E+00
        -11   -1    0    0    0    0  0.00000000000E+00  0.00000000000E+00  0.45593999997E+02  0.45594000000E+02  0.51100000000E-03 0.  1.
         11   -1    0    0    0    0 -0.00000000000E+00 -0.00000000000E+00 -0.45593999997E+02  0.45594000000E+02  0.51100000000E-03 0. -1.
    9900012    2    1    2    0    0 -0.25347618354E+02 -0.23550222504E+02 -0.21355345443E+02  0.50528861849E+02  0.30000006078E+02 0.  0.
         12    1    1    2    0    0  0.25347618354E+02  0.23550222504E+02  0.21355345443E+02  0.40659138151E+02  0.00000000000E+00 0. -1.
         11    1    3    3    0    0 -0.81662990898E+01 -0.13509022047E+02 -0.12061948743E+01  0.15831519947E+02  0.51100000000E-03 0. -1.
        -11    1    3    3    0    0 -0.46988208581E+01 -0.13705432240E+02 -0.66232654295E+01  0.15930644543E+02  0.51100000000E-03 0.  1.
         12    1    3    3    0    0 -0.12482498406E+02  0.36642317831E+01 -0.13525885139E+02  0.18766697360E+02  0.00000000000E+00 0. -1.
</event>
<event>
 7    1  0.5290964E-013  0.5052886E+02  0.7816164E-02  0.1300439E+00
        -11   -1    0    0    0    0  0.00000000000E+00  0.00000000000E+00  0.45593999997E+02  0.45594000000E+02  0.51100000000E-03 0.  1.
         11   -1    0    0    0    0 -0.00000000000E+00 -0.00000000000E+00 -0.45593999997E+02  0.45594000000E+02  0.51100000000E-03 0. -1.
    9900012    2    1    2    0    0  0.88194540233E+00  0.32907254128E+02  0.23864200629E+02  0.50528864820E+02  0.30000015106E+02 0.  0.
         12    1    1    2    0    0 -0.88194540233E+00 -0.32907254128E+02 -0.23864200629E+02  0.40659135180E+02  0.00000000000E+00 0. -1.
         11    1    3    3    0    0  0.44048532374E+01 -0.36853718735E+00 -0.76231358997E+00  0.44854959561E+01  0.51100000000E-03 0. -1.
        -11    1    3    3    0    0  0.81632027816E+01  0.11700850424E+02  0.74764019530E+01  0.16107276825E+02  0.51100000000E-03 0.  1.
        -12    1    3    3    0    0 -0.11686110617E+02  0.21574940892E+02  0.17150112266E+02  0.29936092039E+02  0.00000000000E+00 0.  1.
</event>
<event>
 7    1  0.5290964E-013  0.5052888E+02  0.7816164E-02  0.1300439E+00
        -11   -1    0    0    0    0  0.00000000000E+00  0.00000000000E+00  0.45593999997E+02  0.45594000000E+02  0.51100000000E-03 0.  1.
         11   -1    0    0    0    0 -0.00000000000E+00 -0.00000000000E+00 -0.45593999997E+02  0.45594000000E+02  0.51100000000E-03 0. -1.
    9900012    2    1    2    0    0 -0.23817552561E+01  0.23775999868E+02  0.32896704159E+02  0.50528879592E+02  0.30000060008E+02 0.  0.
         12    1    1    2    0    0  0.23817552561E+01 -0.23775999868E+02 -0.32896704159E+02  0.40659120408E+02  0.00000000000E+00 0. -1.
         11    1    3    3    0    0 -0.83735933498E+01  0.76289491534E+01  0.88167748787E+01  0.14354562003E+02  0.51100000000E-03 0. -1.
        -11    1    3    3    0    0 -0.70021009199E+01  0.46680600591E+01  0.31259807486E+01  0.89773023738E+01  0.51100000000E-03 0.  1.
        -12    1    3    3    0    0  0.12993939014E+02  0.11478990656E+02  0.20953948531E+02  0.27197015215E+02  0.00000000000E+00 0.  1.
</event>
<event>
 7    1  0.5290964E-013  0.5052887E+02  0.7816164E-02  0.1300439E+00
        -11   -1    0    0    0    0  0.00000000000E+00  0.00000000000E+00  0.45593999997E+02  0.45594000000E+02  0.51100000000E-03 0.  1.
         11   -1    0    0    0    0 -0.00000000000E+00 -0.00000000000E+00 -0.45593999997E+02  0.45594000000E+02  0.51100000000E-03 0. -1.
    9900012    2    1    2    0    0  0.21114545235E+02 -0.21270607858E+02  0.27475475725E+02  0.50528873774E+02  0.30000042323E+02 0.  0.
         12    1    1    2    0    0 -0.21114545235E+02  0.21270607858E+02 -0.27475475725E+02  0.40659126226E+02  0.00000000000E+00 0. -1.
         11    1    3    3    0    0  0.71727345303E+01 -0.16086888121E+02  0.62196297055E+01  0.18679397313E+02  0.51100000000E-03 0. -1.
        -11    1    3    3    0    0 -0.31210745513E+01 -0.44392856610E+01  0.10052558484E+02  0.11423760146E+02  0.51100000000E-03 0.  1.
        -12    1    3    3    0    0  0.17062885256E+02 -0.74443407602E+00  0.11203287536E+02  0.20425716315E+02  0.00000000000E+00 0.  1.
</event>
<event>
 7    1  0.5290964E-013  0.5052886E+02  0.7816164E-02  0.1300439E+00
        -11   -1    0    0    0    0  0.00000000000E+00  0.00000000000E+00  0.45593999997E+02  0.45594000000E+02  0.51100000000E-03 0. -1.
         11   -1    0    0    0    0 -0.00000000000E+00 -0.00000000000E+00 -0.45593999997E+02  0.45594000000E+02  0.51100000000E-03 0.  1.
    9900012    2    1    2    0    0  0.25490349043E+02 -0.31562157217E+02 -0.26904055686E+01  0.50528856568E+02  0.29999990024E+02 0.  0.
         12    1    1    2    0    0 -0.25490349043E+02  0.31562157217E+02  0.26904055686E+01  0.40659143432E+02  0.00000000000E+00 0. -1.
         11    1    3    3    0    0  0.20591696114E+01  0.23180040351E+01 -0.88597609114E+00  0.32246358074E+01  0.51100000000E-03 0. -1.
        -11    1    3    3    0    0  0.24162284487E+02 -0.30586474301E+02 -0.84201204000E+01  0.39877899012E+02  0.51100000000E-03 0.  1.
         12    1    3    3    0    0 -0.73110505551E+00 -0.32936869514E+01  0.66156909226E+01  0.74263217490E+01  0.00000000000E+00 0. -1.
</event>
<event>
 7    1  0.5290964E-013  0.5052887E+02  0.7816164E-02  0.1300439E+00
        -11   -1    0    0    0    0  0.00000000000E+00  0.00000000000E+00  0.45593999997E+02  0.45594000000E+02  0.51100000000E-03 0. -1.
         11   -1    0    0    0    0 -0.00000000000E+00 -0.00000000000E+00 -0.45593999997E+02  0.45594000000E+02  0.51100000000E-03 0.  1.
    9900012    2    1    2    0    0 -0.26440974703E+02 -0.11399970241E+02 -0.28706797352E+02  0.50528872133E+02  0.30000037335E+02 0.  0.
         12    1    1    2    0    0  0.26440974703E+02  0.11399970241E+02  0.28706797352E+02  0.40659127867E+02  0.00000000000E+00 0. -1.
         11    1    3    3    0    0 -0.33668692157E+01 -0.43484348180E+01  0.13221680050E+01  0.56562197780E+01  0.51100000000E-03 0. -1.
        -11    1    3    3    0    0 -0.27776231414E+02 -0.52406186282E+01 -0.24684849526E+02  0.37527655290E+02  0.51100000000E-03 0.  1.
         12    1    3    3    0    0  0.47021259270E+01 -0.18109167943E+01 -0.53441158309E+01  0.73449970649E+01  0.00000000000E+00 0. -1.
</event>
<event>
 7    1  0.5290964E-013  0.5052886E+02  0.7816164E-02  0.1300439E+00
        -11   -1    0    0    0    0  0.00000000000E+00  0.00000000000E+00  0.45593999997E+02  0.45594000000E+02  0.51100000000E-03 0.  1.
         11   -1    0    0    0    0 -0.00000000000E+00 -0.00000000000E+00 -0.45593999997E+02  0.45594000000E+02  0.51100000000E-03 0. -1.
    9900012    2    1    2    0    0 -0.17708067649E+02  0.35761651055E+02  0.77906460504E+01  0.50528861889E+02  0.30000006198E+02 0.  0.
         12    1    1    2    0    0  0.17708067649E+02 -0.35761651055E+02 -0.77906460504E+01  0.40659138111E+02  0.00000000000E+00 0. -1.
         11    1    3    3    0    0  0.22060117149E+01  0.12657874733E+01 -0.60547472478E+01  0.65672421997E+01  0.51100000000E-03 0. -1.
        -11    1    3    3    0    0 -0.34860733112E+01  0.19800995220E+00  0.24370373576E+01  0.42580589963E+01  0.51100000000E-03 0.  1.
        -12    1    3    3    0    0 -0.16428006053E+02  0.34297853629E+02  0.11408355941E+02  0.39703560693E+02  0.00000000000E+00 0.  1.
</event>
<event>
 7    1  0.5290964E-013  0.5052884E+02  0.7816164E-02  0.1300439E+00
        -11   -1    0    0    0    0  0.00000000000E+00  0.00000000000E+00  0.45593999997E+02  0.45594000000E+02  0.51100000000E-03 0. -1.
         11   -1    0    0    0    0 -0.00000000000E+00 -0.00000000000E+00 -0.45593999997E+02  0.45594000000E+02  0.51100000000E-03 0.  1.
    9900012    2    1    2    0    0 -0.20989384432E+02 -0.23801451489E+02 -0.25418571780E+02  0.50528841829E+02  0.29999945223E+02 0.  0.
         12    1    1    2    0    0  0.20989384432E+02  0.23801451489E+02  0.25418571780E+02  0.40659158171E+02  0.00000000000E+00 0. -1.
         11    1    3    3    0    0 -0.79137145261E-01  0.16071321324E+01  0.15197311311E+01  0.22133050741E+01  0.51100000000E-03 0.  1.
        -11    1    3    3    0    0  0.41482176431E+01 -0.70532120139E+01 -0.18547242348E+01  0.83902033095E+01  0.51100000000E-03 0. -1.
        -12    1    3    3    0    0 -0.25058464930E+02 -0.18355371608E+02 -0.25083578677E+02  0.39925333445E+02  0.00000000000E+00 0.  1.
</event>
<event>
 7    1  0.5290964E-013  0.5052885E+02  0.7816164E-02  0.1300439E+00
        -11   -1    0    0    0    0  0.00000000000E+00  0.00000000000E+00  0.45593999997E+02  0.45594000000E+02  0.51100000000E-03 0. -1.
         11   -1    0    0    0    0 -0.00000000000E+00 -0.00000000000E+00 -0.45593999997E+02  0.45594000000E+02  0.51100000000E-03 0.  1.
    9900012    2    1    2    0    0  0.27321518631E+02  0.27123948345E+02  0.13076397604E+02  0.50528854308E+02  0.29999983154E+02 0.  0.
         12    1    1    2    0    0 -0.27321518631E+02 -0.27123948345E+02 -0.13076397604E+02  0.40659145692E+02  0.00000000000E+00 0. -1.
         11    1    3    3    0    0  0.23037525985E+02  0.15807056454E+02  0.67980726093E+01  0.28754207148E+02  0.51100000000E-03 0. -1.
        -11    1    3    3    0    0  0.92449875201E+01  0.31742620378E+01 -0.93396931904E+00  0.98192684392E+01  0.51100000000E-03 0.  1.
         12    1    3    3    0    0 -0.49609948746E+01  0.81426298538E+01  0.72122943136E+01  0.11955378720E+02  0.00000000000E+00 0. -1.
</event>
<event>
 7    1  0.5290964E-013  0.5052887E+02  0.7816164E-02  0.1300439E+00
        -11   -1    0    0    0    0  0.00000000000E+00  0.00000000000E+00  0.45593999997E+02  0.45594000000E+02  0.51100000000E-03 0.  1.
         11   -1    0    0    0    0 -0.00000000000E+00 -0.00000000000E+00 -0.45593999997E+02  0.45594000000E+02  0.51100000000E-03 0. -1.
    9900012    2    1    2    0    0  0.26602311726E+01 -0.17710756958E+02  0.36502284542E+02  0.50528874103E+02  0.30000043324E+02 0.  0.
         12    1    1    2    0    0 -0.26602311726E+01  0.17710756958E+02 -0.36502284542E+02  0.40659125897E+02  0.00000000000E+00 0. -1.
         11    1    3    3    0    0 -0.30847551941E+01  0.26355227210E+01  0.83474270097E-01  0.40581600308E+01  0.51100000000E-03 0. -1.
        -11    1    3    3    0    0 -0.74750910040E+00  0.19085115563E+01  0.14242736747E+02  0.14389466165E+02  0.51100000000E-03 0.  1.
        -12    1    3    3    0    0  0.64924954671E+01 -0.22254791235E+02  0.22176073525E+02  0.32081247907E+02  0.00000000000E+00 0.  1.
</event>
<event>
 7    1  0.5290964E-013  0.5052886E+02  0.7816164E-02  0.1300439E+00
        -11   -1    0    0    0    0  0.00000000000E+00  0.00000000000E+00  0.45593999997E+02  0.45594000000E+02  0.51100000000E-03 0.  1.
         11   -1    0    0    0    0 -0.00000000000E+00 -0.00000000000E+00 -0.45593999997E+02  0.45594000000E+02  0.51100000000E-03 0. -1.
    9900012    2    1    2    0    0  0.34782503394E+02 -0.45504726787E+01  0.20558111929E+02  0.50528864372E+02  0.30000013744E+02 0.  0.
         12    1    1    2    0    0 -0.34782503394E+02  0.45504726787E+01 -0.20558111929E+02  0.40659135628E+02  0.00000000000E+00 0. -1.
         11    1    3    3    0    0  0.12227072331E+02 -0.10898644468E+02  0.17382691241E+02  0.23883879586E+02  0.51100000000E-03 0. -1.
        -11    1    3    3    0    0  0.20010713037E+01 -0.31738132518E+01  0.10300604155E+01  0.38908098952E+01  0.51100000000E-03 0.  1.
         12    1    3    3    0    0  0.20554359759E+02  0.95219850415E+01  0.21453602726E+01  0.22754174890E+02  0.00000000000E+00 0. -1.
</event>
<event>
 7    1  0.5290964E-013  0.5052887E+02  0.7816164E-02  0.1300439E+00
        -11   -1    0    0    0    0  0.00000000000E+00  0.00000000000E+00  0.45593999997E+02  0.45594000000E+02  0.51100000000E-03 0.  1.
         11   -1    0    0    0    0 -0.00000000000E+00 -0.00000000000E+00 -0.45593999997E+02  0.45594000000E+02  0.51100000000E-03 0. -1.
    9900012    2    1    2    0    0 -0.31763371955E+02  0.24609641952E+02  0.62143820017E+01  0.50528870414E+02  0.30000032112E+02 0.  0.
         12    1    1    2    0    0  0.31763371955E+02 -0.24609641952E+02 -0.62143820017E+01  0.40659129586E+02  0.00000000000E+00 0. -1.
         11    1    3    3    0    0 -0.12342165947E+02  0.48027384188E+01  0.48700975809E+01  0.14110747935E+02  0.51100000000E-03 0. -1.
        -11    1    3    3    0    0 -0.18994943077E+02  0.24867111827E+02  0.16079160184E+01  0.31333153485E+02  0.51100000000E-03 0.  1.
        -12    1    3    3    0    0 -0.42626293131E+00 -0.50602082933E+01 -0.26363159758E+00  0.50849689948E+01  0.00000000000E+00 0.  1.
</event>
<event>
 7    1  0.5290964E-013  0.5052886E+02  0.7816164E-02  0.1300439E+00
        -11   -1    0    0    0    0  0.00000000000E+00  0.00000000000E+00  0.45593999997E+02  0.45594000000E+02  0.51100000000E-03 0. -1.
         11   -1    0    0    0    0 -0.00000000000E+00 -0.00000000000E+00 -0.45593999997E+02  0.45594000000E+02  0.51100000000E-03 0.  1.
    9900012    2    1    2    0    0 -0.34670597697E+02  0.18906015640E+02  0.96787264989E+01  0.50528861806E+02  0.30000005946E+02 0.  0.
         12    1    1    2    0    0  0.34670597697E+02 -0.18906015640E+02 -0.96787264989E+01  0.40659138194E+02  0.00000000000E+00 0. -1.
         11    1    3    3    0    0 -0.22865325132E+02  0.11607831899E+02  0.93244290863E+01  0.27285707483E+02  0.51100000000E-03 0. -1.
        -11    1    3    3    0    0 -0.87381185739E+01  0.19561289790E+01  0.89551411877E+01  0.12663953204E+02  0.51100000000E-03 0.  1.
         12    1    3    3    0    0 -0.30671539908E+01  0.53420547622E+01 -0.86008437751E+01  0.10579201120E+02  0.00000000000E+00 0. -1.
</event>
<event>
 7    1  0.5290964E-013  0.5052886E+02  0.7816164E-02  0.1300439E+00
        -11   -1    0    0    0    0  0.00000000000E+00  0.00000000000E+00  0.45593999997E+02  0.45594000000E+02  0.51100000000E-03 0. -1.
         11   -1    0    0    0    0 -0.00000000000E+00 -0.00000000000E+00 -0.45593999997E+02  0.45594000000E+02  0.51100000000E-03 0.  1.
    9900012    2    1    2    0    0 -0.28362879457E+02 -0.27407159797E+02 -0.98772718727E+01  0.50528857868E+02  0.29999993976E+02 0.  0.
         12    1    1    2    0    0  0.28362879457E+02  0.27407159797E+02  0.98772718727E+01  0.40659142132E+02  0.00000000000E+00 0. -1.
         11    1    3    3    0    0 -0.10229215306E+01 -0.70461436799E+00  0.32531393365E+01  0.34822070112E+01  0.51100000000E-03 0. -1.
        -11    1    3    3    0    0  0.55577713805E+00 -0.33252081803E+01  0.52758928352E+01  0.62610656553E+01  0.51100000000E-03 0.  1.
        -12    1    3    3    0    0 -0.27895735065E+02 -0.23377337249E+02 -0.18406304044E+02  0.40785585202E+02  0.00000000000E+00 0.  1.
</event>
<event>
 7    1  0.5290964E-013  0.5052887E+02  0.7816164E-02  0.1300439E+00
        -11   -1    0    0    0    0  0.00000000000E+00  0.00000000000E+00  0.45593999997E+02  0.45594000000E+02  0.51100000000E-03 0.  1.
         11   -1    0    0    0    0 -0.00000000000E+00 -0.00000000000E+00 -0.45593999997E+02  0.45594000000E+02  0.51100000000E-03 0. -1.
    9900012    2    1    2    0    0 -0.26903116491E+02  0.27484642092E+02  0.13190210621E+02  0.50528869610E+02  0.30000029666E+02 0.  0.
         12    1    1    2    0    0  0.26903116491E+02 -0.27484642092E+02 -0.13190210621E+02  0.40659130390E+02  0.00000000000E+00 0. -1.
         11    1    3    3    0    0 -0.13028461663E+02  0.87808028622E+01  0.14012757842E+02  0.21052332289E+02  0.51100000000E-03 0. -1.
        -11    1    3    3    0    0 -0.63321785029E+01  0.55874869030E+01  0.82736304556E+01  0.11822413276E+02  0.51100000000E-03 0.  1.
         12    1    3    3    0    0 -0.75424763253E+01  0.13116352327E+02 -0.90961776764E+01  0.17654124045E+02  0.00000000000E+00 0. -1.
</event>
<event>
 7    1  0.5290964E-013  0.5052886E+02  0.7816164E-02  0.1300439E+00
        -11   -1    0    0    0    0  0.00000000000E+00  0.00000000000E+00  0.45593999997E+02  0.45594000000E+02  0.51100000000E-03 0.  1.
         11   -1    0    0    0    0 -0.00000000000E+00 -0.00000000000E+00 -0.45593999997E+02  0.45594000000E+02  0.51100000000E-03 0. -1.
    9900012    2    1    2    0    0 -0.28388768651E+02 -0.26305980438E+02  0.12459493825E+02  0.50528858608E+02  0.29999996225E+02 0.  0.
         12    1    1    2    0    0  0.28388768651E+02  0.26305980438E+02 -0.12459493825E+02  0.40659141392E+02  0.00000000000E+00 0. -1.
         11    1    3    3    0    0 -0.20065244607E+02 -0.89036986040E+01 -0.24381666257E+01  0.22086976858E+02  0.51100000000E-03 0. -1.
        -11    1    3    3    0    0 -0.51886723540E+01 -0.38148843450E+01 -0.18004288116E+01  0.66870926066E+01  0.51100000000E-03 0.  1.
        -12    1    3    3    0    0 -0.31348516906E+01 -0.13587397489E+02  0.16698089263E+02  0.21754789143E+02  0.00000000000E+00 0.  1.
</event>
<event>
 7    1  0.5290964E-013  0.5052887E+02  0.7816164E-02  0.1300439E+00
        -11   -1    0    0    0    0  0.00000000000E+00  0.00000000000E+00  0.45593999997E+02  0.45594000000E+02  0.51100000000E-03 0.  1.
         11   -1    0    0    0    0 -0.00000000000E+00 -0.00000000000E+00 -0.45593999997E+02  0.45594000000E+02  0.51100000000E-03 0. -1.
    9900012    2    1    2    0    0 -0.46264097159E+01 -0.40177900467E+02  0.41830068443E+01  0.50528869426E+02  0.30000029108E+02 0.  0.
         12    1    1    2    0    0  0.46264097159E+01  0.40177900467E+02 -0.41830068443E+01  0.40659130574E+02  0.00000000000E+00 0. -1.
         11    1    3    3    0    0  0.32433728240E-01 -0.22850968164E+02 -0.26150974962E+01  0.23000142025E+02  0.51100000000E-03 0.  1.
        -11    1    3    3    0    0 -0.32654188688E+01 -0.18229951078E+02 -0.19518036763E+01  0.18622664003E+02  0.51100000000E-03 0. -1.
         12    1    3    3    0    0 -0.13934245754E+01  0.90301877604E+00  0.87499080168E+01  0.89060633986E+01  0.00000000000E+00 0. -1.
</event>
<event>
 7    1  0.5290964E-013  0.5052886E+02  0.7816164E-02  0.1300439E+00
        -11   -1    0    0    0    0  0.00000000000E+00  0.00000000000E+00  0.45593999997E+02  0.45594000000E+02  0.51100000000E-03 0.  1.
         11   -1    0    0    0    0 -0.00000000000E+00 -0.00000000000E+00 -0.45593999997E+02  0.45594000000E+02  0.51100000000E-03 0. -1.
    9900012    2    1    2    0    0  0.72955230821E+01  0.28082518996E+02  0.28483557390E+02  0.50528861152E+02  0.30000003959E+02 0.  0.
         12    1    1    2    0    0 -0.72955230821E+01 -0.28082518996E+02 -0.28483557390E+02  0.40659138848E+02  0.00000000000E+00 0. -1.
         11    1    3    3    0    0 -0.22776655447E+00  0.75768036525E+01 -0.10835391808E+01  0.76572768403E+01  0.51100000000E-03 0. -1.
        -11    1    3    3    0    0 -0.70371133350E+01  0.23834005051E+01  0.10170904431E+02  0.12595588881E+02  0.51100000000E-03 0.  1.
         12    1    3    3    0    0  0.14560402972E+02  0.18122314839E+02  0.19396192141E+02  0.30275995431E+02  0.00000000000E+00 0. -1.
</event>
<event>
 7    1  0.5290964E-013  0.5052888E+02  0.7816164E-02  0.1300439E+00
        -11   -1    0    0    0    0  0.00000000000E+00  0.00000000000E+00  0.45593999997E+02  0.45594000000E+02  0.51100000000E-03 0.  1.
         11   -1    0    0    0    0 -0.00000000000E+00 -0.00000000000E+00 -0.45593999997E+02  0.45594000000E+02  0.51100000000E-03 0. -1.
    9900012    2    1    2    0    0  0.67975441180E+01  0.21296320049E+02  0.33962095224E+02  0.50528883364E+02  0.30000071472E+02 0.  0.
         12    1    1    2    0    0 -0.67975441180E+01 -0.21296320049E+02 -0.33962095224E+02  0.40659116636E+02  0.00000000000E+00 0. -1.
         11    1    3    3    0    0 -0.11974173077E+01 -0.53087111133E+01  0.31785381817E+01  0.63023271200E+01  0.51100000000E-03 0. -1.
        -11    1    3    3    0    0 -0.40883509969E+01  0.47872148779E+01  0.32793104893E+01  0.70983038613E+01  0.51100000000E-03 0.  1.
        -12    1    3    3    0    0  0.12083312423E+02  0.21817816285E+02  0.27504246553E+02  0.37128252382E+02  0.00000000000E+00 0.  1.
</event>
<event>
 7    1  0.5290964E-013  0.5052886E+02  0.7816164E-02  0.1300439E+00
        -11   -1    0    0    0    0  0.00000000000E+00  0.00000000000E+00  0.45593999997E+02  0.45594000000E+02  0.51100000000E-03 0. -1.
         11   -1    0    0    0    0 -0.00000000000E+00 -0.00000000000E+00 -0.45593999997E+02  0.45594000000E+02  0.51100000000E-03 0.  1.
    9900012    2    1    2    0    0 -0.37241818628E+02 -0.41794442878E+01 -0.15771646026E+02  0.50528860466E+02  0.30000001871E+02 0.  0.
         12    1    1    2    0    0  0.37241818628E+02  0.41794442878E+01  0.15771646026E+02  0.40659139534E+02  0.00000000000E+00 0. -1.
         11    1    3    3    0    0 -0.15536854875E+01 -0.88639855752E+01 -0.83382971032E+01  0.12268307859E+02  0.51100000000E-03 0. -1.
        -11    1    3    3    0    0 -0.11819533149E+02 -0.30968479967E+01 -0.55846732852E+00  0.12231259845E+02  0.51100000000E-03 0.  1.
        -12    1    3    3    0    0 -0.23868599992E+02  0.77813892841E+01 -0.68748815941E+01  0.26029292763E+02  0.00000000000E+00 0.  1.
</event>
<event>
 7    1  0.5290964E-013  0.5052886E+02  0.7816164E-02  0.1300439E+00
        -11   -1    0    0    0    0  0.00000000000E+00  0.00000000000E+00  0.45593999997E+02  0.45594000000E+02  0.51100000000E-03 0.  1.
         11   -1    0    0    0    0 -0.00000000000E+00 -0.00000000000E+00 -0.45593999997E+02  0.45594000000E+02  0.51100000000E-03 0. -1.
    9900012    2    1    2    0    0  0.36438399314E+02 -0.14439496646E+01  0.17981207587E+02  0.50528858820E+02  0.29999996868E+02 0.  0.
         12    1    1    2    0    0 -0.36438399314E+02  0.14439496646E+01 -0.17981207587E+02  0.40659141180E+02  0.00000000000E+00 0. -1.
         11    1    3    3    0    0 -0.25399488868E+01 -0.44537781928E+01 -0.12934492861E+01  0.52877681355E+01  0.51100000000E-03 0. -1.
        -11    1    3    3    0    0  0.66086303077E+01  0.51234403493E+01  0.54376546892E+01  0.99745538414E+01  0.51100000000E-03 0.  1.
        -12    1    3    3    0    0  0.32369717893E+02 -0.21136118211E+01  0.13837002184E+02  0.35266536843E+02  0.00000000000E+00 0.  1.
</event>
