<event>
 7    1  0.4931104E-009  0.4778727E+02  0.7816164E-02  0.1312668E+00
        -11   -1    0    0    0    0  0.00000000000E+00  0.00000000000E+00  0.45593999997E+02  0.45594000000E+02  0.51100000000E-03 0.  1.
         11   -1    0    0    0    0 -0.00000000000E+00 -0.00000000000E+00 -0.45593999997E+02  0.45594000000E+02  0.51100000000E-03 0. -1.
    9900012    2    1    2    0    0 -0.38408614198E+02 -0.67280918031E+01  0.19056093289E+02  0.47787267801E+02  0.19999985213E+02 0.  0.
        -12    1    1    2    0    0  0.38408614198E+02  0.67280918031E+01 -0.19056093289E+02  0.43400732199E+02  0.00000000000E+00 0.  1.
         11    1    3    3    0    0 -0.15769085193E+01 -0.16796325316E+01 -0.10959516061E+01  0.25512577493E+01  0.51100000000E-03 0. -1.
        -11    1    3    3    0    0 -0.74900369962E+01  0.48473564579E+01  0.13882801554E+01  0.90291107472E+01  0.51100000000E-03 0.  1.
         12    1    3    3    0    0 -0.29341668683E+02 -0.98958157295E+01  0.18763764740E+02  0.36206899305E+02  0.00000000000E+00 0. -1.
</event>
<event>
 7    1  0.4931104E-009  0.4778725E+02  0.7816164E-02  0.1312668E+00
        -11   -1    0    0    0    0  0.00000000000E+00  0.00000000000E+00  0.45593999997E+02  0.45594000000E+02  0.51100000000E-03 0.  1.
         11   -1    0    0    0    0 -0.00000000000E+00 -0.00000000000E+00 -0.45593999997E+02  0.45594000000E+02  0.51100000000E-03 0. -1.
    9900012    2    1    2    0    0  0.11043805445E+02  0.41916612970E+02  0.21579298645E+01  0.47787254121E+02  0.19999922837E+02 0.  0.
        -12    1    1    2    0    0 -0.11043805445E+02 -0.41916612970E+02 -0.21579298645E+01  0.43400745879E+02  0.00000000000E+00 0.  1.
         11    1    3    3    0    0 -0.53568800173E+00 -0.39956297653E+00 -0.20965013154E+01  0.22004386458E+01  0.51100000000E-03 0. -1.
        -11    1    3    3    0    0  0.22160685540E+01  0.24666299157E+01 -0.24284548885E+01  0.41100628199E+01  0.51100000000E-03 0.  1.
        -12    1    3    3    0    0  0.93634248928E+01  0.39849546031E+02  0.66828860685E+01  0.41476752655E+02  0.00000000000E+00 0.  1.
</event>
<event>
 7    1  0.4931104E-009  0.4778725E+02  0.7816164E-02  0.1312668E+00
        -11   -1    0    0    0    0  0.00000000000E+00  0.00000000000E+00  0.45593999997E+02  0.45594000000E+02  0.51100000000E-03 0. -1.
         11   -1    0    0    0    0 -0.00000000000E+00 -0.00000000000E+00 -0.45593999997E+02  0.45594000000E+02  0.51100000000E-03 0.  1.
    9900012    2    1    2    0    0 -0.22577119701E+00  0.58514656062E+01  0.43003884991E+02  0.47787254077E+02  0.19999922638E+02 0.  0.
        -12    1    1    2    0    0  0.22577119701E+00 -0.58514656062E+01 -0.43003884991E+02  0.43400745923E+02  0.00000000000E+00 0.  1.
         11    1    3    3    0    0 -0.21947887530E+01  0.43356265332E+00  0.31784898231E+02  0.31863534487E+02  0.51100000000E-03 0. -1.
        -11    1    3    3    0    0  0.22782833821E+01  0.52251120539E+01  0.12953028528E+02  0.14151795626E+02  0.51100000000E-03 0.  1.
         12    1    3    3    0    0 -0.30926582612E+00  0.19279089894E+00 -0.17340417672E+01  0.17719239635E+01  0.00000000000E+00 0. -1.
</event>
<event>
 7    1  0.4931104E-009  0.4778727E+02  0.7816164E-02  0.1312668E+00
        -11   -1    0    0    0    0  0.00000000000E+00  0.00000000000E+00  0.45593999997E+02  0.45594000000E+02  0.51100000000E-03 0.  1.
         11   -1    0    0    0    0 -0.00000000000E+00 -0.00000000000E+00 -0.45593999997E+02  0.45594000000E+02  0.51100000000E-03 0. -1.
    9900012    2    1    2    0    0 -0.23277689351E+02 -0.17888004065E+02 -0.31965476695E+02  0.47787271765E+02  0.20000003286E+02 0.  0.
        -12    1    1    2    0    0  0.23277689351E+02  0.17888004065E+02  0.31965476695E+02  0.43400728235E+02  0.00000000000E+00 0.  1.
         11    1    3    3    0    0 -0.48764147223E+01  0.36424453604E+01 -0.53412729999E+01  0.80979025845E+01  0.51100000000E-03 0. -1.
        -11    1    3    3    0    0 -0.46657191680E+01 -0.55517962310E+01 -0.25283378866E+01  0.76800956683E+01  0.51100000000E-03 0.  1.
         12    1    3    3    0    0 -0.13735555461E+02 -0.15978653194E+02 -0.24095865809E+02  0.32009273512E+02  0.00000000000E+00 0. -1.
</event>
<event>
 7    1  0.4931104E-009  0.4778727E+02  0.7816164E-02  0.1312668E+00
        -11   -1    0    0    0    0  0.00000000000E+00  0.00000000000E+00  0.45593999997E+02  0.45594000000E+02  0.51100000000E-03 0. -1.
         11   -1    0    0    0    0 -0.00000000000E+00 -0.00000000000E+00 -0.45593999997E+02  0.45594000000E+02  0.51100000000E-03 0.  1.
    9900012    2    1    2    0    0  0.24981500563E+01  0.40901848964E+02  0.14297596216E+02  0.47787271205E+02  0.20000000730E+02 0.  0.
        -12    1    1    2    0    0 -0.24981500563E+01 -0.40901848964E+02 -0.14297596216E+02  0.43400728795E+02  0.00000000000E+00 0.  1.
         11    1    3    3    0    0 -0.40260955049E+01  0.11428571054E+02  0.73279209536E+01  0.14160512248E+02  0.51100000000E-03 0. -1.
        -11    1    3    3    0    0 -0.12317063072E+01 -0.30507110229E+00 -0.12446268388E+01  0.17774321460E+01  0.51100000000E-03 0.  1.
         12    1    3    3    0    0  0.77559518684E+01  0.29778349013E+02  0.82143021011E+01  0.31849326811E+02  0.00000000000E+00 0. -1.
</event>
<event>
 7    1  0.4931104E-009  0.4778727E+02  0.7816164E-02  0.1312668E+00
        -11   -1    0    0    0    0  0.00000000000E+00  0.00000000000E+00  0.45593999997E+02  0.45594000000E+02  0.51100000000E-03 0. -1.
         11   -1    0    0    0    0 -0.00000000000E+00 -0.00000000000E+00 -0.45593999997E+02  0.45594000000E+02  0.51100000000E-03 0.  1.
    9900012    2    1    2    0    0 -0.25449461285E+02  0.35149187179E+02  0.69473393400E+00  0.47787273113E+02  0.20000009434E+02 0.  0.
        -12    1    1    2    0    0  0.25449461285E+02 -0.35149187179E+02 -0.69473393400E+00  0.43400726887E+02  0.00000000000E+00 0.  1.
         11    1    3    3    0    0 -0.86682300840E+00  0.83990438380E+00  0.31466229961E+00  0.12473308004E+01  0.51100000000E-03 0. -1.
        -11    1    3    3    0    0 -0.52564423870E+01 -0.96906846196E+00  0.31765349756E+01  0.62176888765E+01  0.51100000000E-03 0.  1.
         12    1    3    3    0    0 -0.19326195890E+02  0.35278351257E+02 -0.27964633412E+01  0.40322253437E+02  0.00000000000E+00 0. -1.
</event>
<event>
 7    1  0.4931104E-009  0.4778727E+02  0.7816164E-02  0.1312668E+00
        -11   -1    0    0    0    0  0.00000000000E+00  0.00000000000E+00  0.45593999997E+02  0.45594000000E+02  0.51100000000E-03 0. -1.
         11   -1    0    0    0    0 -0.00000000000E+00 -0.00000000000E+00 -0.45593999997E+02  0.45594000000E+02  0.51100000000E-03 0.  1.
    9900012    2    1    2    0    0 -0.12551958823E+02 -0.35315847316E+02  0.21882927223E+02  0.47787271368E+02  0.20000001476E+02 0.  0.
        -12    1    1    2    0    0  0.12551958823E+02  0.35315847316E+02 -0.21882927223E+02  0.43400728632E+02  0.00000000000E+00 0.  1.
         11    1    3    3    0    0 -0.14383528523E+01 -0.10172780358E+02 -0.15195815343E+01  0.10385732880E+02  0.51100000000E-03 0. -1.
        -11    1    3    3    0    0 -0.66243015792E+01 -0.21043211988E+02  0.13754633241E+02  0.25997847565E+02  0.51100000000E-03 0.  1.
        -12    1    3    3    0    0 -0.44893043915E+01 -0.40998549693E+01  0.96478755165E+01  0.11403690923E+02  0.00000000000E+00 0.  1.
</event>
<event>
 7    1  0.4931104E-009  0.4778727E+02  0.7816164E-02  0.1312668E+00
        -11   -1    0    0    0    0  0.00000000000E+00  0.00000000000E+00  0.45593999997E+02  0.45594000000E+02  0.51100000000E-03 0.  1.
         11   -1    0    0    0    0 -0.00000000000E+00 -0.00000000000E+00 -0.45593999997E+02  0.45594000000E+02  0.51100000000E-03 0. -1.
    9900012    2    1    2    0    0 -0.11577140338E+02 -0.41400081437E+02 -0.59687903191E+01  0.47787269830E+02  0.19999994462E+02 0.  0.
        -12    1    1    2    0    0  0.11577140338E+02  0.41400081437E+02  0.59687903191E+01  0.43400730170E+02  0.00000000000E+00 0.  1.
         11    1    3    3    0    0 -0.11632238915E+02 -0.34227142655E+02 -0.74231578583E+01  0.36904058711E+02  0.51100000000E-03 0. -1.
        -11    1    3    3    0    0  0.13264606554E+01 -0.43183242944E+01 -0.30139513535E+01  0.54305916441E+01  0.51100000000E-03 0.  1.
        -12    1    3    3    0    0 -0.12713620779E+01 -0.28546144880E+01  0.44683188927E+01  0.54526194746E+01  0.00000000000E+00 0.  1.
</event>
<event>
 7    1  0.4931104E-009  0.4778726E+02  0.7816164E-02  0.1312668E+00
        -11   -1    0    0    0    0  0.00000000000E+00  0.00000000000E+00  0.45593999997E+02  0.45594000000E+02  0.51100000000E-03 0.  1.
         11   -1    0    0    0    0 -0.00000000000E+00 -0.00000000000E+00 -0.45593999997E+02  0.45594000000E+02  0.51100000000E-03 0. -1.
    9900012    2    1    2    0    0 -0.28998246846E+02 -0.16168311751E+02 -0.27951944165E+02  0.47787264896E+02  0.19999971967E+02 0.  0.
        -12    1    1    2    0    0  0.28998246846E+02  0.16168311751E+02  0.27951944165E+02  0.43400735104E+02  0.00000000000E+00 0.  1.
         11    1    3    3    0    0 -0.16381828788E+02 -0.11172477836E+02 -0.14901105798E+02  0.24803861186E+02  0.51100000000E-03 0. -1.
        -11    1    3    3    0    0 -0.65569586869E+01 -0.44158633840E+01  0.70923798924E+00  0.79370382029E+01  0.51100000000E-03 0.  1.
         12    1    3    3    0    0 -0.60594593705E+01 -0.57997053051E+00 -0.13760076355E+02  0.15046365507E+02  0.00000000000E+00 0. -1.
</event>
<event>
 7    1  0.4931104E-009  0.4778727E+02  0.7816164E-02  0.1312668E+00
        -11   -1    0    0    0    0  0.00000000000E+00  0.00000000000E+00  0.45593999997E+02  0.45594000000E+02  0.51100000000E-03 0.  1.
         11   -1    0    0    0    0 -0.00000000000E+00 -0.00000000000E+00 -0.45593999997E+02  0.45594000000E+02  0.51100000000E-03 0. -1.
    9900012    2    1    2    0    0  0.15156124377E+02  0.44323390264E+01 -0.40426098761E+02  0.47787271937E+02  0.20000004071E+02 0.  0.
        -12    1    1    2    0    0 -0.15156124377E+02 -0.44323390264E+01  0.40426098761E+02  0.43400728063E+02  0.00000000000E+00 0.  1.
         11    1    3    3    0    0  0.41570096607E+01 -0.34692113095E+01 -0.27551551463E+01  0.60751161775E+01  0.51100000000E-03 0. -1.
        -11    1    3    3    0    0  0.75352065332E+01  0.53123943334E+01 -0.96005269030E+01  0.13310559272E+02  0.51100000000E-03 0.  1.
         12    1    3    3    0    0  0.34639081827E+01  0.25891560025E+01 -0.28070416712E+02  0.28401596488E+02  0.00000000000E+00 0. -1.
</event>
<event>
 7    1  0.4931104E-009  0.4778727E+02  0.7816164E-02  0.1312668E+00
        -11   -1    0    0    0    0  0.00000000000E+00  0.00000000000E+00  0.45593999997E+02  0.45594000000E+02  0.51100000000E-03 0. -1.
         11   -1    0    0    0    0 -0.00000000000E+00 -0.00000000000E+00 -0.45593999997E+02  0.45594000000E+02  0.51100000000E-03 0.  1.
    9900012    2    1    2    0    0  0.77852881129E+01  0.13220720893E+02  0.40598338289E+02  0.47787271391E+02  0.20000001582E+02 0.  0.
        -12    1    1    2    0    0 -0.77852881129E+01 -0.13220720893E+02 -0.40598338289E+02  0.43400728609E+02  0.00000000000E+00 0.  1.
         11    1    3    3    0    0 -0.28737268960E+01  0.71541072108E+01  0.15817789455E+02  0.17596647970E+02  0.51100000000E-03 0. -1.
        -11    1    3    3    0    0 -0.16864839858E+01  0.25552989506E+01  0.10961677586E+01  0.32519786250E+01  0.51100000000E-03 0.  1.
        -12    1    3    3    0    0  0.12345498995E+02  0.35113147314E+01  0.23684381075E+02  0.26938644797E+02  0.00000000000E+00 0.  1.
</event>
<event>
 7    1  0.4931104E-009  0.4778727E+02  0.7816164E-02  0.1312668E+00
        -11   -1    0    0    0    0  0.00000000000E+00  0.00000000000E+00  0.45593999997E+02  0.45594000000E+02  0.51100000000E-03 0.  1.
         11   -1    0    0    0    0 -0.00000000000E+00 -0.00000000000E+00 -0.45593999997E+02  0.45594000000E+02  0.51100000000E-03 0. -1.
    9900012    2    1    2    0    0 -0.30296083680E+01 -0.18880103263E+02 -0.38961346471E+02  0.47787270226E+02  0.19999996267E+02 0.  0.
        -12    1    1    2    0    0  0.30296083680E+01  0.18880103263E+02  0.38961346471E+02  0.43400729774E+02  0.00000000000E+00 0.  1.
         11    1    3    3    0    0 -0.14483564969E+01 -0.66196055148E+01 -0.79138552946E+01  0.10418542105E+02  0.51100000000E-03 0. -1.
        -11    1    3    3    0    0  0.42800795704E+01 -0.48898387772E+00 -0.79344579611E+00  0.43803815877E+01  0.51100000000E-03 0.  1.
        -12    1    3    3    0    0 -0.58613314415E+01 -0.11771513870E+02 -0.30254045381E+02  0.32988346533E+02  0.00000000000E+00 0.  1.
</event>
<event>
 7    1  0.4931104E-009  0.4778727E+02  0.7816164E-02  0.1312668E+00
        -11   -1    0    0    0    0  0.00000000000E+00  0.00000000000E+00  0.45593999997E+02  0.45594000000E+02  0.51100000000E-03 0.  1.
         11   -1    0    0    0    0 -0.00000000000E+00 -0.00000000000E+00 -0.45593999997E+02  0.45594000000E+02  0.51100000000E-03 0. -1.
    9900012    2    1    2    0    0 -0.11000279903E+02  0.36319422193E+02 -0.21059837146E+02  0.47787270433E+02  0.19999997212E+02 0.  0.
        -12    1    1    2    0    0  0.11000279903E+02 -0.36319422193E+02  0.21059837146E+02  0.43400729567E+02  0.00000000000E+00 0.  1.
         11    1    3    3    0    0 -0.58248851109E+01  0.18013810106E+02 -0.57303162254E+01  0.19780373237E+02  0.51100000000E-03 0. -1.
        -11    1    3    3    0    0 -0.44561555902E+01  0.26003897620E+01  0.10910773173E+01  0.52734997423E+01  0.51100000000E-03 0.  1.
         12    1    3    3    0    0 -0.71923920181E+00  0.15705222324E+02 -0.16420598238E+02  0.22733397453E+02  0.00000000000E+00 0. -1.
</event>
<event>
 7    1  0.4931104E-009  0.4778727E+02  0.7816164E-02  0.1312668E+00
        -11   -1    0    0    0    0  0.00000000000E+00  0.00000000000E+00  0.45593999997E+02  0.45594000000E+02  0.51100000000E-03 0.  1.
         11   -1    0    0    0    0 -0.00000000000E+00 -0.00000000000E+00 -0.45593999997E+02  0.45594000000E+02  0.51100000000E-03 0. -1.
    9900012    2    1    2    0    0  0.17723499162E+02  0.14267265679E+02 -0.36958707401E+02  0.47787270222E+02  0.19999996250E+02 0.  0.
        -12    1    1    2    0    0 -0.17723499162E+02 -0.14267265679E+02  0.36958707401E+02  0.43400729778E+02  0.00000000000E+00 0.  1.
         11    1    3    3    0    0 -0.13678782741E+01  0.10103744827E+01 -0.24421055520E+01  0.29758742171E+01  0.51100000000E-03 0. -1.
        -11    1    3    3    0    0  0.11594513002E+02  0.15497471725E+02 -0.17546899980E+02  0.26124663841E+02  0.51100000000E-03 0.  1.
         12    1    3    3    0    0  0.74968644340E+01 -0.22405805286E+01 -0.16969701869E+02  0.18686732164E+02  0.00000000000E+00 0. -1.
</event>
<event>
 7    1  0.4931104E-009  0.4778727E+02  0.7816164E-02  0.1312668E+00
        -11   -1    0    0    0    0  0.00000000000E+00  0.00000000000E+00  0.45593999997E+02  0.45594000000E+02  0.51100000000E-03 0. -1.
         11   -1    0    0    0    0 -0.00000000000E+00 -0.00000000000E+00 -0.45593999997E+02  0.45594000000E+02  0.51100000000E-03 0.  1.
    9900012    2    1    2    0    0 -0.15167672269E+02 -0.72235981169E+01  0.40017304688E+02  0.47787270441E+02  0.19999997249E+02 0.  0.
        -12    1    1    2    0    0  0.15167672269E+02  0.72235981169E+01 -0.40017304688E+02  0.43400729559E+02  0.00000000000E+00 0.  1.
         11    1    3    3    0    0 -0.91535913340E+01  0.71333856237E+00  0.10347064782E+02  0.13833251103E+02  0.51100000000E-03 0. -1.
        -11    1    3    3    0    0 -0.62385363630E+01  0.31544836761E+00  0.51964785901E+01  0.81254066744E+01  0.51100000000E-03 0.  1.
         12    1    3    3    0    0  0.22445542846E+00 -0.82523850469E+01  0.24473761316E+02  0.25828612664E+02  0.00000000000E+00 0. -1.
</event>
<event>
 7    1  0.4931104E-009  0.4778726E+02  0.7816164E-02  0.1312668E+00
        -11   -1    0    0    0    0  0.00000000000E+00  0.00000000000E+00  0.45593999997E+02  0.45594000000E+02  0.51100000000E-03 0. -1.
         11   -1    0    0    0    0 -0.00000000000E+00 -0.00000000000E+00 -0.45593999997E+02  0.45594000000E+02  0.51100000000E-03 0.  1.
    9900012    2    1    2    0    0  0.25866554096E+02  0.14950069667E+02  0.31480807122E+02  0.47787257830E+02  0.19999939752E+02 0.  0.
        -12    1    1    2    0    0 -0.25866554096E+02 -0.14950069667E+02 -0.31480807122E+02  0.43400742170E+02  0.00000000000E+00 0.  1.
         11    1    3    3    0    0  0.56674434051E+01  0.59082847045E+01  0.15838000416E+02  0.17828909118E+02  0.51100000000E-03 0. -1.
        -11    1    3    3    0    0 -0.13694710115E+01  0.11673546762E+01  0.36140999439E+01  0.40373117860E+01  0.51100000000E-03 0.  1.
        -12    1    3    3    0    0  0.21568581702E+02  0.78744302862E+01  0.12028706762E+02  0.25921036926E+02  0.00000000000E+00 0.  1.
</event>
<event>
 7    1  0.4931104E-009  0.4778727E+02  0.7816164E-02  0.1312668E+00
        -11   -1    0    0    0    0  0.00000000000E+00  0.00000000000E+00  0.45593999997E+02  0.45594000000E+02  0.51100000000E-03 0. -1.
         11   -1    0    0    0    0 -0.00000000000E+00 -0.00000000000E+00 -0.45593999997E+02  0.45594000000E+02  0.51100000000E-03 0.  1.
    9900012    2    1    2    0    0 -0.16530567491E+02  0.39958868170E+02 -0.36949166238E+01  0.47787271713E+02  0.20000003048E+02 0.  0.
        -12    1    1    2    0    0  0.16530567491E+02 -0.39958868170E+02  0.36949166238E+01  0.43400728287E+02  0.00000000000E+00 0.  1.
         11    1    3    3    0    0 -0.85343914395E+01  0.11306175854E+02  0.66419967883E+00  0.14181206266E+02  0.51100000000E-03 0. -1.
        -11    1    3    3    0    0 -0.11796988562E+02  0.23427036345E+02 -0.60676035582E+01  0.26922310158E+02  0.51100000000E-03 0.  1.
        -12    1    3    3    0    0  0.38008125099E+01  0.52256559701E+01  0.17084872556E+01  0.66837552885E+01  0.00000000000E+00 0.  1.
</event>
<event>
 7    1  0.4931104E-009  0.4778729E+02  0.7816164E-02  0.1312668E+00
        -11   -1    0    0    0    0  0.00000000000E+00  0.00000000000E+00  0.45593999997E+02  0.45594000000E+02  0.51100000000E-03 0.  1.
         11   -1    0    0    0    0 -0.00000000000E+00 -0.00000000000E+00 -0.45593999997E+02  0.45594000000E+02  0.51100000000E-03 0. -1.
    9900012    2    1    2    0    0 -0.21154169607E+02  0.37300274879E+02  0.66942207298E+01  0.47787285847E+02  0.20000067491E+02 0.  0.
        -12    1    1    2    0    0  0.21154169607E+02 -0.37300274879E+02 -0.66942207298E+01  0.43400714153E+02  0.00000000000E+00 0.  1.
         11    1    3    3    0    0 -0.29247962815E+00  0.13548219663E+02 -0.36055571878E+01  0.14022832926E+02  0.51100000000E-03 0. -1.
        -11    1    3    3    0    0 -0.75228884831E+01  0.10402612730E+02  0.14448798856E+01  0.12918818865E+02  0.51100000000E-03 0.  1.
        -12    1    3    3    0    0 -0.13338801495E+02  0.13349442487E+02  0.88548980321E+01  0.20845634056E+02  0.00000000000E+00 0.  1.
</event>
<event>
 7    1  0.4931104E-009  0.4778728E+02  0.7816164E-02  0.1312668E+00
        -11   -1    0    0    0    0  0.00000000000E+00  0.00000000000E+00  0.45593999997E+02  0.45594000000E+02  0.51100000000E-03 0.  1.
         11   -1    0    0    0    0 -0.00000000000E+00 -0.00000000000E+00 -0.45593999997E+02  0.45594000000E+02  0.51100000000E-03 0. -1.
    9900012    2    1    2    0    0 -0.17497584433E+02  0.29250861549E+02 -0.26867163741E+02  0.47787275929E+02  0.20000022272E+02 0.  0.
        -12    1    1    2    0    0  0.17497584433E+02 -0.29250861549E+02  0.26867163741E+02  0.43400724071E+02  0.00000000000E+00 0.  1.
         11    1    3    3    0    0 -0.28174682243E+01 -0.15056589708E+01 -0.21514541034E+01  0.38514790862E+01  0.51100000000E-03 0. -1.
        -11    1    3    3    0    0  0.95792555653E+00  0.26270923927E+01  0.75029752215E+00  0.28951998972E+01  0.51100000000E-03 0.  1.
        -12    1    3    3    0    0 -0.15638041765E+02  0.28129428127E+02 -0.25466007160E+02  0.41040596946E+02  0.00000000000E+00 0.  1.
</event>
<event>
 7    1  0.4931104E-009  0.4778726E+02  0.7816164E-02  0.1312668E+00
        -11   -1    0    0    0    0  0.00000000000E+00  0.00000000000E+00  0.45593999997E+02  0.45594000000E+02  0.51100000000E-03 0. -1.
         11   -1    0    0    0    0 -0.00000000000E+00 -0.00000000000E+00 -0.45593999997E+02  0.45594000000E+02  0.51100000000E-03 0.  1.
    9900012    2    1    2    0    0 -0.21176761536E+01 -0.39132955474E+02  0.18648090913E+02  0.47787262090E+02  0.19999959173E+02 0.  0.
        -12    1    1    2    0    0  0.21176761536E+01  0.39132955474E+02 -0.18648090913E+02  0.43400737910E+02  0.00000000000E+00 0.  1.
         11    1    3    3    0    0 -0.10188728891E+00 -0.22762482750E-01 -0.91511494777E+00  0.92105091011E+00  0.51100000000E-03 0.  1.
        -11    1    3    3    0    0  0.45954374319E+01 -0.30262039273E+02  0.18510775541E+02  0.35770908257E+02  0.51100000000E-03 0. -1.
        -12    1    3    3    0    0 -0.66112262965E+01 -0.88481537181E+01  0.10524303196E+01  0.11095302922E+02  0.00000000000E+00 0.  1.
</event>
<event>
 7    1  0.4931104E-009  0.4778727E+02  0.7816164E-02  0.1312668E+00
        -11   -1    0    0    0    0  0.00000000000E+00  0.00000000000E+00  0.45593999997E+02  0.45594000000E+02  0.51100000000E-03 0.  1.
         11   -1    0    0    0    0 -0.00000000000E+00 -0.00000000000E+00 -0.45593999997E+02  0.45594000000E+02  0.51100000000E-03 0. -1.
    9900012    2    1    2    0    0  0.64926571736E+01 -0.35180211806E+02 -0.24572774895E+02  0.47787272288E+02  0.20000005671E+02 0.  0.
        -12    1    1    2    0    0 -0.64926571736E+01  0.35180211806E+02  0.24572774895E+02  0.43400727712E+02  0.00000000000E+00 0.  1.
         11    1    3    3    0    0  0.32559576289E+01 -0.96383810459E+01 -0.12702501400E+02  0.16274310780E+02  0.51100000000E-03 0. -1.
        -11    1    3    3    0    0  0.93751959846E+00  0.11958705172E+01  0.92855965841E+00  0.17808067250E+01  0.51100000000E-03 0.  1.
         12    1    3    3    0    0  0.22991799462E+01 -0.26737701277E+02 -0.12798833153E+02  0.29732154784E+02  0.00000000000E+00 0. -1.
</event>
<event>
 7    1  0.4931104E-009  0.4778727E+02  0.7816164E-02  0.1312668E+00
        -11   -1    0    0    0    0  0.00000000000E+00  0.00000000000E+00  0.45593999997E+02  0.45594000000E+02  0.51100000000E-03 0. -1.
         11   -1    0    0    0    0 -0.00000000000E+00 -0.00000000000E+00 -0.45593999997E+02  0.45594000000E+02  0.51100000000E-03 0.  1.
    9900012    2    1    2    0    0  0.12291193836E+01  0.41514828785E+02  0.12594902943E+02  0.47787270471E+02  0.19999997388E+02 0.  0.
        -12    1    1    2    0    0 -0.12291193836E+01 -0.41514828785E+02 -0.12594902943E+02  0.43400729529E+02  0.00000000000E+00 0.  1.
         11    1    3    3    0    0 -0.17201421151E+01  0.20142365265E+02  0.63353237994E+01  0.21185138547E+02  0.51100000000E-03 0. -1.
        -11    1    3    3    0    0  0.64175537940E+01  0.21033398714E+02  0.69231445105E+01  0.23054691243E+02  0.51100000000E-03 0.  1.
         12    1    3    3    0    0 -0.34682922953E+01  0.33906480605E+00 -0.66356536734E+00  0.35474406810E+01  0.00000000000E+00 0. -1.
</event>
<event>
 7    1  0.4931104E-009  0.4778727E+02  0.7816164E-02  0.1312668E+00
        -11   -1    0    0    0    0  0.00000000000E+00  0.00000000000E+00  0.45593999997E+02  0.45594000000E+02  0.51100000000E-03 0.  1.
         11   -1    0    0    0    0 -0.00000000000E+00 -0.00000000000E+00 -0.45593999997E+02  0.45594000000E+02  0.51100000000E-03 0. -1.
    9900012    2    1    2    0    0  0.13363411529E+02  0.49688891971E+01 -0.40992103323E+02  0.47787272329E+02  0.20000005857E+02 0.  0.
        -12    1    1    2    0    0 -0.13363411529E+02 -0.49688891971E+01  0.40992103323E+02  0.43400727671E+02  0.00000000000E+00 0.  1.
         11    1    3    3    0    0  0.83569866436E-01 -0.11979589061E+01 -0.48325223010E+00  0.12944583586E+01  0.51100000000E-03 0. -1.
        -11    1    3    3    0    0  0.12582534604E+02  0.10477898364E+02 -0.21704849201E+02  0.27188361670E+02  0.51100000000E-03 0.  1.
        -12    1    3    3    0    0  0.69730705827E+00 -0.43110502607E+01 -0.18804001892E+02  0.19304452301E+02  0.00000000000E+00 0.  1.
</event>
<event>
 7    1  0.4931104E-009  0.4778727E+02  0.7816164E-02  0.1312668E+00
        -11   -1    0    0    0    0  0.00000000000E+00  0.00000000000E+00  0.45593999997E+02  0.45594000000E+02  0.51100000000E-03 0. -1.
         11   -1    0    0    0    0 -0.00000000000E+00 -0.00000000000E+00 -0.45593999997E+02  0.45594000000E+02  0.51100000000E-03 0.  1.
    9900012    2    1    2    0    0 -0.78070136258E+01 -0.42263115305E+02  0.60417641922E+01  0.47787270840E+02  0.19999999068E+02 0.  0.
        -12    1    1    2    0    0  0.78070136258E+01  0.42263115305E+02 -0.60417641922E+01  0.43400729160E+02  0.00000000000E+00 0.  1.
         11    1    3    3    0    0  0.22135167795E+01 -0.19017615611E+02  0.54637446498E+01  0.19910345700E+02  0.51100000000E-03 0. -1.
        -11    1    3    3    0    0  0.96964507701E+00 -0.10368663973E+02  0.28478105246E+01  0.10796269226E+02  0.51100000000E-03 0.  1.
        -12    1    3    3    0    0 -0.10990175482E+02 -0.12876835722E+02 -0.22697909822E+01  0.17080655913E+02  0.00000000000E+00 0.  1.
</event>
<event>
 7    1  0.4931104E-009  0.4778727E+02  0.7816164E-02  0.1312668E+00
        -11   -1    0    0    0    0  0.00000000000E+00  0.00000000000E+00  0.45593999997E+02  0.45594000000E+02  0.51100000000E-03 0. -1.
         11   -1    0    0    0    0 -0.00000000000E+00 -0.00000000000E+00 -0.45593999997E+02  0.45594000000E+02  0.51100000000E-03 0.  1.
    9900012    2    1    2    0    0 -0.25310551562E+02  0.28280143920E+02 -0.21053090804E+02  0.47787271978E+02  0.20000004255E+02 0.  0.
        -12    1    1    2    0    0  0.25310551562E+02 -0.28280143920E+02  0.21053090804E+02  0.43400728022E+02  0.00000000000E+00 0.  1.
         11    1    3    3    0    0 -0.63731231067E+01  0.13955599583E+00 -0.14879524181E+01  0.65460046340E+01  0.51100000000E-03 0. -1.
        -11    1    3    3    0    0 -0.11126063635E+02  0.57280112928E+01 -0.56734486471E+01  0.13739993639E+02  0.51100000000E-03 0.  1.
        -12    1    3    3    0    0 -0.78113648199E+01  0.22412576631E+02 -0.13891689739E+02  0.27501273705E+02  0.00000000000E+00 0.  1.
</event>
<event>
 7    1  0.4931104E-009  0.4778728E+02  0.7816164E-02  0.1312668E+00
        -11   -1    0    0    0    0  0.00000000000E+00  0.00000000000E+00  0.45593999997E+02  0.45594000000E+02  0.51100000000E-03 0.  1.
         11   -1    0    0    0    0 -0.00000000000E+00 -0.00000000000E+00 -0.45593999997E+02  0.45594000000E+02  0.51100000000E-03 0. -1.
    9900012    2    1    2    0    0  0.11602802954E+02 -0.32674342028E+02 -0.26103354981E+02  0.47787276450E+02  0.20000024647E+02 0.  0.
        -12    1    1    2    0    0 -0.11602802954E+02  0.32674342028E+02  0.26103354981E+02  0.43400723550E+02  0.00000000000E+00 0.  1.
         11    1    3    3    0    0  0.31711493694E+01  0.12544744095E+01 -0.36295692215E+01  0.49803280376E+01  0.51100000000E-03 0. -1.
        -11    1    3    3    0    0 -0.11095226775E+01 -0.68324221290E+00  0.37236703600E+00  0.13551818933E+01  0.51100000000E-03 0.  1.
         12    1    3    3    0    0  0.95411762623E+01 -0.33245574225E+02 -0.22846152796E+02  0.41451766519E+02  0.00000000000E+00 0. -1.
</event>
<event>
 7    1  0.4931104E-009  0.4778728E+02  0.7816164E-02  0.1312668E+00
        -11   -1    0    0    0    0  0.00000000000E+00  0.00000000000E+00  0.45593999997E+02  0.45594000000E+02  0.51100000000E-03 0.  1.
         11   -1    0    0    0    0 -0.00000000000E+00 -0.00000000000E+00 -0.45593999997E+02  0.45594000000E+02  0.51100000000E-03 0. -1.
    9900012    2    1    2    0    0 -0.34782452155E+02  0.18012940098E+02 -0.18690565000E+02  0.47787283314E+02  0.20000055941E+02 0.  0.
        -12    1    1    2    0    0  0.34782452155E+02 -0.18012940098E+02  0.18690565000E+02  0.43400716686E+02  0.00000000000E+00 0.  1.
         11    1    3    3    0    0 -0.13550245825E+02  0.15855526664E+02 -0.57124564259E+01  0.21624963500E+02  0.51100000000E-03 0. -1.
        -11    1    3    3    0    0 -0.27962488316E+01 -0.24330426155E+01 -0.24235620261E+01  0.44285840911E+01  0.51100000000E-03 0.  1.
        -12    1    3    3    0    0 -0.18435957498E+02  0.45904560492E+01 -0.10554546548E+02  0.21733735722E+02  0.00000000000E+00 0.  1.
</event>
<event>
 7    1  0.4931104E-009  0.4778727E+02  0.7816164E-02  0.1312668E+00
        -11   -1    0    0    0    0  0.00000000000E+00  0.00000000000E+00  0.45593999997E+02  0.45594000000E+02  0.51100000000E-03 0. -1.
         11   -1    0    0    0    0 -0.00000000000E+00 -0.00000000000E+00 -0.45593999997E+02  0.45594000000E+02  0.51100000000E-03 0.  1.
    9900012    2    1    2    0    0  0.18792362851E+02 -0.36813249722E+02  0.13238384696E+02  0.47787273210E+02  0.20000009871E+02 0.  0.
        -12    1    1    2    0    0 -0.18792362851E+02  0.36813249722E+02 -0.13238384696E+02  0.43400726790E+02  0.00000000000E+00 0.  1.
         11    1    3    3    0    0  0.64676059641E+01 -0.44810450013E+01 -0.29567499333E+00  0.78738246852E+01  0.51100000000E-03 0. -1.
        -11    1    3    3    0    0  0.14055142524E+01 -0.11700985430E+02 -0.18894066080E+01  0.11935593322E+02  0.51100000000E-03 0.  1.
         12    1    3    3    0    0  0.10919242634E+02 -0.20631219290E+02  0.15423466298E+02  0.27977855202E+02  0.00000000000E+00 0. -1.
</event>
<event>
 7    1  0.4931104E-009  0.4778727E+02  0.7816164E-02  0.1312668E+00
        -11   -1    0    0    0    0  0.00000000000E+00  0.00000000000E+00  0.45593999997E+02  0.45594000000E+02  0.51100000000E-03 0.  1.
         11   -1    0    0    0    0 -0.00000000000E+00 -0.00000000000E+00 -0.45593999997E+02  0.45594000000E+02  0.51100000000E-03 0. -1.
    9900012    2    1    2    0    0 -0.86026888113E+01 -0.19718590459E+00 -0.42539142204E+02  0.47787265484E+02  0.19999974649E+02 0.  0.
        -12    1    1    2    0    0  0.86026888113E+01  0.19718590459E+00  0.42539142204E+02  0.43400734516E+02  0.00000000000E+00 0.  1.
         11    1    3    3    0    0 -0.10929754667E+02 -0.53322240733E+01 -0.30222902967E+02  0.32577845458E+02  0.51100000000E-03 0. -1.
        -11    1    3    3    0    0  0.15389497173E+01 -0.13623626584E+01 -0.14185326099E+01  0.24973252234E+01  0.51100000000E-03 0.  1.
         12    1    3    3    0    0  0.78811613896E+00  0.64974008271E+01 -0.10897706627E+02  0.12712094803E+02  0.00000000000E+00 0. -1.
</event>
<event>
 7    1  0.4931104E-009  0.4778727E+02  0.7816164E-02  0.1312668E+00
        -11   -1    0    0    0    0  0.00000000000E+00  0.00000000000E+00  0.45593999997E+02  0.45594000000E+02  0.51100000000E-03 0. -1.
         11   -1    0    0    0    0 -0.00000000000E+00 -0.00000000000E+00 -0.45593999997E+02  0.45594000000E+02  0.51100000000E-03 0.  1.
    9900012    2    1    2    0    0 -0.23474875001E+02 -0.30689841424E+02  0.19765809354E+02  0.47787270256E+02  0.19999996405E+02 0.  0.
        -12    1    1    2    0    0  0.23474875001E+02  0.30689841424E+02 -0.19765809354E+02  0.43400729744E+02  0.00000000000E+00 0.  1.
         11    1    3    3    0    0 -0.13472226793E+02 -0.26731509842E+02  0.90047388524E+01  0.31259555903E+02  0.51100000000E-03 0. -1.
        -11    1    3    3    0    0 -0.20218545537E+00 -0.17986281323E+01  0.41025673972E+01  0.44840831423E+01  0.51100000000E-03 0.  1.
         12    1    3    3    0    0 -0.98004627520E+01 -0.21597034492E+01  0.66585031044E+01  0.12043631210E+02  0.00000000000E+00 0. -1.
</event>
<event>
 7    1  0.4931104E-009  0.4778727E+02  0.7816164E-02  0.1312668E+00
        -11   -1    0    0    0    0  0.00000000000E+00  0.00000000000E+00  0.45593999997E+02  0.45594000000E+02  0.51100000000E-03 0.  1.
         11   -1    0    0    0    0 -0.00000000000E+00 -0.00000000000E+00 -0.45593999997E+02  0.45594000000E+02  0.51100000000E-03 0. -1.
    9900012    2    1    2    0    0 -0.40098989995E+01  0.40068850421E+02 -0.16187381652E+02  0.47787269721E+02  0.19999993965E+02 0.  0.
        -12    1    1    2    0    0  0.40098989995E+01 -0.40068850421E+02  0.16187381652E+02  0.43400730279E+02  0.00000000000E+00 0.  1.
         11    1    3    3    0    0 -0.63741489315E+01  0.32531472790E+02 -0.17945230660E+02  0.37695593909E+02  0.51100000000E-03 0. -1.
        -11    1    3    3    0    0  0.99265428847E+00  0.35700043819E+01  0.38994016759E+01  0.53791846515E+01  0.51100000000E-03 0.  1.
         12    1    3    3    0    0  0.13715956435E+01  0.39673732488E+01 -0.21415526678E+01  0.47124911601E+01  0.00000000000E+00 0. -1.
</event>
<event>
 7    1  0.4931104E-009  0.4778728E+02  0.7816164E-02  0.1312668E+00
        -11   -1    0    0    0    0  0.00000000000E+00  0.00000000000E+00  0.45593999997E+02  0.45594000000E+02  0.51100000000E-03 0.  1.
         11   -1    0    0    0    0 -0.00000000000E+00 -0.00000000000E+00 -0.45593999997E+02  0.45594000000E+02  0.51100000000E-03 0. -1.
    9900012    2    1    2    0    0  0.14583488422E+02 -0.22024116568E+02 -0.34436649068E+02  0.47787278298E+02  0.20000033072E+02 0.  0.
        -12    1    1    2    0    0 -0.14583488422E+02  0.22024116568E+02  0.34436649068E+02  0.43400721702E+02  0.00000000000E+00 0.  1.
         11    1    3    3    0    0  0.94902554242E+01 -0.33517552684E+01 -0.15413783006E+02  0.18408800021E+02  0.51100000000E-03 0.  1.
        -11    1    3    3    0    0  0.84312580647E+01 -0.11528960871E+02 -0.10233138045E+02  0.17570434424E+02  0.51100000000E-03 0. -1.
        -12    1    3    3    0    0 -0.33380250664E+01 -0.71434004287E+01 -0.87897280178E+01  0.11808043854E+02  0.00000000000E+00 0.  1.
</event>
<event>
 7    1  0.4931104E-009  0.4778726E+02  0.7816164E-02  0.1312668E+00
        -11   -1    0    0    0    0  0.00000000000E+00  0.00000000000E+00  0.45593999997E+02  0.45594000000E+02  0.51100000000E-03 0. -1.
         11   -1    0    0    0    0 -0.00000000000E+00 -0.00000000000E+00 -0.45593999997E+02  0.45594000000E+02  0.51100000000E-03 0.  1.
    9900012    2    1    2    0    0 -0.12990723943E+02 -0.25945980365E+02  0.32274936529E+02  0.47787258836E+02  0.19999944336E+02 0.  0.
        -12    1    1    2    0    0  0.12990723943E+02  0.25945980365E+02 -0.32274936529E+02  0.43400741164E+02  0.00000000000E+00 0.  1.
         11    1    3    3    0    0  0.16567668479E+01 -0.72839422313E+00  0.11699744929E+02  0.11838896326E+02  0.51100000000E-03 0. -1.
        -11    1    3    3    0    0 -0.30050231664E+01 -0.28114171583E+01  0.18467096136E+01  0.45104952418E+01  0.51100000000E-03 0.  1.
         12    1    3    3    0    0 -0.11642467624E+02 -0.22406168983E+02  0.18728481986E+02  0.31437867269E+02  0.00000000000E+00 0. -1.
</event>
<event>
 7    1  0.4931104E-009  0.4778727E+02  0.7816164E-02  0.1312668E+00
        -11   -1    0    0    0    0  0.00000000000E+00  0.00000000000E+00  0.45593999997E+02  0.45594000000E+02  0.51100000000E-03 0.  1.
         11   -1    0    0    0    0 -0.00000000000E+00 -0.00000000000E+00 -0.45593999997E+02  0.45594000000E+02  0.51100000000E-03 0. -1.
    9900012    2    1    2    0    0 -0.10824403626E+02  0.73284649036E+01 -0.41385374007E+02  0.47787270819E+02  0.19999998973E+02 0.  0.
        -12    1    1    2    0    0  0.10824403626E+02 -0.73284649036E+01  0.41385374007E+02  0.43400729181E+02  0.00000000000E+00 0.  1.
         11    1    3    3    0    0 -0.76701966716E+01 -0.36915305903E+01 -0.18873517256E+02  0.20704322470E+02  0.51100000000E-03 0. -1.
        -11    1    3    3    0    0 -0.39028717983E+00  0.77489500396E+00  0.97805449898E+00  0.13074315332E+01  0.51100000000E-03 0.  1.
         12    1    3    3    0    0 -0.27639197741E+01  0.10245100490E+02 -0.23489911250E+02  0.25775516816E+02  0.00000000000E+00 0. -1.
</event>
<event>
 7    1  0.4931104E-009  0.4778727E+02  0.7816164E-02  0.1312668E+00
        -11   -1    0    0    0    0  0.00000000000E+00  0.00000000000E+00  0.45593999997E+02  0.45594000000E+02  0.51100000000E-03 0.  1.
         11   -1    0    0    0    0 -0.00000000000E+00 -0.00000000000E+00 -0.45593999997E+02  0.45594000000E+02  0.51100000000E-03 0. -1.
    9900012    2    1    2    0    0  0.23062804945E+02  0.23680694847E+01 -0.36689544488E+02  0.47787269594E+02  0.19999993388E+02 0.  0.
        -12    1    1    2    0    0 -0.23062804945E+02 -0.23680694847E+01  0.36689544488E+02  0.43400730406E+02  0.00000000000E+00 0.  1.
         11    1    3    3    0    0  0.17519262504E+02  0.13091957305E+01 -0.13677492828E+02  0.22264598862E+02  0.51100000000E-03 0. -1.
        -11    1    3    3    0    0 -0.10500352895E+01 -0.12974388656E+01 -0.22512137789E+00  0.16842213676E+01  0.51100000000E-03 0.  1.
        -12    1    3    3    0    0  0.65935777303E+01  0.23563126198E+01 -0.22786930282E+02  0.23838449365E+02  0.00000000000E+00 0.  1.
</event>
<event>
 7    1  0.4931104E-009  0.4778729E+02  0.7816164E-02  0.1312668E+00
        -11   -1    0    0    0    0  0.00000000000E+00  0.00000000000E+00  0.45593999997E+02  0.45594000000E+02  0.51100000000E-03 0. -1.
         11   -1    0    0    0    0 -0.00000000000E+00 -0.00000000000E+00 -0.45593999997E+02  0.45594000000E+02  0.51100000000E-03 0.  1.
    9900012    2    1    2    0    0  0.39181206989E+02  0.61823061149E+01  0.17613464587E+02  0.47787285435E+02  0.20000065613E+02 0.  0.
        -12    1    1    2    0    0 -0.39181206989E+02 -0.61823061149E+01 -0.17613464587E+02  0.43400714565E+02  0.00000000000E+00 0.  1.
         11    1    3    3    0    0  0.12313376533E+02  0.40298187927E+01  0.14620184137E+02  0.19534801396E+02  0.51100000000E-03 0.  1.
        -11    1    3    3    0    0  0.62772469097E+01  0.22483989812E+01  0.37458870012E+01  0.76479275905E+01  0.51100000000E-03 0. -1.
        -12    1    3    3    0    0  0.20590583546E+02 -0.95911659066E-01 -0.75260655089E+00  0.20604556449E+02  0.00000000000E+00 0.  1.
</event>
<event>
 7    1  0.4931104E-009  0.4778730E+02  0.7816164E-02  0.1312668E+00
        -11   -1    0    0    0    0  0.00000000000E+00  0.00000000000E+00  0.45593999997E+02  0.45594000000E+02  0.51100000000E-03 0.  1.
         11   -1    0    0    0    0 -0.00000000000E+00 -0.00000000000E+00 -0.45593999997E+02  0.45594000000E+02  0.51100000000E-03 0. -1.
    9900012    2    1    2    0    0 -0.94275151544E+01  0.49620119955E+01 -0.42072803324E+02  0.47787304331E+02  0.20000151765E+02 0.  0.
        -12    1    1    2    0    0  0.94275151544E+01 -0.49620119955E+01  0.42072803324E+02  0.43400695669E+02  0.00000000000E+00 0.  1.
         11    1    3    3    0    0 -0.11050659406E+02  0.43051511159E+00 -0.27560963537E+02  0.29696954860E+02  0.51100000000E-03 0. -1.
        -11    1    3    3    0    0  0.27187152095E+01  0.18490728080E+01 -0.14816425361E+02  0.15176855517E+02  0.51100000000E-03 0.  1.
        -12    1    3    3    0    0 -0.10955709577E+01  0.26824240759E+01  0.30458557473E+00  0.29134939538E+01  0.00000000000E+00 0.  1.
</event>
<event>
 7    1  0.4931104E-009  0.4778727E+02  0.7816164E-02  0.1312668E+00
        -11   -1    0    0    0    0  0.00000000000E+00  0.00000000000E+00  0.45593999997E+02  0.45594000000E+02  0.51100000000E-03 0. -1.
         11   -1    0    0    0    0 -0.00000000000E+00 -0.00000000000E+00 -0.45593999997E+02  0.45594000000E+02  0.51100000000E-03 0.  1.
    9900012    2    1    2    0    0  0.33852333440E+02  0.10925870151E+02  0.24865006056E+02  0.47787266780E+02  0.19999980555E+02 0.  0.
        -12    1    1    2    0    0 -0.33852333440E+02 -0.10925870151E+02 -0.24865006056E+02  0.43400733220E+02  0.00000000000E+00 0.  1.
         11    1    3    3    0    0  0.21323405382E+02  0.46720773068E+01  0.16747177256E+02  0.27513339850E+02  0.51100000000E-03 0. -1.
        -11    1    3    3    0    0  0.12474959947E+02  0.83917356218E+01  0.94464868650E+01  0.17756181086E+02  0.51100000000E-03 0.  1.
        -12    1    3    3    0    0  0.53968111680E-01 -0.21379427777E+01 -0.13286580643E+01  0.25177458429E+01  0.00000000000E+00 0.  1.
</event>
<event>
 7    1  0.4931104E-009  0.4778729E+02  0.7816164E-02  0.1312668E+00
        -11   -1    0    0    0    0  0.00000000000E+00  0.00000000000E+00  0.45593999997E+02  0.45594000000E+02  0.51100000000E-03 0.  1.
         11   -1    0    0    0    0 -0.00000000000E+00 -0.00000000000E+00 -0.45593999997E+02  0.45594000000E+02  0.51100000000E-03 0. -1.
    9900012    2    1    2    0    0  0.23272553990E+02 -0.68520355718E+01 -0.35986940371E+02  0.47787285282E+02  0.20000064916E+02 0.  0.
        -12    1    1    2    0    0 -0.23272553990E+02  0.68520355718E+01  0.35986940371E+02  0.43400714718E+02  0.00000000000E+00 0.  1.
         11    1    3    3    0    0 -0.22429930478E+01 -0.51413644532E+01 -0.57887117585E+01  0.80606346114E+01  0.51100000000E-03 0. -1.
        -11    1    3    3    0    0  0.49571213376E+01  0.53798148070E+00 -0.43006436207E+01  0.65846800866E+01  0.51100000000E-03 0.  1.
         12    1    3    3    0    0  0.20558425700E+02 -0.22486525993E+01 -0.25897584992E+02  0.33141970584E+02  0.00000000000E+00 0. -1.
</event>
<event>
 7    1  0.4931104E-009  0.4778727E+02  0.7816164E-02  0.1312668E+00
        -11   -1    0    0    0    0  0.00000000000E+00  0.00000000000E+00  0.45593999997E+02  0.45594000000E+02  0.51100000000E-03 0. -1.
         11   -1    0    0    0    0 -0.00000000000E+00 -0.00000000000E+00 -0.45593999997E+02  0.45594000000E+02  0.51100000000E-03 0.  1.
    9900012    2    1    2    0    0  0.15015887311E+02 -0.39604873422E+02 -0.94657483917E+01  0.47787271169E+02  0.20000000566E+02 0.  0.
        -12    1    1    2    0    0 -0.15015887311E+02  0.39604873422E+02  0.94657483917E+01  0.43400728831E+02  0.00000000000E+00 0.  1.
         11    1    3    3    0    0  0.14859232294E+02 -0.38736930696E+02 -0.81385496750E+01  0.42279812856E+02  0.51100000000E-03 0. -1.
        -11    1    3    3    0    0  0.12058032140E+01 -0.25436936410E+01 -0.19616239318E+01  0.34310796320E+01  0.51100000000E-03 0.  1.
        -12    1    3    3    0    0 -0.10491481975E+01  0.16757509150E+01  0.63442521513E+00  0.20763786801E+01  0.00000000000E+00 0.  1.
</event>
<event>
 7    1  0.4931104E-009  0.4778727E+02  0.7816164E-02  0.1312668E+00
        -11   -1    0    0    0    0  0.00000000000E+00  0.00000000000E+00  0.45593999997E+02  0.45594000000E+02  0.51100000000E-03 0.  1.
         11   -1    0    0    0    0 -0.00000000000E+00 -0.00000000000E+00 -0.45593999997E+02  0.45594000000E+02  0.51100000000E-03 0. -1.
    9900012    2    1    2    0    0  0.14186436795E+01 -0.18408174425E+02 -0.39277853639E+02  0.47787271642E+02  0.20000002724E+02 0.  0.
        -12    1    1    2    0    0 -0.14186436795E+01  0.18408174425E+02  0.39277853639E+02  0.43400728358E+02  0.00000000000E+00 0.  1.
         11    1    3    3    0    0  0.60758732658E+01 -0.66821654063E+01 -0.11511998211E+02  0.14631940183E+02  0.51100000000E-03 0. -1.
        -11    1    3    3    0    0  0.41866554210E+01 -0.68048075599E+01 -0.11718188692E+02  0.14182716102E+02  0.51100000000E-03 0.  1.
        -12    1    3    3    0    0 -0.88438850073E+01 -0.49212014588E+01 -0.16047666735E+02  0.18972615356E+02  0.00000000000E+00 0.  1.
</event>
<event>
 7    1  0.4931104E-009  0.4778727E+02  0.7816164E-02  0.1312668E+00
        -11   -1    0    0    0    0  0.00000000000E+00  0.00000000000E+00  0.45593999997E+02  0.45594000000E+02  0.51100000000E-03 0.  1.
         11   -1    0    0    0    0 -0.00000000000E+00 -0.00000000000E+00 -0.45593999997E+02  0.45594000000E+02  0.51100000000E-03 0. -1.
    9900012    2    1    2    0    0 -0.54637568179E+01 -0.39895324030E+02 -0.16190545090E+02  0.47787271108E+02  0.20000000290E+02 0.  0.
        -12    1    1    2    0    0  0.54637568179E+01  0.39895324030E+02  0.16190545090E+02  0.43400728892E+02  0.00000000000E+00 0.  1.
         11    1    3    3    0    0 -0.10035009174E+01 -0.11877231256E+02 -0.98415510335E+01  0.15457417747E+02  0.51100000000E-03 0. -1.
        -11    1    3    3    0    0  0.39372404203E+01 -0.32496384908E+01 -0.31073854739E+01  0.59764418505E+01  0.51100000000E-03 0.  1.
        -12    1    3    3    0    0 -0.83974963208E+01 -0.24768454283E+02 -0.32416085825E+01  0.26353411510E+02  0.00000000000E+00 0.  1.
</event>
<event>
 7    1  0.4931104E-009  0.4778727E+02  0.7816164E-02  0.1312668E+00
        -11   -1    0    0    0    0  0.00000000000E+00  0.00000000000E+00  0.45593999997E+02  0.45594000000E+02  0.51100000000E-03 0.  1.
         11   -1    0    0    0    0 -0.00000000000E+00 -0.00000000000E+00 -0.45593999997E+02  0.45594000000E+02  0.51100000000E-03 0. -1.
    9900012    2    1    2    0    0 -0.16891306750E+01 -0.39156751747E+01 -0.43190712173E+02  0.47787270830E+02  0.19999999021E+02 0.  0.
        -12    1    1    2    0    0  0.16891306750E+01  0.39156751747E+01  0.43190712173E+02  0.43400729170E+02  0.00000000000E+00 0.  1.
         11    1    3    3    0    0  0.38839268762E+01 -0.52285610228E+01 -0.12300873645E+02  0.13918844458E+02  0.51100000000E-03 0. -1.
        -11    1    3    3    0    0 -0.92653518593E+01 -0.12776555337E+01 -0.21771754518E+02  0.23695747378E+02  0.51100000000E-03 0.  1.
         12    1    3    3    0    0  0.36922943081E+01  0.25905413817E+01 -0.91180840096E+01  0.10172678994E+02  0.00000000000E+00 0. -1.
</event>
<event>
 7    1  0.4931104E-009  0.4778727E+02  0.7816164E-02  0.1312668E+00
        -11   -1    0    0    0    0  0.00000000000E+00  0.00000000000E+00  0.45593999997E+02  0.45594000000E+02  0.51100000000E-03 0.  1.
         11   -1    0    0    0    0 -0.00000000000E+00 -0.00000000000E+00 -0.45593999997E+02  0.45594000000E+02  0.51100000000E-03 0. -1.
    9900012    2    1    2    0    0 -0.21403206989E+01 -0.42018689467E+02 -0.10652347454E+02  0.47787265634E+02  0.19999975331E+02 0.  0.
        -12    1    1    2    0    0  0.21403206989E+01  0.42018689467E+02  0.10652347454E+02  0.43400734366E+02  0.00000000000E+00 0.  1.
         11    1    3    3    0    0 -0.32584463521E+01 -0.30549348780E+01  0.15731963837E+01  0.47355091449E+01  0.51100000000E-03 0. -1.
        -11    1    3    3    0    0  0.35927582475E+01 -0.11921452190E+02  0.16447357066E+01  0.12559223302E+02  0.51100000000E-03 0.  1.
         12    1    3    3    0    0 -0.24746325943E+01 -0.27042302399E+02 -0.13870279544E+02  0.30492533187E+02  0.00000000000E+00 0. -1.
</event>
<event>
 7    1  0.4931104E-009  0.4778727E+02  0.7816164E-02  0.1312668E+00
        -11   -1    0    0    0    0  0.00000000000E+00  0.00000000000E+00  0.45593999997E+02  0.45594000000E+02  0.51100000000E-03 0.  1.
         11   -1    0    0    0    0 -0.00000000000E+00 -0.00000000000E+00 -0.45593999997E+02  0.45594000000E+02  0.51100000000E-03 0. -1.
    9900012    2    1    2    0    0 -0.31050132030E+02 -0.11862885922E+02 -0.27906706530E+02  0.47787273845E+02  0.20000012767E+02 0.  0.
        -12    1    1    2    0    0  0.31050132030E+02  0.11862885922E+02  0.27906706530E+02  0.43400726155E+02  0.00000000000E+00 0.  1.
         11    1    3    3    0    0 -0.14994571169E+02 -0.85088882553E+01 -0.60063656680E+01  0.18256910272E+02  0.51100000000E-03 0. -1.
        -11    1    3    3    0    0 -0.11335763100E+02 -0.73660370679E+01 -0.13629214673E+02  0.19196705968E+02  0.51100000000E-03 0.  1.
        -12    1    3    3    0    0 -0.47197977608E+01  0.40120394011E+01 -0.82711261891E+01  0.10333657605E+02  0.00000000000E+00 0.  1.
</event>
<event>
 7    1  0.4931104E-009  0.4778728E+02  0.7816164E-02  0.1312668E+00
        -11   -1    0    0    0    0  0.00000000000E+00  0.00000000000E+00  0.45593999997E+02  0.45594000000E+02  0.51100000000E-03 0.  1.
         11   -1    0    0    0    0 -0.00000000000E+00 -0.00000000000E+00 -0.45593999997E+02  0.45594000000E+02  0.51100000000E-03 0. -1.
    9900012    2    1    2    0    0  0.10026444252E+02  0.81829404297E+01 -0.41426230743E+02  0.47787277748E+02  0.20000030564E+02 0.  0.
        -12    1    1    2    0    0 -0.10026444252E+02 -0.81829404297E+01  0.41426230743E+02  0.43400722252E+02  0.00000000000E+00 0.  1.
         11    1    3    3    0    0  0.11641580582E+02  0.10732338343E+02 -0.24094062895E+02  0.28831117769E+02  0.51100000000E-03 0. -1.
        -11    1    3    3    0    0  0.26893786662E+00  0.20134724482E+01 -0.20072795495E+01  0.28557959183E+01  0.51100000000E-03 0.  1.
         12    1    3    3    0    0 -0.18840741966E+01 -0.45628703616E+01 -0.15324888298E+02  0.16100364060E+02  0.00000000000E+00 0. -1.
</event>
<event>
 7    1  0.4931104E-009  0.4778727E+02  0.7816164E-02  0.1312668E+00
        -11   -1    0    0    0    0  0.00000000000E+00  0.00000000000E+00  0.45593999997E+02  0.45594000000E+02  0.51100000000E-03 0. -1.
         11   -1    0    0    0    0 -0.00000000000E+00 -0.00000000000E+00 -0.45593999997E+02  0.45594000000E+02  0.51100000000E-03 0.  1.
    9900012    2    1    2    0    0 -0.24226253478E+00 -0.22506962570E+02  0.37107971400E+02  0.47787267326E+02  0.19999983044E+02 0.  0.
        -12    1    1    2    0    0  0.24226253478E+00  0.22506962570E+02 -0.37107971400E+02  0.43400732674E+02  0.00000000000E+00 0.  1.
         11    1    3    3    0    0  0.10078163510E+01 -0.98308695643E+01  0.23731767612E+02  0.25707167959E+02  0.51100000000E-03 0. -1.
        -11    1    3    3    0    0 -0.52105647805E+01 -0.82096298953E+01  0.12812003548E+02  0.16084012047E+02  0.51100000000E-03 0.  1.
        -12    1    3    3    0    0  0.39604858948E+01 -0.44664631103E+01  0.56420023965E+00  0.59960873200E+01  0.00000000000E+00 0.  1.
</event>
<event>
 7    1  0.4931104E-009  0.4778727E+02  0.7816164E-02  0.1312668E+00
        -11   -1    0    0    0    0  0.00000000000E+00  0.00000000000E+00  0.45593999997E+02  0.45594000000E+02  0.51100000000E-03 0.  1.
         11   -1    0    0    0    0 -0.00000000000E+00 -0.00000000000E+00 -0.45593999997E+02  0.45594000000E+02  0.51100000000E-03 0. -1.
    9900012    2    1    2    0    0 -0.19828209320E+02  0.61603741704E+01 -0.38111874748E+02  0.47787273145E+02  0.20000009577E+02 0.  0.
        -12    1    1    2    0    0  0.19828209320E+02 -0.61603741704E+01  0.38111874748E+02  0.43400726855E+02  0.00000000000E+00 0.  1.
         11    1    3    3    0    0 -0.11046715184E+02  0.49747504839E+00 -0.25929818920E+02  0.28189233889E+02  0.51100000000E-03 0. -1.
        -11    1    3    3    0    0 -0.47002795626E+01 -0.14753007957E+01 -0.99106655968E+01  0.11067539620E+02  0.51100000000E-03 0.  1.
        -12    1    3    3    0    0 -0.40812145732E+01  0.71381999177E+01 -0.22713902317E+01  0.85304996361E+01  0.00000000000E+00 0.  1.
</event>
<event>
 7    1  0.4931104E-009  0.4778727E+02  0.7816164E-02  0.1312668E+00
        -11   -1    0    0    0    0  0.00000000000E+00  0.00000000000E+00  0.45593999997E+02  0.45594000000E+02  0.51100000000E-03 0. -1.
         11   -1    0    0    0    0 -0.00000000000E+00 -0.00000000000E+00 -0.45593999997E+02  0.45594000000E+02  0.51100000000E-03 0.  1.
    9900012    2    1    2    0    0 -0.64797262039E+01 -0.41634065058E+02 -0.10403894618E+02  0.47787271341E+02  0.20000001351E+02 0.  0.
        -12    1    1    2    0    0  0.64797262039E+01  0.41634065058E+02  0.10403894618E+02  0.43400728659E+02  0.00000000000E+00 0.  1.
         11    1    3    3    0    0 -0.39401570670E+01 -0.11779446681E+02  0.17665630616E+01  0.12545953417E+02  0.51100000000E-03 0.  1.
        -11    1    3    3    0    0 -0.20660970184E+01 -0.25408916600E+02 -0.38310066298E+01  0.25779030465E+02  0.51100000000E-03 0. -1.
        -12    1    3    3    0    0 -0.47347211854E+00 -0.44457017773E+01 -0.83394510502E+01  0.94622874591E+01  0.00000000000E+00 0.  1.
</event>
<event>
 7    1  0.4931104E-009  0.4778727E+02  0.7816164E-02  0.1312668E+00
        -11   -1    0    0    0    0  0.00000000000E+00  0.00000000000E+00  0.45593999997E+02  0.45594000000E+02  0.51100000000E-03 0.  1.
         11   -1    0    0    0    0 -0.00000000000E+00 -0.00000000000E+00 -0.45593999997E+02  0.45594000000E+02  0.51100000000E-03 0. -1.
    9900012    2    1    2    0    0 -0.41942906109E+02  0.11084713227E+02  0.12429050154E+01  0.47787273589E+02  0.20000011600E+02 0.  0.
        -12    1    1    2    0    0  0.41942906109E+02 -0.11084713227E+02 -0.12429050154E+01  0.43400726411E+02  0.00000000000E+00 0.  1.
         11    1    3    3    0    0 -0.12225495911E+02  0.69375960865E+01 -0.14061358195E+01  0.14126932007E+02  0.51100000000E-03 0. -1.
        -11    1    3    3    0    0 -0.26698897219E+02  0.73582381431E+00 -0.24522476111E+01  0.26821373343E+02  0.51100000000E-03 0.  1.
        -12    1    3    3    0    0 -0.30185129781E+01  0.34112933259E+01  0.51012884459E+01  0.68389682382E+01  0.00000000000E+00 0.  1.
</event>
<event>
 7    1  0.4931104E-009  0.4778727E+02  0.7816164E-02  0.1312668E+00
        -11   -1    0    0    0    0  0.00000000000E+00  0.00000000000E+00  0.45593999997E+02  0.45594000000E+02  0.51100000000E-03 0.  1.
         11   -1    0    0    0    0 -0.00000000000E+00 -0.00000000000E+00 -0.45593999997E+02  0.45594000000E+02  0.51100000000E-03 0. -1.
    9900012    2    1    2    0    0 -0.20477854023E+02 -0.12373020577E+02 -0.36210347231E+02  0.47787269704E+02  0.19999993890E+02 0.  0.
        -12    1    1    2    0    0  0.20477854023E+02  0.12373020577E+02  0.36210347231E+02  0.43400730296E+02  0.00000000000E+00 0.  1.
         11    1    3    3    0    0 -0.10762409635E+02 -0.51893562949E+00 -0.18761696437E+02  0.21635618984E+02  0.51100000000E-03 0. -1.
        -11    1    3    3    0    0 -0.23103730151E+01 -0.67821176480E+01 -0.15341483535E+02  0.16932101482E+02  0.51100000000E-03 0.  1.
        -12    1    3    3    0    0 -0.74050713721E+01 -0.50719672997E+01 -0.21071672589E+01  0.92195492391E+01  0.00000000000E+00 0.  1.
</event>
<event>
 7    1  0.4931104E-009  0.4778727E+02  0.7816164E-02  0.1312668E+00
        -11   -1    0    0    0    0  0.00000000000E+00  0.00000000000E+00  0.45593999997E+02  0.45594000000E+02  0.51100000000E-03 0.  1.
         11   -1    0    0    0    0 -0.00000000000E+00 -0.00000000000E+00 -0.45593999997E+02  0.45594000000E+02  0.51100000000E-03 0. -1.
    9900012    2    1    2    0    0  0.92354301667E+01  0.42586568110E+01 -0.42192344375E+02  0.47787271296E+02  0.20000001146E+02 0.  0.
        -12    1    1    2    0    0 -0.92354301667E+01 -0.42586568110E+01  0.42192344375E+02  0.43400728704E+02  0.00000000000E+00 0.  1.
         11    1    3    3    0    0  0.90260158318E+01  0.30985010441E+01 -0.34241068145E+02  0.35546032387E+02  0.51100000000E-03 0. -1.
        -11    1    3    3    0    0 -0.25439104975E+01  0.19439989552E+01 -0.87098930233E+01  0.92797009270E+01  0.51100000000E-03 0.  1.
        -12    1    3    3    0    0  0.27533248324E+01 -0.78384318826E+00  0.75861679299E+00  0.29615379814E+01  0.00000000000E+00 0.  1.
</event>
<event>
 7    1  0.4931104E-009  0.4778727E+02  0.7816164E-02  0.1312668E+00
        -11   -1    0    0    0    0  0.00000000000E+00  0.00000000000E+00  0.45593999997E+02  0.45594000000E+02  0.51100000000E-03 0.  1.
         11   -1    0    0    0    0 -0.00000000000E+00 -0.00000000000E+00 -0.45593999997E+02  0.45594000000E+02  0.51100000000E-03 0. -1.
    9900012    2    1    2    0    0 -0.29688069104E+02 -0.12336790496E+02 -0.29155538433E+02  0.47787271110E+02  0.20000000298E+02 0.  0.
        -12    1    1    2    0    0  0.29688069104E+02  0.12336790496E+02  0.29155538433E+02  0.43400728890E+02  0.00000000000E+00 0.  1.
         11    1    3    3    0    0 -0.10271238432E+02 -0.59769578920E+01 -0.14361918436E+02  0.18641004962E+02  0.51100000000E-03 0. -1.
        -11    1    3    3    0    0 -0.71034120751E+01 -0.25584163254E+01 -0.14393130273E+02  0.16253189118E+02  0.51100000000E-03 0.  1.
        -12    1    3    3    0    0 -0.12313418597E+02 -0.38014162790E+01 -0.40048972429E+00  0.12893077029E+02  0.00000000000E+00 0.  1.
</event>
<event>
 7    1  0.9376179E-009  0.4778727E+02  0.7816164E-02  0.1312668E+00
        -11   -1    0    0    0    0  0.00000000000E+00  0.00000000000E+00  0.45593999997E+02  0.45594000000E+02  0.51100000000E-03 0. -1.
         11   -1    0    0    0    0 -0.00000000000E+00 -0.00000000000E+00 -0.45593999997E+02  0.45594000000E+02  0.51100000000E-03 0.  1.
    9900012    2    1    2    0    0  0.31036843247E+02  0.26020988398E+02  0.15596338505E+02  0.47787271311E+02  0.20000001218E+02 0.  0.
        -12    1    1    2    0    0 -0.31036843247E+02 -0.26020988398E+02 -0.15596338505E+02  0.43400728689E+02  0.00000000000E+00 0.  1.
         11    1    3    3    0    0  0.21820782709E+02  0.16447287183E+02  0.11546497436E+02  0.29664480730E+02  0.51100000000E-03 0. -1.
        -11    1    3    3    0    0  0.10726426389E+02  0.79666481300E+01 -0.16892948392E+00  0.13362344215E+02  0.51100000000E-03 0.  1.
        -12    1    3    3    0    0 -0.15103658505E+01  0.16070530848E+01  0.42187705534E+01  0.47604463659E+01  0.00000000000E+00 0.  1.
</event>
<event>
 7    1  0.4931104E-009  0.4778726E+02  0.7816164E-02  0.1312668E+00
        -11   -1    0    0    0    0  0.00000000000E+00  0.00000000000E+00  0.45593999997E+02  0.45594000000E+02  0.51100000000E-03 0.  1.
         11   -1    0    0    0    0 -0.00000000000E+00 -0.00000000000E+00 -0.45593999997E+02  0.45594000000E+02  0.51100000000E-03 0. -1.
    9900012    2    1    2    0    0 -0.16789288964E+02 -0.32266095382E+02 -0.23677894044E+02  0.47787264966E+02  0.19999972287E+02 0.  0.
        -12    1    1    2    0    0  0.16789288964E+02  0.32266095382E+02  0.23677894044E+02  0.43400735034E+02  0.00000000000E+00 0.  1.
         11    1    3    3    0    0 -0.40856907979E+01 -0.63328684336E+01 -0.11395568498E+02  0.13662249944E+02  0.51100000000E-03 0.  1.
        -11    1    3    3    0    0 -0.10893415810E+02 -0.23457112501E+02 -0.15109749944E+02  0.29953416809E+02  0.51100000000E-03 0. -1.
        -12    1    3    3    0    0 -0.18101823560E+01 -0.24761144472E+01  0.28274243983E+01  0.41715982124E+01  0.00000000000E+00 0.  1.
</event>
<event>
 7    1  0.4931104E-009  0.4778727E+02  0.7816164E-02  0.1312668E+00
        -11   -1    0    0    0    0  0.00000000000E+00  0.00000000000E+00  0.45593999997E+02  0.45594000000E+02  0.51100000000E-03 0. -1.
         11   -1    0    0    0    0 -0.00000000000E+00 -0.00000000000E+00 -0.45593999997E+02  0.45594000000E+02  0.51100000000E-03 0.  1.
    9900012    2    1    2    0    0 -0.13418181295E+01 -0.70961208025E+01  0.42795649466E+02  0.47787273974E+02  0.20000013357E+02 0.  0.
        -12    1    1    2    0    0  0.13418181295E+01  0.70961208025E+01 -0.42795649466E+02  0.43400726026E+02  0.00000000000E+00 0.  1.
         11    1    3    3    0    0 -0.49185358208E+01 -0.68178377375E+01  0.39083120081E+02  0.39977058190E+02  0.51100000000E-03 0. -1.
        -11    1    3    3    0    0  0.13125422884E+01 -0.28985008291E+01  0.27766866770E+01  0.42230396019E+01  0.51100000000E-03 0.  1.
        -12    1    3    3    0    0  0.22641754028E+01  0.26202177641E+01  0.93584270885E+00  0.35871761821E+01  0.00000000000E+00 0.  1.
</event>
<event>
 7    1  0.4931104E-009  0.4778727E+02  0.7816164E-02  0.1312668E+00
        -11   -1    0    0    0    0  0.00000000000E+00  0.00000000000E+00  0.45593999997E+02  0.45594000000E+02  0.51100000000E-03 0.  1.
         11   -1    0    0    0    0 -0.00000000000E+00 -0.00000000000E+00 -0.45593999997E+02  0.45594000000E+02  0.51100000000E-03 0. -1.
    9900012    2    1    2    0    0  0.27102568071E+02  0.31038228501E+02 -0.13627267117E+02  0.47787271509E+02  0.20000002118E+02 0.  0.
        -12    1    1    2    0    0 -0.27102568071E+02 -0.31038228501E+02  0.13627267117E+02  0.43400728491E+02  0.00000000000E+00 0.  1.
         11    1    3    3    0    0  0.16013638036E+02  0.15369568849E+02 -0.11475289587E+02  0.24986846963E+02  0.51100000000E-03 0. -1.
        -11    1    3    3    0    0  0.76776029401E+01  0.11242370876E+01 -0.75640007140E+00  0.77962579013E+01  0.51100000000E-03 0.  1.
         12    1    3    3    0    0  0.34113270942E+01  0.14544422564E+02 -0.13955774581E+01  0.15004166645E+02  0.00000000000E+00 0. -1.
</event>
<event>
 7    1  0.4931104E-009  0.4778728E+02  0.7816164E-02  0.1312668E+00
        -11   -1    0    0    0    0  0.00000000000E+00  0.00000000000E+00  0.45593999997E+02  0.45594000000E+02  0.51100000000E-03 0.  1.
         11   -1    0    0    0    0 -0.00000000000E+00 -0.00000000000E+00 -0.45593999997E+02  0.45594000000E+02  0.51100000000E-03 0. -1.
    9900012    2    1    2    0    0  0.24774584416E+02 -0.56680210631E+01 -0.35181192315E+02  0.47787276637E+02  0.20000025497E+02 0.  0.
        -12    1    1    2    0    0 -0.24774584416E+02  0.56680210631E+01  0.35181192315E+02  0.43400723363E+02  0.00000000000E+00 0.  1.
         11    1    3    3    0    0  0.35575685099E+00  0.19049666058E+00 -0.69266800611E+01  0.69384255306E+01  0.51100000000E-03 0. -1.
        -11    1    3    3    0    0 -0.14852469995E+01 -0.89448764176E+00  0.52485456283E+00  0.18115019636E+01  0.51100000000E-03 0.  1.
        -12    1    3    3    0    0  0.25904074565E+02 -0.49640300819E+01 -0.28779366817E+02  0.39037349142E+02  0.00000000000E+00 0.  1.
</event>
<event>
 7    1  0.4931104E-009  0.4778727E+02  0.7816164E-02  0.1312668E+00
        -11   -1    0    0    0    0  0.00000000000E+00  0.00000000000E+00  0.45593999997E+02  0.45594000000E+02  0.51100000000E-03 0.  1.
         11   -1    0    0    0    0 -0.00000000000E+00 -0.00000000000E+00 -0.45593999997E+02  0.45594000000E+02  0.51100000000E-03 0. -1.
    9900012    2    1    2    0    0  0.20161076866E+02  0.27691811974E+02 -0.26651789406E+02  0.47787270175E+02  0.19999996035E+02 0.  0.
        -12    1    1    2    0    0 -0.20161076866E+02 -0.27691811974E+02  0.26651789406E+02  0.43400729825E+02  0.00000000000E+00 0.  1.
         11    1    3    3    0    0  0.16052356513E+02  0.83927988382E+01 -0.84607985731E+01  0.19992556983E+02  0.51100000000E-03 0. -1.
        -11    1    3    3    0    0  0.45000832301E+01  0.10928477018E+02 -0.67412218113E+01  0.13606117403E+02  0.51100000000E-03 0.  1.
         12    1    3    3    0    0 -0.39136287781E+00  0.83705361180E+01 -0.11449769022E+02  0.14188595789E+02  0.00000000000E+00 0. -1.
</event>
<event>
 7    1  0.4931104E-009  0.4778729E+02  0.7816164E-02  0.1312668E+00
        -11   -1    0    0    0    0  0.00000000000E+00  0.00000000000E+00  0.45593999997E+02  0.45594000000E+02  0.51100000000E-03 0.  1.
         11   -1    0    0    0    0 -0.00000000000E+00 -0.00000000000E+00 -0.45593999997E+02  0.45594000000E+02  0.51100000000E-03 0. -1.
    9900012    2    1    2    0    0 -0.22944696028E+02  0.36492689095E+02 -0.50444397067E+01  0.47787287964E+02  0.20000077145E+02 0.  0.
        -12    1    1    2    0    0  0.22944696028E+02 -0.36492689095E+02  0.50444397067E+01  0.43400712036E+02  0.00000000000E+00 0.  1.
         11    1    3    3    0    0 -0.11155865032E+02  0.79896668797E+01 -0.53337007635E+01  0.14721972204E+02  0.51100000000E-03 0. -1.
        -11    1    3    3    0    0  0.22414774556E+01  0.48718419039E+01  0.14601793536E+01  0.55579842323E+01  0.51100000000E-03 0.  1.
         12    1    3    3    0    0 -0.14030308451E+02  0.23631180312E+02 -0.11709182968E+01  0.27507331529E+02  0.00000000000E+00 0. -1.
</event>
<event>
 7    1  0.4931104E-009  0.4778727E+02  0.7816164E-02  0.1312668E+00
        -11   -1    0    0    0    0  0.00000000000E+00  0.00000000000E+00  0.45593999997E+02  0.45594000000E+02  0.51100000000E-03 0.  1.
         11   -1    0    0    0    0 -0.00000000000E+00 -0.00000000000E+00 -0.45593999997E+02  0.45594000000E+02  0.51100000000E-03 0. -1.
    9900012    2    1    2    0    0 -0.13918979220E+02 -0.14853977001E+02 -0.38330727146E+02  0.47787271218E+02  0.20000000791E+02 0.  0.
        -12    1    1    2    0    0  0.13918979220E+02  0.14853977001E+02  0.38330727146E+02  0.43400728782E+02  0.00000000000E+00 0.  1.
         11    1    3    3    0    0 -0.10056616402E+02 -0.11222196193E+02 -0.26475031538E+02  0.30463100894E+02  0.51100000000E-03 0. -1.
        -11    1    3    3    0    0 -0.59366007202E+01 -0.37012535023E+01 -0.13138028982E+02  0.14884566214E+02  0.51100000000E-03 0.  1.
        -12    1    3    3    0    0  0.20742379020E+01  0.69472694217E-01  0.12823333743E+01  0.24396041097E+01  0.00000000000E+00 0.  1.
</event>
<event>
 7    1  0.4931104E-009  0.4778727E+02  0.7816164E-02  0.1312668E+00
        -11   -1    0    0    0    0  0.00000000000E+00  0.00000000000E+00  0.45593999997E+02  0.45594000000E+02  0.51100000000E-03 0. -1.
         11   -1    0    0    0    0 -0.00000000000E+00 -0.00000000000E+00 -0.45593999997E+02  0.45594000000E+02  0.51100000000E-03 0.  1.
    9900012    2    1    2    0    0  0.27964501976E+02  0.14309012207E+02  0.29947653933E+02  0.47787272158E+02  0.20000005078E+02 0.  0.
        -12    1    1    2    0    0 -0.27964501976E+02 -0.14309012207E+02 -0.29947653933E+02  0.43400727842E+02  0.00000000000E+00 0.  1.
         11    1    3    3    0    0  0.68124121591E+01 -0.24851258604E+01  0.45121310214E+01  0.85407339604E+01  0.51100000000E-03 0. -1.
        -11    1    3    3    0    0  0.79755890199E+01 -0.49647687817E+00  0.51069608459E+01  0.94835414718E+01  0.51100000000E-03 0.  1.
         12    1    3    3    0    0  0.13176500797E+02  0.17290614945E+02  0.20328562066E+02  0.29762996726E+02  0.00000000000E+00 0. -1.
</event>
<event>
 7    1  0.4931104E-009  0.4778727E+02  0.7816164E-02  0.1312668E+00
        -11   -1    0    0    0    0  0.00000000000E+00  0.00000000000E+00  0.45593999997E+02  0.45594000000E+02  0.51100000000E-03 0. -1.
         11   -1    0    0    0    0 -0.00000000000E+00 -0.00000000000E+00 -0.45593999997E+02  0.45594000000E+02  0.51100000000E-03 0.  1.
    9900012    2    1    2    0    0  0.27182875885E+02 -0.32663538032E+02 -0.88208716923E+01  0.47787271486E+02  0.20000002015E+02 0.  0.
        -12    1    1    2    0    0 -0.27182875885E+02  0.32663538032E+02  0.88208716923E+01  0.43400728514E+02  0.00000000000E+00 0.  1.
         11    1    3    3    0    0 -0.58775948404E+00 -0.10403181791E+01 -0.65892275262E+00  0.13645155110E+01  0.51100000000E-03 0. -1.
        -11    1    3    3    0    0  0.17989080316E+01 -0.13909096076E+02 -0.47173348924E+01  0.14797035936E+02  0.51100000000E-03 0.  1.
         12    1    3    3    0    0  0.25971727337E+02 -0.17714123777E+02 -0.34446140473E+01  0.31625720039E+02  0.00000000000E+00 0. -1.
</event>
<event>
 7    1  0.4931104E-009  0.4778727E+02  0.7816164E-02  0.1312668E+00
        -11   -1    0    0    0    0  0.00000000000E+00  0.00000000000E+00  0.45593999997E+02  0.45594000000E+02  0.51100000000E-03 0.  1.
         11   -1    0    0    0    0 -0.00000000000E+00 -0.00000000000E+00 -0.45593999997E+02  0.45594000000E+02  0.51100000000E-03 0. -1.
    9900012    2    1    2    0    0 -0.36120973886E+02  0.22651363268E+02  0.81126074227E+01  0.47787269458E+02  0.19999992767E+02 0.  0.
        -12    1    1    2    0    0  0.36120973886E+02 -0.22651363268E+02 -0.81126074227E+01  0.43400730542E+02  0.00000000000E+00 0.  1.
         11    1    3    3    0    0 -0.37009968067E+01  0.99255512311E+01  0.14188863694E+01  0.10687711794E+02  0.51100000000E-03 0. -1.
        -11    1    3    3    0    0 -0.18555954090E+02  0.12616704536E+02  0.59539323123E+01  0.23215382310E+02  0.51100000000E-03 0.  1.
        -12    1    3    3    0    0 -0.13864022989E+02  0.10910750132E+00  0.73978874104E+00  0.13884175354E+02  0.00000000000E+00 0.  1.
</event>
<event>
 7    1  0.4931104E-009  0.4778725E+02  0.7816164E-02  0.1312668E+00
        -11   -1    0    0    0    0  0.00000000000E+00  0.00000000000E+00  0.45593999997E+02  0.45594000000E+02  0.51100000000E-03 0.  1.
         11   -1    0    0    0    0 -0.00000000000E+00 -0.00000000000E+00 -0.45593999997E+02  0.45594000000E+02  0.51100000000E-03 0. -1.
    9900012    2    1    2    0    0 -0.17489938669E+01 -0.26514323126E+02 -0.34315543846E+02  0.47787252774E+02  0.19999916696E+02 0.  0.
        -12    1    1    2    0    0  0.17489938669E+01  0.26514323126E+02  0.34315543846E+02  0.43400747226E+02  0.00000000000E+00 0.  1.
         11    1    3    3    0    0  0.18522430908E+01  0.76733248745E+00 -0.30316948767E+01  0.36346633544E+01  0.51100000000E-03 0. -1.
        -11    1    3    3    0    0 -0.49378780238E+01 -0.13454483775E+01 -0.41076699534E+01  0.65624555938E+01  0.51100000000E-03 0.  1.
        -12    1    3    3    0    0  0.13366410661E+01 -0.25936207236E+02 -0.27176179016E+02  0.37590133825E+02  0.00000000000E+00 0.  1.
</event>
<event>
 7    1  0.4931104E-009  0.4778728E+02  0.7816164E-02  0.1312668E+00
        -11   -1    0    0    0    0  0.00000000000E+00  0.00000000000E+00  0.45593999997E+02  0.45594000000E+02  0.51100000000E-03 0.  1.
         11   -1    0    0    0    0 -0.00000000000E+00 -0.00000000000E+00 -0.45593999997E+02  0.45594000000E+02  0.51100000000E-03 0. -1.
    9900012    2    1    2    0    0 -0.33904967118E+02  0.38974304400E+01 -0.26812047686E+02  0.47787278112E+02  0.20000032223E+02 0.  0.
        -12    1    1    2    0    0  0.33904967118E+02 -0.38974304400E+01  0.26812047686E+02  0.43400721888E+02  0.00000000000E+00 0.  1.
         11    1    3    3    0    0 -0.14102876318E+01 -0.10159422933E+01  0.20568295166E+00  0.17502444645E+01  0.51100000000E-03 0. -1.
        -11    1    3    3    0    0 -0.24488925341E+02  0.98628477976E+01 -0.13740662326E+02  0.29762208125E+02  0.51100000000E-03 0.  1.
         12    1    3    3    0    0 -0.80057541452E+01 -0.49494750643E+01 -0.13277068311E+02  0.16274825522E+02  0.00000000000E+00 0. -1.
</event>
<event>
 7    1  0.4931104E-009  0.4778727E+02  0.7816164E-02  0.1312668E+00
        -11   -1    0    0    0    0  0.00000000000E+00  0.00000000000E+00  0.45593999997E+02  0.45594000000E+02  0.51100000000E-03 0.  1.
         11   -1    0    0    0    0 -0.00000000000E+00 -0.00000000000E+00 -0.45593999997E+02  0.45594000000E+02  0.51100000000E-03 0. -1.
    9900012    2    1    2    0    0 -0.21008378094E+02 -0.30769318268E+02 -0.22260287133E+02  0.47787270973E+02  0.19999999675E+02 0.  0.
        -12    1    1    2    0    0  0.21008378094E+02  0.30769318268E+02  0.22260287133E+02  0.43400729027E+02  0.00000000000E+00 0.  1.
         11    1    3    3    0    0 -0.65192528701E+01 -0.43796923243E+01 -0.19828413110E+01  0.81002483151E+01  0.51100000000E-03 0.  1.
        -11    1    3    3    0    0 -0.11519026625E+02 -0.56988347915E+01 -0.49726443649E+01  0.13780126437E+02  0.51100000000E-03 0. -1.
         12    1    3    3    0    0 -0.29700985992E+01 -0.20690791152E+02 -0.15304801457E+02  0.25906896221E+02  0.00000000000E+00 0. -1.
</event>
<event>
 7    1  0.1034613E-008  0.4778727E+02  0.7816164E-02  0.1312668E+00
        -11   -1    0    0    0    0  0.00000000000E+00  0.00000000000E+00  0.45593999997E+02  0.45594000000E+02  0.51100000000E-03 0.  1.
         11   -1    0    0    0    0 -0.00000000000E+00 -0.00000000000E+00 -0.45593999997E+02  0.45594000000E+02  0.51100000000E-03 0. -1.
    9900012    2    1    2    0    0  0.24895390886E+02 -0.35427119420E+02  0.29600663059E+01  0.47787271086E+02  0.20000000190E+02 0.  0.
        -12    1    1    2    0    0 -0.24895390886E+02  0.35427119420E+02 -0.29600663059E+01  0.43400728914E+02  0.00000000000E+00 0.  1.
         11    1    3    3    0    0  0.13743933899E+02 -0.15459820003E+02  0.79038328299E+01  0.22144352039E+02  0.51100000000E-03 0. -1.
        -11    1    3    3    0    0  0.99771037021E+01 -0.18691491000E+02 -0.85862173721E+00  0.21204991526E+02  0.51100000000E-03 0.  1.
        -12    1    3    3    0    0  0.11743532840E+01 -0.12758084168E+01 -0.40851447868E+01  0.44379275210E+01  0.00000000000E+00 0.  1.
</event>
<event>
 7    1  0.4931104E-009  0.4778727E+02  0.7816164E-02  0.1312668E+00
        -11   -1    0    0    0    0  0.00000000000E+00  0.00000000000E+00  0.45593999997E+02  0.45594000000E+02  0.51100000000E-03 0.  1.
         11   -1    0    0    0    0 -0.00000000000E+00 -0.00000000000E+00 -0.45593999997E+02  0.45594000000E+02  0.51100000000E-03 0. -1.
    9900012    2    1    2    0    0 -0.39196902318E+02  0.44868365969E+01 -0.18085748362E+02  0.47787272497E+02  0.20000006621E+02 0.  0.
        -12    1    1    2    0    0  0.39196902318E+02 -0.44868365969E+01  0.18085748362E+02  0.43400727503E+02  0.00000000000E+00 0.  1.
         11    1    3    3    0    0 -0.18242247609E+02  0.90396895815E-02 -0.75148037561E+01  0.19729469210E+02  0.51100000000E-03 0. -1.
        -11    1    3    3    0    0 -0.32624922057E+01 -0.49468877318E+01 -0.19707804643E+01  0.62449603300E+01  0.51100000000E-03 0.  1.
        -12    1    3    3    0    0 -0.17692162504E+02  0.94246846392E+01 -0.86001641416E+01  0.21812842957E+02  0.00000000000E+00 0.  1.
</event>
<event>
 7    1  0.4931104E-009  0.4778727E+02  0.7816164E-02  0.1312668E+00
        -11   -1    0    0    0    0  0.00000000000E+00  0.00000000000E+00  0.45593999997E+02  0.45594000000E+02  0.51100000000E-03 0.  1.
         11   -1    0    0    0    0 -0.00000000000E+00 -0.00000000000E+00 -0.45593999997E+02  0.45594000000E+02  0.51100000000E-03 0. -1.
    9900012    2    1    2    0    0 -0.13176336028E+02 -0.40313740317E+02 -0.92092170585E+01  0.47787272261E+02  0.20000005547E+02 0.  0.
        -12    1    1    2    0    0  0.13176336028E+02  0.40313740317E+02  0.92092170585E+01  0.43400727739E+02  0.00000000000E+00 0.  1.
         11    1    3    3    0    0 -0.37287330166E+01 -0.75325686641E+01  0.33398867623E+01  0.90442182877E+01  0.51100000000E-03 0. -1.
        -11    1    3    3    0    0 -0.47282163994E-02 -0.29912715660E+00  0.19261534933E+01  0.19492477915E+01  0.51100000000E-03 0.  1.
         12    1    3    3    0    0 -0.94428747954E+01 -0.32482044496E+02 -0.14475257314E+02  0.36793806182E+02  0.00000000000E+00 0. -1.
</event>
<event>
 7    1  0.4931104E-009  0.4778727E+02  0.7816164E-02  0.1312668E+00
        -11   -1    0    0    0    0  0.00000000000E+00  0.00000000000E+00  0.45593999997E+02  0.45594000000E+02  0.51100000000E-03 0.  1.
         11   -1    0    0    0    0 -0.00000000000E+00 -0.00000000000E+00 -0.45593999997E+02  0.45594000000E+02  0.51100000000E-03 0. -1.
    9900012    2    1    2    0    0  0.19829666789E+02 -0.19082121969E+02 -0.33560101594E+02  0.47787268637E+02  0.19999989025E+02 0.  0.
        -12    1    1    2    0    0 -0.19829666789E+02  0.19082121969E+02  0.33560101594E+02  0.43400731363E+02  0.00000000000E+00 0.  1.
         11    1    3    3    0    0  0.10095068177E+02 -0.59194073626E+01 -0.86764174188E+01  0.14568116025E+02  0.51100000000E-03 0. -1.
        -11    1    3    3    0    0  0.18525611384E+01  0.32783126634E+01 -0.39114821249E+01  0.54294575572E+01  0.51100000000E-03 0.  1.
         12    1    3    3    0    0  0.78820374732E+01 -0.16441027270E+02 -0.20972202050E+02  0.27789695055E+02  0.00000000000E+00 0. -1.
</event>
<event>
 7    1  0.4931104E-009  0.4778727E+02  0.7816164E-02  0.1312668E+00
        -11   -1    0    0    0    0  0.00000000000E+00  0.00000000000E+00  0.45593999997E+02  0.45594000000E+02  0.51100000000E-03 0. -1.
         11   -1    0    0    0    0 -0.00000000000E+00 -0.00000000000E+00 -0.45593999997E+02  0.45594000000E+02  0.51100000000E-03 0.  1.
    9900012    2    1    2    0    0 -0.71618949329E+01 -0.37781663664E+02  0.20121539998E+02  0.47787271664E+02  0.20000002825E+02 0.  0.
        -12    1    1    2    0    0  0.71618949329E+01  0.37781663664E+02 -0.20121539998E+02  0.43400728336E+02  0.00000000000E+00 0.  1.
         11    1    3    3    0    0  0.57675962956E+00 -0.10815569628E+02  0.13518563920E+02  0.17322262231E+02  0.51100000000E-03 0. -1.
        -11    1    3    3    0    0 -0.10867601595E+01  0.22017732157E+00  0.17313117141E+01  0.20559587082E+01  0.51100000000E-03 0.  1.
        -12    1    3    3    0    0 -0.66518944029E+01 -0.27186271357E+02  0.48716643633E+01  0.28409050725E+02  0.00000000000E+00 0.  1.
</event>
<event>
 7    1  0.4931104E-009  0.4778727E+02  0.7816164E-02  0.1312668E+00
        -11   -1    0    0    0    0  0.00000000000E+00  0.00000000000E+00  0.45593999997E+02  0.45594000000E+02  0.51100000000E-03 0. -1.
         11   -1    0    0    0    0 -0.00000000000E+00 -0.00000000000E+00 -0.45593999997E+02  0.45594000000E+02  0.51100000000E-03 0.  1.
    9900012    2    1    2    0    0  0.37594233185E+01  0.43215544943E+02  0.13808504472E+01  0.47787270325E+02  0.19999996718E+02 0.  0.
        -12    1    1    2    0    0 -0.37594233185E+01 -0.43215544943E+02 -0.13808504472E+01  0.43400729675E+02  0.00000000000E+00 0.  1.
         11    1    3    3    0    0 -0.57324620612E+01  0.14653332951E+02 -0.29214598424E+01  0.16003631329E+02  0.51100000000E-03 0. -1.
        -11    1    3    3    0    0  0.21352644939E+00 -0.32231050610E+00 -0.92124008364E+00  0.99908015682E+00  0.51100000000E-03 0.  1.
        -12    1    3    3    0    0  0.92783589303E+01  0.28884522498E+02  0.52235503733E+01  0.30784558839E+02  0.00000000000E+00 0.  1.
</event>
<event>
 7    1  0.4931104E-009  0.4778727E+02  0.7816164E-02  0.1312668E+00
        -11   -1    0    0    0    0  0.00000000000E+00  0.00000000000E+00  0.45593999997E+02  0.45594000000E+02  0.51100000000E-03 0.  1.
         11   -1    0    0    0    0 -0.00000000000E+00 -0.00000000000E+00 -0.45593999997E+02  0.45594000000E+02  0.51100000000E-03 0. -1.
    9900012    2    1    2    0    0  0.24447840988E+02 -0.23317633425E+02 -0.27243609491E+02  0.47787271715E+02  0.20000003059E+02 0.  0.
        -12    1    1    2    0    0 -0.24447840988E+02  0.23317633425E+02  0.27243609491E+02  0.43400728285E+02  0.00000000000E+00 0.  1.
         11    1    3    3    0    0  0.13319732935E+02 -0.73193465051E+01 -0.86879677982E+01  0.17506253267E+02  0.51100000000E-03 0. -1.
        -11    1    3    3    0    0  0.12124612475E+02 -0.17156252236E+02 -0.13433633545E+02  0.24936032742E+02  0.51100000000E-03 0.  1.
         12    1    3    3    0    0 -0.99650442164E+00  0.11579653154E+01 -0.51220081481E+01  0.53449857066E+01  0.00000000000E+00 0. -1.
</event>
<event>
 7    1  0.4931104E-009  0.4778727E+02  0.7816164E-02  0.1312668E+00
        -11   -1    0    0    0    0  0.00000000000E+00  0.00000000000E+00  0.45593999997E+02  0.45594000000E+02  0.51100000000E-03 0.  1.
         11   -1    0    0    0    0 -0.00000000000E+00 -0.00000000000E+00 -0.45593999997E+02  0.45594000000E+02  0.51100000000E-03 0. -1.
    9900012    2    1    2    0    0  0.20955334667E+02  0.30828160660E+02 -0.22228857190E+02  0.47787266912E+02  0.19999981157E+02 0.  0.
        -12    1    1    2    0    0 -0.20955334667E+02 -0.30828160660E+02  0.22228857190E+02  0.43400733088E+02  0.00000000000E+00 0.  1.
         11    1    3    3    0    0  0.41959602633E+01  0.25348186159E+01 -0.48850724404E+01  0.69206445477E+01  0.51100000000E-03 0. -1.
        -11    1    3    3    0    0  0.18103270675E+02  0.15514054852E+02 -0.86957030485E+01  0.25377737465E+02  0.51100000000E-03 0.  1.
         12    1    3    3    0    0 -0.13438962712E+01  0.12779287192E+02 -0.86480817007E+01  0.15488884899E+02  0.00000000000E+00 0. -1.
</event>
<event>
 7    1  0.4931104E-009  0.4778728E+02  0.7816164E-02  0.1312668E+00
        -11   -1    0    0    0    0  0.00000000000E+00  0.00000000000E+00  0.45593999997E+02  0.45594000000E+02  0.51100000000E-03 0.  1.
         11   -1    0    0    0    0 -0.00000000000E+00 -0.00000000000E+00 -0.45593999997E+02  0.45594000000E+02  0.51100000000E-03 0. -1.
    9900012    2    1    2    0    0 -0.18562020786E+02 -0.24517603686E+02 -0.30626143876E+02  0.47787283475E+02  0.20000056676E+02 0.  0.
        -12    1    1    2    0    0  0.18562020786E+02  0.24517603686E+02  0.30626143876E+02  0.43400716525E+02  0.00000000000E+00 0.  1.
         11    1    3    3    0    0 -0.54495376659E+01 -0.74854623059E+01 -0.22655710416E+02  0.24474697575E+02  0.51100000000E-03 0. -1.
        -11    1    3    3    0    0 -0.36499889770E+01 -0.21246340618E+01 -0.20042831484E+01  0.46747877630E+01  0.51100000000E-03 0.  1.
         12    1    3    3    0    0 -0.94624941427E+01 -0.14907507318E+02 -0.59661503124E+01  0.18637798137E+02  0.00000000000E+00 0. -1.
</event>
<event>
 7    1  0.4931104E-009  0.4778727E+02  0.7816164E-02  0.1312668E+00
        -11   -1    0    0    0    0  0.00000000000E+00  0.00000000000E+00  0.45593999997E+02  0.45594000000E+02  0.51100000000E-03 0.  1.
         11   -1    0    0    0    0 -0.00000000000E+00 -0.00000000000E+00 -0.45593999997E+02  0.45594000000E+02  0.51100000000E-03 0. -1.
    9900012    2    1    2    0    0  0.27485736490E+02  0.32838767900E+02  0.70549883799E+01  0.47787271335E+02  0.20000001326E+02 0.  0.
        -12    1    1    2    0    0 -0.27485736490E+02 -0.32838767900E+02 -0.70549883799E+01  0.43400728665E+02  0.00000000000E+00 0.  1.
         11    1    3    3    0    0  0.20206120391E+02  0.33130831685E+02  0.49263244339E+01  0.39117872924E+02  0.51100000000E-03 0. -1.
        -11    1    3    3    0    0 -0.46403121556E+00 -0.13653444907E+00  0.60695424663E+00  0.77611876889E+00  0.51100000000E-03 0.  1.
         12    1    3    3    0    0  0.77436473144E+01 -0.15552933573E+00  0.15217096994E+01  0.78932796424E+01  0.00000000000E+00 0. -1.
</event>
<event>
 7    1  0.4931104E-009  0.4778727E+02  0.7816164E-02  0.1312668E+00
        -11   -1    0    0    0    0  0.00000000000E+00  0.00000000000E+00  0.45593999997E+02  0.45594000000E+02  0.51100000000E-03 0. -1.
         11   -1    0    0    0    0 -0.00000000000E+00 -0.00000000000E+00 -0.45593999997E+02  0.45594000000E+02  0.51100000000E-03 0.  1.
    9900012    2    1    2    0    0  0.34126736901E+02 -0.16199065676E+02  0.21367718934E+02  0.47787270597E+02  0.19999997960E+02 0.  0.
        -12    1    1    2    0    0 -0.34126736901E+02  0.16199065676E+02 -0.21367718934E+02  0.43400729403E+02  0.00000000000E+00 0.  1.
         11    1    3    3    0    0  0.10577415164E+02 -0.64671440180E+01 -0.30692839831E+00  0.12401607500E+02  0.51100000000E-03 0. -1.
        -11    1    3    3    0    0  0.14283626054E+02 -0.60519826489E+01  0.19944081025E+02  0.25266872292E+02  0.51100000000E-03 0.  1.
         12    1    3    3    0    0  0.92656956829E+01 -0.36799390090E+01  0.17305663076E+01  0.10118790804E+02  0.00000000000E+00 0. -1.
</event>
<event>
 7    1  0.4931104E-009  0.4778727E+02  0.7816164E-02  0.1312668E+00
        -11   -1    0    0    0    0  0.00000000000E+00  0.00000000000E+00  0.45593999997E+02  0.45594000000E+02  0.51100000000E-03 0. -1.
         11   -1    0    0    0    0 -0.00000000000E+00 -0.00000000000E+00 -0.45593999997E+02  0.45594000000E+02  0.51100000000E-03 0.  1.
    9900012    2    1    2    0    0 -0.18294965573E+02  0.39249771388E+02  0.28935962092E+01  0.47787271684E+02  0.20000002917E+02 0.  0.
        -12    1    1    2    0    0  0.18294965573E+02 -0.39249771388E+02 -0.28935962092E+01  0.43400728316E+02  0.00000000000E+00 0.  1.
         11    1    3    3    0    0 -0.12275812282E+02  0.26362145622E+02 -0.65791678799E+01  0.29815159554E+02  0.51100000000E-03 0. -1.
        -11    1    3    3    0    0  0.16707810496E+00  0.49570213827E+01  0.16400406991E+01  0.52239553824E+01  0.51100000000E-03 0.  1.
        -12    1    3    3    0    0 -0.61862313964E+01  0.79306043834E+01  0.78327233900E+01  0.12748156748E+02  0.00000000000E+00 0.  1.
</event>
<event>
 7    1  0.6845641E-009  0.4778727E+02  0.7816164E-02  0.1312668E+00
        -11   -1    0    0    0    0  0.00000000000E+00  0.00000000000E+00  0.45593999997E+02  0.45594000000E+02  0.51100000000E-03 0. -1.
         11   -1    0    0    0    0 -0.00000000000E+00 -0.00000000000E+00 -0.45593999997E+02  0.45594000000E+02  0.51100000000E-03 0.  1.
    9900012    2    1    2    0    0  0.16070577667E+02 -0.23677234075E+02  0.32630482858E+02  0.47787270841E+02  0.19999999072E+02 0.  0.
        -12    1    1    2    0    0 -0.16070577667E+02  0.23677234075E+02 -0.32630482858E+02  0.43400729159E+02  0.00000000000E+00 0.  1.
         11    1    3    3    0    0  0.98571376015E+01 -0.59772573569E+01  0.13384280556E+02  0.17664363376E+02  0.51100000000E-03 0. -1.
        -11    1    3    3    0    0  0.36026712630E+01 -0.13661394250E+01 -0.99810763835E+00  0.39801754078E+01  0.51100000000E-03 0.  1.
         12    1    3    3    0    0  0.26107688024E+01 -0.16333837293E+02  0.20244309941E+02  0.26142732058E+02  0.00000000000E+00 0. -1.
</event>
<event>
 7    1  0.4931104E-009  0.4778727E+02  0.7816164E-02  0.1312668E+00
        -11   -1    0    0    0    0  0.00000000000E+00  0.00000000000E+00  0.45593999997E+02  0.45594000000E+02  0.51100000000E-03 0.  1.
         11   -1    0    0    0    0 -0.00000000000E+00 -0.00000000000E+00 -0.45593999997E+02  0.45594000000E+02  0.51100000000E-03 0. -1.
    9900012    2    1    2    0    0 -0.85260788357E+01 -0.11035345985E+02 -0.41099275768E+02  0.47787270168E+02  0.19999996004E+02 0.  0.
        -12    1    1    2    0    0  0.85260788357E+01  0.11035345985E+02  0.41099275768E+02  0.43400729832E+02  0.00000000000E+00 0.  1.
         11    1    3    3    0    0 -0.13526514996E+01 -0.48293503472E+01 -0.15648839822E+01  0.52536799478E+01  0.51100000000E-03 0. -1.
        -11    1    3    3    0    0 -0.22664610621E+01 -0.71571865896E-01 -0.42504651156E-01  0.22679892382E+01  0.51100000000E-03 0.  1.
         12    1    3    3    0    0 -0.49069662740E+01 -0.61344237718E+01 -0.39491887134E+02  0.40265600982E+02  0.00000000000E+00 0. -1.
</event>
<event>
 7    1  0.4931104E-009  0.4778727E+02  0.7816164E-02  0.1312668E+00
        -11   -1    0    0    0    0  0.00000000000E+00  0.00000000000E+00  0.45593999997E+02  0.45594000000E+02  0.51100000000E-03 0. -1.
         11   -1    0    0    0    0 -0.00000000000E+00 -0.00000000000E+00 -0.45593999997E+02  0.45594000000E+02  0.51100000000E-03 0.  1.
    9900012    2    1    2    0    0 -0.27808524813E+02 -0.86222868797E+01  0.32186413209E+02  0.47787273294E+02  0.20000010257E+02 0.  0.
        -12    1    1    2    0    0  0.27808524813E+02  0.86222868797E+01 -0.32186413209E+02  0.43400726706E+02  0.00000000000E+00 0.  1.
         11    1    3    3    0    0 -0.62351183848E+01  0.14274081413E+01  0.17237192982E+01  0.66246059320E+01  0.51100000000E-03 0. -1.
        -11    1    3    3    0    0  0.12302860767E+01  0.11894502788E+01  0.45502979653E+01  0.48614409006E+01  0.51100000000E-03 0.  1.
         12    1    3    3    0    0 -0.22803692505E+02 -0.11239145300E+02  0.25912395946E+02  0.36301226461E+02  0.00000000000E+00 0. -1.
</event>
<event>
 7    1  0.4931104E-009  0.4778727E+02  0.7816164E-02  0.1312668E+00
        -11   -1    0    0    0    0  0.00000000000E+00  0.00000000000E+00  0.45593999997E+02  0.45594000000E+02  0.51100000000E-03 0.  1.
         11   -1    0    0    0    0 -0.00000000000E+00 -0.00000000000E+00 -0.45593999997E+02  0.45594000000E+02  0.51100000000E-03 0. -1.
    9900012    2    1    2    0    0 -0.29646057490E+02 -0.25103535547E+02 -0.19353221261E+02  0.47787269651E+02  0.19999993645E+02 0.  0.
        -12    1    1    2    0    0  0.29646057490E+02  0.25103535547E+02  0.19353221261E+02  0.43400730349E+02  0.00000000000E+00 0.  1.
         11    1    3    3    0    0 -0.14616908856E+01  0.10061493906E+01  0.16044066567E+01  0.23922787928E+01  0.51100000000E-03 0. -1.
        -11    1    3    3    0    0 -0.50306873344E+01 -0.77195989416E+01 -0.10647159823E+02  0.14080555225E+02  0.51100000000E-03 0.  1.
         12    1    3    3    0    0 -0.23153679270E+02 -0.18390085996E+02 -0.10310468095E+02  0.31314435633E+02  0.00000000000E+00 0. -1.
</event>
<event>
 7    1  0.4931104E-009  0.4778727E+02  0.7816164E-02  0.1312668E+00
        -11   -1    0    0    0    0  0.00000000000E+00  0.00000000000E+00  0.45593999997E+02  0.45594000000E+02  0.51100000000E-03 0.  1.
         11   -1    0    0    0    0 -0.00000000000E+00 -0.00000000000E+00 -0.45593999997E+02  0.45594000000E+02  0.51100000000E-03 0. -1.
    9900012    2    1    2    0    0  0.40099280643E+02  0.15026808238E+01 -0.16535207320E+02  0.47787269144E+02  0.19999991333E+02 0.  0.
        -12    1    1    2    0    0 -0.40099280643E+02 -0.15026808238E+01  0.16535207320E+02  0.43400730856E+02  0.00000000000E+00 0.  1.
         11    1    3    3    0    0  0.63892088954E+01 -0.22494437254E+01 -0.16334345877E+01  0.69677899076E+01  0.51100000000E-03 0. -1.
        -11    1    3    3    0    0  0.20657039050E+02  0.46277503198E+00  0.10167507753E+00  0.20662472289E+02  0.51100000000E-03 0.  1.
         12    1    3    3    0    0  0.13053032698E+02  0.32893495172E+01 -0.15003447810E+02  0.20157006947E+02  0.00000000000E+00 0. -1.
</event>
<event>
 7    1  0.4931104E-009  0.4778727E+02  0.7816164E-02  0.1312668E+00
        -11   -1    0    0    0    0  0.00000000000E+00  0.00000000000E+00  0.45593999997E+02  0.45594000000E+02  0.51100000000E-03 0.  1.
         11   -1    0    0    0    0 -0.00000000000E+00 -0.00000000000E+00 -0.45593999997E+02  0.45594000000E+02  0.51100000000E-03 0. -1.
    9900012    2    1    2    0    0  0.13472375011E+02 -0.37490972291E+02 -0.17220507183E+02  0.47787265451E+02  0.19999974497E+02 0.  0.
        -12    1    1    2    0    0 -0.13472375011E+02  0.37490972291E+02  0.17220507183E+02  0.43400734549E+02  0.00000000000E+00 0.  1.
         11    1    3    3    0    0  0.51673868140E+01 -0.13826470308E+02 -0.20832577640E+01  0.14906814913E+02  0.51100000000E-03 0. -1.
        -11    1    3    3    0    0 -0.14734895368E+01 -0.17581726542E+02 -0.98776084883E+01  0.20220173821E+02  0.51100000000E-03 0.  1.
        -12    1    3    3    0    0  0.97784777339E+01 -0.60827754404E+01 -0.52596409303E+01  0.12660276718E+02  0.00000000000E+00 0.  1.
</event>
<event>
 7    1  0.4931104E-009  0.4778727E+02  0.7816164E-02  0.1312668E+00
        -11   -1    0    0    0    0  0.00000000000E+00  0.00000000000E+00  0.45593999997E+02  0.45594000000E+02  0.51100000000E-03 0.  1.
         11   -1    0    0    0    0 -0.00000000000E+00 -0.00000000000E+00 -0.45593999997E+02  0.45594000000E+02  0.51100000000E-03 0. -1.
    9900012    2    1    2    0    0  0.22078401064E+02  0.24287698499E+02 -0.28394992964E+02  0.47787265935E+02  0.19999976705E+02 0.  0.
        -12    1    1    2    0    0 -0.22078401064E+02 -0.24287698499E+02  0.28394992964E+02  0.43400734065E+02  0.00000000000E+00 0.  1.
         11    1    3    3    0    0  0.47225111273E+00  0.45010340571E+01 -0.89009640837E+01  0.99854639640E+01  0.51100000000E-03 0. -1.
        -11    1    3    3    0    0  0.26444454023E+01 -0.21362833355E+01 -0.19017767043E+01  0.38953244883E+01  0.51100000000E-03 0.  1.
         12    1    3    3    0    0  0.18961704549E+02  0.21922947777E+02 -0.17592252176E+02  0.33906477483E+02  0.00000000000E+00 0. -1.
</event>
<event>
 7    1  0.4931104E-009  0.4778727E+02  0.7816164E-02  0.1312668E+00
        -11   -1    0    0    0    0  0.00000000000E+00  0.00000000000E+00  0.45593999997E+02  0.45594000000E+02  0.51100000000E-03 0.  1.
         11   -1    0    0    0    0 -0.00000000000E+00 -0.00000000000E+00 -0.45593999997E+02  0.45594000000E+02  0.51100000000E-03 0. -1.
    9900012    2    1    2    0    0 -0.86762867460E+01 -0.26327961069E+02 -0.33394364208E+02  0.47787273663E+02  0.20000011939E+02 0.  0.
        -12    1    1    2    0    0  0.86762867460E+01  0.26327961069E+02  0.33394364208E+02  0.43400726337E+02  0.00000000000E+00 0.  1.
         11    1    3    3    0    0 -0.22853097550E+01 -0.72737998777E+01 -0.68906334974E+01  0.10276752191E+02  0.51100000000E-03 0. -1.
        -11    1    3    3    0    0 -0.56226310830E+01 -0.31651744249E+01  0.16882180737E+00  0.64545186110E+01  0.51100000000E-03 0.  1.
        -12    1    3    3    0    0 -0.76834590808E+00 -0.15888986767E+02 -0.26672552518E+02  0.31056002861E+02  0.00000000000E+00 0.  1.
</event>
<event>
 7    1  0.4931104E-009  0.4778726E+02  0.7816164E-02  0.1312668E+00
        -11   -1    0    0    0    0  0.00000000000E+00  0.00000000000E+00  0.45593999997E+02  0.45594000000E+02  0.51100000000E-03 0.  1.
         11   -1    0    0    0    0 -0.00000000000E+00 -0.00000000000E+00 -0.45593999997E+02  0.45594000000E+02  0.51100000000E-03 0. -1.
    9900012    2    1    2    0    0  0.27441235627E+02  0.22510395504E+02 -0.24977686216E+02  0.47787261214E+02  0.19999955178E+02 0.  0.
        -12    1    1    2    0    0 -0.27441235627E+02 -0.22510395504E+02  0.24977686216E+02  0.43400738786E+02  0.00000000000E+00 0.  1.
         11    1    3    3    0    0  0.36843944358E+01  0.84128477025E+00 -0.91098721998E+01  0.98626717567E+01  0.51100000000E-03 0. -1.
        -11    1    3    3    0    0  0.26384106514E+01  0.98392131729E+01 -0.37536792357E+01  0.10856400632E+02  0.51100000000E-03 0.  1.
         12    1    3    3    0    0  0.21118430539E+02  0.11829897561E+02 -0.12114134781E+02  0.27068188824E+02  0.00000000000E+00 0. -1.
</event>
<event>
 7    1  0.4931104E-009  0.4778728E+02  0.7816164E-02  0.1312668E+00
        -11   -1    0    0    0    0  0.00000000000E+00  0.00000000000E+00  0.45593999997E+02  0.45594000000E+02  0.51100000000E-03 0.  1.
         11   -1    0    0    0    0 -0.00000000000E+00 -0.00000000000E+00 -0.45593999997E+02  0.45594000000E+02  0.51100000000E-03 0. -1.
    9900012    2    1    2    0    0  0.18448670906E+02 -0.36936806482E+02 -0.13376912048E+02  0.47787275269E+02  0.20000019260E+02 0.  0.
        -12    1    1    2    0    0 -0.18448670906E+02  0.36936806482E+02  0.13376912048E+02  0.43400724731E+02  0.00000000000E+00 0.  1.
         11    1    3    3    0    0  0.15500729654E+02 -0.21164057432E+02 -0.13258925769E+02  0.29393690813E+02  0.51100000000E-03 0. -1.
        -11    1    3    3    0    0 -0.76556402415E+00 -0.30546820328E+01 -0.35115112305E+01  0.47167660510E+01  0.51100000000E-03 0.  1.
        -12    1    3    3    0    0  0.37135052757E+01 -0.12718067017E+02  0.33935249517E+01  0.13676818404E+02  0.00000000000E+00 0.  1.
</event>
<event>
 7    1  0.1062715E-008  0.4778728E+02  0.7816164E-02  0.1312668E+00
        -11   -1    0    0    0    0  0.00000000000E+00  0.00000000000E+00  0.45593999997E+02  0.45594000000E+02  0.51100000000E-03 0. -1.
         11   -1    0    0    0    0 -0.00000000000E+00 -0.00000000000E+00 -0.45593999997E+02  0.45594000000E+02  0.51100000000E-03 0.  1.
    9900012    2    1    2    0    0 -0.25628773085E+02  0.13487859313E+02  0.32324386943E+02  0.47787281688E+02  0.20000048530E+02 0.  0.
        -12    1    1    2    0    0  0.25628773085E+02 -0.13487859313E+02 -0.32324386943E+02  0.43400718312E+02  0.00000000000E+00 0.  1.
         11    1    3    3    0    0 -0.13841204583E+02  0.12272155791E+02  0.17199599419E+02  0.25258879082E+02  0.51100000000E-03 0. -1.
        -11    1    3    3    0    0 -0.10499456457E+02  0.14003948800E+01  0.17128542073E+02  0.20139181848E+02  0.51100000000E-03 0.  1.
        -12    1    3    3    0    0 -0.12881120451E+01 -0.18469135726E+00 -0.20037545488E+01  0.23892207579E+01  0.00000000000E+00 0.  1.
</event>
<event>
 7    1  0.4931104E-009  0.4778727E+02  0.7816164E-02  0.1312668E+00
        -11   -1    0    0    0    0  0.00000000000E+00  0.00000000000E+00  0.45593999997E+02  0.45594000000E+02  0.51100000000E-03 0.  1.
         11   -1    0    0    0    0 -0.00000000000E+00 -0.00000000000E+00 -0.45593999997E+02  0.45594000000E+02  0.51100000000E-03 0. -1.
    9900012    2    1    2    0    0  0.58899063233E+01 -0.40759709135E+02 -0.13695928635E+02  0.47787270209E+02  0.19999996190E+02 0.  0.
        -12    1    1    2    0    0 -0.58899063233E+01  0.40759709135E+02  0.13695928635E+02  0.43400729791E+02  0.00000000000E+00 0.  1.
         11    1    3    3    0    0 -0.28970333120E+01 -0.31091587688E+02 -0.12095428535E+02  0.33486997756E+02  0.51100000000E-03 0. -1.
        -11    1    3    3    0    0  0.20781704185E+00  0.69507190021E+00 -0.29643558419E+00  0.78370095447E+00  0.51100000000E-03 0.  1.
         12    1    3    3    0    0  0.85791225935E+01 -0.10363193347E+02 -0.13040645157E+01  0.13516571498E+02  0.00000000000E+00 0. -1.
</event>
<event>
 7    1  0.4931104E-009  0.4778728E+02  0.7816164E-02  0.1312668E+00
        -11   -1    0    0    0    0  0.00000000000E+00  0.00000000000E+00  0.45593999997E+02  0.45594000000E+02  0.51100000000E-03 0. -1.
         11   -1    0    0    0    0 -0.00000000000E+00 -0.00000000000E+00 -0.45593999997E+02  0.45594000000E+02  0.51100000000E-03 0.  1.
    9900012    2    1    2    0    0 -0.54020265144E+00 -0.12861647481E+02  0.41447664928E+02  0.47787277393E+02  0.20000028945E+02 0.  0.
        -12    1    1    2    0    0  0.54020265144E+00  0.12861647481E+02 -0.41447664928E+02  0.43400722607E+02  0.00000000000E+00 0.  1.
         11    1    3    3    0    0  0.24424304260E+01 -0.13141624299E+01  0.12154265122E+02  0.12466701656E+02  0.51100000000E-03 0. -1.
        -11    1    3    3    0    0  0.39036022314E+01  0.20634042156E+01  0.78267387977E+01  0.89863000065E+01  0.51100000000E-03 0.  1.
         12    1    3    3    0    0 -0.68862353089E+01 -0.13610889267E+02  0.21466661009E+02  0.26334275730E+02  0.00000000000E+00 0. -1.
</event>
<event>
 7    1  0.4931104E-009  0.4778727E+02  0.7816164E-02  0.1312668E+00
        -11   -1    0    0    0    0  0.00000000000E+00  0.00000000000E+00  0.45593999997E+02  0.45594000000E+02  0.51100000000E-03 0.  1.
         11   -1    0    0    0    0 -0.00000000000E+00 -0.00000000000E+00 -0.45593999997E+02  0.45594000000E+02  0.51100000000E-03 0. -1.
    9900012    2    1    2    0    0 -0.97045275185E+01 -0.49786870479E+01 -0.42007839546E+02  0.47787265416E+02  0.19999974339E+02 0.  0.
        -12    1    1    2    0    0  0.97045275185E+01  0.49786870479E+01  0.42007839546E+02  0.43400734584E+02  0.00000000000E+00 0.  1.
         11    1    3    3    0    0 -0.43217287966E+01  0.52150335040E+00 -0.11532482955E+02  0.12326697405E+02  0.51100000000E-03 0. -1.
        -11    1    3    3    0    0 -0.33994164300E+00  0.57695666637E+01 -0.93696473412E+01  0.11008803358E+02  0.51100000000E-03 0.  1.
         12    1    3    3    0    0 -0.50428570789E+01 -0.11269757062E+02 -0.21105709250E+02  0.24451764654E+02  0.00000000000E+00 0. -1.
</event>
<event>
 7    1  0.4931104E-009  0.4778727E+02  0.7816164E-02  0.1312668E+00
        -11   -1    0    0    0    0  0.00000000000E+00  0.00000000000E+00  0.45593999997E+02  0.45594000000E+02  0.51100000000E-03 0.  1.
         11   -1    0    0    0    0 -0.00000000000E+00 -0.00000000000E+00 -0.45593999997E+02  0.45594000000E+02  0.51100000000E-03 0. -1.
    9900012    2    1    2    0    0  0.28803022627E+01 -0.84333940403E+01 -0.42475930874E+02  0.47787274433E+02  0.20000015448E+02 0.  0.
        -12    1    1    2    0    0 -0.28803022627E+01  0.84333940403E+01  0.42475930874E+02  0.43400725567E+02  0.00000000000E+00 0.  1.
         11    1    3    3    0    0  0.25473429721E+01 -0.10133743805E+01 -0.11582313479E+01  0.29761357444E+01  0.51100000000E-03 0. -1.
        -11    1    3    3    0    0 -0.36506855864E+01 -0.54589131446E+01 -0.50805363103E+01  0.83029565477E+01  0.51100000000E-03 0.  1.
         12    1    3    3    0    0  0.39836448770E+01 -0.19611065151E+01 -0.36237163216E+02  0.36508182140E+02  0.00000000000E+00 0. -1.
</event>
<event>
 7    1  0.4931104E-009  0.4778727E+02  0.7816164E-02  0.1312668E+00
        -11   -1    0    0    0    0  0.00000000000E+00  0.00000000000E+00  0.45593999997E+02  0.45594000000E+02  0.51100000000E-03 0.  1.
         11   -1    0    0    0    0 -0.00000000000E+00 -0.00000000000E+00 -0.45593999997E+02  0.45594000000E+02  0.51100000000E-03 0. -1.
    9900012    2    1    2    0    0  0.33897935122E+02  0.92277057686E+01 -0.25483380828E+02  0.47787271231E+02  0.20000000849E+02 0.  0.
        -12    1    1    2    0    0 -0.33897935122E+02 -0.92277057686E+01  0.25483380828E+02  0.43400728769E+02  0.00000000000E+00 0.  1.
         11    1    3    3    0    0  0.33344456331E+01  0.38972374315E+01  0.23178900976E+01  0.56284635597E+01  0.51100000000E-03 0. -1.
        -11    1    3    3    0    0  0.36683099759E+01  0.18787466803E+01 -0.64121461265E+01  0.76224540259E+01  0.51100000000E-03 0.  1.
         12    1    3    3    0    0  0.26895179513E+02  0.34517216568E+01 -0.21389124799E+02  0.34536353645E+02  0.00000000000E+00 0. -1.
</event>
<event>
 7    1  0.4931104E-009  0.4778727E+02  0.7816164E-02  0.1312668E+00
        -11   -1    0    0    0    0  0.00000000000E+00  0.00000000000E+00  0.45593999997E+02  0.45594000000E+02  0.51100000000E-03 0.  1.
         11   -1    0    0    0    0 -0.00000000000E+00 -0.00000000000E+00 -0.45593999997E+02  0.45594000000E+02  0.51100000000E-03 0. -1.
    9900012    2    1    2    0    0 -0.11202483148E+02  0.32739070942E+02 -0.26196971701E+02  0.47787265892E+02  0.19999976509E+02 0.  0.
        -12    1    1    2    0    0  0.11202483148E+02 -0.32739070942E+02  0.26196971701E+02  0.43400734108E+02  0.00000000000E+00 0.  1.
         11    1    3    3    0    0 -0.77271224283E+01  0.51739485333E+01 -0.80079902096E+01  0.12272166553E+02  0.51100000000E-03 0. -1.
        -11    1    3    3    0    0 -0.22150037775E+01  0.15996729405E+02 -0.17566289764E+02  0.23861603671E+02  0.51100000000E-03 0.  1.
         12    1    3    3    0    0 -0.12603569421E+01  0.11568393004E+02 -0.62269172675E+00  0.11653495669E+02  0.00000000000E+00 0. -1.
</event>
<event>
 7    1  0.4931104E-009  0.4778728E+02  0.7816164E-02  0.1312668E+00
        -11   -1    0    0    0    0  0.00000000000E+00  0.00000000000E+00  0.45593999997E+02  0.45594000000E+02  0.51100000000E-03 0. -1.
         11   -1    0    0    0    0 -0.00000000000E+00 -0.00000000000E+00 -0.45593999997E+02  0.45594000000E+02  0.51100000000E-03 0.  1.
    9900012    2    1    2    0    0  0.33014851612E+02 -0.27316890848E+02  0.68869238109E+01  0.47787277977E+02  0.20000031608E+02 0.  0.
        -12    1    1    2    0    0 -0.33014851612E+02  0.27316890848E+02 -0.68869238109E+01  0.43400722023E+02  0.00000000000E+00 0.  1.
         11    1    3    3    0    0  0.92243561417E+01 -0.82224183062E+01 -0.21534522071E+00  0.12358935345E+02  0.51100000000E-03 0. -1.
        -11    1    3    3    0    0 -0.17254727349E+01 -0.31059574202E+01  0.36927510561E+01  0.51245134675E+01  0.51100000000E-03 0.  1.
         12    1    3    3    0    0  0.25515968205E+02 -0.15988515122E+02  0.34095179756E+01  0.30303829165E+02  0.00000000000E+00 0. -1.
</event>
<event>
 7    1  0.4931104E-009  0.4778727E+02  0.7816164E-02  0.1312668E+00
        -11   -1    0    0    0    0  0.00000000000E+00  0.00000000000E+00  0.45593999997E+02  0.45594000000E+02  0.51100000000E-03 0.  1.
         11   -1    0    0    0    0 -0.00000000000E+00 -0.00000000000E+00 -0.45593999997E+02  0.45594000000E+02  0.51100000000E-03 0. -1.
    9900012    2    1    2    0    0  0.11820201564E+01  0.24061641087E+02 -0.36100741574E+02  0.47787270909E+02  0.19999999382E+02 0.  0.
        -12    1    1    2    0    0 -0.11820201564E+01 -0.24061641087E+02  0.36100741574E+02  0.43400729091E+02  0.00000000000E+00 0.  1.
         11    1    3    3    0    0 -0.33500976318E+01  0.23930346074E+01 -0.28279741698E+01  0.49947179040E+01  0.51100000000E-03 0. -1.
        -11    1    3    3    0    0 -0.28757967776E+01 -0.85563508031E+00 -0.22722083372E+01  0.37636749974E+01  0.51100000000E-03 0.  1.
        -12    1    3    3    0    0  0.74079145658E+01  0.22524241560E+02 -0.31000559067E+02  0.39028878008E+02  0.00000000000E+00 0.  1.
</event>
<event>
 7    1  0.4931104E-009  0.4778727E+02  0.7816164E-02  0.1312668E+00
        -11   -1    0    0    0    0  0.00000000000E+00  0.00000000000E+00  0.45593999997E+02  0.45594000000E+02  0.51100000000E-03 0. -1.
         11   -1    0    0    0    0 -0.00000000000E+00 -0.00000000000E+00 -0.45593999997E+02  0.45594000000E+02  0.51100000000E-03 0.  1.
    9900012    2    1    2    0    0  0.23250032273E+02  0.11464016621E+02  0.34808556954E+02  0.47787270571E+02  0.19999997840E+02 0.  0.
        -12    1    1    2    0    0 -0.23250032273E+02 -0.11464016621E+02 -0.34808556954E+02  0.43400729429E+02  0.00000000000E+00 0.  1.
         11    1    3    3    0    0  0.55707351072E+00  0.18212064375E+01  0.64548412266E+01  0.67299405129E+01  0.51100000000E-03 0. -1.
        -11    1    3    3    0    0  0.34302439585E+01 -0.45003132063E+01  0.39455914621E+01  0.68983392797E+01  0.51100000000E-03 0.  1.
         12    1    3    3    0    0  0.19262714804E+02  0.14143123390E+02  0.24408124265E+02  0.34158990778E+02  0.00000000000E+00 0. -1.
</event>
<event>
 7    1  0.4931104E-009  0.4778726E+02  0.7816164E-02  0.1312668E+00
        -11   -1    0    0    0    0  0.00000000000E+00  0.00000000000E+00  0.45593999997E+02  0.45594000000E+02  0.51100000000E-03 0. -1.
         11   -1    0    0    0    0 -0.00000000000E+00 -0.00000000000E+00 -0.45593999997E+02  0.45594000000E+02  0.51100000000E-03 0.  1.
    9900012    2    1    2    0    0 -0.68539074407E+01 -0.42852038257E+02  0.59235988144E+00  0.47787261294E+02  0.19999955543E+02 0.  0.
        -12    1    1    2    0    0  0.68539074407E+01  0.42852038257E+02 -0.59235988144E+00  0.43400738706E+02  0.00000000000E+00 0.  1.
         11    1    3    3    0    0 -0.10931341328E+02 -0.13746358650E+02  0.59723575845E+00  0.17573084254E+02  0.51100000000E-03 0.  1.
        -11    1    3    3    0    0 -0.22900046265E+00 -0.20502559760E+02  0.10810871922E+01  0.20532319589E+02  0.51100000000E-03 0. -1.
        -12    1    3    3    0    0  0.43064343502E+01 -0.86031198468E+01 -0.10859630692E+01  0.96818574508E+01  0.00000000000E+00 0.  1.
</event>
<event>
 7    1  0.4931104E-009  0.4778727E+02  0.7816164E-02  0.1312668E+00
        -11   -1    0    0    0    0  0.00000000000E+00  0.00000000000E+00  0.45593999997E+02  0.45594000000E+02  0.51100000000E-03 0. -1.
         11   -1    0    0    0    0 -0.00000000000E+00 -0.00000000000E+00 -0.45593999997E+02  0.45594000000E+02  0.51100000000E-03 0.  1.
    9900012    2    1    2    0    0  0.95846987742E+01 -0.41659162606E+02  0.75014086522E+01  0.47787269460E+02  0.19999992776E+02 0.  0.
        -12    1    1    2    0    0 -0.95846987742E+01  0.41659162606E+02 -0.75014086522E+01  0.43400730540E+02  0.00000000000E+00 0.  1.
         11    1    3    3    0    0  0.86876773298E+01 -0.31403430999E+02  0.17377544730E+01  0.32629296755E+02  0.51100000000E-03 0. -1.
        -11    1    3    3    0    0 -0.23716275522E+01 -0.92149318760E+01  0.14160602141E+01  0.96200214925E+01  0.51100000000E-03 0.  1.
        -12    1    3    3    0    0  0.32686489966E+01 -0.10407997315E+01  0.43475939652E+01  0.55379512123E+01  0.00000000000E+00 0.  1.
</event>
<event>
 7    1  0.4931104E-009  0.4778727E+02  0.7816164E-02  0.1312668E+00
        -11   -1    0    0    0    0  0.00000000000E+00  0.00000000000E+00  0.45593999997E+02  0.45594000000E+02  0.51100000000E-03 0.  1.
         11   -1    0    0    0    0 -0.00000000000E+00 -0.00000000000E+00 -0.45593999997E+02  0.45594000000E+02  0.51100000000E-03 0. -1.
    9900012    2    1    2    0    0 -0.12166914954E+02 -0.27056488387E+02  0.31678631316E+02  0.47787273446E+02  0.20000010952E+02 0.  0.
        -12    1    1    2    0    0  0.12166914954E+02  0.27056488387E+02 -0.31678631316E+02  0.43400726554E+02  0.00000000000E+00 0.  1.
         11    1    3    3    0    0 -0.40142107633E+00 -0.13023334773E+02  0.60119495666E+01  0.14349631540E+02  0.51100000000E-03 0. -1.
        -11    1    3    3    0    0  0.18249917058E+01 -0.98396633454E+00  0.53078038347E+01  0.56983827778E+01  0.51100000000E-03 0.  1.
         12    1    3    3    0    0 -0.13590485583E+02 -0.13049187279E+02  0.20358877915E+02  0.27739259128E+02  0.00000000000E+00 0. -1.
</event>
<event>
 7    1  0.4931104E-009  0.4778727E+02  0.7816164E-02  0.1312668E+00
        -11   -1    0    0    0    0  0.00000000000E+00  0.00000000000E+00  0.45593999997E+02  0.45594000000E+02  0.51100000000E-03 0. -1.
         11   -1    0    0    0    0 -0.00000000000E+00 -0.00000000000E+00 -0.45593999997E+02  0.45594000000E+02  0.51100000000E-03 0.  1.
    9900012    2    1    2    0    0  0.49090454098E+00 -0.40199687546E+02  0.16351369387E+02  0.47787272508E+02  0.20000006672E+02 0.  0.
        -12    1    1    2    0    0 -0.49090454098E+00  0.40199687546E+02 -0.16351369387E+02  0.43400727492E+02  0.00000000000E+00 0.  1.
         11    1    3    3    0    0 -0.32489889760E+01  0.97846789315E-01 -0.61937202479E+00  0.33089462562E+01  0.51100000000E-03 0. -1.
        -11    1    3    3    0    0  0.60571433846E+00 -0.62855509859E+01  0.57111127201E+01  0.85142145744E+01  0.51100000000E-03 0.  1.
         12    1    3    3    0    0  0.31341791785E+01 -0.34011983349E+02  0.11259628691E+02  0.35964111677E+02  0.00000000000E+00 0. -1.
</event>
<event>
 7    1  0.4931104E-009  0.4778727E+02  0.7816164E-02  0.1312668E+00
        -11   -1    0    0    0    0  0.00000000000E+00  0.00000000000E+00  0.45593999997E+02  0.45594000000E+02  0.51100000000E-03 0.  1.
         11   -1    0    0    0    0 -0.00000000000E+00 -0.00000000000E+00 -0.45593999997E+02  0.45594000000E+02  0.51100000000E-03 0. -1.
    9900012    2    1    2    0    0 -0.41047149994E+02  0.78433597510E+01 -0.11714788919E+02  0.47787273114E+02  0.20000009435E+02 0.  0.
        -12    1    1    2    0    0  0.41047149994E+02 -0.78433597510E+01  0.11714788919E+02  0.43400726886E+02  0.00000000000E+00 0.  1.
         11    1    3    3    0    0 -0.84654245367E+01 -0.31999142233E+01  0.50765552101E+00  0.90642472391E+01  0.51100000000E-03 0. -1.
        -11    1    3    3    0    0  0.46641192868E+00  0.18686258612E+01  0.73159789196E+00  0.20602277624E+01  0.51100000000E-03 0.  1.
         12    1    3    3    0    0 -0.33048137386E+02  0.91746481131E+01 -0.12954042332E+02  0.36662798112E+02  0.00000000000E+00 0. -1.
</event>
<event>
 7    1  0.4931104E-009  0.4778727E+02  0.7816164E-02  0.1312668E+00
        -11   -1    0    0    0    0  0.00000000000E+00  0.00000000000E+00  0.45593999997E+02  0.45594000000E+02  0.51100000000E-03 0. -1.
         11   -1    0    0    0    0 -0.00000000000E+00 -0.00000000000E+00 -0.45593999997E+02  0.45594000000E+02  0.51100000000E-03 0.  1.
    9900012    2    1    2    0    0  0.13057484241E+02  0.36003161075E+02  0.20418078382E+02  0.47787269281E+02  0.19999991962E+02 0.  0.
        -12    1    1    2    0    0 -0.13057484241E+02 -0.36003161075E+02 -0.20418078382E+02  0.43400730719E+02  0.00000000000E+00 0.  1.
         11    1    3    3    0    0  0.11723516948E+02  0.18327175557E+02  0.13730600099E+02  0.25726554236E+02  0.51100000000E-03 0. -1.
        -11    1    3    3    0    0  0.35988975697E+01  0.87212429794E+01  0.84404338892E+01  0.12659110053E+02  0.51100000000E-03 0.  1.
        -12    1    3    3    0    0 -0.22649302765E+01  0.89547425386E+01 -0.17529556058E+01  0.94016049931E+01  0.00000000000E+00 0.  1.
</event>
<event>
 7    1  0.4931104E-009  0.4778726E+02  0.7816164E-02  0.1312668E+00
        -11   -1    0    0    0    0  0.00000000000E+00  0.00000000000E+00  0.45593999997E+02  0.45594000000E+02  0.51100000000E-03 0. -1.
         11   -1    0    0    0    0 -0.00000000000E+00 -0.00000000000E+00 -0.45593999997E+02  0.45594000000E+02  0.51100000000E-03 0.  1.
    9900012    2    1    2    0    0 -0.30109634526E+02 -0.74709706927E+01  0.30351583596E+02  0.47787261283E+02  0.19999955492E+02 0.  0.
        -12    1    1    2    0    0  0.30109634526E+02  0.74709706927E+01 -0.30351583596E+02  0.43400738717E+02  0.00000000000E+00 0.  1.
         11    1    3    3    0    0 -0.81402012711E+01 -0.36247062320E+01  0.15268387551E+02  0.17678377490E+02  0.51100000000E-03 0. -1.
        -11    1    3    3    0    0 -0.48919608050E+01 -0.70035907174E+01  0.34916935770E+01  0.92289483556E+01  0.51100000000E-03 0.  1.
         12    1    3    3    0    0 -0.17077472450E+02  0.31573262567E+01  0.11591502469E+02  0.20879935437E+02  0.00000000000E+00 0. -1.
</event>
<event>
 7    1  0.4931104E-009  0.4778727E+02  0.7816164E-02  0.1312668E+00
        -11   -1    0    0    0    0  0.00000000000E+00  0.00000000000E+00  0.45593999997E+02  0.45594000000E+02  0.51100000000E-03 0.  1.
         11   -1    0    0    0    0 -0.00000000000E+00 -0.00000000000E+00 -0.45593999997E+02  0.45594000000E+02  0.51100000000E-03 0. -1.
    9900012    2    1    2    0    0 -0.23196711495E+02  0.30607240097E+02 -0.20217138600E+02  0.47787271162E+02  0.20000000534E+02 0.  0.
        -12    1    1    2    0    0  0.23196711495E+02 -0.30607240097E+02  0.20217138600E+02  0.43400728838E+02  0.00000000000E+00 0.  1.
         11    1    3    3    0    0 -0.14696841942E+02  0.23196350811E+02 -0.48660674129E+01  0.27888106181E+02  0.51100000000E-03 0. -1.
        -11    1    3    3    0    0 -0.27067194289E+01  0.57493779326E+01 -0.57881787930E+01  0.85956204360E+01  0.51100000000E-03 0.  1.
        -12    1    3    3    0    0 -0.57931501240E+01  0.16615113535E+01 -0.95628923941E+01  0.11303544545E+02  0.00000000000E+00 0.  1.
</event>
<event>
 7    1  0.4931104E-009  0.4778727E+02  0.7816164E-02  0.1312668E+00
        -11   -1    0    0    0    0  0.00000000000E+00  0.00000000000E+00  0.45593999997E+02  0.45594000000E+02  0.51100000000E-03 0.  1.
         11   -1    0    0    0    0 -0.00000000000E+00 -0.00000000000E+00 -0.45593999997E+02  0.45594000000E+02  0.51100000000E-03 0. -1.
    9900012    2    1    2    0    0  0.34606666328E+02 -0.25815120735E+02 -0.44251091964E+01  0.47787269542E+02  0.19999993150E+02 0.  0.
        -12    1    1    2    0    0 -0.34606666328E+02  0.25815120735E+02  0.44251091964E+01  0.43400730458E+02  0.00000000000E+00 0.  1.
         11    1    3    3    0    0 -0.10370864245E+01 -0.22987922579E+01  0.96252690911E+00  0.26993429587E+01  0.51100000000E-03 0. -1.
        -11    1    3    3    0    0  0.58449089115E+01 -0.24923708977E+01  0.38993006349E+01  0.74551605333E+01  0.51100000000E-03 0.  1.
         12    1    3    3    0    0  0.29798843841E+02 -0.21023957579E+02 -0.92869367405E+01  0.37632766050E+02  0.00000000000E+00 0. -1.
</event>
<event>
 7    1  0.4931104E-009  0.4778727E+02  0.7816164E-02  0.1312668E+00
        -11   -1    0    0    0    0  0.00000000000E+00  0.00000000000E+00  0.45593999997E+02  0.45594000000E+02  0.51100000000E-03 0. -1.
         11   -1    0    0    0    0 -0.00000000000E+00 -0.00000000000E+00 -0.45593999997E+02  0.45594000000E+02  0.51100000000E-03 0.  1.
    9900012    2    1    2    0    0 -0.34113173624E+01 -0.16432642670E+02  0.40024422361E+02  0.47787271705E+02  0.20000003010E+02 0.  0.
        -12    1    1    2    0    0  0.34113173624E+01  0.16432642670E+02 -0.40024422361E+02  0.43400728295E+02  0.00000000000E+00 0.  1.
         11    1    3    3    0    0 -0.46196919290E+00 -0.32110224256E+01  0.15850086177E+02  0.16178668445E+02  0.51100000000E-03 0. -1.
        -11    1    3    3    0    0  0.60973413760E+00 -0.31507341005E+01  0.19813010367E+02  0.20071230185E+02  0.51100000000E-03 0.  1.
        -12    1    3    3    0    0 -0.35590823071E+01 -0.10070886144E+02  0.43613258166E+01  0.11537373075E+02  0.00000000000E+00 0.  1.
</event>
<event>
 7    1  0.4931104E-009  0.4778727E+02  0.7816164E-02  0.1312668E+00
        -11   -1    0    0    0    0  0.00000000000E+00  0.00000000000E+00  0.45593999997E+02  0.45594000000E+02  0.51100000000E-03 0.  1.
         11   -1    0    0    0    0 -0.00000000000E+00 -0.00000000000E+00 -0.45593999997E+02  0.45594000000E+02  0.51100000000E-03 0. -1.
    9900012    2    1    2    0    0 -0.21317904142E+01 -0.11832630435E+02 -0.41702131136E+02  0.47787269422E+02  0.19999992605E+02 0.  0.
        -12    1    1    2    0    0  0.21317904142E+01  0.11832630435E+02  0.41702131136E+02  0.43400730578E+02  0.00000000000E+00 0.  1.
         11    1    3    3    0    0 -0.83887683868E+01 -0.59436270874E+01 -0.16959988434E+02  0.19832784624E+02  0.51100000000E-03 0. -1.
        -11    1    3    3    0    0  0.28418624937E+00  0.24984944770E+01 -0.70380556827E+01  0.74737851542E+01  0.51100000000E-03 0.  1.
        -12    1    3    3    0    0  0.59727917232E+01 -0.83874978248E+01 -0.17704087020E+02  0.20480699644E+02  0.00000000000E+00 0.  1.
</event>
<event>
 7    1  0.4931104E-009  0.4778726E+02  0.7816164E-02  0.1312668E+00
        -11   -1    0    0    0    0  0.00000000000E+00  0.00000000000E+00  0.45593999997E+02  0.45594000000E+02  0.51100000000E-03 0.  1.
         11   -1    0    0    0    0 -0.00000000000E+00 -0.00000000000E+00 -0.45593999997E+02  0.45594000000E+02  0.51100000000E-03 0. -1.
    9900012    2    1    2    0    0  0.75181212208E+01  0.14711525995E+02 -0.40133190076E+02  0.47787261649E+02  0.19999957161E+02 0.  0.
        -12    1    1    2    0    0 -0.75181212208E+01 -0.14711525995E+02  0.40133190076E+02  0.43400738351E+02  0.00000000000E+00 0.  1.
         11    1    3    3    0    0  0.62392690076E+01  0.61263100243E+01 -0.12317543805E+02  0.15105695546E+02  0.51100000000E-03 0. -1.
        -11    1    3    3    0    0 -0.41613417614E+01 -0.10378518719E+01 -0.15724113103E+02  0.16298516341E+02  0.51100000000E-03 0.  1.
         12    1    3    3    0    0  0.54401939745E+01  0.96230678428E+01 -0.12091533167E+02  0.16383049762E+02  0.00000000000E+00 0. -1.
</event>
<event>
 7    1  0.4931104E-009  0.4778727E+02  0.7816164E-02  0.1312668E+00
        -11   -1    0    0    0    0  0.00000000000E+00  0.00000000000E+00  0.45593999997E+02  0.45594000000E+02  0.51100000000E-03 0.  1.
         11   -1    0    0    0    0 -0.00000000000E+00 -0.00000000000E+00 -0.45593999997E+02  0.45594000000E+02  0.51100000000E-03 0. -1.
    9900012    2    1    2    0    0 -0.74640379803E+01  0.20433134235E+02 -0.37555272101E+02  0.47787270741E+02  0.19999998616E+02 0.  0.
        -12    1    1    2    0    0  0.74640379803E+01 -0.20433134235E+02  0.37555272101E+02  0.43400729259E+02  0.00000000000E+00 0.  1.
         11    1    3    3    0    0  0.32380828158E+01  0.29213474569E+01 -0.35190488589E+01  0.56038519269E+01  0.51100000000E-03 0. -1.
        -11    1    3    3    0    0 -0.10606184468E+01  0.90313576270E+01 -0.48690598292E+01  0.10314944302E+02  0.51100000000E-03 0.  1.
         12    1    3    3    0    0 -0.96415023493E+01  0.84804291509E+01 -0.29167163413E+02  0.31868474512E+02  0.00000000000E+00 0. -1.
</event>
<event>
 7    1  0.4931104E-009  0.4778726E+02  0.7816164E-02  0.1312668E+00
        -11   -1    0    0    0    0  0.00000000000E+00  0.00000000000E+00  0.45593999997E+02  0.45594000000E+02  0.51100000000E-03 0.  1.
         11   -1    0    0    0    0 -0.00000000000E+00 -0.00000000000E+00 -0.45593999997E+02  0.45594000000E+02  0.51100000000E-03 0. -1.
    9900012    2    1    2    0    0 -0.41860337782E+02 -0.22753980975E+01 -0.11232031386E+02  0.47787264467E+02  0.19999970013E+02 0.  0.
        -12    1    1    2    0    0  0.41860337782E+02  0.22753980975E+01  0.11232031386E+02  0.43400735533E+02  0.00000000000E+00 0.  1.
         11    1    3    3    0    0 -0.83886029945E+01  0.15284345818E+01 -0.49847177462E+01  0.98768509020E+01  0.51100000000E-03 0. -1.
        -11    1    3    3    0    0  0.73845973343E+00 -0.17600805892E+01  0.18903004893E+01  0.26863437344E+01  0.51100000000E-03 0.  1.
         12    1    3    3    0    0 -0.34210194521E+02 -0.20437520901E+01 -0.81376141294E+01  0.35224069831E+02  0.00000000000E+00 0. -1.
</event>
<event>
 7    1  0.4931104E-009  0.4778727E+02  0.7816164E-02  0.1312668E+00
        -11   -1    0    0    0    0  0.00000000000E+00  0.00000000000E+00  0.45593999997E+02  0.45594000000E+02  0.51100000000E-03 0.  1.
         11   -1    0    0    0    0 -0.00000000000E+00 -0.00000000000E+00 -0.45593999997E+02  0.45594000000E+02  0.51100000000E-03 0. -1.
    9900012    2    1    2    0    0 -0.31902910580E+02 -0.20563818735E+01 -0.29353004102E+02  0.47787271208E+02  0.20000000747E+02 0.  0.
        -12    1    1    2    0    0  0.31902910580E+02  0.20563818735E+01  0.29353004102E+02  0.43400728792E+02  0.00000000000E+00 0.  1.
         11    1    3    3    0    0  0.17986626388E+01 -0.81279910361E+00 -0.16195365217E+01  0.25531800715E+01  0.51100000000E-03 0. -1.
        -11    1    3    3    0    0 -0.34283007610E+01  0.12668334596E+01  0.58866538368E+00  0.37019778926E+01  0.51100000000E-03 0.  1.
         12    1    3    3    0    0 -0.30273272457E+02 -0.25104162295E+01 -0.28322132964E+02  0.41532113244E+02  0.00000000000E+00 0. -1.
</event>
<event>
 7    1  0.4931104E-009  0.4778727E+02  0.7816164E-02  0.1312668E+00
        -11   -1    0    0    0    0  0.00000000000E+00  0.00000000000E+00  0.45593999997E+02  0.45594000000E+02  0.51100000000E-03 0.  1.
         11   -1    0    0    0    0 -0.00000000000E+00 -0.00000000000E+00 -0.45593999997E+02  0.45594000000E+02  0.51100000000E-03 0. -1.
    9900012    2    1    2    0    0 -0.32595717428E+02 -0.28184242296E+02  0.51760147170E+01  0.47787269168E+02  0.19999991444E+02 0.  0.
        -12    1    1    2    0    0  0.32595717428E+02  0.28184242296E+02 -0.51760147170E+01  0.43400730832E+02  0.00000000000E+00 0.  1.
         11    1    3    3    0    0 -0.13651426148E+02 -0.18457406227E+02  0.30734902082E+01  0.23162116113E+02  0.51100000000E-03 0. -1.
        -11    1    3    3    0    0 -0.19610140947E+02 -0.11349852634E+02  0.12974132918E+01  0.22694934772E+02  0.51100000000E-03 0.  1.
        -12    1    3    3    0    0  0.66584966759E+00  0.16230165648E+01  0.80511121699E+00  0.19302182833E+01  0.00000000000E+00 0.  1.
</event>
<event>
 7    1  0.4931104E-009  0.4778727E+02  0.7816164E-02  0.1312668E+00
        -11   -1    0    0    0    0  0.00000000000E+00  0.00000000000E+00  0.45593999997E+02  0.45594000000E+02  0.51100000000E-03 0. -1.
         11   -1    0    0    0    0 -0.00000000000E+00 -0.00000000000E+00 -0.45593999997E+02  0.45594000000E+02  0.51100000000E-03 0.  1.
    9900012    2    1    2    0    0  0.33811549774E+02 -0.27158957366E+02  0.16713615667E+01  0.47787270596E+02  0.19999997954E+02 0.  0.
        -12    1    1    2    0    0 -0.33811549774E+02  0.27158957366E+02 -0.16713615667E+01  0.43400729404E+02  0.00000000000E+00 0.  1.
         11    1    3    3    0    0  0.91296904521E+01 -0.69295233603E+00  0.34177640814E+01  0.97730518401E+01  0.51100000000E-03 0.  1.
        -11    1    3    3    0    0  0.19100214049E+02 -0.13390640789E+02  0.16907658698E+01  0.23387734540E+02  0.51100000000E-03 0. -1.
         12    1    3    3    0    0  0.55816452732E+01 -0.13075364242E+02 -0.34371683844E+01  0.14626484216E+02  0.00000000000E+00 0. -1.
</event>
<event>
 7    1  0.4931104E-009  0.4778728E+02  0.7816164E-02  0.1312668E+00
        -11   -1    0    0    0    0  0.00000000000E+00  0.00000000000E+00  0.45593999997E+02  0.45594000000E+02  0.51100000000E-03 0.  1.
         11   -1    0    0    0    0 -0.00000000000E+00 -0.00000000000E+00 -0.45593999997E+02  0.45594000000E+02  0.51100000000E-03 0. -1.
    9900012    2    1    2    0    0  0.11635603360E+02  0.32333237265E+02 -0.26510325009E+02  0.47787276162E+02  0.20000023334E+02 0.  0.
        -12    1    1    2    0    0 -0.11635603360E+02 -0.32333237265E+02  0.26510325009E+02  0.43400723838E+02  0.00000000000E+00 0.  1.
         11    1    3    3    0    0  0.17100430655E+01  0.95752748964E+00 -0.36477998095E+01  0.41409600204E+01  0.51100000000E-03 0. -1.
        -11    1    3    3    0    0  0.11258227984E+02  0.23359044180E+02 -0.87607654981E+01  0.27370488756E+02  0.51100000000E-03 0.  1.
        -12    1    3    3    0    0 -0.13326676895E+01  0.80166655950E+01 -0.14101759701E+02  0.16275827386E+02  0.00000000000E+00 0.  1.
</event>
<event>
 7    1  0.4931104E-009  0.4778727E+02  0.7816164E-02  0.1312668E+00
        -11   -1    0    0    0    0  0.00000000000E+00  0.00000000000E+00  0.45593999997E+02  0.45594000000E+02  0.51100000000E-03 0.  1.
         11   -1    0    0    0    0 -0.00000000000E+00 -0.00000000000E+00 -0.45593999997E+02  0.45594000000E+02  0.51100000000E-03 0. -1.
    9900012    2    1    2    0    0 -0.36765284593E+02  0.67093180795E+01 -0.22066318501E+02  0.47787268295E+02  0.19999987466E+02 0.  0.
        -12    1    1    2    0    0  0.36765284593E+02 -0.67093180795E+01  0.22066318501E+02  0.43400731705E+02  0.00000000000E+00 0.  1.
         11    1    3    3    0    0 -0.27861128240E+02  0.10352746867E+02 -0.17141936345E+02  0.34311336558E+02  0.51100000000E-03 0. -1.
        -11    1    3    3    0    0 -0.78040848426E+01 -0.27359908741E+00 -0.59139234693E+01  0.97955646980E+01  0.51100000000E-03 0.  1.
        -12    1    3    3    0    0 -0.11000715112E+01 -0.33698296998E+01  0.98954131369E+00  0.36803670397E+01  0.00000000000E+00 0.  1.
</event>
<event>
 7    1  0.4931104E-009  0.4778732E+02  0.7816164E-02  0.1312668E+00
        -11   -1    0    0    0    0  0.00000000000E+00  0.00000000000E+00  0.45593999997E+02  0.45594000000E+02  0.51100000000E-03 0. -1.
         11   -1    0    0    0    0 -0.00000000000E+00 -0.00000000000E+00 -0.45593999997E+02  0.45594000000E+02  0.51100000000E-03 0.  1.
    9900012    2    1    2    0    0 -0.12810543729E+02 -0.40048566317E+02 -0.10752716613E+02  0.47787324784E+02  0.20000245017E+02 0.  0.
        -12    1    1    2    0    0  0.12810543729E+02  0.40048566317E+02  0.10752716613E+02  0.43400675216E+02  0.00000000000E+00 0.  1.
         11    1    3    3    0    0  0.23026922224E+01 -0.41980444606E+01  0.12729054729E+01  0.49544179646E+01  0.51100000000E-03 0. -1.
        -11    1    3    3    0    0  0.12658430820E+01 -0.68360721642E+01 -0.55389432931E+01  0.88889895043E+01  0.51100000000E-03 0.  1.
         12    1    3    3    0    0 -0.16379079033E+02 -0.29014449692E+02 -0.64866787924E+01  0.33943917315E+02  0.00000000000E+00 0. -1.
</event>
<event>
 7    1  0.4931104E-009  0.4778727E+02  0.7816164E-02  0.1312668E+00
        -11   -1    0    0    0    0  0.00000000000E+00  0.00000000000E+00  0.45593999997E+02  0.45594000000E+02  0.51100000000E-03 0. -1.
         11   -1    0    0    0    0 -0.00000000000E+00 -0.00000000000E+00 -0.45593999997E+02  0.45594000000E+02  0.51100000000E-03 0.  1.
    9900012    2    1    2    0    0 -0.18557111237E+02  0.37759644624E+02  0.10652062811E+02  0.47787267498E+02  0.19999983831E+02 0.  0.
        -12    1    1    2    0    0  0.18557111237E+02 -0.37759644624E+02 -0.10652062811E+02  0.43400732502E+02  0.00000000000E+00 0.  1.
         11    1    3    3    0    0 -0.22070053549E+01  0.81045112549E+01  0.76423054591E+01  0.11356003184E+02  0.51100000000E-03 0. -1.
        -11    1    3    3    0    0 -0.10501236590E+01  0.15262995180E+02  0.14724995631E+01  0.15369776732E+02  0.51100000000E-03 0.  1.
        -12    1    3    3    0    0 -0.15299982223E+02  0.14392138188E+02  0.15372577887E+01  0.21061487582E+02  0.00000000000E+00 0.  1.
</event>
<event>
 7    1  0.4931104E-009  0.4778727E+02  0.7816164E-02  0.1312668E+00
        -11   -1    0    0    0    0  0.00000000000E+00  0.00000000000E+00  0.45593999997E+02  0.45594000000E+02  0.51100000000E-03 0.  1.
         11   -1    0    0    0    0 -0.00000000000E+00 -0.00000000000E+00 -0.45593999997E+02  0.45594000000E+02  0.51100000000E-03 0. -1.
    9900012    2    1    2    0    0 -0.21828319974E+02  0.30583607273E+02 -0.21720738659E+02  0.47787273341E+02  0.20000010469E+02 0.  0.
        -12    1    1    2    0    0  0.21828319974E+02 -0.30583607273E+02  0.21720738659E+02  0.43400726659E+02  0.00000000000E+00 0.  1.
         11    1    3    3    0    0 -0.55915079709E+01  0.11995704002E+02 -0.30692280703E+01  0.13586097199E+02  0.51100000000E-03 0. -1.
        -11    1    3    3    0    0  0.10362647203E+01 -0.30949519069E+00  0.13374204175E+01  0.17199783365E+01  0.51100000000E-03 0.  1.
         12    1    3    3    0    0 -0.17273076723E+02  0.18897398461E+02 -0.19988931006E+02  0.32481197805E+02  0.00000000000E+00 0. -1.
</event>
<event>
 7    1  0.4931104E-009  0.4778728E+02  0.7816164E-02  0.1312668E+00
        -11   -1    0    0    0    0  0.00000000000E+00  0.00000000000E+00  0.45593999997E+02  0.45594000000E+02  0.51100000000E-03 0.  1.
         11   -1    0    0    0    0 -0.00000000000E+00 -0.00000000000E+00 -0.45593999997E+02  0.45594000000E+02  0.51100000000E-03 0. -1.
    9900012    2    1    2    0    0  0.22648145524E+02  0.25820637474E+02 -0.26532603725E+02  0.47787275633E+02  0.20000020919E+02 0.  0.
        -12    1    1    2    0    0 -0.22648145524E+02 -0.25820637474E+02  0.26532603725E+02  0.43400724367E+02  0.00000000000E+00 0.  1.
         11    1    3    3    0    0  0.72705385535E+01  0.16111624391E+02 -0.12172161278E+02  0.21461749272E+02  0.51100000000E-03 0. -1.
        -11    1    3    3    0    0 -0.15009797151E+01  0.30423882921E+01 -0.37268443289E+00  0.34129108651E+01  0.51100000000E-03 0.  1.
        -12    1    3    3    0    0  0.16878586685E+02  0.66666247906E+01 -0.13987758014E+02  0.22912615496E+02  0.00000000000E+00 0.  1.
</event>
<event>
 7    1  0.4931104E-009  0.4778727E+02  0.7816164E-02  0.1312668E+00
        -11   -1    0    0    0    0  0.00000000000E+00  0.00000000000E+00  0.45593999997E+02  0.45594000000E+02  0.51100000000E-03 0.  1.
         11   -1    0    0    0    0 -0.00000000000E+00 -0.00000000000E+00 -0.45593999997E+02  0.45594000000E+02  0.51100000000E-03 0. -1.
    9900012    2    1    2    0    0  0.12311071870E+02 -0.28620966689E+02 -0.30214253511E+02  0.47787270282E+02  0.19999996525E+02 0.  0.
        -12    1    1    2    0    0 -0.12311071870E+02  0.28620966689E+02  0.30214253511E+02  0.43400729718E+02  0.00000000000E+00 0.  1.
         11    1    3    3    0    0  0.82287605366E+01 -0.20774082447E+02 -0.18568279814E+02  0.29052642169E+02  0.51100000000E-03 0. -1.
        -11    1    3    3    0    0  0.24088910845E+01 -0.87306077530E+01 -0.25008758346E+01  0.93957782112E+01  0.51100000000E-03 0.  1.
        -12    1    3    3    0    0  0.16734202488E+01  0.88372351136E+00 -0.91450978627E+01  0.93388499020E+01  0.00000000000E+00 0.  1.
</event>
<event>
 7    1  0.4931104E-009  0.4778727E+02  0.7816164E-02  0.1312668E+00
        -11   -1    0    0    0    0  0.00000000000E+00  0.00000000000E+00  0.45593999997E+02  0.45594000000E+02  0.51100000000E-03 0.  1.
         11   -1    0    0    0    0 -0.00000000000E+00 -0.00000000000E+00 -0.45593999997E+02  0.45594000000E+02  0.51100000000E-03 0. -1.
    9900012    2    1    2    0    0  0.19473615279E+02  0.26328896076E+00 -0.38785723143E+02  0.47787270365E+02  0.19999996904E+02 0.  0.
        -12    1    1    2    0    0 -0.19473615279E+02 -0.26328896076E+00  0.38785723143E+02  0.43400729635E+02  0.00000000000E+00 0.  1.
         11    1    3    3    0    0  0.12863912344E+02 -0.30000133293E+01 -0.14680535291E+02  0.19748378097E+02  0.51100000000E-03 0. -1.
        -11    1    3    3    0    0  0.48210003794E+01  0.37168137052E+01 -0.28812050982E+01  0.67348416356E+01  0.51100000000E-03 0.  1.
         12    1    3    3    0    0  0.17887025550E+01 -0.45351141519E+00 -0.21223982754E+02  0.21304050633E+02  0.00000000000E+00 0. -1.
</event>
<event>
 7    1  0.4931104E-009  0.4778727E+02  0.7816164E-02  0.1312668E+00
        -11   -1    0    0    0    0  0.00000000000E+00  0.00000000000E+00  0.45593999997E+02  0.45594000000E+02  0.51100000000E-03 0.  1.
         11   -1    0    0    0    0 -0.00000000000E+00 -0.00000000000E+00 -0.45593999997E+02  0.45594000000E+02  0.51100000000E-03 0. -1.
    9900012    2    1    2    0    0  0.41558401516E+02 -0.27427655929E+00 -0.12507906110E+02  0.47787266372E+02  0.19999978695E+02 0.  0.
        -12    1    1    2    0    0 -0.41558401516E+02  0.27427655929E+00  0.12507906110E+02  0.43400733628E+02  0.00000000000E+00 0.  1.
         11    1    3    3    0    0  0.16268438568E+02  0.73948017757E+01 -0.60823173218E+01  0.18876964030E+02  0.51100000000E-03 0. -1.
        -11    1    3    3    0    0  0.16095511527E+02 -0.21078243692E+00 -0.17903318592E+01  0.16196147968E+02  0.51100000000E-03 0.  1.
        -12    1    3    3    0    0  0.91944514213E+01 -0.74582958981E+01 -0.46352569291E+01  0.12714154374E+02  0.00000000000E+00 0.  1.
</event>
<event>
 7    1  0.4931104E-009  0.4778727E+02  0.7816164E-02  0.1312668E+00
        -11   -1    0    0    0    0  0.00000000000E+00  0.00000000000E+00  0.45593999997E+02  0.45594000000E+02  0.51100000000E-03 0. -1.
         11   -1    0    0    0    0 -0.00000000000E+00 -0.00000000000E+00 -0.45593999997E+02  0.45594000000E+02  0.51100000000E-03 0.  1.
    9900012    2    1    2    0    0 -0.40901138540E+02  0.12969446819E+01  0.14458151181E+02  0.47787270341E+02  0.19999996794E+02 0.  0.
        -12    1    1    2    0    0  0.40901138540E+02 -0.12969446819E+01 -0.14458151181E+02  0.43400729659E+02  0.00000000000E+00 0.  1.
         11    1    3    3    0    0 -0.26355511092E+02  0.23350190352E+01  0.32921131113E+01  0.26662769695E+02  0.51100000000E-03 0. -1.
        -11    1    3    3    0    0 -0.53434531008E+01 -0.13767886675E+01 -0.12584089490E+01  0.56596494078E+01  0.51100000000E-03 0.  1.
        -12    1    3    3    0    0 -0.92021743464E+01  0.33871431425E+00  0.12424447019E+02  0.15464851238E+02  0.00000000000E+00 0.  1.
</event>
<event>
 7    1  0.4931104E-009  0.4778727E+02  0.7816164E-02  0.1312668E+00
        -11   -1    0    0    0    0  0.00000000000E+00  0.00000000000E+00  0.45593999997E+02  0.45594000000E+02  0.51100000000E-03 0.  1.
         11   -1    0    0    0    0 -0.00000000000E+00 -0.00000000000E+00 -0.45593999997E+02  0.45594000000E+02  0.51100000000E-03 0. -1.
    9900012    2    1    2    0    0  0.41309828969E+02  0.99294313134E-01 -0.13308323294E+02  0.47787270770E+02  0.19999998747E+02 0.  0.
        -12    1    1    2    0    0 -0.41309828969E+02 -0.99294313134E-01  0.13308323294E+02  0.43400729230E+02  0.00000000000E+00 0.  1.
         11    1    3    3    0    0  0.42535726143E+01 -0.61348613823E+01 -0.28006872225E+01  0.79732837241E+01  0.51100000000E-03 0. -1.
        -11    1    3    3    0    0  0.57416706079E+01  0.35072224713E+01 -0.18972943053E+00  0.67307791785E+01  0.51100000000E-03 0.  1.
         12    1    3    3    0    0  0.31314585747E+02  0.27269332242E+01 -0.10317906641E+02  0.33083207867E+02  0.00000000000E+00 0. -1.
</event>
<event>
 7    1  0.4931104E-009  0.4778727E+02  0.7816164E-02  0.1312668E+00
        -11   -1    0    0    0    0  0.00000000000E+00  0.00000000000E+00  0.45593999997E+02  0.45594000000E+02  0.51100000000E-03 0. -1.
         11   -1    0    0    0    0 -0.00000000000E+00 -0.00000000000E+00 -0.45593999997E+02  0.45594000000E+02  0.51100000000E-03 0.  1.
    9900012    2    1    2    0    0 -0.29425559067E+02  0.16919190156E+02 -0.27046275393E+02  0.47787268041E+02  0.19999986308E+02 0.  0.
        -12    1    1    2    0    0  0.29425559067E+02 -0.16919190156E+02  0.27046275393E+02  0.43400731959E+02  0.00000000000E+00 0.  1.
         11    1    3    3    0    0 -0.15168056669E+02  0.11417680079E+01 -0.10768907669E+02  0.18637138995E+02  0.51100000000E-03 0. -1.
        -11    1    3    3    0    0  0.10894556600E+00 -0.67619686305E+00  0.10605583826E+01  0.12624958131E+01  0.51100000000E-03 0.  1.
         12    1    3    3    0    0 -0.14366447964E+02  0.16453619011E+02 -0.17337926107E+02  0.27887633233E+02  0.00000000000E+00 0. -1.
</event>
<event>
 7    1  0.4931104E-009  0.4778727E+02  0.7816164E-02  0.1312668E+00
        -11   -1    0    0    0    0  0.00000000000E+00  0.00000000000E+00  0.45593999997E+02  0.45594000000E+02  0.51100000000E-03 0.  1.
         11   -1    0    0    0    0 -0.00000000000E+00 -0.00000000000E+00 -0.45593999997E+02  0.45594000000E+02  0.51100000000E-03 0. -1.
    9900012    2    1    2    0    0 -0.17395504659E+02  0.12017923042E+02 -0.37902368851E+02  0.47787267044E+02  0.19999981761E+02 0.  0.
        -12    1    1    2    0    0  0.17395504659E+02 -0.12017923042E+02  0.37902368851E+02  0.43400732956E+02  0.00000000000E+00 0.  1.
         11    1    3    3    0    0 -0.69118433326E+01  0.10515500383E+02 -0.17070921512E+02  0.21207679931E+02  0.51100000000E-03 0. -1.
        -11    1    3    3    0    0  0.14836082548E+01  0.14535092328E+01 -0.10699452270E+02  0.10899177110E+02  0.51100000000E-03 0.  1.
        -12    1    3    3    0    0 -0.11967269582E+02  0.48913426342E-01 -0.10131995069E+02  0.15680410003E+02  0.00000000000E+00 0.  1.
</event>
<event>
 7    1  0.4931104E-009  0.4778726E+02  0.7816164E-02  0.1312668E+00
        -11   -1    0    0    0    0  0.00000000000E+00  0.00000000000E+00  0.45593999997E+02  0.45594000000E+02  0.51100000000E-03 0.  1.
         11   -1    0    0    0    0 -0.00000000000E+00 -0.00000000000E+00 -0.45593999997E+02  0.45594000000E+02  0.51100000000E-03 0. -1.
    9900012    2    1    2    0    0  0.85651436224E+01  0.18174286209E+02 -0.38470223722E+02  0.47787257176E+02  0.19999936769E+02 0.  0.
        -12    1    1    2    0    0 -0.85651436224E+01 -0.18174286209E+02  0.38470223722E+02  0.43400742824E+02  0.00000000000E+00 0.  1.
         11    1    3    3    0    0  0.48246978898E+01  0.54758786704E+01 -0.13574467470E+01  0.74233158947E+01  0.51100000000E-03 0. -1.
        -11    1    3    3    0    0 -0.99759254562E+00 -0.88993947232E+00 -0.49718176775E+01  0.51484128069E+01  0.51100000000E-03 0.  1.
         12    1    3    3    0    0  0.47380382782E+01  0.13588347011E+02 -0.32140959297E+02  0.35215528475E+02  0.00000000000E+00 0. -1.
</event>
<event>
 7    1  0.4931104E-009  0.4778727E+02  0.7816164E-02  0.1312668E+00
        -11   -1    0    0    0    0  0.00000000000E+00  0.00000000000E+00  0.45593999997E+02  0.45594000000E+02  0.51100000000E-03 0.  1.
         11   -1    0    0    0    0 -0.00000000000E+00 -0.00000000000E+00 -0.45593999997E+02  0.45594000000E+02  0.51100000000E-03 0. -1.
    9900012    2    1    2    0    0  0.20931847333E+02  0.24221598237E+01 -0.37942250845E+02  0.47787268553E+02  0.19999988640E+02 0.  0.
        -12    1    1    2    0    0 -0.20931847333E+02 -0.24221598237E+01  0.37942250845E+02  0.43400731447E+02  0.00000000000E+00 0.  1.
         11    1    3    3    0    0  0.23017095602E+02  0.14107848801E+01 -0.35753734472E+02  0.42545346783E+02  0.51100000000E-03 0. -1.
        -11    1    3    3    0    0  0.57549953484E+00  0.16214233275E+01 -0.17906850911E+01  0.24832975412E+01  0.51100000000E-03 0.  1.
        -12    1    3    3    0    0 -0.26607478042E+01 -0.61004838384E+00 -0.39783128202E+00  0.27586242291E+01  0.00000000000E+00 0.  1.
</event>
<event>
 7    1  0.4931104E-009  0.4778728E+02  0.7816164E-02  0.1312668E+00
        -11   -1    0    0    0    0  0.00000000000E+00  0.00000000000E+00  0.45593999997E+02  0.45594000000E+02  0.51100000000E-03 0. -1.
         11   -1    0    0    0    0 -0.00000000000E+00 -0.00000000000E+00 -0.45593999997E+02  0.45594000000E+02  0.51100000000E-03 0.  1.
    9900012    2    1    2    0    0 -0.37342331613E+02  0.19011879929E+02  0.11301387089E+02  0.47787278129E+02  0.20000032303E+02 0.  0.
        -12    1    1    2    0    0  0.37342331613E+02 -0.19011879929E+02 -0.11301387089E+02  0.43400721871E+02  0.00000000000E+00 0.  1.
         11    1    3    3    0    0 -0.14318156644E+02  0.14073176766E+02 -0.21699757389E+01  0.20193382801E+02  0.51100000000E-03 0. -1.
        -11    1    3    3    0    0 -0.27508432919E+01  0.21845313543E+01  0.10824611814E+01  0.36757364602E+01  0.51100000000E-03 0.  1.
        -12    1    3    3    0    0 -0.20273331677E+02  0.27541718088E+01  0.12388901647E+02  0.23918158869E+02  0.00000000000E+00 0.  1.
</event>
<event>
 7    1  0.4931104E-009  0.4778727E+02  0.7816164E-02  0.1312668E+00
        -11   -1    0    0    0    0  0.00000000000E+00  0.00000000000E+00  0.45593999997E+02  0.45594000000E+02  0.51100000000E-03 0.  1.
         11   -1    0    0    0    0 -0.00000000000E+00 -0.00000000000E+00 -0.45593999997E+02  0.45594000000E+02  0.51100000000E-03 0. -1.
    9900012    2    1    2    0    0 -0.28184735052E+02  0.32401794983E+02 -0.62743637374E+01  0.47787271338E+02  0.20000001340E+02 0.  0.
        -12    1    1    2    0    0  0.28184735052E+02 -0.32401794983E+02  0.62743637374E+01  0.43400728662E+02  0.00000000000E+00 0.  1.
         11    1    3    3    0    0 -0.11933631753E+02  0.11018379410E+02  0.40248935802E+01  0.16733679220E+02  0.51100000000E-03 0. -1.
        -11    1    3    3    0    0 -0.15187466014E+00  0.43038045836E+01  0.17760023002E+01  0.46583241877E+01  0.51100000000E-03 0.  1.
        -12    1    3    3    0    0 -0.16099228638E+02  0.17079610989E+02 -0.12075259618E+02  0.26395267930E+02  0.00000000000E+00 0.  1.
</event>
<event>
 7    1  0.4931104E-009  0.4778727E+02  0.7816164E-02  0.1312668E+00
        -11   -1    0    0    0    0  0.00000000000E+00  0.00000000000E+00  0.45593999997E+02  0.45594000000E+02  0.51100000000E-03 0.  1.
         11   -1    0    0    0    0 -0.00000000000E+00 -0.00000000000E+00 -0.45593999997E+02  0.45594000000E+02  0.51100000000E-03 0. -1.
    9900012    2    1    2    0    0  0.13861692998E+02 -0.70198306060E+01 -0.40524051226E+02  0.47787270947E+02  0.19999999558E+02 0.  0.
        -12    1    1    2    0    0 -0.13861692998E+02  0.70198306060E+01  0.40524051226E+02  0.43400729053E+02  0.00000000000E+00 0.  1.
         11    1    3    3    0    0  0.15107165835E+02 -0.16115555971E+01 -0.20990528310E+02  0.25911886269E+02  0.51100000000E-03 0.  1.
        -11    1    3    3    0    0  0.30757302698E+01 -0.36348405035E+01 -0.12994616700E+02  0.13839517535E+02  0.51100000000E-03 0. -1.
        -12    1    3    3    0    0 -0.43212031067E+01 -0.17734345054E+01 -0.65389062166E+01  0.80358671432E+01  0.00000000000E+00 0.  1.
</event>
<event>
 7    1  0.4931104E-009  0.4778728E+02  0.7816164E-02  0.1312668E+00
        -11   -1    0    0    0    0  0.00000000000E+00  0.00000000000E+00  0.45593999997E+02  0.45594000000E+02  0.51100000000E-03 0.  1.
         11   -1    0    0    0    0 -0.00000000000E+00 -0.00000000000E+00 -0.45593999997E+02  0.45594000000E+02  0.51100000000E-03 0. -1.
    9900012    2    1    2    0    0 -0.36382128769E+02 -0.23339180498E+02  0.39046449063E+01  0.47787275445E+02  0.20000020063E+02 0.  0.
        -12    1    1    2    0    0  0.36382128769E+02  0.23339180498E+02 -0.39046449063E+01  0.43400724555E+02  0.00000000000E+00 0.  1.
         11    1    3    3    0    0 -0.71543106730E+01 -0.13408331755E+02  0.18460858217E+01  0.15309329011E+02  0.51100000000E-03 0.  1.
        -11    1    3    3    0    0 -0.98254269198E+01 -0.80700860195E+01  0.26049742416E+01  0.12978874896E+02  0.51100000000E-03 0. -1.
        -12    1    3    3    0    0 -0.19402391176E+02 -0.18607627231E+01 -0.54641515700E+00  0.19499071537E+02  0.00000000000E+00 0.  1.
</event>
<event>
 7    1  0.4931104E-009  0.4778727E+02  0.7816164E-02  0.1312668E+00
        -11   -1    0    0    0    0  0.00000000000E+00  0.00000000000E+00  0.45593999997E+02  0.45594000000E+02  0.51100000000E-03 0.  1.
         11   -1    0    0    0    0 -0.00000000000E+00 -0.00000000000E+00 -0.45593999997E+02  0.45594000000E+02  0.51100000000E-03 0. -1.
    9900012    2    1    2    0    0  0.29544024724E+02 -0.31360748403E+02 -0.52227750627E+01  0.47787270551E+02  0.19999997752E+02 0.  0.
        -12    1    1    2    0    0 -0.29544024724E+02  0.31360748403E+02  0.52227750627E+01  0.43400729449E+02  0.00000000000E+00 0.  1.
         11    1    3    3    0    0  0.14063572133E+02 -0.55852171939E+01 -0.63268174450E+01  0.16401442970E+02  0.51100000000E-03 0. -1.
        -11    1    3    3    0    0  0.39247560356E+01 -0.10383029944E+01  0.29882843254E+00  0.40707593567E+01  0.51100000000E-03 0.  1.
        -12    1    3    3    0    0  0.11555696556E+02 -0.24737228215E+02  0.80521394975E+00  0.27315068225E+02  0.00000000000E+00 0.  1.
</event>
<event>
 7    1  0.4931104E-009  0.4778727E+02  0.7816164E-02  0.1312668E+00
        -11   -1    0    0    0    0  0.00000000000E+00  0.00000000000E+00  0.45593999997E+02  0.45594000000E+02  0.51100000000E-03 0. -1.
         11   -1    0    0    0    0 -0.00000000000E+00 -0.00000000000E+00 -0.45593999997E+02  0.45594000000E+02  0.51100000000E-03 0.  1.
    9900012    2    1    2    0    0  0.29349098373E+02  0.31415837360E+02 -0.59413003743E+01  0.47787268871E+02  0.19999990091E+02 0.  0.
        -12    1    1    2    0    0 -0.29349098373E+02 -0.31415837360E+02  0.59413003743E+01  0.43400731129E+02  0.00000000000E+00 0.  1.
         11    1    3    3    0    0  0.42556460163E+01 -0.10035890921E+01 -0.78699072970E+00  0.44426420913E+01  0.51100000000E-03 0. -1.
        -11    1    3    3    0    0  0.50529507211E+00 -0.29659427006E+00 -0.22398918997E+01  0.23152553325E+01  0.51100000000E-03 0.  1.
        -12    1    3    3    0    0  0.24588157285E+02  0.32716020722E+02 -0.29144177449E+01  0.41029371447E+02  0.00000000000E+00 0.  1.
</event>
<event>
 7    1  0.4931104E-009  0.4778727E+02  0.7816164E-02  0.1312668E+00
        -11   -1    0    0    0    0  0.00000000000E+00  0.00000000000E+00  0.45593999997E+02  0.45594000000E+02  0.51100000000E-03 0. -1.
         11   -1    0    0    0    0 -0.00000000000E+00 -0.00000000000E+00 -0.45593999997E+02  0.45594000000E+02  0.51100000000E-03 0.  1.
    9900012    2    1    2    0    0 -0.19353191007E+01  0.42847013449E+02  0.66340851550E+01  0.47787272962E+02  0.20000008744E+02 0.  0.
        -12    1    1    2    0    0  0.19353191007E+01 -0.42847013449E+02 -0.66340851550E+01  0.43400727038E+02  0.00000000000E+00 0.  1.
         11    1    3    3    0    0 -0.19042427385E-01  0.18643513305E+01 -0.12941518631E+01  0.22695809753E+01  0.51100000000E-03 0. -1.
        -11    1    3    3    0    0  0.73204263707E+01  0.13946316196E+02 -0.40682120702E+00  0.15756074430E+02  0.51100000000E-03 0.  1.
         12    1    3    3    0    0 -0.92367030439E+01  0.27036345923E+02  0.83350582251E+01  0.29761617557E+02  0.00000000000E+00 0. -1.
</event>
<event>
 7    1  0.4931104E-009  0.4778727E+02  0.7816164E-02  0.1312668E+00
        -11   -1    0    0    0    0  0.00000000000E+00  0.00000000000E+00  0.45593999997E+02  0.45594000000E+02  0.51100000000E-03 0. -1.
         11   -1    0    0    0    0 -0.00000000000E+00 -0.00000000000E+00 -0.45593999997E+02  0.45594000000E+02  0.51100000000E-03 0.  1.
    9900012    2    1    2    0    0 -0.88570264974E+01 -0.25179810535E+02  0.34222125408E+02  0.47787266775E+02  0.19999980536E+02 0.  0.
        -12    1    1    2    0    0  0.88570264974E+01  0.25179810535E+02 -0.34222125408E+02  0.43400733225E+02  0.00000000000E+00 0.  1.
         11    1    3    3    0    0 -0.79529736344E+01 -0.17104481435E+02  0.18190177993E+02  0.26204878372E+02  0.51100000000E-03 0. -1.
        -11    1    3    3    0    0 -0.74819290842E+00 -0.11155711669E+02  0.13872290466E+02  0.17817130479E+02  0.51100000000E-03 0.  1.
        -12    1    3    3    0    0 -0.15585995456E+00  0.30803825695E+01  0.21596569494E+01  0.37652579246E+01  0.00000000000E+00 0.  1.
</event>
<event>
 7    1  0.4931104E-009  0.4778727E+02  0.7816164E-02  0.1312668E+00
        -11   -1    0    0    0    0  0.00000000000E+00  0.00000000000E+00  0.45593999997E+02  0.45594000000E+02  0.51100000000E-03 0. -1.
         11   -1    0    0    0    0 -0.00000000000E+00 -0.00000000000E+00 -0.45593999997E+02  0.45594000000E+02  0.51100000000E-03 0.  1.
    9900012    2    1    2    0    0 -0.32498709817E+02  0.27983504029E+02  0.66618568724E+01  0.47787274493E+02  0.20000015724E+02 0.  0.
        -12    1    1    2    0    0  0.32498709817E+02 -0.27983504029E+02 -0.66618568724E+01  0.43400725507E+02  0.00000000000E+00 0.  1.
         11    1    3    3    0    0 -0.34027492705E+01  0.12447600933E+02  0.12935914652E+01  0.12968995748E+02  0.51100000000E-03 0. -1.
        -11    1    3    3    0    0 -0.23607549637E+01  0.52289693985E+01  0.12339002893E+01  0.58683724451E+01  0.51100000000E-03 0.  1.
        -12    1    3    3    0    0 -0.26735205583E+02  0.10306933698E+02  0.41343651180E+01  0.28949906300E+02  0.00000000000E+00 0.  1.
</event>
<event>
 7    1  0.4931104E-009  0.4778727E+02  0.7816164E-02  0.1312668E+00
        -11   -1    0    0    0    0  0.00000000000E+00  0.00000000000E+00  0.45593999997E+02  0.45594000000E+02  0.51100000000E-03 0.  1.
         11   -1    0    0    0    0 -0.00000000000E+00 -0.00000000000E+00 -0.45593999997E+02  0.45594000000E+02  0.51100000000E-03 0. -1.
    9900012    2    1    2    0    0  0.15280215323E+02  0.40601189101E+02  0.12967883630E+01  0.47787271932E+02  0.20000004048E+02 0.  0.
        -12    1    1    2    0    0 -0.15280215323E+02 -0.40601189101E+02 -0.12967883630E+01  0.43400728068E+02  0.00000000000E+00 0.  1.
         11    1    3    3    0    0  0.10597285780E+02  0.11822702862E+02  0.21375482834E+01  0.16020233512E+02  0.51100000000E-03 0. -1.
        -11    1    3    3    0    0  0.45520908519E+01  0.16314764903E+02  0.54658215176E+01  0.17797985563E+02  0.51100000000E-03 0.  1.
        -12    1    3    3    0    0  0.13083869174E+00  0.12463721335E+02 -0.63065814380E+01  0.13969052857E+02  0.00000000000E+00 0.  1.
</event>
<event>
 7    1  0.4931104E-009  0.4778721E+02  0.7816164E-02  0.1312668E+00
        -11   -1    0    0    0    0  0.00000000000E+00  0.00000000000E+00  0.45593999997E+02  0.45594000000E+02  0.51100000000E-03 0. -1.
         11   -1    0    0    0    0 -0.00000000000E+00 -0.00000000000E+00 -0.45593999997E+02  0.45594000000E+02  0.51100000000E-03 0.  1.
    9900012    2    1    2    0    0 -0.35356513610E+02  0.25018627999E+02  0.27593207474E+01  0.47787209079E+02  0.19999717472E+02 0.  0.
        -12    1    1    2    0    0  0.35356513610E+02 -0.25018627999E+02 -0.27593207474E+01  0.43400790921E+02  0.00000000000E+00 0.  1.
         11    1    3    3    0    0 -0.17025558601E+02  0.22614188185E+02  0.33215844366E+00  0.28308682103E+02  0.51100000000E-03 0. -1.
        -11    1    3    3    0    0 -0.16131653825E+02  0.38410028846E+01  0.13437807435E+01  0.16636986062E+02  0.51100000000E-03 0.  1.
         12    1    3    3    0    0 -0.21993011841E+01 -0.14365630710E+01  0.10833815603E+01  0.28415409130E+01  0.00000000000E+00 0. -1.
</event>
<event>
 7    1  0.4931104E-009  0.4778727E+02  0.7816164E-02  0.1312668E+00
        -11   -1    0    0    0    0  0.00000000000E+00  0.00000000000E+00  0.45593999997E+02  0.45594000000E+02  0.51100000000E-03 0.  1.
         11   -1    0    0    0    0 -0.00000000000E+00 -0.00000000000E+00 -0.45593999997E+02  0.45594000000E+02  0.51100000000E-03 0. -1.
    9900012    2    1    2    0    0  0.15202293526E+02  0.72580865033E+01 -0.39997919286E+02  0.47787273102E+02  0.20000009380E+02 0.  0.
        -12    1    1    2    0    0 -0.15202293526E+02 -0.72580865033E+01  0.39997919286E+02  0.43400726898E+02  0.00000000000E+00 0.  1.
         11    1    3    3    0    0 -0.12780285178E+01 -0.12144114636E+01 -0.10403048902E+02  0.10551378053E+02  0.51100000000E-03 0. -1.
        -11    1    3    3    0    0  0.64226223165E+01 -0.32054466969E+01 -0.98551645192E+01  0.12192179211E+02  0.51100000000E-03 0.  1.
         12    1    3    3    0    0  0.10057699727E+02  0.11677944664E+02 -0.19739705864E+02  0.25043715838E+02  0.00000000000E+00 0. -1.
</event>
<event>
 7    1  0.4931104E-009  0.4778727E+02  0.7816164E-02  0.1312668E+00
        -11   -1    0    0    0    0  0.00000000000E+00  0.00000000000E+00  0.45593999997E+02  0.45594000000E+02  0.51100000000E-03 0.  1.
         11   -1    0    0    0    0 -0.00000000000E+00 -0.00000000000E+00 -0.45593999997E+02  0.45594000000E+02  0.51100000000E-03 0. -1.
    9900012    2    1    2    0    0  0.13254994157E+00 -0.19280983068E+02 -0.38882505769E+02  0.47787272674E+02  0.20000007429E+02 0.  0.
        -12    1    1    2    0    0 -0.13254994157E+00  0.19280983068E+02  0.38882505769E+02  0.43400727326E+02  0.00000000000E+00 0.  1.
         11    1    3    3    0    0  0.45167711739E+01 -0.12670524451E+02 -0.22495639979E+02  0.26210632004E+02  0.51100000000E-03 0. -1.
        -11    1    3    3    0    0 -0.91958693393E+00 -0.83743757517E+01 -0.15418520178E+02  0.17570047641E+02  0.51100000000E-03 0.  1.
        -12    1    3    3    0    0 -0.34646342984E+01  0.17639171349E+01 -0.96834561215E+00  0.40065930296E+01  0.00000000000E+00 0.  1.
</event>
<event>
 7    1  0.4931104E-009  0.4778727E+02  0.7816164E-02  0.1312668E+00
        -11   -1    0    0    0    0  0.00000000000E+00  0.00000000000E+00  0.45593999997E+02  0.45594000000E+02  0.51100000000E-03 0.  1.
         11   -1    0    0    0    0 -0.00000000000E+00 -0.00000000000E+00 -0.45593999997E+02  0.45594000000E+02  0.51100000000E-03 0. -1.
    9900012    2    1    2    0    0  0.59369204038E+01  0.34011711494E+02 -0.26297904840E+02  0.47787270265E+02  0.19999996444E+02 0.  0.
        -12    1    1    2    0    0 -0.59369204038E+01 -0.34011711494E+02  0.26297904840E+02  0.43400729735E+02  0.00000000000E+00 0.  1.
         11    1    3    3    0    0  0.60030063115E+01  0.26729882908E+02 -0.20215101313E+02  0.34046630471E+02  0.51100000000E-03 0. -1.
        -11    1    3    3    0    0  0.12654004682E+01  0.75512599306E+01 -0.15390171817E+00  0.76580970798E+01  0.51100000000E-03 0.  1.
         12    1    3    3    0    0 -0.13314863759E+01 -0.26943134447E+00 -0.59289018082E+01  0.60825427142E+01  0.00000000000E+00 0. -1.
</event>
<event>
 7    1  0.4931104E-009  0.4778727E+02  0.7816164E-02  0.1312668E+00
        -11   -1    0    0    0    0  0.00000000000E+00  0.00000000000E+00  0.45593999997E+02  0.45594000000E+02  0.51100000000E-03 0. -1.
         11   -1    0    0    0    0 -0.00000000000E+00 -0.00000000000E+00 -0.45593999997E+02  0.45594000000E+02  0.51100000000E-03 0.  1.
    9900012    2    1    2    0    0 -0.40943375026E+02  0.56526838237E+01  0.13240475957E+02  0.47787274240E+02  0.20000014570E+02 0.  0.
        -12    1    1    2    0    0  0.40943375026E+02 -0.56526838237E+01 -0.13240475957E+02  0.43400725760E+02  0.00000000000E+00 0.  1.
         11    1    3    3    0    0 -0.34702225829E+01  0.26863859692E+01  0.11247992259E+00  0.43899619980E+01  0.51100000000E-03 0.  1.
        -11    1    3    3    0    0 -0.20100489975E+02  0.46459476056E+01 -0.14149088469E+01  0.20678890050E+02  0.51100000000E-03 0. -1.
         12    1    3    3    0    0 -0.17372662467E+02 -0.16796497511E+01  0.14542904881E+02  0.22718422192E+02  0.00000000000E+00 0. -1.
</event>
<event>
 7    1  0.4931104E-009  0.4778727E+02  0.7816164E-02  0.1312668E+00
        -11   -1    0    0    0    0  0.00000000000E+00  0.00000000000E+00  0.45593999997E+02  0.45594000000E+02  0.51100000000E-03 0. -1.
         11   -1    0    0    0    0 -0.00000000000E+00 -0.00000000000E+00 -0.45593999997E+02  0.45594000000E+02  0.51100000000E-03 0.  1.
    9900012    2    1    2    0    0 -0.38707185818E+02  0.13523820102E+02 -0.14229662707E+02  0.47787271379E+02  0.20000001525E+02 0.  0.
        -12    1    1    2    0    0  0.38707185818E+02 -0.13523820102E+02  0.14229662707E+02  0.43400728621E+02  0.00000000000E+00 0.  1.
         11    1    3    3    0    0 -0.11551096103E+01  0.56010338447E+01  0.18817060151E+01  0.60205212507E+01  0.51100000000E-03 0. -1.
        -11    1    3    3    0    0 -0.13121586851E+02  0.12433413654E+01 -0.62559237160E+01  0.14589671725E+02  0.51100000000E-03 0.  1.
         12    1    3    3    0    0 -0.24430489357E+02  0.66794448921E+01 -0.98554450057E+01  0.27177078404E+02  0.00000000000E+00 0. -1.
</event>
<event>
 7    1  0.5003329E-009  0.4778727E+02  0.7816164E-02  0.1312668E+00
        -11   -1    0    0    0    0  0.00000000000E+00  0.00000000000E+00  0.45593999997E+02  0.45594000000E+02  0.51100000000E-03 0.  1.
         11   -1    0    0    0    0 -0.00000000000E+00 -0.00000000000E+00 -0.45593999997E+02  0.45594000000E+02  0.51100000000E-03 0. -1.
    9900012    2    1    2    0    0 -0.42317845764E+02 -0.20975211595E+01 -0.94033901764E+01  0.47787269454E+02  0.19999992748E+02 0.  0.
        -12    1    1    2    0    0  0.42317845764E+02  0.20975211595E+01  0.94033901764E+01  0.43400730546E+02  0.00000000000E+00 0.  1.
         11    1    3    3    0    0 -0.20004224247E+02 -0.38405307106E+01 -0.33847212363E+01  0.20648849895E+02  0.51100000000E-03 0. -1.
        -11    1    3    3    0    0 -0.18887938299E+02  0.41658030024E+01 -0.96262235623E+01  0.21604913982E+02  0.51100000000E-03 0.  1.
        -12    1    3    3    0    0 -0.34256832183E+01 -0.24227934514E+01  0.36075546223E+01  0.55335055772E+01  0.00000000000E+00 0.  1.
</event>
<event>
 7    1  0.4931104E-009  0.4778726E+02  0.7816164E-02  0.1312668E+00
        -11   -1    0    0    0    0  0.00000000000E+00  0.00000000000E+00  0.45593999997E+02  0.45594000000E+02  0.51100000000E-03 0.  1.
         11   -1    0    0    0    0 -0.00000000000E+00 -0.00000000000E+00 -0.45593999997E+02  0.45594000000E+02  0.51100000000E-03 0. -1.
    9900012    2    1    2    0    0 -0.26638689945E+02 -0.22384359093E+01 -0.34190548542E+02  0.47787262599E+02  0.19999961494E+02 0.  0.
        -12    1    1    2    0    0  0.26638689945E+02  0.22384359093E+01  0.34190548542E+02  0.43400737401E+02  0.00000000000E+00 0.  1.
         11    1    3    3    0    0 -0.97637657787E+00 -0.68980123544E+00 -0.11938852198E+00  0.12014120220E+01  0.51100000000E-03 0. -1.
        -11    1    3    3    0    0 -0.83579232146E+01  0.52239184923E+01 -0.28618365454E+01  0.10263250633E+02  0.51100000000E-03 0.  1.
         12    1    3    3    0    0 -0.17304390153E+02 -0.67725531662E+01 -0.31209323475E+02  0.36322599944E+02  0.00000000000E+00 0. -1.
</event>
<event>
 7    1  0.4931104E-009  0.4778727E+02  0.7816164E-02  0.1312668E+00
        -11   -1    0    0    0    0  0.00000000000E+00  0.00000000000E+00  0.45593999997E+02  0.45594000000E+02  0.51100000000E-03 0. -1.
         11   -1    0    0    0    0 -0.00000000000E+00 -0.00000000000E+00 -0.45593999997E+02  0.45594000000E+02  0.51100000000E-03 0.  1.
    9900012    2    1    2    0    0 -0.42028700242E+02 -0.10776025266E+02 -0.10436428659E+01  0.47787267805E+02  0.19999985232E+02 0.  0.
        -12    1    1    2    0    0  0.42028700242E+02  0.10776025266E+02  0.10436428659E+01  0.43400732195E+02  0.00000000000E+00 0.  1.
         11    1    3    3    0    0 -0.31407055680E+02 -0.32940022242E+01  0.27397297936E+00  0.31580510740E+02  0.51100000000E-03 0. -1.
        -11    1    3    3    0    0 -0.55252268761E+01  0.14688118674E+01 -0.14794253714E+01  0.59054415605E+01  0.51100000000E-03 0.  1.
        -12    1    3    3    0    0 -0.50964176860E+01 -0.89508349095E+01  0.16180952607E+00  0.10301315505E+02  0.00000000000E+00 0.  1.
</event>
<event>
 7    1  0.4931104E-009  0.4778727E+02  0.7816164E-02  0.1312668E+00
        -11   -1    0    0    0    0  0.00000000000E+00  0.00000000000E+00  0.45593999997E+02  0.45594000000E+02  0.51100000000E-03 0.  1.
         11   -1    0    0    0    0 -0.00000000000E+00 -0.00000000000E+00 -0.45593999997E+02  0.45594000000E+02  0.51100000000E-03 0. -1.
    9900012    2    1    2    0    0 -0.13171980269E+02 -0.40888444879E+02 -0.61852282147E+01  0.47787273774E+02  0.20000012447E+02 0.  0.
        -12    1    1    2    0    0  0.13171980269E+02  0.40888444879E+02  0.61852282147E+01  0.43400726226E+02  0.00000000000E+00 0.  1.
         11    1    3    3    0    0  0.24290035706E+01 -0.67390808123E+01 -0.28481377096E+01  0.77089011678E+01  0.51100000000E-03 0.  1.
        -11    1    3    3    0    0  0.12474214185E+01 -0.22018459494E+01 -0.30447818055E+01  0.39591517127E+01  0.51100000000E-03 0. -1.
        -12    1    3    3    0    0 -0.16848405258E+02 -0.31947518118E+02 -0.29230869963E+00  0.36119220894E+02  0.00000000000E+00 0.  1.
</event>
<event>
 7    1  0.4931104E-009  0.4778727E+02  0.7816164E-02  0.1312668E+00
        -11   -1    0    0    0    0  0.00000000000E+00  0.00000000000E+00  0.45593999997E+02  0.45594000000E+02  0.51100000000E-03 0. -1.
         11   -1    0    0    0    0 -0.00000000000E+00 -0.00000000000E+00 -0.45593999997E+02  0.45594000000E+02  0.51100000000E-03 0.  1.
    9900012    2    1    2    0    0  0.18267349520E+02 -0.34320975197E+02  0.19287245867E+02  0.47787271318E+02  0.20000001247E+02 0.  0.
        -12    1    1    2    0    0 -0.18267349520E+02  0.34320975197E+02 -0.19287245867E+02  0.43400728682E+02  0.00000000000E+00 0.  1.
         11    1    3    3    0    0  0.12099151994E+02 -0.20132886084E+02  0.13357307046E+02  0.27021107172E+02  0.51100000000E-03 0. -1.
        -11    1    3    3    0    0  0.63945333016E+01 -0.74985660389E+00  0.14558488662E+01  0.66008967007E+01  0.51100000000E-03 0.  1.
         12    1    3    3    0    0 -0.22633577490E+00 -0.13438232509E+02  0.44740899550E+01  0.14165267445E+02  0.00000000000E+00 0. -1.
</event>
<event>
 7    1  0.4931104E-009  0.4778727E+02  0.7816164E-02  0.1312668E+00
        -11   -1    0    0    0    0  0.00000000000E+00  0.00000000000E+00  0.45593999997E+02  0.45594000000E+02  0.51100000000E-03 0.  1.
         11   -1    0    0    0    0 -0.00000000000E+00 -0.00000000000E+00 -0.45593999997E+02  0.45594000000E+02  0.51100000000E-03 0. -1.
    9900012    2    1    2    0    0  0.26840576001E+02  0.92606971477E-02 -0.34105816567E+02  0.47787270403E+02  0.19999997076E+02 0.  0.
        -12    1    1    2    0    0 -0.26840576001E+02 -0.92606971477E-02  0.34105816567E+02  0.43400729597E+02  0.00000000000E+00 0.  1.
         11    1    3    3    0    0 -0.15299715073E+00 -0.23288978440E+01 -0.14933129400E+00  0.23386905294E+01  0.51100000000E-03 0.  1.
        -11    1    3    3    0    0  0.16509319222E+02 -0.11094414782E+01 -0.28915931313E+02  0.33315455355E+02  0.51100000000E-03 0. -1.
         12    1    3    3    0    0  0.10484253930E+02  0.34476000193E+01 -0.50405539603E+01  0.12133124519E+02  0.00000000000E+00 0. -1.
</event>
<event>
 7    1  0.4931104E-009  0.4778727E+02  0.7816164E-02  0.1312668E+00
        -11   -1    0    0    0    0  0.00000000000E+00  0.00000000000E+00  0.45593999997E+02  0.45594000000E+02  0.51100000000E-03 0. -1.
         11   -1    0    0    0    0 -0.00000000000E+00 -0.00000000000E+00 -0.45593999997E+02  0.45594000000E+02  0.51100000000E-03 0.  1.
    9900012    2    1    2    0    0  0.42106699506E+02  0.90021180873E+00  0.10480389412E+02  0.47787273199E+02  0.20000009824E+02 0.  0.
        -12    1    1    2    0    0 -0.42106699506E+02 -0.90021180873E+00 -0.10480389412E+02  0.43400726801E+02  0.00000000000E+00 0.  1.
         11    1    3    3    0    0  0.90173469817E+01 -0.15512230830E-01  0.54980202809E+01  0.10561297955E+02  0.51100000000E-03 0.  1.
        -11    1    3    3    0    0  0.10729136374E+01  0.37154543329E+01 -0.19757802779E+01  0.43427471192E+01  0.51100000000E-03 0. -1.
         12    1    3    3    0    0  0.32016438887E+02 -0.27997302933E+01  0.69581494090E+01  0.32883228125E+02  0.00000000000E+00 0. -1.
</event>
<event>
 7    1  0.4931104E-009  0.4778727E+02  0.7816164E-02  0.1312668E+00
        -11   -1    0    0    0    0  0.00000000000E+00  0.00000000000E+00  0.45593999997E+02  0.45594000000E+02  0.51100000000E-03 0.  1.
         11   -1    0    0    0    0 -0.00000000000E+00 -0.00000000000E+00 -0.45593999997E+02  0.45594000000E+02  0.51100000000E-03 0. -1.
    9900012    2    1    2    0    0 -0.10606889294E+02  0.31670695413E+02 -0.27714334704E+02  0.47787269632E+02  0.19999993558E+02 0.  0.
        -12    1    1    2    0    0  0.10606889294E+02 -0.31670695413E+02  0.27714334704E+02  0.43400730368E+02  0.00000000000E+00 0.  1.
         11    1    3    3    0    0 -0.12620105567E+01  0.21341304362E+00  0.61407637646E+00  0.14196146765E+01  0.51100000000E-03 0. -1.
        -11    1    3    3    0    0  0.33576386207E+00  0.18555696617E+01 -0.10113411836E+02  0.10287709919E+02  0.51100000000E-03 0.  1.
         12    1    3    3    0    0 -0.96806425997E+01  0.29601712708E+02 -0.18214999244E+02  0.36079945036E+02  0.00000000000E+00 0. -1.
</event>
<event>
 7    1  0.4931104E-009  0.4778727E+02  0.7816164E-02  0.1312668E+00
        -11   -1    0    0    0    0  0.00000000000E+00  0.00000000000E+00  0.45593999997E+02  0.45594000000E+02  0.51100000000E-03 0.  1.
         11   -1    0    0    0    0 -0.00000000000E+00 -0.00000000000E+00 -0.45593999997E+02  0.45594000000E+02  0.51100000000E-03 0. -1.
    9900012    2    1    2    0    0 -0.23062349013E+02 -0.29277147400E+02 -0.22239609747E+02  0.47787267938E+02  0.19999985835E+02 0.  0.
        -12    1    1    2    0    0  0.23062349013E+02  0.29277147400E+02  0.22239609747E+02  0.43400732062E+02  0.00000000000E+00 0.  1.
         11    1    3    3    0    0 -0.16060861322E+02 -0.86031301560E+01 -0.50742544802E+01  0.18913306789E+02  0.51100000000E-03 0. -1.
        -11    1    3    3    0    0 -0.23668095908E+00  0.70935135935E+00 -0.27263712262E+00  0.79594502897E+00  0.51100000000E-03 0.  1.
        -12    1    3    3    0    0 -0.67648067312E+01 -0.21383368604E+02 -0.16892718144E+02  0.28078016120E+02  0.00000000000E+00 0.  1.
</event>
<event>
 7    1  0.4931104E-009  0.4778727E+02  0.7816164E-02  0.1312668E+00
        -11   -1    0    0    0    0  0.00000000000E+00  0.00000000000E+00  0.45593999997E+02  0.45594000000E+02  0.51100000000E-03 0. -1.
         11   -1    0    0    0    0 -0.00000000000E+00 -0.00000000000E+00 -0.45593999997E+02  0.45594000000E+02  0.51100000000E-03 0.  1.
    9900012    2    1    2    0    0 -0.13738777774E+02  0.12541955648E+02  0.39211842007E+02  0.47787271668E+02  0.20000002841E+02 0.  0.
        -12    1    1    2    0    0  0.13738777774E+02 -0.12541955648E+02 -0.39211842007E+02  0.43400728332E+02  0.00000000000E+00 0.  1.
         11    1    3    3    0    0 -0.66560983098E+01  0.55725244390E+01  0.27956832483E+02  0.29273557284E+02  0.51100000000E-03 0. -1.
        -11    1    3    3    0    0 -0.50681176983E+01  0.99109361412E+01  0.83657478124E+01  0.13924733711E+02  0.51100000000E-03 0.  1.
        -12    1    3    3    0    0 -0.20145617662E+01 -0.29415049320E+01  0.28892617118E+01  0.45889806726E+01  0.00000000000E+00 0.  1.
</event>
<event>
 7    1  0.4931104E-009  0.4778727E+02  0.7816164E-02  0.1312668E+00
        -11   -1    0    0    0    0  0.00000000000E+00  0.00000000000E+00  0.45593999997E+02  0.45594000000E+02  0.51100000000E-03 0.  1.
         11   -1    0    0    0    0 -0.00000000000E+00 -0.00000000000E+00 -0.45593999997E+02  0.45594000000E+02  0.51100000000E-03 0. -1.
    9900012    2    1    2    0    0  0.29572074609E+02 -0.16589309379E+02 -0.27090782600E+02  0.47787270925E+02  0.19999999455E+02 0.  0.
        -12    1    1    2    0    0 -0.29572074609E+02  0.16589309379E+02  0.27090782600E+02  0.43400729075E+02  0.00000000000E+00 0.  1.
         11    1    3    3    0    0  0.16878974107E+02 -0.30102495294E+01 -0.73785992683E+01  0.18665612676E+02  0.51100000000E-03 0. -1.
        -11    1    3    3    0    0  0.11183039802E+02 -0.42555302311E+01 -0.10307310585E+02  0.15792737841E+02  0.51100000000E-03 0.  1.
        -12    1    3    3    0    0  0.15100607003E+01 -0.93235296186E+01 -0.94048727470E+01  0.13328920408E+02  0.00000000000E+00 0.  1.
</event>
<event>
 7    1  0.4931104E-009  0.4778726E+02  0.7816164E-02  0.1312668E+00
        -11   -1    0    0    0    0  0.00000000000E+00  0.00000000000E+00  0.45593999997E+02  0.45594000000E+02  0.51100000000E-03 0.  1.
         11   -1    0    0    0    0 -0.00000000000E+00 -0.00000000000E+00 -0.45593999997E+02  0.45594000000E+02  0.51100000000E-03 0. -1.
    9900012    2    1    2    0    0 -0.29034766306E+02  0.15692398874E+02 -0.28184302308E+02  0.47787263446E+02  0.19999965356E+02 0.  0.
        -12    1    1    2    0    0  0.29034766306E+02 -0.15692398874E+02  0.28184302308E+02  0.43400736554E+02  0.00000000000E+00 0.  1.
         11    1    3    3    0    0 -0.24940361183E+02  0.96076490254E+01 -0.28018338511E+02  0.38721516356E+02  0.51100000000E-03 0. -1.
        -11    1    3    3    0    0 -0.13964894520E+01  0.82604929624E+00 -0.22715490044E+01  0.27915005588E+01  0.51100000000E-03 0.  1.
        -12    1    3    3    0    0 -0.26979156711E+01  0.52587005523E+01  0.21055852080E+01  0.62742465313E+01  0.00000000000E+00 0.  1.
</event>
<event>
 7    1  0.4931104E-009  0.4778727E+02  0.7816164E-02  0.1312668E+00
        -11   -1    0    0    0    0  0.00000000000E+00  0.00000000000E+00  0.45593999997E+02  0.45594000000E+02  0.51100000000E-03 0.  1.
         11   -1    0    0    0    0 -0.00000000000E+00 -0.00000000000E+00 -0.45593999997E+02  0.45594000000E+02  0.51100000000E-03 0. -1.
    9900012    2    1    2    0    0  0.15243703766E+02 -0.39662772754E+02 -0.88383966970E+01  0.47787270706E+02  0.19999998459E+02 0.  0.
        -12    1    1    2    0    0 -0.15243703766E+02  0.39662772754E+02  0.88383966970E+01  0.43400729294E+02  0.00000000000E+00 0.  1.
         11    1    3    3    0    0 -0.10485431111E+01 -0.51278983469E+01 -0.17111787597E+01  0.55066248393E+01  0.51100000000E-03 0. -1.
        -11    1    3    3    0    0 -0.17662298077E+01 -0.90136814099E+00 -0.33846638525E+01  0.39227518293E+01  0.51100000000E-03 0.  1.
         12    1    3    3    0    0  0.18058476685E+02 -0.33633506266E+02 -0.37425540848E+01  0.38357894038E+02  0.00000000000E+00 0. -1.
</event>
<event>
 7    1  0.4931104E-009  0.4778728E+02  0.7816164E-02  0.1312668E+00
        -11   -1    0    0    0    0  0.00000000000E+00  0.00000000000E+00  0.45593999997E+02  0.45594000000E+02  0.51100000000E-03 0. -1.
         11   -1    0    0    0    0 -0.00000000000E+00 -0.00000000000E+00 -0.45593999997E+02  0.45594000000E+02  0.51100000000E-03 0.  1.
    9900012    2    1    2    0    0  0.25939876758E+00 -0.17850685897E+02 -0.39558924415E+02  0.47787276785E+02  0.20000026175E+02 0.  0.
        -12    1    1    2    0    0 -0.25939876758E+00  0.17850685897E+02  0.39558924415E+02  0.43400723215E+02  0.00000000000E+00 0.  1.
         11    1    3    3    0    0  0.16373636952E+01  0.13771960305E+01 -0.15468999127E+01  0.26401758233E+01  0.51100000000E-03 0. -1.
        -11    1    3    3    0    0  0.28468207634E+01  0.13278822337E+01 -0.30999410887E+01  0.44133088154E+01  0.51100000000E-03 0.  1.
         12    1    3    3    0    0 -0.42247856910E+01 -0.20555764161E+02 -0.34912083413E+02  0.40733792147E+02  0.00000000000E+00 0. -1.
</event>
<event>
 7    1  0.4931104E-009  0.4778727E+02  0.7816164E-02  0.1312668E+00
        -11   -1    0    0    0    0  0.00000000000E+00  0.00000000000E+00  0.45593999997E+02  0.45594000000E+02  0.51100000000E-03 0.  1.
         11   -1    0    0    0    0 -0.00000000000E+00 -0.00000000000E+00 -0.45593999997E+02  0.45594000000E+02  0.51100000000E-03 0. -1.
    9900012    2    1    2    0    0  0.65013839271E+01  0.39882893624E+02 -0.15833838525E+02  0.47787266835E+02  0.19999980809E+02 0.  0.
        -12    1    1    2    0    0 -0.65013839271E+01 -0.39882893624E+02  0.15833838525E+02  0.43400733165E+02  0.00000000000E+00 0.  1.
         11    1    3    3    0    0 -0.80171124554E+00  0.28572831906E+01 -0.57259419641E-01  0.29681790806E+01  0.51100000000E-03 0. -1.
        -11    1    3    3    0    0 -0.23887544134E+01  0.14106919933E+02  0.17043226470E+01  0.14408888007E+02  0.51100000000E-03 0.  1.
         12    1    3    3    0    0  0.96918495860E+01  0.22918690501E+02 -0.17480901752E+02  0.30410199748E+02  0.00000000000E+00 0. -1.
</event>
<event>
 7    1  0.4931104E-009  0.4778729E+02  0.7816164E-02  0.1312668E+00
        -11   -1    0    0    0    0  0.00000000000E+00  0.00000000000E+00  0.45593999997E+02  0.45594000000E+02  0.51100000000E-03 0.  1.
         11   -1    0    0    0    0 -0.00000000000E+00 -0.00000000000E+00 -0.45593999997E+02  0.45594000000E+02  0.51100000000E-03 0. -1.
    9900012    2    1    2    0    0  0.17431064108E+02  0.90494517788E+01 -0.38702546300E+02  0.47787289596E+02  0.20000084585E+02 0.  0.
        -12    1    1    2    0    0 -0.17431064108E+02 -0.90494517788E+01  0.38702546300E+02  0.43400710404E+02  0.00000000000E+00 0.  1.
         11    1    3    3    0    0  0.29928483770E+01 -0.15584004816E+01  0.12218449068E+01  0.35886848156E+01  0.51100000000E-03 0. -1.
        -11    1    3    3    0    0  0.15122101541E+01  0.43038314423E+01 -0.87896177494E+01  0.99028846846E+01  0.51100000000E-03 0.  1.
         12    1    3    3    0    0  0.12926005577E+02  0.63040208181E+01 -0.31134773458E+02  0.34295720096E+02  0.00000000000E+00 0. -1.
</event>
<event>
 7    1  0.4931104E-009  0.4778727E+02  0.7816164E-02  0.1312668E+00
        -11   -1    0    0    0    0  0.00000000000E+00  0.00000000000E+00  0.45593999997E+02  0.45594000000E+02  0.51100000000E-03 0. -1.
         11   -1    0    0    0    0 -0.00000000000E+00 -0.00000000000E+00 -0.45593999997E+02  0.45594000000E+02  0.51100000000E-03 0.  1.
    9900012    2    1    2    0    0  0.37567136485E+02  0.11522739147E+02  0.18427156484E+02  0.47787270085E+02  0.19999995624E+02 0.  0.
        -12    1    1    2    0    0 -0.37567136485E+02 -0.11522739147E+02 -0.18427156484E+02  0.43400729915E+02  0.00000000000E+00 0.  1.
         11    1    3    3    0    0  0.17066209587E+02 -0.38746766211E+00  0.88743482361E+01  0.19239534759E+02  0.51100000000E-03 0. -1.
        -11    1    3    3    0    0  0.76165966433E+01 -0.15249755015E+01  0.54421971454E+01  0.94844928561E+01  0.51100000000E-03 0.  1.
        -12    1    3    3    0    0  0.12884330254E+02  0.13435182311E+02  0.41106111020E+01  0.19063242470E+02  0.00000000000E+00 0.  1.
</event>
<event>
 7    1  0.4931104E-009  0.4778727E+02  0.7816164E-02  0.1312668E+00
        -11   -1    0    0    0    0  0.00000000000E+00  0.00000000000E+00  0.45593999997E+02  0.45594000000E+02  0.51100000000E-03 0. -1.
         11   -1    0    0    0    0 -0.00000000000E+00 -0.00000000000E+00 -0.45593999997E+02  0.45594000000E+02  0.51100000000E-03 0.  1.
    9900012    2    1    2    0    0 -0.19407622184E+01 -0.25083092731E+02  0.35365169128E+02  0.47787270900E+02  0.19999999342E+02 0.  0.
        -12    1    1    2    0    0  0.19407622184E+01  0.25083092731E+02 -0.35365169128E+02  0.43400729100E+02  0.00000000000E+00 0.  1.
         11    1    3    3    0    0  0.47586260941E+01 -0.10440591551E+02  0.10706453972E+02  0.15693267064E+02  0.51100000000E-03 0. -1.
        -11    1    3    3    0    0 -0.30656009216E+01 -0.10089027185E+02  0.51517560821E+01  0.11735713423E+02  0.51100000000E-03 0.  1.
        -12    1    3    3    0    0 -0.36337873909E+01 -0.45534739952E+01  0.19506959074E+02  0.20358290413E+02  0.00000000000E+00 0.  1.
</event>
<event>
 7    1  0.4931104E-009  0.4778727E+02  0.7816164E-02  0.1312668E+00
        -11   -1    0    0    0    0  0.00000000000E+00  0.00000000000E+00  0.45593999997E+02  0.45594000000E+02  0.51100000000E-03 0.  1.
         11   -1    0    0    0    0 -0.00000000000E+00 -0.00000000000E+00 -0.45593999997E+02  0.45594000000E+02  0.51100000000E-03 0. -1.
    9900012    2    1    2    0    0  0.38112463667E+02 -0.87513649377E+01 -0.18827556340E+02  0.47787272440E+02  0.20000006361E+02 0.  0.
        -12    1    1    2    0    0 -0.38112463667E+02  0.87513649377E+01  0.18827556340E+02  0.43400727560E+02  0.00000000000E+00 0.  1.
         11    1    3    3    0    0  0.14834916258E+02 -0.11970482558E+02 -0.35863162885E+01  0.19396619753E+02  0.51100000000E-03 0. -1.
        -11    1    3    3    0    0  0.10406493063E+02 -0.35021271874E+00 -0.49503225482E+01  0.11529242838E+02  0.51100000000E-03 0.  1.
         12    1    3    3    0    0  0.12871054346E+02  0.35693303388E+01 -0.10290917503E+02  0.16861409849E+02  0.00000000000E+00 0. -1.
</event>
<event>
 7    1  0.4931104E-009  0.4778728E+02  0.7816164E-02  0.1312668E+00
        -11   -1    0    0    0    0  0.00000000000E+00  0.00000000000E+00  0.45593999997E+02  0.45594000000E+02  0.51100000000E-03 0. -1.
         11   -1    0    0    0    0 -0.00000000000E+00 -0.00000000000E+00 -0.45593999997E+02  0.45594000000E+02  0.51100000000E-03 0.  1.
    9900012    2    1    2    0    0  0.64617787048E+01 -0.38313016035E+02  0.19338588491E+02  0.47787276659E+02  0.20000025598E+02 0.  0.
        -12    1    1    2    0    0 -0.64617787048E+01  0.38313016035E+02 -0.19338588491E+02  0.43400723341E+02  0.00000000000E+00 0.  1.
         11    1    3    3    0    0 -0.13702695695E+01 -0.18591378642E+02  0.15781506558E+02  0.24424842845E+02  0.51100000000E-03 0. -1.
        -11    1    3    3    0    0  0.19356701282E+01 -0.13819636088E+02  0.51396362680E+01  0.14870945554E+02  0.51100000000E-03 0.  1.
        -12    1    3    3    0    0  0.58963781461E+01 -0.59020013048E+01 -0.15825543343E+01  0.84914882597E+01  0.00000000000E+00 0.  1.
</event>
<event>
 7    1  0.4931104E-009  0.4778723E+02  0.7816164E-02  0.1312668E+00
        -11   -1    0    0    0    0  0.00000000000E+00  0.00000000000E+00  0.45593999997E+02  0.45594000000E+02  0.51100000000E-03 0. -1.
         11   -1    0    0    0    0 -0.00000000000E+00 -0.00000000000E+00 -0.45593999997E+02  0.45594000000E+02  0.51100000000E-03 0.  1.
    9900012    2    1    2    0    0 -0.19987174066E+02 -0.25925905197E+02  0.28495382919E+02  0.47787233473E+02  0.19999828697E+02 0.  0.
        -12    1    1    2    0    0  0.19987174066E+02  0.25925905197E+02 -0.28495382919E+02  0.43400766527E+02  0.00000000000E+00 0.  1.
         11    1    3    3    0    0 -0.13130752593E+02 -0.21291352521E+02  0.18698905485E+02  0.31231193100E+02  0.51100000000E-03 0. -1.
        -11    1    3    3    0    0 -0.63532342930E+01 -0.74150321935E+01  0.49537713988E+01  0.10949252931E+02  0.51100000000E-03 0.  1.
        -12    1    3    3    0    0 -0.50318718014E+00  0.27804795175E+01  0.48427060351E+01  0.56067874427E+01  0.00000000000E+00 0.  1.
</event>
<event>
 7    1  0.4931104E-009  0.4778725E+02  0.7816164E-02  0.1312668E+00
        -11   -1    0    0    0    0  0.00000000000E+00  0.00000000000E+00  0.45593999997E+02  0.45594000000E+02  0.51100000000E-03 0. -1.
         11   -1    0    0    0    0 -0.00000000000E+00 -0.00000000000E+00 -0.45593999997E+02  0.45594000000E+02  0.51100000000E-03 0.  1.
    9900012    2    1    2    0    0 -0.33266180581E+02  0.26335285206E+02  0.91345179535E+01  0.47787246141E+02  0.19999886454E+02 0.  0.
        -12    1    1    2    0    0  0.33266180581E+02 -0.26335285206E+02 -0.91345179535E+01  0.43400753859E+02  0.00000000000E+00 0.  1.
         11    1    3    3    0    0 -0.13752963384E+02  0.97241224763E+01  0.12564328779E+01  0.16890268903E+02  0.51100000000E-03 0. -1.
        -11    1    3    3    0    0 -0.50471042860E+01  0.48882419447E+01 -0.46763337442E+01  0.84401580869E+01  0.51100000000E-03 0.  1.
         12    1    3    3    0    0 -0.14466112912E+02  0.11722920785E+02  0.12554418820E+02  0.22456819151E+02  0.00000000000E+00 0. -1.
</event>
<event>
 7    1  0.4931104E-009  0.4778727E+02  0.7816164E-02  0.1312668E+00
        -11   -1    0    0    0    0  0.00000000000E+00  0.00000000000E+00  0.45593999997E+02  0.45594000000E+02  0.51100000000E-03 0. -1.
         11   -1    0    0    0    0 -0.00000000000E+00 -0.00000000000E+00 -0.45593999997E+02  0.45594000000E+02  0.51100000000E-03 0.  1.
    9900012    2    1    2    0    0  0.17415951606E+02 -0.35828173549E+02  0.17223529373E+02  0.47787270118E+02  0.19999995775E+02 0.  0.
        -12    1    1    2    0    0 -0.17415951606E+02  0.35828173549E+02 -0.17223529373E+02  0.43400729882E+02  0.00000000000E+00 0.  1.
         11    1    3    3    0    0  0.17382089378E+02 -0.27875640047E+02  0.61829024487E+01  0.33427782190E+02  0.51100000000E-03 0. -1.
        -11    1    3    3    0    0 -0.26135645049E+00  0.57418436822E+00  0.10134058688E+01  0.11937280256E+01  0.51100000000E-03 0.  1.
         12    1    3    3    0    0  0.29521867924E+00 -0.85267178703E+01  0.10027221056E+02  0.13165759902E+02  0.00000000000E+00 0. -1.
</event>
<event>
 7    1  0.4931104E-009  0.4778727E+02  0.7816164E-02  0.1312668E+00
        -11   -1    0    0    0    0  0.00000000000E+00  0.00000000000E+00  0.45593999997E+02  0.45594000000E+02  0.51100000000E-03 0.  1.
         11   -1    0    0    0    0 -0.00000000000E+00 -0.00000000000E+00 -0.45593999997E+02  0.45594000000E+02  0.51100000000E-03 0. -1.
    9900012    2    1    2    0    0 -0.11455236347E+02  0.29497440540E+02 -0.29703567069E+02  0.47787270343E+02  0.19999996800E+02 0.  0.
        -12    1    1    2    0    0  0.11455236347E+02 -0.29497440540E+02  0.29703567069E+02  0.43400729657E+02  0.00000000000E+00 0.  1.
         11    1    3    3    0    0 -0.29018388953E+01  0.38446071275E+01 -0.13500363455E+02  0.14333927815E+02  0.51100000000E-03 0. -1.
        -11    1    3    3    0    0 -0.68380806294E+00  0.58472502287E+01 -0.93828604591E+01  0.11076822620E+02  0.51100000000E-03 0.  1.
        -12    1    3    3    0    0 -0.78695893886E+01  0.19805583184E+02 -0.68203431552E+01  0.22376519907E+02  0.00000000000E+00 0.  1.
</event>
<event>
 7    1  0.4931104E-009  0.4778727E+02  0.7816164E-02  0.1312668E+00
        -11   -1    0    0    0    0  0.00000000000E+00  0.00000000000E+00  0.45593999997E+02  0.45594000000E+02  0.51100000000E-03 0. -1.
         11   -1    0    0    0    0 -0.00000000000E+00 -0.00000000000E+00 -0.45593999997E+02  0.45594000000E+02  0.51100000000E-03 0.  1.
    9900012    2    1    2    0    0 -0.30194121449E+02  0.19353566607E+02  0.24441308498E+02  0.47787273375E+02  0.20000010628E+02 0.  0.
        -12    1    1    2    0    0  0.30194121449E+02 -0.19353566607E+02 -0.24441308498E+02  0.43400726625E+02  0.00000000000E+00 0.  1.
         11    1    3    3    0    0 -0.18352486895E+02  0.47854536619E+01  0.90186975178E+01  0.21001220135E+02  0.51100000000E-03 0. -1.
        -11    1    3    3    0    0 -0.75280604821E+01  0.18166078516E+01  0.89935289248E+01  0.11868248459E+02  0.51100000000E-03 0.  1.
         12    1    3    3    0    0 -0.43135740714E+01  0.12751505093E+02  0.64290820556E+01  0.14917804781E+02  0.00000000000E+00 0. -1.
</event>
<event>
 7    1  0.4931104E-009  0.4778727E+02  0.7816164E-02  0.1312668E+00
        -11   -1    0    0    0    0  0.00000000000E+00  0.00000000000E+00  0.45593999997E+02  0.45594000000E+02  0.51100000000E-03 0.  1.
         11   -1    0    0    0    0 -0.00000000000E+00 -0.00000000000E+00 -0.45593999997E+02  0.45594000000E+02  0.51100000000E-03 0. -1.
    9900012    2    1    2    0    0 -0.12688019978E+02  0.43103572798E+01 -0.41280240122E+02  0.47787271258E+02  0.20000000974E+02 0.  0.
        -12    1    1    2    0    0  0.12688019978E+02 -0.43103572798E+01  0.41280240122E+02  0.43400728742E+02  0.00000000000E+00 0.  1.
         11    1    3    3    0    0  0.28669925501E+01 -0.65707975308E+00 -0.62500134246E+01  0.69075370540E+01  0.51100000000E-03 0. -1.
        -11    1    3    3    0    0 -0.36356480672E+00  0.49485799902E+01 -0.14602243182E+02  0.15422260842E+02  0.51100000000E-03 0.  1.
         12    1    3    3    0    0 -0.15191447721E+02  0.18857042721E-01 -0.20427983515E+02  0.25457473362E+02  0.00000000000E+00 0. -1.
</event>
<event>
 7    1  0.4931104E-009  0.4778727E+02  0.7816164E-02  0.1312668E+00
        -11   -1    0    0    0    0  0.00000000000E+00  0.00000000000E+00  0.45593999997E+02  0.45594000000E+02  0.51100000000E-03 0. -1.
         11   -1    0    0    0    0 -0.00000000000E+00 -0.00000000000E+00 -0.45593999997E+02  0.45594000000E+02  0.51100000000E-03 0.  1.
    9900012    2    1    2    0    0  0.11242063782E+02  0.41894876196E+02 -0.14347756417E+01  0.47787271542E+02  0.20000002268E+02 0.  0.
        -12    1    1    2    0    0 -0.11242063782E+02 -0.41894876196E+02  0.14347756417E+01  0.43400728458E+02  0.00000000000E+00 0.  1.
         11    1    3    3    0    0 -0.20817275319E+01  0.13967914254E+02 -0.23861714427E+01  0.14322361276E+02  0.51100000000E-03 0. -1.
        -11    1    3    3    0    0 -0.15668218237E+00  0.13004918230E+02 -0.19361608744E+01  0.13149188822E+02  0.51100000000E-03 0.  1.
         12    1    3    3    0    0  0.13480473496E+02  0.14922043712E+02  0.28875566754E+01  0.20315721444E+02  0.00000000000E+00 0. -1.
</event>
<event>
 7    1  0.4931104E-009  0.4778727E+02  0.7816164E-02  0.1312668E+00
        -11   -1    0    0    0    0  0.00000000000E+00  0.00000000000E+00  0.45593999997E+02  0.45594000000E+02  0.51100000000E-03 0. -1.
         11   -1    0    0    0    0 -0.00000000000E+00 -0.00000000000E+00 -0.45593999997E+02  0.45594000000E+02  0.51100000000E-03 0.  1.
    9900012    2    1    2    0    0  0.35829854737E+02 -0.23002136016E+02 -0.84110991026E+01  0.47787270284E+02  0.19999996534E+02 0.  0.
        -12    1    1    2    0    0 -0.35829854737E+02  0.23002136016E+02  0.84110991026E+01  0.43400729716E+02  0.00000000000E+00 0.  1.
         11    1    3    3    0    0  0.10561032668E+02 -0.10321171620E+02  0.66511723080E-01  0.14767072110E+02  0.51100000000E-03 0. -1.
        -11    1    3    3    0    0  0.21665140104E+02 -0.15944236010E+02 -0.59879802710E+01  0.27558172393E+02  0.51100000000E-03 0.  1.
         12    1    3    3    0    0  0.36036819651E+01  0.32632716145E+01 -0.24896305546E+01  0.54620257812E+01  0.00000000000E+00 0. -1.
</event>
<event>
 7    1  0.4931104E-009  0.4778726E+02  0.7816164E-02  0.1312668E+00
        -11   -1    0    0    0    0  0.00000000000E+00  0.00000000000E+00  0.45593999997E+02  0.45594000000E+02  0.51100000000E-03 0.  1.
         11   -1    0    0    0    0 -0.00000000000E+00 -0.00000000000E+00 -0.45593999997E+02  0.45594000000E+02  0.51100000000E-03 0. -1.
    9900012    2    1    2    0    0  0.28078244751E+02 -0.18313848362E+02 -0.27565180449E+02  0.47787262181E+02  0.19999959586E+02 0.  0.
        -12    1    1    2    0    0 -0.28078244751E+02  0.18313848362E+02  0.27565180449E+02  0.43400737819E+02  0.00000000000E+00 0.  1.
         11    1    3    3    0    0  0.17835227148E+02 -0.22157672835E+01 -0.13326251015E+02  0.22373956254E+02  0.51100000000E-03 0. -1.
        -11    1    3    3    0    0  0.17342144053E+01  0.72404546339E+00 -0.27690517491E+01  0.33465488622E+01  0.51100000000E-03 0.  1.
        -12    1    3    3    0    0  0.85088031970E+01 -0.16822126542E+02 -0.11469877684E+02  0.22066757064E+02  0.00000000000E+00 0.  1.
</event>
<event>
 7    1  0.4931104E-009  0.4778727E+02  0.7816164E-02  0.1312668E+00
        -11   -1    0    0    0    0  0.00000000000E+00  0.00000000000E+00  0.45593999997E+02  0.45594000000E+02  0.51100000000E-03 0.  1.
         11   -1    0    0    0    0 -0.00000000000E+00 -0.00000000000E+00 -0.45593999997E+02  0.45594000000E+02  0.51100000000E-03 0. -1.
    9900012    2    1    2    0    0  0.10356920740E+02  0.41521341469E+02 -0.72343328701E+01  0.47787272165E+02  0.20000005108E+02 0.  0.
        -12    1    1    2    0    0 -0.10356920740E+02 -0.41521341469E+02  0.72343328701E+01  0.43400727835E+02  0.00000000000E+00 0.  1.
         11    1    3    3    0    0  0.91124773006E+01  0.10998720257E+02 -0.71785777715E+01  0.15985651971E+02  0.51100000000E-03 0. -1.
        -11    1    3    3    0    0 -0.11753929116E+01  0.40641798664E+01 -0.28274455937E+01  0.50885710499E+01  0.51100000000E-03 0.  1.
        -12    1    3    3    0    0  0.24198363508E+01  0.26458441345E+02  0.27716904951E+01  0.26713049144E+02  0.00000000000E+00 0.  1.
</event>
<event>
 7    1  0.4931104E-009  0.4778727E+02  0.7816164E-02  0.1312668E+00
        -11   -1    0    0    0    0  0.00000000000E+00  0.00000000000E+00  0.45593999997E+02  0.45594000000E+02  0.51100000000E-03 0. -1.
         11   -1    0    0    0    0 -0.00000000000E+00 -0.00000000000E+00 -0.45593999997E+02  0.45594000000E+02  0.51100000000E-03 0.  1.
    9900012    2    1    2    0    0  0.40940968958E+02 -0.52023243143E+01  0.13431160522E+02  0.47787272006E+02  0.20000004383E+02 0.  0.
        -12    1    1    2    0    0 -0.40940968958E+02  0.52023243143E+01 -0.13431160522E+02  0.43400727994E+02  0.00000000000E+00 0.  1.
         11    1    3    3    0    0  0.17483444857E+02  0.10932045027E+01  0.32047028504E+01  0.17808314373E+02  0.51100000000E-03 0. -1.
        -11    1    3    3    0    0  0.17191254059E+02  0.10876297681E+01  0.21308655752E+01  0.17356922048E+02  0.51100000000E-03 0.  1.
        -12    1    3    3    0    0  0.62662700418E+01 -0.73831585851E+01  0.80955920961E+01  0.12622035585E+02  0.00000000000E+00 0.  1.
</event>
<event>
 7    1  0.4931104E-009  0.4778727E+02  0.7816164E-02  0.1312668E+00
        -11   -1    0    0    0    0  0.00000000000E+00  0.00000000000E+00  0.45593999997E+02  0.45594000000E+02  0.51100000000E-03 0. -1.
         11   -1    0    0    0    0 -0.00000000000E+00 -0.00000000000E+00 -0.45593999997E+02  0.45594000000E+02  0.51100000000E-03 0.  1.
    9900012    2    1    2    0    0 -0.38278623890E+02 -0.94413644423E+01 -0.18144725687E+02  0.47787268674E+02  0.19999989191E+02 0.  0.
        -12    1    1    2    0    0  0.38278623890E+02  0.94413644423E+01  0.18144725687E+02  0.43400731326E+02  0.00000000000E+00 0.  1.
         11    1    3    3    0    0 -0.17083032553E+02 -0.30620942537E+01 -0.20673684730E+00  0.17356530840E+02  0.51100000000E-03 0. -1.
        -11    1    3    3    0    0  0.42744662613E+00  0.67503671263E+00  0.67105000795E+00  0.10434047900E+01  0.51100000000E-03 0.  1.
        -12    1    3    3    0    0 -0.21623037963E+02 -0.70543069012E+01 -0.18609038847E+02  0.29387333044E+02  0.00000000000E+00 0.  1.
</event>
<event>
 7    1  0.4931104E-009  0.4778728E+02  0.7816164E-02  0.1312668E+00
        -11   -1    0    0    0    0  0.00000000000E+00  0.00000000000E+00  0.45593999997E+02  0.45594000000E+02  0.51100000000E-03 0.  1.
         11   -1    0    0    0    0 -0.00000000000E+00 -0.00000000000E+00 -0.45593999997E+02  0.45594000000E+02  0.51100000000E-03 0. -1.
    9900012    2    1    2    0    0 -0.27421050014E+02  0.67032974265E+00 -0.33634195698E+02  0.47787280581E+02  0.20000043483E+02 0.  0.
        -12    1    1    2    0    0  0.27421050014E+02 -0.67032974265E+00  0.33634195698E+02  0.43400719419E+02  0.00000000000E+00 0.  1.
         11    1    3    3    0    0 -0.44778073982E+01  0.20664257486E+01 -0.63602014494E+01  0.80481698049E+01  0.51100000000E-03 0. -1.
        -11    1    3    3    0    0  0.15649501429E-01 -0.28725973378E+01  0.12163735835E+01  0.31195553093E+01  0.51100000000E-03 0.  1.
        -12    1    3    3    0    0 -0.22958892117E+02  0.14765013318E+01 -0.28490367832E+02  0.36619555467E+02  0.00000000000E+00 0.  1.
</event>
<event>
 7    1  0.4931104E-009  0.4778727E+02  0.7816164E-02  0.1312668E+00
        -11   -1    0    0    0    0  0.00000000000E+00  0.00000000000E+00  0.45593999997E+02  0.45594000000E+02  0.51100000000E-03 0.  1.
         11   -1    0    0    0    0 -0.00000000000E+00 -0.00000000000E+00 -0.45593999997E+02  0.45594000000E+02  0.51100000000E-03 0. -1.
    9900012    2    1    2    0    0 -0.11789207835E+02  0.10426717041E+02 -0.40446524061E+02  0.47787272377E+02  0.20000006074E+02 0.  0.
        -12    1    1    2    0    0  0.11789207835E+02 -0.10426717041E+02  0.40446524061E+02  0.43400727623E+02  0.00000000000E+00 0.  1.
         11    1    3    3    0    0 -0.10076883671E+02  0.78985536970E+01 -0.28200977137E+02  0.30971371406E+02  0.51100000000E-03 0. -1.
        -11    1    3    3    0    0 -0.10436904548E+01 -0.11911096984E+01 -0.12886141614E+02  0.12983092006E+02  0.51100000000E-03 0.  1.
        -12    1    3    3    0    0 -0.66863370926E+00  0.37192730424E+01  0.64059469029E+00  0.38328089645E+01  0.00000000000E+00 0.  1.
</event>
<event>
 7    1  0.4931104E-009  0.4778727E+02  0.7816164E-02  0.1312668E+00
        -11   -1    0    0    0    0  0.00000000000E+00  0.00000000000E+00  0.45593999997E+02  0.45594000000E+02  0.51100000000E-03 0.  1.
         11   -1    0    0    0    0 -0.00000000000E+00 -0.00000000000E+00 -0.45593999997E+02  0.45594000000E+02  0.51100000000E-03 0. -1.
    9900012    2    1    2    0    0  0.25818940754E+02 -0.18953229192E+02 -0.29287892300E+02  0.47787271506E+02  0.20000002104E+02 0.  0.
        -12    1    1    2    0    0 -0.25818940754E+02  0.18953229192E+02  0.29287892300E+02  0.43400728494E+02  0.00000000000E+00 0.  1.
         11    1    3    3    0    0  0.15598078826E+02 -0.70716834976E+01 -0.13428111967E+02  0.21762880366E+02  0.51100000000E-03 0. -1.
        -11    1    3    3    0    0  0.10524496911E+02 -0.29433961533E+01 -0.51779026663E+01  0.12092943911E+02  0.51100000000E-03 0.  1.
         12    1    3    3    0    0 -0.30363498320E+00 -0.89381495413E+01 -0.10681877667E+02  0.13931447230E+02  0.00000000000E+00 0. -1.
</event>
<event>
 7    1  0.4931104E-009  0.4778727E+02  0.7816164E-02  0.1312668E+00
        -11   -1    0    0    0    0  0.00000000000E+00  0.00000000000E+00  0.45593999997E+02  0.45594000000E+02  0.51100000000E-03 0. -1.
         11   -1    0    0    0    0 -0.00000000000E+00 -0.00000000000E+00 -0.45593999997E+02  0.45594000000E+02  0.51100000000E-03 0.  1.
    9900012    2    1    2    0    0  0.18956979571E+01 -0.66510555387E+01  0.42846152827E+02  0.47787273939E+02  0.20000013200E+02 0.  0.
        -12    1    1    2    0    0 -0.18956979571E+01  0.66510555387E+01 -0.42846152827E+02  0.43400726061E+02  0.00000000000E+00 0.  1.
         11    1    3    3    0    0  0.46264625969E+01  0.41737726836E+01  0.13020685098E+02  0.14434776592E+02  0.51100000000E-03 0. -1.
        -11    1    3    3    0    0 -0.21821186227E+01  0.91232770551E+00  0.10267267403E+02  0.10536164564E+02  0.51100000000E-03 0.  1.
        -12    1    3    3    0    0 -0.54864601716E+00 -0.11737155928E+02  0.19558200326E+02  0.22816332784E+02  0.00000000000E+00 0.  1.
</event>
<event>
 7    1  0.7077863E-009  0.4778727E+02  0.7816164E-02  0.1312668E+00
        -11   -1    0    0    0    0  0.00000000000E+00  0.00000000000E+00  0.45593999997E+02  0.45594000000E+02  0.51100000000E-03 0. -1.
         11   -1    0    0    0    0 -0.00000000000E+00 -0.00000000000E+00 -0.45593999997E+02  0.45594000000E+02  0.51100000000E-03 0.  1.
    9900012    2    1    2    0    0  0.35795456864E+02  0.24348511247E+02  0.30754918218E+01  0.47787269799E+02  0.19999994323E+02 0.  0.
        -12    1    1    2    0    0 -0.35795456864E+02 -0.24348511247E+02 -0.30754918218E+01  0.43400730201E+02  0.00000000000E+00 0.  1.
         11    1    3    3    0    0  0.21211954216E+02  0.19480621465E+02  0.27895378529E+00  0.28801378956E+02  0.51100000000E-03 0. -1.
        -11    1    3    3    0    0  0.13648342085E+02  0.64562190782E+01  0.51895541500E+01  0.15965321137E+02  0.51100000000E-03 0.  1.
        -12    1    3    3    0    0  0.93516056197E+00 -0.15883292959E+01 -0.23930161135E+01  0.30205697059E+01  0.00000000000E+00 0.  1.
</event>
<event>
 7    1  0.7483142E-009  0.4778727E+02  0.7816164E-02  0.1312668E+00
        -11   -1    0    0    0    0  0.00000000000E+00  0.00000000000E+00  0.45593999997E+02  0.45594000000E+02  0.51100000000E-03 0. -1.
         11   -1    0    0    0    0 -0.00000000000E+00 -0.00000000000E+00 -0.45593999997E+02  0.45594000000E+02  0.51100000000E-03 0.  1.
    9900012    2    1    2    0    0 -0.12645240255E+02  0.31192948535E+02  0.27399290489E+02  0.47787271219E+02  0.20000000795E+02 0.  0.
        -12    1    1    2    0    0  0.12645240255E+02 -0.31192948535E+02 -0.27399290489E+02  0.43400728781E+02  0.00000000000E+00 0.  1.
         11    1    3    3    0    0 -0.69685468279E+01  0.21491777896E+02  0.16656515942E+02  0.28069497423E+02  0.51100000000E-03 0. -1.
        -11    1    3    3    0    0  0.14517525316E+01  0.79230285684E+01  0.20030084882E+01  0.83002415853E+01  0.51100000000E-03 0.  1.
        -12    1    3    3    0    0 -0.71284459589E+01  0.17781420711E+01  0.87397660585E+01  0.11417532210E+02  0.00000000000E+00 0.  1.
</event>
<event>
 7    1  0.4931104E-009  0.4778727E+02  0.7816164E-02  0.1312668E+00
        -11   -1    0    0    0    0  0.00000000000E+00  0.00000000000E+00  0.45593999997E+02  0.45594000000E+02  0.51100000000E-03 0.  1.
         11   -1    0    0    0    0 -0.00000000000E+00 -0.00000000000E+00 -0.45593999997E+02  0.45594000000E+02  0.51100000000E-03 0. -1.
    9900012    2    1    2    0    0  0.88298391402E+01 -0.31230921045E+02 -0.28814700099E+02  0.47787269242E+02  0.19999991781E+02 0.  0.
        -12    1    1    2    0    0 -0.88298391402E+01  0.31230921045E+02  0.28814700099E+02  0.43400730758E+02  0.00000000000E+00 0.  1.
         11    1    3    3    0    0  0.25717901528E+01 -0.44231529331E+01  0.21201586466E+00  0.51208727232E+01  0.51100000000E-03 0. -1.
        -11    1    3    3    0    0 -0.30107713839E+01 -0.25712542955E+01 -0.91824614121E+01  0.99996845362E+01  0.51100000000E-03 0.  1.
         12    1    3    3    0    0  0.92688203713E+01 -0.24236513817E+02 -0.19844254551E+02  0.32666711982E+02  0.00000000000E+00 0. -1.
</event>
<event>
 7    1  0.4931104E-009  0.4778727E+02  0.7816164E-02  0.1312668E+00
        -11   -1    0    0    0    0  0.00000000000E+00  0.00000000000E+00  0.45593999997E+02  0.45594000000E+02  0.51100000000E-03 0.  1.
         11   -1    0    0    0    0 -0.00000000000E+00 -0.00000000000E+00 -0.45593999997E+02  0.45594000000E+02  0.51100000000E-03 0. -1.
    9900012    2    1    2    0    0 -0.32710181035E+00  0.74222684332E+01 -0.42760101130E+02  0.47787270595E+02  0.19999997949E+02 0.  0.
        -12    1    1    2    0    0  0.32710181035E+00 -0.74222684332E+01  0.42760101130E+02  0.43400729405E+02  0.00000000000E+00 0.  1.
         11    1    3    3    0    0  0.21513177951E+00 -0.28689995137E+01 -0.99419714705E+01  0.10349890670E+02  0.51100000000E-03 0. -1.
        -11    1    3    3    0    0 -0.75925366604E+01  0.51729962571E+01 -0.18950820239E+02  0.21060391525E+02  0.51100000000E-03 0.  1.
         12    1    3    3    0    0  0.70503030706E+01  0.51182716898E+01 -0.13867309421E+02  0.16376988400E+02  0.00000000000E+00 0. -1.
</event>
<event>
 7    1  0.4931104E-009  0.4778727E+02  0.7816164E-02  0.1312668E+00
        -11   -1    0    0    0    0  0.00000000000E+00  0.00000000000E+00  0.45593999997E+02  0.45594000000E+02  0.51100000000E-03 0.  1.
         11   -1    0    0    0    0 -0.00000000000E+00 -0.00000000000E+00 -0.45593999997E+02  0.45594000000E+02  0.51100000000E-03 0. -1.
    9900012    2    1    2    0    0  0.11068170144E+02  0.16057322234E+02 -0.38772172618E+02  0.47787270085E+02  0.19999995626E+02 0.  0.
        -12    1    1    2    0    0 -0.11068170144E+02 -0.16057322234E+02  0.38772172618E+02  0.43400729915E+02  0.00000000000E+00 0.  1.
         11    1    3    3    0    0  0.98170069404E+01  0.64741794124E+01 -0.28398895987E+02  0.30737370054E+02  0.51100000000E-03 0. -1.
        -11    1    3    3    0    0  0.24452101780E+01  0.46935740794E+01 -0.10770994188E+02  0.12000958566E+02  0.51100000000E-03 0.  1.
        -12    1    3    3    0    0 -0.11940469740E+01  0.48895687419E+01  0.39771755682E+00  0.50489414646E+01  0.00000000000E+00 0.  1.
</event>
<event>
 7    1  0.4931104E-009  0.4778727E+02  0.7816164E-02  0.1312668E+00
        -11   -1    0    0    0    0  0.00000000000E+00  0.00000000000E+00  0.45593999997E+02  0.45594000000E+02  0.51100000000E-03 0. -1.
         11   -1    0    0    0    0 -0.00000000000E+00 -0.00000000000E+00 -0.45593999997E+02  0.45594000000E+02  0.51100000000E-03 0.  1.
    9900012    2    1    2    0    0 -0.41598401626E+02  0.79171848569E+01  0.95139175954E+01  0.47787268878E+02  0.19999990122E+02 0.  0.
        -12    1    1    2    0    0  0.41598401626E+02 -0.79171848569E+01 -0.95139175954E+01  0.43400731122E+02  0.00000000000E+00 0.  1.
         11    1    3    3    0    0 -0.64879330509E+01  0.34144767668E+01 -0.15042895180E+00  0.73331136630E+01  0.51100000000E-03 0. -1.
        -11    1    3    3    0    0 -0.37002853221E+02  0.35770581236E+01  0.90870830002E+01  0.38269851960E+02  0.51100000000E-03 0.  1.
        -12    1    3    3    0    0  0.18923846457E+01  0.92564996656E+00  0.57726354707E+00  0.21843032552E+01  0.00000000000E+00 0.  1.
</event>
<event>
 7    1  0.4931104E-009  0.4778727E+02  0.7816164E-02  0.1312668E+00
        -11   -1    0    0    0    0  0.00000000000E+00  0.00000000000E+00  0.45593999997E+02  0.45594000000E+02  0.51100000000E-03 0. -1.
         11   -1    0    0    0    0 -0.00000000000E+00 -0.00000000000E+00 -0.45593999997E+02  0.45594000000E+02  0.51100000000E-03 0.  1.
    9900012    2    1    2    0    0  0.30142211003E+02  0.10023801369E+02  0.29573532079E+02  0.47787271001E+02  0.19999999801E+02 0.  0.
        -12    1    1    2    0    0 -0.30142211003E+02 -0.10023801369E+02 -0.29573532079E+02  0.43400728999E+02  0.00000000000E+00 0.  1.
         11    1    3    3    0    0  0.13307222906E+02  0.73424496819E+00  0.71326296795E+01  0.15116074344E+02  0.51100000000E-03 0. -1.
        -11    1    3    3    0    0  0.11761217630E+02  0.56954425979E+00  0.55980518952E+01  0.13037975536E+02  0.51100000000E-03 0.  1.
        -12    1    3    3    0    0  0.50737704669E+01  0.87200121411E+01  0.16842850504E+02  0.19633221121E+02  0.00000000000E+00 0.  1.
</event>
<event>
 7    1  0.4931104E-009  0.4778727E+02  0.7816164E-02  0.1312668E+00
        -11   -1    0    0    0    0  0.00000000000E+00  0.00000000000E+00  0.45593999997E+02  0.45594000000E+02  0.51100000000E-03 0.  1.
         11   -1    0    0    0    0 -0.00000000000E+00 -0.00000000000E+00 -0.45593999997E+02  0.45594000000E+02  0.51100000000E-03 0. -1.
    9900012    2    1    2    0    0 -0.26484900634E+02 -0.59341305161E+01 -0.33866790144E+02  0.47787270268E+02  0.19999996461E+02 0.  0.
        -12    1    1    2    0    0  0.26484900634E+02  0.59341305161E+01  0.33866790144E+02  0.43400729732E+02  0.00000000000E+00 0.  1.
         11    1    3    3    0    0 -0.39066558287E+01 -0.64292375727E+01 -0.81101843862E+01  0.11062194474E+02  0.51100000000E-03 0. -1.
        -11    1    3    3    0    0  0.12276553099E+01  0.30711822200E-01 -0.49646815419E+01  0.51143077586E+01  0.51100000000E-03 0.  1.
         12    1    3    3    0    0 -0.23805900115E+02  0.46439523442E+00 -0.20791924216E+02  0.31610768036E+02  0.00000000000E+00 0. -1.
</event>
<event>
 7    1  0.4931104E-009  0.4778727E+02  0.7816164E-02  0.1312668E+00
        -11   -1    0    0    0    0  0.00000000000E+00  0.00000000000E+00  0.45593999997E+02  0.45594000000E+02  0.51100000000E-03 0.  1.
         11   -1    0    0    0    0 -0.00000000000E+00 -0.00000000000E+00 -0.45593999997E+02  0.45594000000E+02  0.51100000000E-03 0. -1.
    9900012    2    1    2    0    0  0.33296753797E+00 -0.70238199668E+01 -0.42827309700E+02  0.47787269932E+02  0.19999994929E+02 0.  0.
        -12    1    1    2    0    0 -0.33296753797E+00  0.70238199668E+01  0.42827309700E+02  0.43400730068E+02  0.00000000000E+00 0.  1.
         11    1    3    3    0    0 -0.72809228030E+01 -0.13830307218E+01 -0.25740322361E+02  0.26785981527E+02  0.51100000000E-03 0. -1.
        -11    1    3    3    0    0 -0.12414155927E+01 -0.16839899770E+01 -0.12702856887E+01  0.24475622379E+01  0.51100000000E-03 0.  1.
        -12    1    3    3    0    0  0.88553059336E+01 -0.39567992679E+01 -0.15816701649E+02  0.18553726167E+02  0.00000000000E+00 0.  1.
</event>
<event>
 7    1  0.4931104E-009  0.4778727E+02  0.7816164E-02  0.1312668E+00
        -11   -1    0    0    0    0  0.00000000000E+00  0.00000000000E+00  0.45593999997E+02  0.45594000000E+02  0.51100000000E-03 0. -1.
         11   -1    0    0    0    0 -0.00000000000E+00 -0.00000000000E+00 -0.45593999997E+02  0.45594000000E+02  0.51100000000E-03 0.  1.
    9900012    2    1    2    0    0  0.14157607603E+02  0.34830874119E+02  0.21679377493E+02  0.47787273584E+02  0.20000011579E+02 0.  0.
        -12    1    1    2    0    0 -0.14157607603E+02 -0.34830874119E+02 -0.21679377493E+02  0.43400726416E+02  0.00000000000E+00 0.  1.
         11    1    3    3    0    0 -0.21897860144E+01  0.89257788657E+01  0.26608132766E+01  0.95678952075E+01  0.51100000000E-03 0. -1.
        -11    1    3    3    0    0  0.25440174917E+01  0.15899513712E+02  0.90666283712E+01  0.18478915324E+02  0.51100000000E-03 0.  1.
         12    1    3    3    0    0  0.13803376126E+02  0.10005581541E+02  0.99519358447E+01  0.19740463052E+02  0.00000000000E+00 0. -1.
</event>
<event>
 7    1  0.4931104E-009  0.4778727E+02  0.7816164E-02  0.1312668E+00
        -11   -1    0    0    0    0  0.00000000000E+00  0.00000000000E+00  0.45593999997E+02  0.45594000000E+02  0.51100000000E-03 0.  1.
         11   -1    0    0    0    0 -0.00000000000E+00 -0.00000000000E+00 -0.45593999997E+02  0.45594000000E+02  0.51100000000E-03 0. -1.
    9900012    2    1    2    0    0  0.10387423337E+02 -0.39195248103E+02 -0.15474407364E+02  0.47787270505E+02  0.19999997539E+02 0.  0.
        -12    1    1    2    0    0 -0.10387423337E+02  0.39195248103E+02  0.15474407364E+02  0.43400729495E+02  0.00000000000E+00 0.  1.
         11    1    3    3    0    0 -0.35582164143E-01 -0.42145629513E+00  0.55717717395E+00  0.69952709984E+00  0.51100000000E-03 0.  1.
        -11    1    3    3    0    0  0.68720274039E+01 -0.18420434168E+01 -0.17078385325E+01  0.73167340599E+01  0.51100000000E-03 0. -1.
         12    1    3    3    0    0  0.35509780975E+01 -0.36931748391E+02 -0.14323746005E+02  0.39771009345E+02  0.00000000000E+00 0. -1.
</event>
<event>
 7    1  0.4931104E-009  0.4778726E+02  0.7816164E-02  0.1312668E+00
        -11   -1    0    0    0    0  0.00000000000E+00  0.00000000000E+00  0.45593999997E+02  0.45594000000E+02  0.51100000000E-03 0.  1.
         11   -1    0    0    0    0 -0.00000000000E+00 -0.00000000000E+00 -0.45593999997E+02  0.45594000000E+02  0.51100000000E-03 0. -1.
    9900012    2    1    2    0    0  0.17538680433E+02  0.26590248733E+01 -0.39609954447E+02  0.47787260192E+02  0.19999950521E+02 0.  0.
        -12    1    1    2    0    0 -0.17538680433E+02 -0.26590248733E+01  0.39609954447E+02  0.43400739808E+02  0.00000000000E+00 0.  1.
         11    1    3    3    0    0  0.54036548044E+01 -0.54218736799E+01 -0.63799709765E+01  0.99649500435E+01  0.51100000000E-03 0. -1.
        -11    1    3    3    0    0  0.10466167251E+02  0.22992935091E+01 -0.13740434319E+02  0.17424894349E+02  0.51100000000E-03 0.  1.
        -12    1    3    3    0    0  0.16688583777E+01  0.57816050441E+01 -0.19489549151E+02  0.20397415799E+02  0.00000000000E+00 0.  1.
</event>
<event>
 7    1  0.4931104E-009  0.4778727E+02  0.7816164E-02  0.1312668E+00
        -11   -1    0    0    0    0  0.00000000000E+00  0.00000000000E+00  0.45593999997E+02  0.45594000000E+02  0.51100000000E-03 0.  1.
         11   -1    0    0    0    0 -0.00000000000E+00 -0.00000000000E+00 -0.45593999997E+02  0.45594000000E+02  0.51100000000E-03 0. -1.
    9900012    2    1    2    0    0 -0.71198601061E+01  0.38276073373E+02 -0.19180016702E+02  0.47787271417E+02  0.20000001701E+02 0.  0.
        -12    1    1    2    0    0  0.71198601061E+01 -0.38276073373E+02  0.19180016702E+02  0.43400728583E+02  0.00000000000E+00 0.  1.
         11    1    3    3    0    0 -0.30811189926E+01  0.10959001809E+02 -0.15006048076E+02  0.18835458424E+02  0.51100000000E-03 0. -1.
        -11    1    3    3    0    0  0.14042721454E+01  0.15108465128E+02 -0.34758333443E+01  0.15566602599E+02  0.51100000000E-03 0.  1.
        -12    1    3    3    0    0 -0.54430132589E+01  0.12208606436E+02 -0.69813528211E+00  0.13385210395E+02  0.00000000000E+00 0.  1.
</event>
<event>
 7    1  0.4931104E-009  0.4778727E+02  0.7816164E-02  0.1312668E+00
        -11   -1    0    0    0    0  0.00000000000E+00  0.00000000000E+00  0.45593999997E+02  0.45594000000E+02  0.51100000000E-03 0.  1.
         11   -1    0    0    0    0 -0.00000000000E+00 -0.00000000000E+00 -0.45593999997E+02  0.45594000000E+02  0.51100000000E-03 0. -1.
    9900012    2    1    2    0    0  0.14784007307E+02  0.19587411715E+02 -0.35796504980E+02  0.47787270299E+02  0.19999996603E+02 0.  0.
        -12    1    1    2    0    0 -0.14784007307E+02 -0.19587411715E+02  0.35796504980E+02  0.43400729701E+02  0.00000000000E+00 0.  1.
         11    1    3    3    0    0  0.61641747901E+01  0.71463085601E+01 -0.92212035677E+01  0.13194596332E+02  0.51100000000E-03 0. -1.
        -11    1    3    3    0    0 -0.69869727264E+00  0.11663703798E+02 -0.19994039168E+02  0.23157974149E+02  0.51100000000E-03 0.  1.
        -12    1    3    3    0    0  0.93185297895E+01  0.77739935715E+00 -0.65812622438E+01  0.11434699818E+02  0.00000000000E+00 0.  1.
</event>
<event>
 7    1  0.4931104E-009  0.4778727E+02  0.7816164E-02  0.1312668E+00
        -11   -1    0    0    0    0  0.00000000000E+00  0.00000000000E+00  0.45593999997E+02  0.45594000000E+02  0.51100000000E-03 0.  1.
         11   -1    0    0    0    0 -0.00000000000E+00 -0.00000000000E+00 -0.45593999997E+02  0.45594000000E+02  0.51100000000E-03 0. -1.
    9900012    2    1    2    0    0  0.82465552007E+01 -0.11630450909E+02 -0.40992072441E+02  0.47787273462E+02  0.20000011022E+02 0.  0.
        -12    1    1    2    0    0 -0.82465552007E+01  0.11630450909E+02  0.40992072441E+02  0.43400726538E+02  0.00000000000E+00 0.  1.
         11    1    3    3    0    0  0.92949875662E+00 -0.59017497297E+01 -0.75266783748E+01  0.96096568841E+01  0.51100000000E-03 0. -1.
        -11    1    3    3    0    0 -0.47204304567E+01 -0.33288097035E+01 -0.14253916556E+02  0.15379778125E+02  0.51100000000E-03 0.  1.
         12    1    3    3    0    0  0.12037486901E+02 -0.23998914759E+01 -0.19211477510E+02  0.22797838452E+02  0.00000000000E+00 0. -1.
</event>
<event>
 7    1  0.4931104E-009  0.4778727E+02  0.7816164E-02  0.1312668E+00
        -11   -1    0    0    0    0  0.00000000000E+00  0.00000000000E+00  0.45593999997E+02  0.45594000000E+02  0.51100000000E-03 0.  1.
         11   -1    0    0    0    0 -0.00000000000E+00 -0.00000000000E+00 -0.45593999997E+02  0.45594000000E+02  0.51100000000E-03 0. -1.
    9900012    2    1    2    0    0  0.35566613687E+02  0.14742498115E+02 -0.20032432899E+02  0.47787266968E+02  0.19999981413E+02 0.  0.
        -12    1    1    2    0    0 -0.35566613687E+02 -0.14742498115E+02  0.20032432899E+02  0.43400733032E+02  0.00000000000E+00 0.  1.
         11    1    3    3    0    0  0.56599796890E+01 -0.14930866903E+01  0.11578961279E+01  0.59670261981E+01  0.51100000000E-03 0.  1.
        -11    1    3    3    0    0  0.31176193245E+01 -0.16242251154E+01 -0.50517632342E+00  0.35514589758E+01  0.51100000000E-03 0. -1.
         12    1    3    3    0    0  0.26789014674E+02  0.17859809921E+02 -0.20685152704E+02  0.38268781794E+02  0.00000000000E+00 0. -1.
</event>
<event>
 7    1  0.4931104E-009  0.4778727E+02  0.7816164E-02  0.1312668E+00
        -11   -1    0    0    0    0  0.00000000000E+00  0.00000000000E+00  0.45593999997E+02  0.45594000000E+02  0.51100000000E-03 0.  1.
         11   -1    0    0    0    0 -0.00000000000E+00 -0.00000000000E+00 -0.45593999997E+02  0.45594000000E+02  0.51100000000E-03 0. -1.
    9900012    2    1    2    0    0  0.33941443465E+02 -0.23059788473E+02 -0.14136763696E+02  0.47787268247E+02  0.19999987244E+02 0.  0.
        -12    1    1    2    0    0 -0.33941443465E+02  0.23059788473E+02  0.14136763696E+02  0.43400731753E+02  0.00000000000E+00 0.  1.
         11    1    3    3    0    0 -0.72650117954E+00 -0.86956866558E+00  0.11754764794E+01  0.16326968006E+01  0.51100000000E-03 0.  1.
        -11    1    3    3    0    0  0.76351313654E+01 -0.94580356705E+01 -0.10139426908E+02  0.15829012856E+02  0.51100000000E-03 0. -1.
         12    1    3    3    0    0  0.27032813279E+02 -0.12732184137E+02 -0.51728132669E+01  0.30325558590E+02  0.00000000000E+00 0. -1.
</event>
<event>
 7    1  0.4931104E-009  0.4778727E+02  0.7816164E-02  0.1312668E+00
        -11   -1    0    0    0    0  0.00000000000E+00  0.00000000000E+00  0.45593999997E+02  0.45594000000E+02  0.51100000000E-03 0.  1.
         11   -1    0    0    0    0 -0.00000000000E+00 -0.00000000000E+00 -0.45593999997E+02  0.45594000000E+02  0.51100000000E-03 0. -1.
    9900012    2    1    2    0    0  0.26133357465E+02 -0.32648418160E+02 -0.11608266995E+02  0.47787269092E+02  0.19999991098E+02 0.  0.
        -12    1    1    2    0    0 -0.26133357465E+02  0.32648418160E+02  0.11608266995E+02  0.43400730908E+02  0.00000000000E+00 0.  1.
         11    1    3    3    0    0  0.12057989783E+02 -0.99755814469E+01 -0.50766852005E+01  0.16452357755E+02  0.51100000000E-03 0. -1.
        -11    1    3    3    0    0  0.39353127001E+01  0.12554626299E+01  0.10525698462E+01  0.42627193205E+01  0.51100000000E-03 0.  1.
         12    1    3    3    0    0  0.10140054982E+02 -0.23928299343E+02 -0.75841516404E+01  0.27072192017E+02  0.00000000000E+00 0. -1.
</event>
<event>
 7    1  0.4931104E-009  0.4778727E+02  0.7816164E-02  0.1312668E+00
        -11   -1    0    0    0    0  0.00000000000E+00  0.00000000000E+00  0.45593999997E+02  0.45594000000E+02  0.51100000000E-03 0.  1.
         11   -1    0    0    0    0 -0.00000000000E+00 -0.00000000000E+00 -0.45593999997E+02  0.45594000000E+02  0.51100000000E-03 0. -1.
    9900012    2    1    2    0    0  0.16336927413E+02 -0.18856826430E+02 -0.35512647626E+02  0.47787271415E+02  0.20000001688E+02 0.  0.
        -12    1    1    2    0    0 -0.16336927413E+02  0.18856826430E+02  0.35512647626E+02  0.43400728585E+02  0.00000000000E+00 0.  1.
         11    1    3    3    0    0 -0.16727894515E+01 -0.14159776319E+01 -0.17372717407E+00  0.21984991688E+01  0.51100000000E-03 0. -1.
        -11    1    3    3    0    0  0.20093710392E+01  0.24141128204E+01 -0.25143458877E+01  0.40233627958E+01  0.51100000000E-03 0.  1.
         12    1    3    3    0    0  0.16000345825E+02 -0.19854961619E+02 -0.32824574565E+02  0.41565409450E+02  0.00000000000E+00 0. -1.
</event>
<event>
 7    1  0.4931104E-009  0.4778727E+02  0.7816164E-02  0.1312668E+00
        -11   -1    0    0    0    0  0.00000000000E+00  0.00000000000E+00  0.45593999997E+02  0.45594000000E+02  0.51100000000E-03 0.  1.
         11   -1    0    0    0    0 -0.00000000000E+00 -0.00000000000E+00 -0.45593999997E+02  0.45594000000E+02  0.51100000000E-03 0. -1.
    9900012    2    1    2    0    0  0.92452939646E+01  0.98219195454E+01 -0.41251397129E+02  0.47787270408E+02  0.19999997096E+02 0.  0.
        -12    1    1    2    0    0 -0.92452939646E+01 -0.98219195454E+01  0.41251397129E+02  0.43400729592E+02  0.00000000000E+00 0.  1.
         11    1    3    3    0    0  0.70329870527E+01 -0.97334854930E+00 -0.72102677946E+01  0.10119203339E+02  0.51100000000E-03 0. -1.
        -11    1    3    3    0    0  0.43819400699E+01  0.46092732259E+01 -0.55766630605E+01  0.84584850652E+01  0.51100000000E-03 0.  1.
         12    1    3    3    0    0 -0.21696331581E+01  0.61859948688E+01 -0.28464466274E+02  0.29209582004E+02  0.00000000000E+00 0. -1.
</event>
<event>
 7    1  0.4931104E-009  0.4778727E+02  0.7816164E-02  0.1312668E+00
        -11   -1    0    0    0    0  0.00000000000E+00  0.00000000000E+00  0.45593999997E+02  0.45594000000E+02  0.51100000000E-03 0. -1.
         11   -1    0    0    0    0 -0.00000000000E+00 -0.00000000000E+00 -0.45593999997E+02  0.45594000000E+02  0.51100000000E-03 0.  1.
    9900012    2    1    2    0    0 -0.82490079789E+01  0.42596790940E+02  0.10444965904E+01  0.47787266087E+02  0.19999977398E+02 0.  0.
        -12    1    1    2    0    0  0.82490079789E+01 -0.42596790940E+02 -0.10444965904E+01  0.43400733913E+02  0.00000000000E+00 0.  1.
         11    1    3    3    0    0  0.22257917789E+00  0.10940144437E+02  0.64953093547E+01  0.12724989025E+02  0.51100000000E-03 0. -1.
        -11    1    3    3    0    0 -0.45389894466E+01  0.29399077493E+02 -0.29747700084E+01  0.29895776282E+02  0.51100000000E-03 0.  1.
        -12    1    3    3    0    0 -0.39325977102E+01  0.22575690095E+01 -0.24760427559E+01  0.51665007802E+01  0.00000000000E+00 0.  1.
</event>
<event>
 7    1  0.4931104E-009  0.4778727E+02  0.7816164E-02  0.1312668E+00
        -11   -1    0    0    0    0  0.00000000000E+00  0.00000000000E+00  0.45593999997E+02  0.45594000000E+02  0.51100000000E-03 0.  1.
         11   -1    0    0    0    0 -0.00000000000E+00 -0.00000000000E+00 -0.45593999997E+02  0.45594000000E+02  0.51100000000E-03 0. -1.
    9900012    2    1    2    0    0 -0.13453914132E+02  0.39087600481E+02 -0.13220257188E+02  0.47787268245E+02  0.19999987234E+02 0.  0.
        -12    1    1    2    0    0  0.13453914132E+02 -0.39087600481E+02  0.13220257188E+02  0.43400731755E+02  0.00000000000E+00 0.  1.
         11    1    3    3    0    0 -0.76505553700E+01  0.20338423932E+02 -0.97777238213E+01  0.23828268273E+02  0.51100000000E-03 0. -1.
        -11    1    3    3    0    0 -0.12634251680E+01  0.11471195704E+02 -0.81934328699E+01  0.14153335879E+02  0.51100000000E-03 0.  1.
        -12    1    3    3    0    0 -0.45399335939E+01  0.72779808441E+01  0.47508995035E+01  0.98056640925E+01  0.00000000000E+00 0.  1.
</event>
<event>
 7    1  0.5836899E-009  0.4778727E+02  0.7816164E-02  0.1312668E+00
        -11   -1    0    0    0    0  0.00000000000E+00  0.00000000000E+00  0.45593999997E+02  0.45594000000E+02  0.51100000000E-03 0.  1.
         11   -1    0    0    0    0 -0.00000000000E+00 -0.00000000000E+00 -0.45593999997E+02  0.45594000000E+02  0.51100000000E-03 0. -1.
    9900012    2    1    2    0    0 -0.14622946124E+02  0.19631478785E+02 -0.35838498028E+02  0.47787268975E+02  0.19999990563E+02 0.  0.
        -12    1    1    2    0    0  0.14622946124E+02 -0.19631478785E+02  0.35838498028E+02  0.43400731025E+02  0.00000000000E+00 0.  1.
         11    1    3    3    0    0 -0.89011172258E+01  0.10454728655E+02 -0.17393779028E+02  0.22160207315E+02  0.51100000000E-03 0. -1.
        -11    1    3    3    0    0  0.79905482000E+00  0.63555582118E+01 -0.17277645569E+02  0.18426845781E+02  0.51100000000E-03 0.  1.
        -12    1    3    3    0    0 -0.65208837178E+01  0.28211919182E+01 -0.11670734317E+01  0.72002158784E+01  0.00000000000E+00 0.  1.
</event>
<event>
 7    1  0.4931104E-009  0.4778727E+02  0.7816164E-02  0.1312668E+00
        -11   -1    0    0    0    0  0.00000000000E+00  0.00000000000E+00  0.45593999997E+02  0.45594000000E+02  0.51100000000E-03 0. -1.
         11   -1    0    0    0    0 -0.00000000000E+00 -0.00000000000E+00 -0.45593999997E+02  0.45594000000E+02  0.51100000000E-03 0.  1.
    9900012    2    1    2    0    0  0.18734291396E+02 -0.94955679759E+01  0.37980048296E+02  0.47787267819E+02  0.19999985295E+02 0.  0.
        -12    1    1    2    0    0 -0.18734291396E+02  0.94955679759E+01 -0.37980048296E+02  0.43400732181E+02  0.00000000000E+00 0.  1.
         11    1    3    3    0    0  0.15591398642E+02 -0.87012758897E+01  0.23344137159E+02  0.29389669166E+02  0.51100000000E-03 0. -1.
        -11    1    3    3    0    0  0.26891523466E+01 -0.40356077365E+01  0.14308936234E+02  0.15108385968E+02  0.51100000000E-03 0.  1.
         12    1    3    3    0    0  0.45374040705E+00  0.32413156503E+01  0.32697490260E+00  0.32892126852E+01  0.00000000000E+00 0. -1.
</event>
<event>
 7    1  0.4931104E-009  0.4778727E+02  0.7816164E-02  0.1312668E+00
        -11   -1    0    0    0    0  0.00000000000E+00  0.00000000000E+00  0.45593999997E+02  0.45594000000E+02  0.51100000000E-03 0.  1.
         11   -1    0    0    0    0 -0.00000000000E+00 -0.00000000000E+00 -0.45593999997E+02  0.45594000000E+02  0.51100000000E-03 0. -1.
    9900012    2    1    2    0    0 -0.38649950210E+02 -0.18753454588E+02  0.61735419375E+01  0.47787270394E+02  0.19999997036E+02 0.  0.
        -12    1    1    2    0    0  0.38649950210E+02  0.18753454588E+02 -0.61735419375E+01  0.43400729606E+02  0.00000000000E+00 0.  1.
         11    1    3    3    0    0  0.19599924789E+00 -0.22224038130E+01 -0.55500116889E+00  0.22990260920E+01  0.51100000000E-03 0. -1.
        -11    1    3    3    0    0 -0.23301891055E+01  0.47179729664E+00 -0.32152429588E+01  0.39987699986E+01  0.51100000000E-03 0.  1.
         12    1    3    3    0    0 -0.36515760353E+02 -0.17002848072E+02  0.99437860652E+01  0.41489474304E+02  0.00000000000E+00 0. -1.
</event>
<event>
 7    1  0.4931104E-009  0.4778727E+02  0.7816164E-02  0.1312668E+00
        -11   -1    0    0    0    0  0.00000000000E+00  0.00000000000E+00  0.45593999997E+02  0.45594000000E+02  0.51100000000E-03 0.  1.
         11   -1    0    0    0    0 -0.00000000000E+00 -0.00000000000E+00 -0.45593999997E+02  0.45594000000E+02  0.51100000000E-03 0. -1.
    9900012    2    1    2    0    0 -0.56746419147E+01 -0.18829683377E+02 -0.38689334769E+02  0.47787272336E+02  0.20000005889E+02 0.  0.
        -12    1    1    2    0    0  0.56746419147E+01  0.18829683377E+02  0.38689334769E+02  0.43400727664E+02  0.00000000000E+00 0.  1.
         11    1    3    3    0    0 -0.11033045482E+01 -0.54344676878E+01 -0.20420296751E+02  0.21159849707E+02  0.51100000000E-03 0. -1.
        -11    1    3    3    0    0 -0.21188415062E+01 -0.41736453367E+01 -0.16201221480E+02  0.16863818738E+02  0.51100000000E-03 0.  1.
         12    1    3    3    0    0 -0.24524958602E+01 -0.92215703522E+01 -0.20678165379E+01  0.97636038910E+01  0.00000000000E+00 0. -1.
</event>
<event>
 7    1  0.4931104E-009  0.4778727E+02  0.7816164E-02  0.1312668E+00
        -11   -1    0    0    0    0  0.00000000000E+00  0.00000000000E+00  0.45593999997E+02  0.45594000000E+02  0.51100000000E-03 0.  1.
         11   -1    0    0    0    0 -0.00000000000E+00 -0.00000000000E+00 -0.45593999997E+02  0.45594000000E+02  0.51100000000E-03 0. -1.
    9900012    2    1    2    0    0  0.34215127054E+02 -0.96648994525E+00 -0.26683596717E+02  0.47787270099E+02  0.19999995690E+02 0.  0.
        -12    1    1    2    0    0 -0.34215127054E+02  0.96648994525E+00  0.26683596717E+02  0.43400729901E+02  0.00000000000E+00 0.  1.
         11    1    3    3    0    0  0.18255650443E+02 -0.36723610892E+01 -0.23542154902E+02  0.30016463261E+02  0.51100000000E-03 0. -1.
        -11    1    3    3    0    0  0.46501768693E+01  0.33376491028E+01 -0.29563457503E+01  0.64423619043E+01  0.51100000000E-03 0.  1.
        -12    1    3    3    0    0  0.11309299743E+02 -0.63177795883E+00 -0.18509606529E+00  0.11328444933E+02  0.00000000000E+00 0.  1.
</event>
<event>
 7    1  0.4931104E-009  0.4778727E+02  0.7816164E-02  0.1312668E+00
        -11   -1    0    0    0    0  0.00000000000E+00  0.00000000000E+00  0.45593999997E+02  0.45594000000E+02  0.51100000000E-03 0. -1.
         11   -1    0    0    0    0 -0.00000000000E+00 -0.00000000000E+00 -0.45593999997E+02  0.45594000000E+02  0.51100000000E-03 0.  1.
    9900012    2    1    2    0    0 -0.44702499559E+01  0.42722321874E+02 -0.62002589560E+01  0.47787272678E+02  0.20000007447E+02 0.  0.
        -12    1    1    2    0    0  0.44702499559E+01 -0.42722321874E+02  0.62002589560E+01  0.43400727322E+02  0.00000000000E+00 0.  1.
         11    1    3    3    0    0  0.39468574852E+01  0.11402125519E+02  0.84373676791E-01  0.12066203610E+02  0.51100000000E-03 0.  1.
        -11    1    3    3    0    0  0.37294633345E+01  0.92092891688E+01 -0.18611532430E+01  0.10108600072E+02  0.51100000000E-03 0. -1.
        -12    1    3    3    0    0 -0.12146570776E+02  0.22110907186E+02 -0.44234793898E+01  0.25612468996E+02  0.00000000000E+00 0.  1.
</event>
<event>
 7    1  0.4931104E-009  0.4778727E+02  0.7816164E-02  0.1312668E+00
        -11   -1    0    0    0    0  0.00000000000E+00  0.00000000000E+00  0.45593999997E+02  0.45594000000E+02  0.51100000000E-03 0.  1.
         11   -1    0    0    0    0 -0.00000000000E+00 -0.00000000000E+00 -0.45593999997E+02  0.45594000000E+02  0.51100000000E-03 0. -1.
    9900012    2    1    2    0    0 -0.12001949661E+02 -0.30661073634E+02 -0.28274985476E+02  0.47787273788E+02  0.20000012509E+02 0.  0.
        -12    1    1    2    0    0  0.12001949661E+02  0.30661073634E+02  0.28274985476E+02  0.43400726212E+02  0.00000000000E+00 0.  1.
         11    1    3    3    0    0 -0.29542525788E+01 -0.66891629530E+01 -0.39909235084E+01  0.83306650408E+01  0.51100000000E-03 0. -1.
        -11    1    3    3    0    0  0.22422975924E+01 -0.17208953196E+02 -0.17517205900E+02  0.24658233339E+02  0.51100000000E-03 0.  1.
         12    1    3    3    0    0 -0.11289994674E+02 -0.67629574856E+01 -0.67668560673E+01  0.14798375409E+02  0.00000000000E+00 0. -1.
</event>
<event>
 7    1  0.4931104E-009  0.4778727E+02  0.7816164E-02  0.1312668E+00
        -11   -1    0    0    0    0  0.00000000000E+00  0.00000000000E+00  0.45593999997E+02  0.45594000000E+02  0.51100000000E-03 0.  1.
         11   -1    0    0    0    0 -0.00000000000E+00 -0.00000000000E+00 -0.45593999997E+02  0.45594000000E+02  0.51100000000E-03 0. -1.
    9900012    2    1    2    0    0 -0.16763532614E+02 -0.27125612167E+02 -0.29441605166E+02  0.47787274478E+02  0.20000015655E+02 0.  0.
        -12    1    1    2    0    0  0.16763532614E+02  0.27125612167E+02  0.29441605166E+02  0.43400725522E+02  0.00000000000E+00 0.  1.
         11    1    3    3    0    0 -0.56657374204E+01 -0.73665365569E+01 -0.18622702801E+02  0.20812772550E+02  0.51100000000E-03 0. -1.
        -11    1    3    3    0    0  0.18183635083E+01 -0.35022320110E+01 -0.16695333868E+01  0.42847890144E+01  0.51100000000E-03 0.  1.
         12    1    3    3    0    0 -0.12916158702E+02 -0.16256843599E+02 -0.91493689783E+01  0.22689712914E+02  0.00000000000E+00 0. -1.
</event>
<event>
 7    1  0.4931104E-009  0.4778728E+02  0.7816164E-02  0.1312668E+00
        -11   -1    0    0    0    0  0.00000000000E+00  0.00000000000E+00  0.45593999997E+02  0.45594000000E+02  0.51100000000E-03 0.  1.
         11   -1    0    0    0    0 -0.00000000000E+00 -0.00000000000E+00 -0.45593999997E+02  0.45594000000E+02  0.51100000000E-03 0. -1.
    9900012    2    1    2    0    0 -0.21919581229E+02 -0.65678328801E+01 -0.36878427548E+02  0.47787275485E+02  0.20000020246E+02 0.  0.
        -12    1    1    2    0    0  0.21919581229E+02  0.65678328801E+01  0.36878427548E+02  0.43400724515E+02  0.00000000000E+00 0.  1.
         11    1    3    3    0    0 -0.88307006830E+01  0.16598022936E+01 -0.11969766043E+02  0.14967014318E+02  0.51100000000E-03 0. -1.
        -11    1    3    3    0    0 -0.39607483475E+01  0.31421661518E+01 -0.13151836307E+02  0.14090121863E+02  0.51100000000E-03 0.  1.
        -12    1    3    3    0    0 -0.91281321985E+01 -0.11369801325E+02 -0.11756825198E+02  0.18730139304E+02  0.00000000000E+00 0.  1.
</event>
<event>
 7    1  0.4931104E-009  0.4778727E+02  0.7816164E-02  0.1312668E+00
        -11   -1    0    0    0    0  0.00000000000E+00  0.00000000000E+00  0.45593999997E+02  0.45594000000E+02  0.51100000000E-03 0.  1.
         11   -1    0    0    0    0 -0.00000000000E+00 -0.00000000000E+00 -0.45593999997E+02  0.45594000000E+02  0.51100000000E-03 0. -1.
    9900012    2    1    2    0    0 -0.15486834914E+02  0.43084090012E+01 -0.40314001994E+02  0.47787271889E+02  0.20000003852E+02 0.  0.
        -12    1    1    2    0    0  0.15486834914E+02 -0.43084090012E+01  0.40314001994E+02  0.43400728111E+02  0.00000000000E+00 0.  1.
         11    1    3    3    0    0 -0.99429442111E+01 -0.93258185690E+00 -0.17806230806E+02  0.20415526059E+02  0.51100000000E-03 0. -1.
        -11    1    3    3    0    0 -0.35684885535E+01 -0.39679497085E+01 -0.42286242844E+01  0.68088177421E+01  0.51100000000E-03 0.  1.
        -12    1    3    3    0    0 -0.19754021489E+01  0.92089405666E+01 -0.18279146904E+02  0.20562928088E+02  0.00000000000E+00 0.  1.
</event>
<event>
 7    1  0.4931104E-009  0.4778727E+02  0.7816164E-02  0.1312668E+00
        -11   -1    0    0    0    0  0.00000000000E+00  0.00000000000E+00  0.45593999997E+02  0.45594000000E+02  0.51100000000E-03 0.  1.
         11   -1    0    0    0    0 -0.00000000000E+00 -0.00000000000E+00 -0.45593999997E+02  0.45594000000E+02  0.51100000000E-03 0. -1.
    9900012    2    1    2    0    0 -0.31439973629E+02  0.66966968135E+00 -0.29911585952E+02  0.47787269897E+02  0.19999994768E+02 0.  0.
        -12    1    1    2    0    0  0.31439973629E+02 -0.66966968135E+00  0.29911585952E+02  0.43400730103E+02  0.00000000000E+00 0.  1.
         11    1    3    3    0    0 -0.17018140695E+02 -0.17780046267E+01 -0.15362028378E+02  0.22995006617E+02  0.51100000000E-03 0. -1.
        -11    1    3    3    0    0 -0.19227615333E+01 -0.39791356757E+01 -0.83160133646E+01  0.94173569106E+01  0.51100000000E-03 0.  1.
        -12    1    3    3    0    0 -0.12499071401E+02  0.64268099837E+01 -0.62335442100E+01  0.15374906370E+02  0.00000000000E+00 0.  1.
</event>
<event>
 7    1  0.4931104E-009  0.4778727E+02  0.7816164E-02  0.1312668E+00
        -11   -1    0    0    0    0  0.00000000000E+00  0.00000000000E+00  0.45593999997E+02  0.45594000000E+02  0.51100000000E-03 0.  1.
         11   -1    0    0    0    0 -0.00000000000E+00 -0.00000000000E+00 -0.45593999997E+02  0.45594000000E+02  0.51100000000E-03 0. -1.
    9900012    2    1    2    0    0 -0.20582955742E+02 -0.31329944257E+02 -0.21872351255E+02  0.47787271624E+02  0.20000002641E+02 0.  0.
        -12    1    1    2    0    0  0.20582955742E+02  0.31329944257E+02  0.21872351255E+02  0.43400728376E+02  0.00000000000E+00 0.  1.
         11    1    3    3    0    0 -0.44822809261E+01 -0.96932435272E+01 -0.11865030415E+02  0.15963356771E+02  0.51100000000E-03 0. -1.
        -11    1    3    3    0    0 -0.11336513756E+02 -0.43692772417E+01 -0.55956694936E+01  0.13376047439E+02  0.51100000000E-03 0.  1.
         12    1    3    3    0    0 -0.47641610593E+01 -0.17267423488E+02 -0.44116513459E+01  0.18447867413E+02  0.00000000000E+00 0. -1.
</event>
<event>
 7    1  0.4931104E-009  0.4778727E+02  0.7816164E-02  0.1312668E+00
        -11   -1    0    0    0    0  0.00000000000E+00  0.00000000000E+00  0.45593999997E+02  0.45594000000E+02  0.51100000000E-03 0.  1.
         11   -1    0    0    0    0 -0.00000000000E+00 -0.00000000000E+00 -0.45593999997E+02  0.45594000000E+02  0.51100000000E-03 0. -1.
    9900012    2    1    2    0    0 -0.96877289369E+01 -0.29191363691E+02 -0.30620832891E+02  0.47787271745E+02  0.20000003195E+02 0.  0.
        -12    1    1    2    0    0  0.96877289369E+01  0.29191363691E+02  0.30620832891E+02  0.43400728255E+02  0.00000000000E+00 0.  1.
         11    1    3    3    0    0 -0.84103470808E+01 -0.12785297012E+02 -0.70875895381E+01  0.16865102532E+02  0.51100000000E-03 0. -1.
        -11    1    3    3    0    0  0.93154166868E+00  0.12115044985E+01 -0.11318929795E+00  0.15324245850E+01  0.51100000000E-03 0.  1.
         12    1    3    3    0    0 -0.22089235247E+01 -0.17617571178E+02 -0.23420054055E+02  0.29389744628E+02  0.00000000000E+00 0. -1.
</event>
<event>
 7    1  0.4931104E-009  0.4778727E+02  0.7816164E-02  0.1312668E+00
        -11   -1    0    0    0    0  0.00000000000E+00  0.00000000000E+00  0.45593999997E+02  0.45594000000E+02  0.51100000000E-03 0. -1.
         11   -1    0    0    0    0 -0.00000000000E+00 -0.00000000000E+00 -0.45593999997E+02  0.45594000000E+02  0.51100000000E-03 0.  1.
    9900012    2    1    2    0    0  0.74465757165E+00 -0.28366386988E+02  0.32839257169E+02  0.47787271469E+02  0.20000001934E+02 0.  0.
        -12    1    1    2    0    0 -0.74465757165E+00  0.28366386988E+02 -0.32839257169E+02  0.43400728531E+02  0.00000000000E+00 0.  1.
         11    1    3    3    0    0  0.38720995899E+01 -0.64391053329E+01  0.19304693098E+01  0.77577022848E+01  0.51100000000E-03 0. -1.
        -11    1    3    3    0    0 -0.11308930503E+01  0.15246426704E+01  0.21970723567E+01  0.29035463774E+01  0.51100000000E-03 0.  1.
        -12    1    3    3    0    0 -0.19965489679E+01 -0.23451924326E+02  0.28711715502E+02  0.37126022807E+02  0.00000000000E+00 0.  1.
</event>
<event>
 7    1  0.4931104E-009  0.4778727E+02  0.7816164E-02  0.1312668E+00
        -11   -1    0    0    0    0  0.00000000000E+00  0.00000000000E+00  0.45593999997E+02  0.45594000000E+02  0.51100000000E-03 0. -1.
         11   -1    0    0    0    0 -0.00000000000E+00 -0.00000000000E+00 -0.45593999997E+02  0.45594000000E+02  0.51100000000E-03 0.  1.
    9900012    2    1    2    0    0 -0.24787814073E+02 -0.32666109747E+02  0.14216643180E+02  0.47787269640E+02  0.19999993596E+02 0.  0.
        -12    1    1    2    0    0  0.24787814073E+02  0.32666109747E+02 -0.14216643180E+02  0.43400730360E+02  0.00000000000E+00 0.  1.
         11    1    3    3    0    0 -0.15910177291E+02 -0.72034927589E+01  0.19747519564E+01  0.17576225274E+02  0.51100000000E-03 0.  1.
        -11    1    3    3    0    0 -0.14345497748E+00 -0.97646818372E+00  0.20726202219E+01  0.22956097861E+01  0.51100000000E-03 0. -1.
         12    1    3    3    0    0 -0.87341818043E+01 -0.24486148804E+02  0.10169271002E+02  0.27915434579E+02  0.00000000000E+00 0. -1.
</event>
<event>
 7    1  0.4931104E-009  0.4778727E+02  0.7816164E-02  0.1312668E+00
        -11   -1    0    0    0    0  0.00000000000E+00  0.00000000000E+00  0.45593999997E+02  0.45594000000E+02  0.51100000000E-03 0.  1.
         11   -1    0    0    0    0 -0.00000000000E+00 -0.00000000000E+00 -0.45593999997E+02  0.45594000000E+02  0.51100000000E-03 0. -1.
    9900012    2    1    2    0    0  0.13767309434E+01  0.43337651249E+02 -0.18910120507E+01  0.47787270392E+02  0.19999997026E+02 0.  0.
        -12    1    1    2    0    0 -0.13767309434E+01 -0.43337651249E+02  0.18910120507E+01  0.43400729608E+02  0.00000000000E+00 0.  1.
         11    1    3    3    0    0 -0.23886284075E+01  0.58220857823E+01 -0.35553286108E+01  0.72279035907E+01  0.51100000000E-03 0. -1.
        -11    1    3    3    0    0  0.71590208968E+01  0.77605407232E+01  0.97918535866E+00  0.10603602065E+02  0.51100000000E-03 0.  1.
         12    1    3    3    0    0 -0.33936615460E+01  0.29755024744E+02  0.68513120137E+00  0.29955764737E+02  0.00000000000E+00 0. -1.
</event>
<event>
 7    1  0.4931104E-009  0.4778727E+02  0.7816164E-02  0.1312668E+00
        -11   -1    0    0    0    0  0.00000000000E+00  0.00000000000E+00  0.45593999997E+02  0.45594000000E+02  0.51100000000E-03 0.  1.
         11   -1    0    0    0    0 -0.00000000000E+00 -0.00000000000E+00 -0.45593999997E+02  0.45594000000E+02  0.51100000000E-03 0. -1.
    9900012    2    1    2    0    0 -0.17141222614E+01  0.15026069908E+02 -0.40680490386E+02  0.47787270858E+02  0.19999999148E+02 0.  0.
        -12    1    1    2    0    0  0.17141222614E+01 -0.15026069908E+02  0.40680490386E+02  0.43400729142E+02  0.00000000000E+00 0.  1.
         11    1    3    3    0    0 -0.90145985386E+00  0.10472457717E+02 -0.10094006312E+02  0.14573056103E+02  0.51100000000E-03 0. -1.
        -11    1    3    3    0    0 -0.82101356601E+00  0.85654563124E+01 -0.17088395399E+02  0.19132547208E+02  0.51100000000E-03 0.  1.
         12    1    3    3    0    0  0.83511584923E-02 -0.40118441206E+01 -0.13498088675E+02  0.14081667546E+02  0.00000000000E+00 0. -1.
</event>
<event>
 7    1  0.4931104E-009  0.4778725E+02  0.7816164E-02  0.1312668E+00
        -11   -1    0    0    0    0  0.00000000000E+00  0.00000000000E+00  0.45593999997E+02  0.45594000000E+02  0.51100000000E-03 0. -1.
         11   -1    0    0    0    0 -0.00000000000E+00 -0.00000000000E+00 -0.45593999997E+02  0.45594000000E+02  0.51100000000E-03 0.  1.
    9900012    2    1    2    0    0  0.17570203460E+02 -0.71230228520E+01  0.39040686419E+02  0.47787254612E+02  0.19999925077E+02 0.  0.
        -12    1    1    2    0    0 -0.17570203460E+02  0.71230228520E+01 -0.39040686419E+02  0.43400745388E+02  0.00000000000E+00 0.  1.
         11    1    3    3    0    0 -0.25213066407E+00 -0.29039150145E+01  0.11171241648E+02  0.11545255844E+02  0.51100000000E-03 0. -1.
        -11    1    3    3    0    0  0.58949512227E+01  0.14354680836E+01  0.19942074057E+02  0.20844599696E+02  0.51100000000E-03 0.  1.
        -12    1    3    3    0    0  0.11927382902E+02 -0.56545759211E+01  0.79273707136E+01  0.15397399071E+02  0.00000000000E+00 0.  1.
</event>
<event>
 7    1  0.4931104E-009  0.4778727E+02  0.7816164E-02  0.1312668E+00
        -11   -1    0    0    0    0  0.00000000000E+00  0.00000000000E+00  0.45593999997E+02  0.45594000000E+02  0.51100000000E-03 0.  1.
         11   -1    0    0    0    0 -0.00000000000E+00 -0.00000000000E+00 -0.45593999997E+02  0.45594000000E+02  0.51100000000E-03 0. -1.
    9900012    2    1    2    0    0  0.19525389237E+01  0.12600090006E+02 -0.41485522712E+02  0.47787271077E+02  0.20000000147E+02 0.  0.
        -12    1    1    2    0    0 -0.19525389237E+01 -0.12600090006E+02  0.41485522712E+02  0.43400728923E+02  0.00000000000E+00 0.  1.
         11    1    3    3    0    0 -0.47825584757E+00  0.29638132571E+01 -0.35615908046E+01  0.46580947821E+01  0.51100000000E-03 0. -1.
        -11    1    3    3    0    0  0.77976004027E+01  0.78053316841E+00 -0.69651102383E+01  0.10484491641E+02  0.51100000000E-03 0.  1.
         12    1    3    3    0    0 -0.53668056314E+01  0.88557435807E+01 -0.30958821669E+02  0.32644684654E+02  0.00000000000E+00 0. -1.
</event>
<event>
 7    1  0.4931104E-009  0.4778727E+02  0.7816164E-02  0.1312668E+00
        -11   -1    0    0    0    0  0.00000000000E+00  0.00000000000E+00  0.45593999997E+02  0.45594000000E+02  0.51100000000E-03 0. -1.
         11   -1    0    0    0    0 -0.00000000000E+00 -0.00000000000E+00 -0.45593999997E+02  0.45594000000E+02  0.51100000000E-03 0.  1.
    9900012    2    1    2    0    0 -0.36561439551E+02  0.20608888061E+02  0.11052510631E+02  0.47787272813E+02  0.20000008062E+02 0.  0.
        -12    1    1    2    0    0  0.36561439551E+02 -0.20608888061E+02 -0.11052510631E+02  0.43400727187E+02  0.00000000000E+00 0.  1.
         11    1    3    3    0    0 -0.62577992549E+01  0.25000317120E+01  0.79609360562E+00  0.67855711156E+01  0.51100000000E-03 0. -1.
        -11    1    3    3    0    0 -0.21390806137E+02  0.11825142112E+02  0.15457746281E+02  0.28919586676E+02  0.51100000000E-03 0.  1.
        -12    1    3    3    0    0 -0.89128341582E+01  0.62837142373E+01 -0.52013292557E+01  0.12082115021E+02  0.00000000000E+00 0.  1.
</event>
<event>
 7    1  0.4931104E-009  0.4778727E+02  0.7816164E-02  0.1312668E+00
        -11   -1    0    0    0    0  0.00000000000E+00  0.00000000000E+00  0.45593999997E+02  0.45594000000E+02  0.51100000000E-03 0. -1.
         11   -1    0    0    0    0 -0.00000000000E+00 -0.00000000000E+00 -0.45593999997E+02  0.45594000000E+02  0.51100000000E-03 0.  1.
    9900012    2    1    2    0    0 -0.22494031230E+02 -0.10005877238E+02  0.35742466739E+02  0.47787274789E+02  0.20000017071E+02 0.  0.
        -12    1    1    2    0    0  0.22494031230E+02  0.10005877238E+02 -0.35742466739E+02  0.43400725211E+02  0.00000000000E+00 0.  1.
         11    1    3    3    0    0 -0.83755116472E+01 -0.73379831860E+01  0.19817940110E+02  0.22732046610E+02  0.51100000000E-03 0. -1.
        -11    1    3    3    0    0 -0.34993913905E+01 -0.50894735209E+01  0.11966783294E+02  0.13466713908E+02  0.51100000000E-03 0.  1.
        -12    1    3    3    0    0 -0.10619128192E+02  0.24215794691E+01  0.39577433346E+01  0.11588514270E+02  0.00000000000E+00 0.  1.
</event>
<event>
 7    1  0.6681224E-009  0.4778727E+02  0.7816164E-02  0.1312668E+00
        -11   -1    0    0    0    0  0.00000000000E+00  0.00000000000E+00  0.45593999997E+02  0.45594000000E+02  0.51100000000E-03 0. -1.
         11   -1    0    0    0    0 -0.00000000000E+00 -0.00000000000E+00 -0.45593999997E+02  0.45594000000E+02  0.51100000000E-03 0.  1.
    9900012    2    1    2    0    0  0.27156187960E+02 -0.33021128600E+02 -0.74679499220E+01  0.47787265507E+02  0.19999974752E+02 0.  0.
        -12    1    1    2    0    0 -0.27156187960E+02  0.33021128600E+02  0.74679499220E+01  0.43400734493E+02  0.00000000000E+00 0.  1.
         11    1    3    3    0    0  0.16619167827E+02 -0.12738758399E+02 -0.83454161765E-01  0.20939906152E+02  0.51100000000E-03 0. -1.
        -11    1    3    3    0    0  0.12002797475E+02 -0.12799207145E+02 -0.78182132259E+01  0.19209667074E+02  0.51100000000E-03 0.  1.
        -12    1    3    3    0    0 -0.14657773426E+01 -0.74831630556E+01  0.43371746573E+00  0.76376922807E+01  0.00000000000E+00 0.  1.
</event>
<event>
 7    1  0.4931104E-009  0.4778727E+02  0.7816164E-02  0.1312668E+00
        -11   -1    0    0    0    0  0.00000000000E+00  0.00000000000E+00  0.45593999997E+02  0.45594000000E+02  0.51100000000E-03 0.  1.
         11   -1    0    0    0    0 -0.00000000000E+00 -0.00000000000E+00 -0.45593999997E+02  0.45594000000E+02  0.51100000000E-03 0. -1.
    9900012    2    1    2    0    0  0.49603702707E+01  0.17223881990E+02 -0.39526645861E+02  0.47787272852E+02  0.20000008239E+02 0.  0.
        -12    1    1    2    0    0 -0.49603702707E+01 -0.17223881990E+02  0.39526645861E+02  0.43400727148E+02  0.00000000000E+00 0.  1.
         11    1    3    3    0    0 -0.20286629578E+01 -0.58942160899E+00 -0.10733711893E+02  0.10939628078E+02  0.51100000000E-03 0. -1.
        -11    1    3    3    0    0  0.14145597957E+01  0.16849404637E+02 -0.18224456239E+02  0.24860294075E+02  0.51100000000E-03 0.  1.
         12    1    3    3    0    0  0.55744734328E+01  0.96389896239E+00 -0.10568477729E+02  0.11987350699E+02  0.00000000000E+00 0. -1.
</event>
<event>
 7    1  0.4931104E-009  0.4778727E+02  0.7816164E-02  0.1312668E+00
        -11   -1    0    0    0    0  0.00000000000E+00  0.00000000000E+00  0.45593999997E+02  0.45594000000E+02  0.51100000000E-03 0.  1.
         11   -1    0    0    0    0 -0.00000000000E+00 -0.00000000000E+00 -0.45593999997E+02  0.45594000000E+02  0.51100000000E-03 0. -1.
    9900012    2    1    2    0    0 -0.35102960005E+01  0.29036831896E+02 -0.32064987793E+02  0.47787271587E+02  0.20000002474E+02 0.  0.
        -12    1    1    2    0    0  0.35102960005E+01 -0.29036831896E+02  0.32064987793E+02  0.43400728413E+02  0.00000000000E+00 0.  1.
         11    1    3    3    0    0 -0.69505534029E-01  0.20122649866E+02 -0.22420307919E+02  0.30126335258E+02  0.51100000000E-03 0. -1.
        -11    1    3    3    0    0  0.35767684426E+01  0.48987195439E+01 -0.16395243093E+01  0.62832130223E+01  0.51100000000E-03 0.  1.
        -12    1    3    3    0    0 -0.70175589090E+01  0.40154624869E+01 -0.80051555648E+01  0.11377723307E+02  0.00000000000E+00 0.  1.
</event>
<event>
 7    1  0.4931104E-009  0.4778728E+02  0.7816164E-02  0.1312668E+00
        -11   -1    0    0    0    0  0.00000000000E+00  0.00000000000E+00  0.45593999997E+02  0.45594000000E+02  0.51100000000E-03 0.  1.
         11   -1    0    0    0    0 -0.00000000000E+00 -0.00000000000E+00 -0.45593999997E+02  0.45594000000E+02  0.51100000000E-03 0. -1.
    9900012    2    1    2    0    0  0.32837266640E+02  0.35684098726E+01 -0.28153205569E+02  0.47787278656E+02  0.20000034704E+02 0.  0.
        -12    1    1    2    0    0 -0.32837266640E+02 -0.35684098726E+01  0.28153205569E+02  0.43400721344E+02  0.00000000000E+00 0.  1.
         11    1    3    3    0    0  0.17801271166E+02 -0.61323310956E+01 -0.15635679777E+02  0.24473765998E+02  0.51100000000E-03 0. -1.
        -11    1    3    3    0    0  0.30384091189E+01  0.61067354653E+00  0.81616873968E+00  0.32048375664E+01  0.51100000000E-03 0.  1.
         12    1    3    3    0    0  0.11997586355E+02  0.90900674217E+01 -0.13333694531E+02  0.20108675091E+02  0.00000000000E+00 0. -1.
</event>
<event>
 7    1  0.4931104E-009  0.4778727E+02  0.7816164E-02  0.1312668E+00
        -11   -1    0    0    0    0  0.00000000000E+00  0.00000000000E+00  0.45593999997E+02  0.45594000000E+02  0.51100000000E-03 0.  1.
         11   -1    0    0    0    0 -0.00000000000E+00 -0.00000000000E+00 -0.45593999997E+02  0.45594000000E+02  0.51100000000E-03 0. -1.
    9900012    2    1    2    0    0  0.38819178386E+02 -0.14294479183E+02  0.13128687843E+02  0.47787272009E+02  0.20000004397E+02 0.  0.
        -12    1    1    2    0    0 -0.38819178386E+02  0.14294479183E+02 -0.13128687843E+02  0.43400727991E+02  0.00000000000E+00 0.  1.
         11    1    3    3    0    0  0.87804039427E+01 -0.53168292179E+01 -0.12764001203E+01  0.10343759658E+02  0.51100000000E-03 0. -1.
        -11    1    3    3    0    0  0.21532129189E+02 -0.12996914157E+02  0.10691906547E+02  0.27328908337E+02  0.51100000000E-03 0.  1.
        -12    1    3    3    0    0  0.85066452546E+01  0.40192641921E+01  0.37131814160E+01  0.10114604014E+02  0.00000000000E+00 0.  1.
</event>
<event>
 7    1  0.4931104E-009  0.4778726E+02  0.7816164E-02  0.1312668E+00
        -11   -1    0    0    0    0  0.00000000000E+00  0.00000000000E+00  0.45593999997E+02  0.45594000000E+02  0.51100000000E-03 0. -1.
         11   -1    0    0    0    0 -0.00000000000E+00 -0.00000000000E+00 -0.45593999997E+02  0.45594000000E+02  0.51100000000E-03 0.  1.
    9900012    2    1    2    0    0 -0.21527065575E+02  0.37652632040E+02  0.15775136191E+01  0.47787264971E+02  0.19999972310E+02 0.  0.
        -12    1    1    2    0    0  0.21527065575E+02 -0.37652632040E+02 -0.15775136191E+01  0.43400735029E+02  0.00000000000E+00 0.  1.
         11    1    3    3    0    0 -0.12593248590E+01  0.91025490966E+01  0.49650978053E+01  0.10444831049E+02  0.51100000000E-03 0.  1.
        -11    1    3    3    0    0 -0.13580849332E+00  0.50005772159E+01  0.28233611138E+01  0.57441783293E+01  0.51100000000E-03 0. -1.
         12    1    3    3    0    0 -0.20131932222E+02  0.23549505728E+02 -0.62109453000E+01  0.31598255593E+02  0.00000000000E+00 0. -1.
</event>
<event>
 7    1  0.4931104E-009  0.4778725E+02  0.7816164E-02  0.1312668E+00
        -11   -1    0    0    0    0  0.00000000000E+00  0.00000000000E+00  0.45593999997E+02  0.45594000000E+02  0.51100000000E-03 0.  1.
         11   -1    0    0    0    0 -0.00000000000E+00 -0.00000000000E+00 -0.45593999997E+02  0.45594000000E+02  0.51100000000E-03 0. -1.
    9900012    2    1    2    0    0  0.99303125564E+01 -0.38533587841E+02 -0.17325607547E+02  0.47787249129E+02  0.19999900077E+02 0.  0.
        -12    1    1    2    0    0 -0.99303125564E+01  0.38533587841E+02  0.17325607547E+02  0.43400750871E+02  0.00000000000E+00 0.  1.
         11    1    3    3    0    0  0.10514295067E+02 -0.23954203528E+02 -0.17605155670E+02  0.31532455880E+02  0.51100000000E-03 0. -1.
        -11    1    3    3    0    0  0.65601235319E+00  0.63931423083E+00  0.36331975084E+00  0.98543208581E+00  0.51100000000E-03 0.  1.
         12    1    3    3    0    0 -0.12399948636E+01 -0.15218698544E+02 -0.83771627258E-01  0.15269361163E+02  0.00000000000E+00 0. -1.
</event>
<event>
 7    1  0.4931104E-009  0.4778727E+02  0.7816164E-02  0.1312668E+00
        -11   -1    0    0    0    0  0.00000000000E+00  0.00000000000E+00  0.45593999997E+02  0.45594000000E+02  0.51100000000E-03 0. -1.
         11   -1    0    0    0    0 -0.00000000000E+00 -0.00000000000E+00 -0.45593999997E+02  0.45594000000E+02  0.51100000000E-03 0.  1.
    9900012    2    1    2    0    0 -0.79838894529E+01  0.41112245376E+02  0.11387006854E+02  0.47787272635E+02  0.20000007254E+02 0.  0.
        -12    1    1    2    0    0  0.79838894529E+01 -0.41112245376E+02 -0.11387006854E+02  0.43400727365E+02  0.00000000000E+00 0.  1.
         11    1    3    3    0    0 -0.30739204937E+01  0.31662789774E+01  0.29737050746E+01  0.53213937926E+01  0.51100000000E-03 0. -1.
        -11    1    3    3    0    0  0.14128642758E+01  0.14241909728E+02  0.10637925024E+02  0.17832375816E+02  0.51100000000E-03 0.  1.
         12    1    3    3    0    0 -0.63228332350E+01  0.23704056671E+02 -0.22246232446E+01  0.24633503027E+02  0.00000000000E+00 0. -1.
</event>
<event>
 7    1  0.4931104E-009  0.4778726E+02  0.7816164E-02  0.1312668E+00
        -11   -1    0    0    0    0  0.00000000000E+00  0.00000000000E+00  0.45593999997E+02  0.45594000000E+02  0.51100000000E-03 0.  1.
         11   -1    0    0    0    0 -0.00000000000E+00 -0.00000000000E+00 -0.45593999997E+02  0.45594000000E+02  0.51100000000E-03 0. -1.
    9900012    2    1    2    0    0 -0.18076088146E+02  0.31724841134E+01 -0.39329566454E+02  0.47787257892E+02  0.19999940031E+02 0.  0.
        -12    1    1    2    0    0  0.18076088146E+02 -0.31724841134E+01  0.39329566454E+02  0.43400742108E+02  0.00000000000E+00 0.  1.
         11    1    3    3    0    0 -0.32237094737E+01 -0.40166963896E+01 -0.87091086332E+01  0.10118039637E+02  0.51100000000E-03 0. -1.
        -11    1    3    3    0    0 -0.22781446975E+01  0.24325891902E+01  0.85687638572E+00  0.34411728862E+01  0.51100000000E-03 0.  1.
         12    1    3    3    0    0 -0.12574233975E+02  0.47565913127E+01 -0.31477334206E+02  0.34228045368E+02  0.00000000000E+00 0. -1.
</event>
<event>
 7    1  0.4931104E-009  0.4778727E+02  0.7816164E-02  0.1312668E+00
        -11   -1    0    0    0    0  0.00000000000E+00  0.00000000000E+00  0.45593999997E+02  0.45594000000E+02  0.51100000000E-03 0.  1.
         11   -1    0    0    0    0 -0.00000000000E+00 -0.00000000000E+00 -0.45593999997E+02  0.45594000000E+02  0.51100000000E-03 0. -1.
    9900012    2    1    2    0    0 -0.27171694153E+02  0.25868534367E+02 -0.21820657682E+02  0.47787272643E+02  0.20000007287E+02 0.  0.
        -12    1    1    2    0    0  0.27171694153E+02 -0.25868534367E+02  0.21820657682E+02  0.43400727357E+02  0.00000000000E+00 0.  1.
         11    1    3    3    0    0 -0.11550871209E+02  0.65500277015E+01  0.14391818060E+01  0.13356523990E+02  0.51100000000E-03 0.  1.
        -11    1    3    3    0    0 -0.66308790512E+01  0.86588802074E+01 -0.67752205374E+01  0.12839329306E+02  0.51100000000E-03 0. -1.
        -12    1    3    3    0    0 -0.89899438932E+01  0.10659626458E+02 -0.16484618951E+02  0.21591419346E+02  0.00000000000E+00 0.  1.
</event>
<event>
 7    1  0.4931104E-009  0.4778727E+02  0.7816164E-02  0.1312668E+00
        -11   -1    0    0    0    0  0.00000000000E+00  0.00000000000E+00  0.45593999997E+02  0.45594000000E+02  0.51100000000E-03 0. -1.
         11   -1    0    0    0    0 -0.00000000000E+00 -0.00000000000E+00 -0.45593999997E+02  0.45594000000E+02  0.51100000000E-03 0.  1.
    9900012    2    1    2    0    0 -0.43200532779E+02  0.38601539805E+01 -0.15608791269E+01  0.47787272301E+02  0.20000005730E+02 0.  0.
        -12    1    1    2    0    0  0.43200532779E+02 -0.38601539805E+01  0.15608791269E+01  0.43400727699E+02  0.00000000000E+00 0.  1.
         11    1    3    3    0    0 -0.27255955053E+02  0.15907459897E+01 -0.14706730803E+01  0.27341917237E+02  0.51100000000E-03 0. -1.
        -11    1    3    3    0    0 -0.10160091601E+02 -0.65432306098E+00 -0.58777863461E+01  0.11756018569E+02  0.51100000000E-03 0.  1.
         12    1    3    3    0    0 -0.57844861251E+01  0.29237310517E+01  0.57875802995E+01  0.86893364947E+01  0.00000000000E+00 0. -1.
</event>
<event>
 7    1  0.4931104E-009  0.4778727E+02  0.7816164E-02  0.1312668E+00
        -11   -1    0    0    0    0  0.00000000000E+00  0.00000000000E+00  0.45593999997E+02  0.45594000000E+02  0.51100000000E-03 0.  1.
         11   -1    0    0    0    0 -0.00000000000E+00 -0.00000000000E+00 -0.45593999997E+02  0.45594000000E+02  0.51100000000E-03 0. -1.
    9900012    2    1    2    0    0 -0.16863860229E+02 -0.36598698089E+02  0.16117344948E+02  0.47787270838E+02  0.19999999061E+02 0.  0.
        -12    1    1    2    0    0  0.16863860229E+02  0.36598698089E+02 -0.16117344948E+02  0.43400729162E+02  0.00000000000E+00 0.  1.
         11    1    3    3    0    0 -0.84416789080E+01 -0.17736977418E+02  0.12353765307E+02  0.23205125042E+02  0.51100000000E-03 0. -1.
        -11    1    3    3    0    0 -0.21921495172E+01 -0.14003893565E+02  0.72801509136E+01  0.15934715312E+02  0.51100000000E-03 0.  1.
         12    1    3    3    0    0 -0.62300318038E+01 -0.48578271055E+01 -0.35165712727E+01  0.86474304842E+01  0.00000000000E+00 0. -1.
</event>
<event>
 7    1  0.4931104E-009  0.4778727E+02  0.7816164E-02  0.1312668E+00
        -11   -1    0    0    0    0  0.00000000000E+00  0.00000000000E+00  0.45593999997E+02  0.45594000000E+02  0.51100000000E-03 0.  1.
         11   -1    0    0    0    0 -0.00000000000E+00 -0.00000000000E+00 -0.45593999997E+02  0.45594000000E+02  0.51100000000E-03 0. -1.
    9900012    2    1    2    0    0 -0.17106872081E+02  0.64187130264E+01 -0.39367224782E+02  0.47787270325E+02  0.19999996720E+02 0.  0.
        -12    1    1    2    0    0  0.17106872081E+02 -0.64187130264E+01  0.39367224782E+02  0.43400729675E+02  0.00000000000E+00 0.  1.
         11    1    3    3    0    0 -0.28800335038E+01 -0.15215973506E+01  0.21033596411E+00  0.32640608081E+01  0.51100000000E-03 0. -1.
        -11    1    3    3    0    0 -0.27878576784E+00  0.60752874500E+01 -0.89904293176E+01  0.10854246113E+02  0.51100000000E-03 0.  1.
         12    1    3    3    0    0 -0.13948052809E+02  0.18650229269E+01 -0.30587131428E+02  0.33668963404E+02  0.00000000000E+00 0. -1.
</event>
<event>
 7    1  0.4931104E-009  0.4778728E+02  0.7816164E-02  0.1312668E+00
        -11   -1    0    0    0    0  0.00000000000E+00  0.00000000000E+00  0.45593999997E+02  0.45594000000E+02  0.51100000000E-03 0.  1.
         11   -1    0    0    0    0 -0.00000000000E+00 -0.00000000000E+00 -0.45593999997E+02  0.45594000000E+02  0.51100000000E-03 0. -1.
    9900012    2    1    2    0    0  0.34482809034E+01 -0.11205974356E+02 -0.41787054178E+02  0.47787281120E+02  0.20000045939E+02 0.  0.
        -12    1    1    2    0    0 -0.34482809034E+01  0.11205974356E+02  0.41787054178E+02  0.43400718880E+02  0.00000000000E+00 0.  1.
         11    1    3    3    0    0 -0.18190631497E+01 -0.96361033116E+00 -0.14025552567E+02  0.14175812523E+02  0.51100000000E-03 0. -1.
        -11    1    3    3    0    0 -0.36876331475E+01 -0.36332431987E+01 -0.20020399144E+01  0.55504286727E+01  0.51100000000E-03 0.  1.
         12    1    3    3    0    0  0.89549772006E+01 -0.66091208258E+01 -0.25759461696E+02  0.28061039924E+02  0.00000000000E+00 0. -1.
</event>
<event>
 7    1  0.4931104E-009  0.4778727E+02  0.7816164E-02  0.1312668E+00
        -11   -1    0    0    0    0  0.00000000000E+00  0.00000000000E+00  0.45593999997E+02  0.45594000000E+02  0.51100000000E-03 0. -1.
         11   -1    0    0    0    0 -0.00000000000E+00 -0.00000000000E+00 -0.45593999997E+02  0.45594000000E+02  0.51100000000E-03 0.  1.
    9900012    2    1    2    0    0 -0.35377856372E+02 -0.20148701900E+02  0.15035302746E+02  0.47787271453E+02  0.20000001864E+02 0.  0.
        -12    1    1    2    0    0  0.35377856372E+02  0.20148701900E+02 -0.15035302746E+02  0.43400728547E+02  0.00000000000E+00 0.  1.
         11    1    3    3    0    0 -0.16056783643E+02 -0.65374922879E+01  0.69854316725E+01  0.18691050326E+02  0.51100000000E-03 0. -1.
        -11    1    3    3    0    0 -0.21243480750E+02 -0.10313415863E+02  0.48326735820E+01  0.24104081716E+02  0.51100000000E-03 0.  1.
         12    1    3    3    0    0  0.19224080209E+01 -0.32977937484E+01  0.32171974917E+01  0.49921394118E+01  0.00000000000E+00 0. -1.
</event>
<event>
 7    1  0.4931104E-009  0.4778727E+02  0.7816164E-02  0.1312668E+00
        -11   -1    0    0    0    0  0.00000000000E+00  0.00000000000E+00  0.45593999997E+02  0.45594000000E+02  0.51100000000E-03 0.  1.
         11   -1    0    0    0    0 -0.00000000000E+00 -0.00000000000E+00 -0.45593999997E+02  0.45594000000E+02  0.51100000000E-03 0. -1.
    9900012    2    1    2    0    0  0.31942435695E+02  0.28840911955E+02 -0.56129907179E+01  0.47787273447E+02  0.20000010954E+02 0.  0.
        -12    1    1    2    0    0 -0.31942435695E+02 -0.28840911955E+02  0.56129907179E+01  0.43400726553E+02  0.00000000000E+00 0.  1.
         11    1    3    3    0    0  0.21482393474E+02  0.17524278623E+02 -0.46925078735E+01  0.28117844886E+02  0.51100000000E-03 0. -1.
        -11    1    3    3    0    0  0.11220861654E+02  0.11689471730E+02  0.22760502665E+01  0.16362514802E+02  0.51100000000E-03 0.  1.
         12    1    3    3    0    0 -0.76081943288E+00 -0.37283839744E+00 -0.31965331108E+01  0.33069137589E+01  0.00000000000E+00 0. -1.
</event>
<event>
 7    1  0.4931104E-009  0.4778727E+02  0.7816164E-02  0.1312668E+00
        -11   -1    0    0    0    0  0.00000000000E+00  0.00000000000E+00  0.45593999997E+02  0.45594000000E+02  0.51100000000E-03 0.  1.
         11   -1    0    0    0    0 -0.00000000000E+00 -0.00000000000E+00 -0.45593999997E+02  0.45594000000E+02  0.51100000000E-03 0. -1.
    9900012    2    1    2    0    0 -0.41119814410E+02 -0.11516118839E+02 -0.77564898305E+01  0.47787271150E+02  0.20000000482E+02 0.  0.
        -12    1    1    2    0    0  0.41119814410E+02  0.11516118839E+02  0.77564898305E+01  0.43400728850E+02  0.00000000000E+00 0.  1.
         11    1    3    3    0    0 -0.24074169997E+02 -0.13823592437E+02 -0.57488525025E+00  0.27766668187E+02  0.51100000000E-03 0. -1.
        -11    1    3    3    0    0  0.66603854322E+00 -0.37992370958E+00 -0.40637766399E+00  0.86780898421E+00  0.51100000000E-03 0.  1.
         12    1    3    3    0    0 -0.17711682956E+02  0.26873973073E+01 -0.67752269163E+01  0.19152793978E+02  0.00000000000E+00 0. -1.
</event>
<event>
 7    1  0.4931104E-009  0.4778727E+02  0.7816164E-02  0.1312668E+00
        -11   -1    0    0    0    0  0.00000000000E+00  0.00000000000E+00  0.45593999997E+02  0.45594000000E+02  0.51100000000E-03 0. -1.
         11   -1    0    0    0    0 -0.00000000000E+00 -0.00000000000E+00 -0.45593999997E+02  0.45594000000E+02  0.51100000000E-03 0.  1.
    9900012    2    1    2    0    0 -0.36515591185E+02  0.18696903953E+02  0.14165487747E+02  0.47787266595E+02  0.19999979711E+02 0.  0.
        -12    1    1    2    0    0  0.36515591185E+02 -0.18696903953E+02 -0.14165487747E+02  0.43400733405E+02  0.00000000000E+00 0.  1.
         11    1    3    3    0    0 -0.53020619595E+01  0.24500752691E+01  0.81545726429E+01  0.10030542612E+02  0.51100000000E-03 0. -1.
        -11    1    3    3    0    0 -0.13476910056E+02  0.13827836050E+02  0.42358070987E+01  0.19768111102E+02  0.51100000000E-03 0.  1.
         12    1    3    3    0    0 -0.17736619170E+02  0.24189926333E+01  0.17751080051E+01  0.17988612881E+02  0.00000000000E+00 0. -1.
</event>
<event>
 7    1  0.4931104E-009  0.4778725E+02  0.7816164E-02  0.1312668E+00
        -11   -1    0    0    0    0  0.00000000000E+00  0.00000000000E+00  0.45593999997E+02  0.45594000000E+02  0.51100000000E-03 0.  1.
         11   -1    0    0    0    0 -0.00000000000E+00 -0.00000000000E+00 -0.45593999997E+02  0.45594000000E+02  0.51100000000E-03 0. -1.
    9900012    2    1    2    0    0 -0.10989319415E+02  0.88725208815E+01 -0.41038252724E+02  0.47787251681E+02  0.19999911714E+02 0.  0.
        -12    1    1    2    0    0  0.10989319415E+02 -0.88725208815E+01  0.41038252724E+02  0.43400748319E+02  0.00000000000E+00 0.  1.
         11    1    3    3    0    0  0.36524520764E+01  0.33387802590E+01 -0.41481823359E+01  0.64571879902E+01  0.51100000000E-03 0. -1.
        -11    1    3    3    0    0 -0.30250189021E+01 -0.27314554276E+01 -0.11641236995E+02  0.12334098555E+02  0.51100000000E-03 0.  1.
         12    1    3    3    0    0 -0.11616752589E+02  0.82651960502E+01 -0.25248833393E+02  0.28995965136E+02  0.00000000000E+00 0. -1.
</event>
<event>
 7    1  0.4931104E-009  0.4778728E+02  0.7816164E-02  0.1312668E+00
        -11   -1    0    0    0    0  0.00000000000E+00  0.00000000000E+00  0.45593999997E+02  0.45594000000E+02  0.51100000000E-03 0. -1.
         11   -1    0    0    0    0 -0.00000000000E+00 -0.00000000000E+00 -0.45593999997E+02  0.45594000000E+02  0.51100000000E-03 0.  1.
    9900012    2    1    2    0    0 -0.26035732287E+02 -0.12620501763E+02  0.32349435156E+02  0.47787281396E+02  0.20000047196E+02 0.  0.
        -12    1    1    2    0    0  0.26035732287E+02  0.12620501763E+02 -0.32349435156E+02  0.43400718604E+02  0.00000000000E+00 0.  1.
         11    1    3    3    0    0 -0.13961805499E+02 -0.46593224885E+01  0.92610495606E+01  0.17389891836E+02  0.51100000000E-03 0. -1.
        -11    1    3    3    0    0 -0.11674268981E+02 -0.93954850713E+01  0.11968708898E+02  0.19178469410E+02  0.51100000000E-03 0.  1.
         12    1    3    3    0    0 -0.39965780694E+00  0.14343057963E+01  0.11119676697E+02  0.11218920150E+02  0.00000000000E+00 0. -1.
</event>
<event>
 7    1  0.4931104E-009  0.4778727E+02  0.7816164E-02  0.1312668E+00
        -11   -1    0    0    0    0  0.00000000000E+00  0.00000000000E+00  0.45593999997E+02  0.45594000000E+02  0.51100000000E-03 0. -1.
         11   -1    0    0    0    0 -0.00000000000E+00 -0.00000000000E+00 -0.45593999997E+02  0.45594000000E+02  0.51100000000E-03 0.  1.
    9900012    2    1    2    0    0 -0.24463422484E+02 -0.34514578474E+02 -0.96906139214E+01  0.47787272299E+02  0.20000005718E+02 0.  0.
        -12    1    1    2    0    0  0.24463422484E+02  0.34514578474E+02  0.96906139214E+01  0.43400727701E+02  0.00000000000E+00 0.  1.
         11    1    3    3    0    0 -0.18599443606E+02 -0.19613673770E+02 -0.44810652323E+01  0.27399186979E+02  0.51100000000E-03 0. -1.
        -11    1    3    3    0    0 -0.68840576903E+01 -0.11543097749E+02  0.76213543956E+00  0.13461582619E+02  0.51100000000E-03 0.  1.
        -12    1    3    3    0    0  0.10200788129E+01 -0.33578069549E+01 -0.59716841287E+01  0.69265027007E+01  0.00000000000E+00 0.  1.
</event>
<event>
 7    1  0.4931104E-009  0.4778727E+02  0.7816164E-02  0.1312668E+00
        -11   -1    0    0    0    0  0.00000000000E+00  0.00000000000E+00  0.45593999997E+02  0.45594000000E+02  0.51100000000E-03 0.  1.
         11   -1    0    0    0    0 -0.00000000000E+00 -0.00000000000E+00 -0.45593999997E+02  0.45594000000E+02  0.51100000000E-03 0. -1.
    9900012    2    1    2    0    0 -0.59994594880E+01 -0.26104680694E+02 -0.34149307598E+02  0.47787273304E+02  0.20000010303E+02 0.  0.
        -12    1    1    2    0    0  0.59994594880E+01  0.26104680694E+02  0.34149307598E+02  0.43400726696E+02  0.00000000000E+00 0.  1.
         11    1    3    3    0    0  0.41917967921E+01 -0.10842107393E+02 -0.21108578337E+02  0.24097604295E+02  0.51100000000E-03 0. -1.
        -11    1    3    3    0    0 -0.49469250922E+01 -0.78158117218E+01 -0.10969896694E+02  0.14349132882E+02  0.51100000000E-03 0.  1.
        -12    1    3    3    0    0 -0.52443311879E+01 -0.74467615787E+01 -0.20708325672E+01  0.93405361271E+01  0.00000000000E+00 0.  1.
</event>
<event>
 7    1  0.4931104E-009  0.4778729E+02  0.7816164E-02  0.1312668E+00
        -11   -1    0    0    0    0  0.00000000000E+00  0.00000000000E+00  0.45593999997E+02  0.45594000000E+02  0.51100000000E-03 0.  1.
         11   -1    0    0    0    0 -0.00000000000E+00 -0.00000000000E+00 -0.45593999997E+02  0.45594000000E+02  0.51100000000E-03 0. -1.
    9900012    2    1    2    0    0 -0.38619424559E+02  0.14658724301E+02  0.13314797260E+02  0.47787285980E+02  0.20000068096E+02 0.  0.
        -12    1    1    2    0    0  0.38619424559E+02 -0.14658724301E+02 -0.13314797260E+02  0.43400714020E+02  0.00000000000E+00 0.  1.
         11    1    3    3    0    0 -0.12772694874E+02  0.92701884874E+01  0.51510036774E+01  0.16601535112E+02  0.51100000000E-03 0.  1.
        -11    1    3    3    0    0 -0.29934661259E+01  0.62761453059E+01  0.16042373255E+00  0.69553271226E+01  0.51100000000E-03 0. -1.
         12    1    3    3    0    0 -0.22853263559E+02 -0.88760949247E+00  0.80033698499E+01  0.24230423745E+02  0.00000000000E+00 0. -1.
</event>
<event>
 7    1  0.4931104E-009  0.4778727E+02  0.7816164E-02  0.1312668E+00
        -11   -1    0    0    0    0  0.00000000000E+00  0.00000000000E+00  0.45593999997E+02  0.45594000000E+02  0.51100000000E-03 0. -1.
         11   -1    0    0    0    0 -0.00000000000E+00 -0.00000000000E+00 -0.45593999997E+02  0.45594000000E+02  0.51100000000E-03 0.  1.
    9900012    2    1    2    0    0 -0.38989648373E+02  0.14298667051E+02 -0.12608667324E+02  0.47787273608E+02  0.20000011687E+02 0.  0.
        -12    1    1    2    0    0  0.38989648373E+02 -0.14298667051E+02  0.12608667324E+02  0.43400726392E+02  0.00000000000E+00 0.  1.
         11    1    3    3    0    0 -0.35156919054E+00  0.37512654436E+01 -0.21295295012E+01  0.43278735520E+01  0.51100000000E-03 0.  1.
        -11    1    3    3    0    0 -0.17644369893E+02  0.99325170550E+01 -0.61916145732E+00  0.20257394826E+02  0.51100000000E-03 0. -1.
         12    1    3    3    0    0 -0.20993709290E+02  0.61488455227E+00 -0.98599763658E+01  0.23202005230E+02  0.00000000000E+00 0. -1.
</event>
<event>
 7    1  0.4931104E-009  0.4778727E+02  0.7816164E-02  0.1312668E+00
        -11   -1    0    0    0    0  0.00000000000E+00  0.00000000000E+00  0.45593999997E+02  0.45594000000E+02  0.51100000000E-03 0. -1.
         11   -1    0    0    0    0 -0.00000000000E+00 -0.00000000000E+00 -0.45593999997E+02  0.45594000000E+02  0.51100000000E-03 0.  1.
    9900012    2    1    2    0    0 -0.20245325224E+02  0.31340244818E+02  0.22170682700E+02  0.47787270628E+02  0.19999998100E+02 0.  0.
        -12    1    1    2    0    0  0.20245325224E+02 -0.31340244818E+02 -0.22170682700E+02  0.43400729372E+02  0.00000000000E+00 0.  1.
         11    1    3    3    0    0 -0.20194735619E+02  0.17850302052E+02  0.17363480763E+02  0.32061676415E+02  0.51100000000E-03 0. -1.
        -11    1    3    3    0    0 -0.59166507035E-01  0.44149549083E+01  0.49714599700E+01  0.66491158820E+01  0.51100000000E-03 0.  1.
        -12    1    3    3    0    0  0.85769026166E-02  0.90749878581E+01 -0.16425803329E+00  0.90764783307E+01  0.00000000000E+00 0.  1.
</event>
<event>
 7    1  0.4931104E-009  0.4778728E+02  0.7816164E-02  0.1312668E+00
        -11   -1    0    0    0    0  0.00000000000E+00  0.00000000000E+00  0.45593999997E+02  0.45594000000E+02  0.51100000000E-03 0. -1.
         11   -1    0    0    0    0 -0.00000000000E+00 -0.00000000000E+00 -0.45593999997E+02  0.45594000000E+02  0.51100000000E-03 0.  1.
    9900012    2    1    2    0    0  0.39270727813E+01 -0.35835885768E+02  0.24165888821E+02  0.47787276596E+02  0.20000025313E+02 0.  0.
        -12    1    1    2    0    0 -0.39270727813E+01  0.35835885768E+02 -0.24165888821E+02  0.43400723404E+02  0.00000000000E+00 0.  1.
         11    1    3    3    0    0  0.34526485066E+01 -0.16001914171E+02  0.16615168445E+02  0.23324790708E+02  0.51100000000E-03 0. -1.
        -11    1    3    3    0    0 -0.50602586523E+01 -0.63284789837E+01  0.53305731591E+01  0.96990140912E+01  0.51100000000E-03 0.  1.
        -12    1    3    3    0    0  0.55346829270E+01 -0.13505492614E+02  0.22201472169E+01  0.14763471797E+02  0.00000000000E+00 0.  1.
</event>
<event>
 7    1  0.4931104E-009  0.4778725E+02  0.7816164E-02  0.1312668E+00
        -11   -1    0    0    0    0  0.00000000000E+00  0.00000000000E+00  0.45593999997E+02  0.45594000000E+02  0.51100000000E-03 0.  1.
         11   -1    0    0    0    0 -0.00000000000E+00 -0.00000000000E+00 -0.45593999997E+02  0.45594000000E+02  0.51100000000E-03 0. -1.
    9900012    2    1    2    0    0 -0.31413320447E+02  0.25906275158E+02 -0.15023098525E+02  0.47787247894E+02  0.19999894446E+02 0.  0.
        -12    1    1    2    0    0  0.31413320447E+02 -0.25906275158E+02  0.15023098525E+02  0.43400752106E+02  0.00000000000E+00 0.  1.
         11    1    3    3    0    0 -0.24263215002E+02  0.16379663460E+02 -0.25355593047E+01  0.29384112009E+02  0.51100000000E-03 0. -1.
        -11    1    3    3    0    0  0.73097786331E+00  0.16859760591E+01 -0.22475840444E+00  0.18513131853E+01  0.51100000000E-03 0.  1.
         12    1    3    3    0    0 -0.78810833085E+01  0.78406356391E+01 -0.12262780816E+02  0.16551822700E+02  0.00000000000E+00 0. -1.
</event>
<event>
 7    1  0.4931104E-009  0.4778724E+02  0.7816164E-02  0.1312668E+00
        -11   -1    0    0    0    0  0.00000000000E+00  0.00000000000E+00  0.45593999997E+02  0.45594000000E+02  0.51100000000E-03 0. -1.
         11   -1    0    0    0    0 -0.00000000000E+00 -0.00000000000E+00 -0.45593999997E+02  0.45594000000E+02  0.51100000000E-03 0.  1.
    9900012    2    1    2    0    0 -0.36619077115E+02 -0.15319229345E+02  0.17549646980E+02  0.47787243030E+02  0.19999872270E+02 0.  0.
        -12    1    1    2    0    0  0.36619077115E+02  0.15319229345E+02 -0.17549646980E+02  0.43400756970E+02  0.00000000000E+00 0.  1.
         11    1    3    3    0    0 -0.77946839507E+01 -0.13927345001E+01  0.88790106097E+01  0.11896791036E+02  0.51100000000E-03 0.  1.
        -11    1    3    3    0    0 -0.14042096297E+00 -0.44031366418E+01 -0.14397356858E+00  0.44077271902E+01  0.51100000000E-03 0. -1.
         12    1    3    3    0    0 -0.28683972201E+02 -0.95233582029E+01  0.88146099385E+01  0.31482724804E+02  0.00000000000E+00 0. -1.
</event>
<event>
 7    1  0.4931104E-009  0.4778726E+02  0.7816164E-02  0.1312668E+00
        -11   -1    0    0    0    0  0.00000000000E+00  0.00000000000E+00  0.45593999997E+02  0.45594000000E+02  0.51100000000E-03 0.  1.
         11   -1    0    0    0    0 -0.00000000000E+00 -0.00000000000E+00 -0.45593999997E+02  0.45594000000E+02  0.51100000000E-03 0. -1.
    9900012    2    1    2    0    0 -0.18767955798E+02  0.10884844476E+02 -0.37588673183E+02  0.47787258581E+02  0.19999943173E+02 0.  0.
        -12    1    1    2    0    0  0.18767955798E+02 -0.10884844476E+02  0.37588673183E+02  0.43400741419E+02  0.00000000000E+00 0.  1.
         11    1    3    3    0    0 -0.12222065123E+02  0.33098354589E+01 -0.10945549188E+02  0.16737351461E+02  0.51100000000E-03 0. -1.
        -11    1    3    3    0    0 -0.37635144581E+01 -0.11828262182E+01 -0.13997065230E+01  0.41859643513E+01  0.51100000000E-03 0.  1.
         12    1    3    3    0    0 -0.27823762169E+01  0.87578352352E+01 -0.25243417472E+02  0.26863942769E+02  0.00000000000E+00 0. -1.
</event>
<event>
 7    1  0.4931104E-009  0.4778727E+02  0.7816164E-02  0.1312668E+00
        -11   -1    0    0    0    0  0.00000000000E+00  0.00000000000E+00  0.45593999997E+02  0.45594000000E+02  0.51100000000E-03 0.  1.
         11   -1    0    0    0    0 -0.00000000000E+00 -0.00000000000E+00 -0.45593999997E+02  0.45594000000E+02  0.51100000000E-03 0. -1.
    9900012    2    1    2    0    0 -0.29198058355E+02  0.25861970687E+02 -0.19032994059E+02  0.47787274172E+02  0.20000014261E+02 0.  0.
        -12    1    1    2    0    0  0.29198058355E+02 -0.25861970687E+02  0.19032994059E+02  0.43400725828E+02  0.00000000000E+00 0.  1.
         11    1    3    3    0    0 -0.21822585689E+02  0.11228359515E+02 -0.12490791722E+02  0.27537632099E+02  0.51100000000E-03 0. -1.
        -11    1    3    3    0    0 -0.80100833526E+01  0.60542731390E+01 -0.58463815081E+01  0.11618770828E+02  0.51100000000E-03 0.  1.
        -12    1    3    3    0    0  0.63461068683E+00  0.85793380337E+01 -0.69582082935E+00  0.86308712450E+01  0.00000000000E+00 0.  1.
</event>
<event>
 7    1  0.4931104E-009  0.4778728E+02  0.7816164E-02  0.1312668E+00
        -11   -1    0    0    0    0  0.00000000000E+00  0.00000000000E+00  0.45593999997E+02  0.45594000000E+02  0.51100000000E-03 0.  1.
         11   -1    0    0    0    0 -0.00000000000E+00 -0.00000000000E+00 -0.45593999997E+02  0.45594000000E+02  0.51100000000E-03 0. -1.
    9900012    2    1    2    0    0  0.11043068428E+02  0.33393441651E+02 -0.25427375627E+02  0.47787277231E+02  0.20000028209E+02 0.  0.
        -12    1    1    2    0    0 -0.11043068428E+02 -0.33393441651E+02  0.25427375627E+02  0.43400722769E+02  0.00000000000E+00 0.  1.
         11    1    3    3    0    0  0.10141648910E+02  0.17937713387E+02 -0.17067243077E+02  0.26756408404E+02  0.51100000000E-03 0. -1.
        -11    1    3    3    0    0  0.16279749273E+01 -0.24266559037E+00 -0.45809086535E+01  0.48676393976E+01  0.51100000000E-03 0.  1.
        -12    1    3    3    0    0 -0.72655540883E+00  0.15698393854E+02 -0.37792238964E+01  0.16163229430E+02  0.00000000000E+00 0.  1.
</event>
<event>
 7    1  0.4931104E-009  0.4778727E+02  0.7816164E-02  0.1312668E+00
        -11   -1    0    0    0    0  0.00000000000E+00  0.00000000000E+00  0.45593999997E+02  0.45594000000E+02  0.51100000000E-03 0.  1.
         11   -1    0    0    0    0 -0.00000000000E+00 -0.00000000000E+00 -0.45593999997E+02  0.45594000000E+02  0.51100000000E-03 0. -1.
    9900012    2    1    2    0    0 -0.10968315710E+02  0.78933817169E-01 -0.41991820580E+02  0.47787272176E+02  0.20000005160E+02 0.  0.
        -12    1    1    2    0    0  0.10968315710E+02 -0.78933817169E-01  0.41991820580E+02  0.43400727824E+02  0.00000000000E+00 0.  1.
         11    1    3    3    0    0  0.27360495427E+00  0.14334756956E+01  0.32384513579E+00  0.14948538972E+01  0.51100000000E-03 0. -1.
        -11    1    3    3    0    0 -0.69213866193E+01  0.62282293865E+01 -0.15387408137E+02  0.17985237376E+02  0.51100000000E-03 0.  1.
         12    1    3    3    0    0 -0.43205340446E+01 -0.75827712649E+01 -0.26928257578E+02  0.28307180903E+02  0.00000000000E+00 0. -1.
</event>
<event>
 7    1  0.4931104E-009  0.4778728E+02  0.7816164E-02  0.1312668E+00
        -11   -1    0    0    0    0  0.00000000000E+00  0.00000000000E+00  0.45593999997E+02  0.45594000000E+02  0.51100000000E-03 0.  1.
         11   -1    0    0    0    0 -0.00000000000E+00 -0.00000000000E+00 -0.45593999997E+02  0.45594000000E+02  0.51100000000E-03 0. -1.
    9900012    2    1    2    0    0 -0.10162362501E+02  0.37371716972E+02 -0.19588362086E+02  0.47787276847E+02  0.20000026455E+02 0.  0.
        -12    1    1    2    0    0  0.10162362501E+02 -0.37371716972E+02  0.19588362086E+02  0.43400723153E+02  0.00000000000E+00 0.  1.
         11    1    3    3    0    0 -0.42731728894E+01  0.47415030242E+01 -0.17627067272E+01  0.66218571970E+01  0.51100000000E-03 0. -1.
        -11    1    3    3    0    0 -0.31054045441E+01  0.31693837882E+02 -0.19915970183E+02  0.37560468124E+02  0.51100000000E-03 0.  1.
        -12    1    3    3    0    0 -0.27837850673E+01  0.93637606564E+00  0.20903148247E+01  0.36049515258E+01  0.00000000000E+00 0.  1.
</event>
<event>
 7    1  0.4931104E-009  0.4778727E+02  0.7816164E-02  0.1312668E+00
        -11   -1    0    0    0    0  0.00000000000E+00  0.00000000000E+00  0.45593999997E+02  0.45594000000E+02  0.51100000000E-03 0.  1.
         11   -1    0    0    0    0 -0.00000000000E+00 -0.00000000000E+00 -0.45593999997E+02  0.45594000000E+02  0.51100000000E-03 0. -1.
    9900012    2    1    2    0    0 -0.14027771501E+02  0.36337436126E+02 -0.19142500557E+02  0.47787274602E+02  0.20000016220E+02 0.  0.
        -12    1    1    2    0    0  0.14027771501E+02 -0.36337436126E+02  0.19142500557E+02  0.43400725398E+02  0.00000000000E+00 0.  1.
         11    1    3    3    0    0 -0.39426561061E+01  0.16820473154E+02 -0.13661606565E+02  0.22025266139E+02  0.51100000000E-03 0. -1.
        -11    1    3    3    0    0 -0.27854777212E+01 -0.71780005065E+00 -0.29201618056E+01  0.40989594143E+01  0.51100000000E-03 0.  1.
        -12    1    3    3    0    0 -0.72996376735E+01  0.20234763023E+02 -0.25607321868E+01  0.21663049049E+02  0.00000000000E+00 0.  1.
</event>
<event>
 7    1  0.4931104E-009  0.4778728E+02  0.7816164E-02  0.1312668E+00
        -11   -1    0    0    0    0  0.00000000000E+00  0.00000000000E+00  0.45593999997E+02  0.45594000000E+02  0.51100000000E-03 0.  1.
         11   -1    0    0    0    0 -0.00000000000E+00 -0.00000000000E+00 -0.45593999997E+02  0.45594000000E+02  0.51100000000E-03 0. -1.
    9900012    2    1    2    0    0 -0.33211716559E+01 -0.43271839526E+02  0.37446572601E+00  0.47787279941E+02  0.20000040561E+02 0.  0.
        -12    1    1    2    0    0  0.33211716559E+01  0.43271839526E+02 -0.37446572601E+00  0.43400720059E+02  0.00000000000E+00 0.  1.
         11    1    3    3    0    0 -0.15353278002E+01 -0.59404469042E+01  0.14959042442E+01  0.63153678155E+01  0.51100000000E-03 0. -1.
        -11    1    3    3    0    0  0.52901391912E+01 -0.97930720185E+01  0.52921731245E+01  0.12324647210E+02  0.51100000000E-03 0.  1.
         12    1    3    3    0    0 -0.70759830468E+01 -0.27538320603E+02 -0.64136116427E+01  0.29147264915E+02  0.00000000000E+00 0. -1.
</event>
<event>
 7    1  0.4931104E-009  0.4778728E+02  0.7816164E-02  0.1312668E+00
        -11   -1    0    0    0    0  0.00000000000E+00  0.00000000000E+00  0.45593999997E+02  0.45594000000E+02  0.51100000000E-03 0.  1.
         11   -1    0    0    0    0 -0.00000000000E+00 -0.00000000000E+00 -0.45593999997E+02  0.45594000000E+02  0.51100000000E-03 0. -1.
    9900012    2    1    2    0    0 -0.20655116808E+02 -0.61592889591E+01 -0.37670309473E+02  0.47787275276E+02  0.20000019291E+02 0.  0.
        -12    1    1    2    0    0  0.20655116808E+02  0.61592889591E+01  0.37670309473E+02  0.43400724724E+02  0.00000000000E+00 0.  1.
         11    1    3    3    0    0  0.56310661017E+00 -0.37633436952E+00  0.13914332568E+01  0.15475152282E+01  0.51100000000E-03 0.  1.
        -11    1    3    3    0    0 -0.55484606751E+01  0.32909192584E+01 -0.12897160119E+02  0.14420551474E+02  0.51100000000E-03 0. -1.
         12    1    3    3    0    0 -0.15669762743E+02 -0.90738738480E+01 -0.26164582611E+02  0.31819208573E+02  0.00000000000E+00 0. -1.
</event>
<event>
 7    1  0.4931104E-009  0.4778726E+02  0.7816164E-02  0.1312668E+00
        -11   -1    0    0    0    0  0.00000000000E+00  0.00000000000E+00  0.45593999997E+02  0.45594000000E+02  0.51100000000E-03 0.  1.
         11   -1    0    0    0    0 -0.00000000000E+00 -0.00000000000E+00 -0.45593999997E+02  0.45594000000E+02  0.51100000000E-03 0. -1.
    9900012    2    1    2    0    0 -0.20134296987E+02 -0.23190433236E+00 -0.38447118323E+02  0.47787255742E+02  0.19999930230E+02 0.  0.
        -12    1    1    2    0    0  0.20134296987E+02  0.23190433236E+00  0.38447118323E+02  0.43400744258E+02  0.00000000000E+00 0.  1.
         11    1    3    3    0    0 -0.52335556877E+01 -0.58123236231E+01 -0.15535404173E+02  0.17393159406E+02  0.51100000000E-03 0. -1.
        -11    1    3    3    0    0 -0.85422578717E+01 -0.81476256869E+00 -0.18416699065E+02  0.20317697022E+02  0.51100000000E-03 0.  1.
        -12    1    3    3    0    0 -0.63584834274E+01  0.63951818594E+01 -0.44950150854E+01  0.10076399314E+02  0.00000000000E+00 0.  1.
</event>
<event>
 7    1  0.4931104E-009  0.4778727E+02  0.7816164E-02  0.1312668E+00
        -11   -1    0    0    0    0  0.00000000000E+00  0.00000000000E+00  0.45593999997E+02  0.45594000000E+02  0.51100000000E-03 0. -1.
         11   -1    0    0    0    0 -0.00000000000E+00 -0.00000000000E+00 -0.45593999997E+02  0.45594000000E+02  0.51100000000E-03 0.  1.
    9900012    2    1    2    0    0 -0.29090103999E+02  0.24787241471E+02  0.20566523469E+02  0.47787269844E+02  0.19999994528E+02 0.  0.
        -12    1    1    2    0    0  0.29090103999E+02 -0.24787241471E+02 -0.20566523469E+02  0.43400730156E+02  0.00000000000E+00 0.  1.
         11    1    3    3    0    0 -0.59852353034E+00  0.18514794780E+01  0.24284253097E+01  0.31118252553E+01  0.51100000000E-03 0.  1.
        -11    1    3    3    0    0 -0.79141787657E+00  0.45969580174E+01  0.91340991949E+01  0.10256224141E+02  0.51100000000E-03 0. -1.
         12    1    3    3    0    0 -0.27700162592E+02  0.18338803976E+02  0.90039989649E+01  0.34419220448E+02  0.00000000000E+00 0. -1.
</event>
<event>
 7    1  0.4931104E-009  0.4778727E+02  0.7816164E-02  0.1312668E+00
        -11   -1    0    0    0    0  0.00000000000E+00  0.00000000000E+00  0.45593999997E+02  0.45594000000E+02  0.51100000000E-03 0.  1.
         11   -1    0    0    0    0 -0.00000000000E+00 -0.00000000000E+00 -0.45593999997E+02  0.45594000000E+02  0.51100000000E-03 0. -1.
    9900012    2    1    2    0    0 -0.97629864702E+01  0.39437864917E+02 -0.15263104118E+02  0.47787269115E+02  0.19999991204E+02 0.  0.
        -12    1    1    2    0    0  0.97629864702E+01 -0.39437864917E+02  0.15263104118E+02  0.43400730885E+02  0.00000000000E+00 0.  1.
         11    1    3    3    0    0 -0.78596348617E+01  0.22443856477E+02 -0.94631191268E+01  0.25593967602E+02  0.51100000000E-03 0. -1.
        -11    1    3    3    0    0 -0.28812698213E+00  0.16403743724E+02 -0.88877184278E+01  0.18658975439E+02  0.51100000000E-03 0.  1.
        -12    1    3    3    0    0 -0.16152246263E+01  0.59026471596E+00  0.30877334364E+01  0.35343260747E+01  0.00000000000E+00 0.  1.
</event>
<event>
 7    1  0.4931104E-009  0.4778727E+02  0.7816164E-02  0.1312668E+00
        -11   -1    0    0    0    0  0.00000000000E+00  0.00000000000E+00  0.45593999997E+02  0.45594000000E+02  0.51100000000E-03 0.  1.
         11   -1    0    0    0    0 -0.00000000000E+00 -0.00000000000E+00 -0.45593999997E+02  0.45594000000E+02  0.51100000000E-03 0. -1.
    9900012    2    1    2    0    0  0.36516355561E+02 -0.21281367836E+02  0.98632055466E+01  0.47787266549E+02  0.19999979504E+02 0.  0.
        -12    1    1    2    0    0 -0.36516355561E+02  0.21281367836E+02 -0.98632055466E+01  0.43400733451E+02  0.00000000000E+00 0.  1.
         11    1    3    3    0    0  0.11749214691E+02 -0.13837095488E+02  0.55271783591E+00  0.18160802699E+02  0.51100000000E-03 0. -1.
        -11    1    3    3    0    0  0.63534071284E+01 -0.72392952468E+01  0.42576761821E+01  0.10530953639E+02  0.51100000000E-03 0.  1.
         12    1    3    3    0    0  0.18413733741E+02 -0.20497710168E+00  0.50528115286E+01  0.19095510211E+02  0.00000000000E+00 0. -1.
</event>
<event>
 7    1  0.4931104E-009  0.4778727E+02  0.7816164E-02  0.1312668E+00
        -11   -1    0    0    0    0  0.00000000000E+00  0.00000000000E+00  0.45593999997E+02  0.45594000000E+02  0.51100000000E-03 0. -1.
         11   -1    0    0    0    0 -0.00000000000E+00 -0.00000000000E+00 -0.45593999997E+02  0.45594000000E+02  0.51100000000E-03 0.  1.
    9900012    2    1    2    0    0  0.31117796147E+02 -0.12050439825E+02 -0.27750549840E+02  0.47787270128E+02  0.19999995820E+02 0.  0.
        -12    1    1    2    0    0 -0.31117796147E+02  0.12050439825E+02  0.27750549840E+02  0.43400729872E+02  0.00000000000E+00 0.  1.
         11    1    3    3    0    0  0.83261718483E+01 -0.11484618115E+01  0.17731147837E+01  0.85899964190E+01  0.51100000000E-03 0. -1.
        -11    1    3    3    0    0  0.20837047469E+01 -0.29195981227E+01 -0.38948793923E+01  0.52948998491E+01  0.51100000000E-03 0.  1.
         12    1    3    3    0    0  0.20707919552E+02 -0.79823798904E+01 -0.25628785231E+02  0.33902373860E+02  0.00000000000E+00 0. -1.
</event>
<event>
 7    1  0.4931104E-009  0.4778727E+02  0.7816164E-02  0.1312668E+00
        -11   -1    0    0    0    0  0.00000000000E+00  0.00000000000E+00  0.45593999997E+02  0.45594000000E+02  0.51100000000E-03 0.  1.
         11   -1    0    0    0    0 -0.00000000000E+00 -0.00000000000E+00 -0.45593999997E+02  0.45594000000E+02  0.51100000000E-03 0. -1.
    9900012    2    1    2    0    0 -0.31611846232E+00  0.18375940589E+02 -0.39317273210E+02  0.47787273092E+02  0.20000009338E+02 0.  0.
        -12    1    1    2    0    0  0.31611846232E+00 -0.18375940589E+02  0.39317273210E+02  0.43400726908E+02  0.00000000000E+00 0.  1.
         11    1    3    3    0    0  0.38337625731E+01  0.27551712318E+01 -0.54195890101E+01  0.71875342978E+01  0.51100000000E-03 0. -1.
        -11    1    3    3    0    0 -0.19078274893E+00  0.30733023208E+01 -0.23841538438E+02  0.24039561988E+02  0.51100000000E-03 0.  1.
         12    1    3    3    0    0 -0.39590982865E+01  0.12547467037E+02 -0.10056145762E+02  0.16560176806E+02  0.00000000000E+00 0. -1.
</event>
<event>
 7    1  0.4931104E-009  0.4778727E+02  0.7816164E-02  0.1312668E+00
        -11   -1    0    0    0    0  0.00000000000E+00  0.00000000000E+00  0.45593999997E+02  0.45594000000E+02  0.51100000000E-03 0.  1.
         11   -1    0    0    0    0 -0.00000000000E+00 -0.00000000000E+00 -0.45593999997E+02  0.45594000000E+02  0.51100000000E-03 0. -1.
    9900012    2    1    2    0    0  0.80516659968E+01  0.76501372454E+01 -0.41955562171E+02  0.47787272791E+02  0.20000007961E+02 0.  0.
        -12    1    1    2    0    0 -0.80516659968E+01 -0.76501372454E+01  0.41955562171E+02  0.43400727209E+02  0.00000000000E+00 0.  1.
         11    1    3    3    0    0  0.10161151200E+02  0.15007407398E+01 -0.20498488398E+02  0.22927914064E+02  0.51100000000E-03 0. -1.
        -11    1    3    3    0    0  0.14858725893E+01 -0.61131030660E-01 -0.15391470439E+02  0.15463147056E+02  0.51100000000E-03 0.  1.
        -12    1    3    3    0    0 -0.35953577926E+01  0.62105275363E+01 -0.60656033348E+01  0.93962116702E+01  0.00000000000E+00 0.  1.
</event>
<event>
 7    1  0.4931104E-009  0.4778727E+02  0.7816164E-02  0.1312668E+00
        -11   -1    0    0    0    0  0.00000000000E+00  0.00000000000E+00  0.45593999997E+02  0.45594000000E+02  0.51100000000E-03 0.  1.
         11   -1    0    0    0    0 -0.00000000000E+00 -0.00000000000E+00 -0.45593999997E+02  0.45594000000E+02  0.51100000000E-03 0. -1.
    9900012    2    1    2    0    0  0.17781941124E+02 -0.37537605244E+02  0.12583877043E+02  0.47787271907E+02  0.20000003931E+02 0.  0.
        -12    1    1    2    0    0 -0.17781941124E+02  0.37537605244E+02 -0.12583877043E+02  0.43400728093E+02  0.00000000000E+00 0.  1.
         11    1    3    3    0    0  0.28150570658E+01 -0.18332301276E+02  0.94127909936E+01  0.20799001199E+02  0.51100000000E-03 0. -1.
        -11    1    3    3    0    0  0.51734135772E+01 -0.12628614059E+02  0.59192072538E+01  0.14875587916E+02  0.51100000000E-03 0.  1.
        -12    1    3    3    0    0  0.97934704815E+01 -0.65766899094E+01 -0.27481212041E+01  0.12112682791E+02  0.00000000000E+00 0.  1.
</event>
<event>
 7    1  0.4931104E-009  0.4778727E+02  0.7816164E-02  0.1312668E+00
        -11   -1    0    0    0    0  0.00000000000E+00  0.00000000000E+00  0.45593999997E+02  0.45594000000E+02  0.51100000000E-03 0.  1.
         11   -1    0    0    0    0 -0.00000000000E+00 -0.00000000000E+00 -0.45593999997E+02  0.45594000000E+02  0.51100000000E-03 0. -1.
    9900012    2    1    2    0    0 -0.52687225425E+01  0.37978040942E+02 -0.20335487523E+02  0.47787273234E+02  0.20000009984E+02 0.  0.
        -12    1    1    2    0    0  0.52687225425E+01 -0.37978040942E+02  0.20335487523E+02  0.43400726766E+02  0.00000000000E+00 0.  1.
         11    1    3    3    0    0 -0.38734532072E+01  0.15459362709E+02 -0.11072724791E+01  0.15975656097E+02  0.51100000000E-03 0. -1.
        -11    1    3    3    0    0 -0.32504451603E+01  0.75177027241E+00 -0.38582397559E+01  0.51006437395E+01  0.51100000000E-03 0.  1.
         12    1    3    3    0    0  0.18551758251E+01  0.21766907960E+02 -0.15369975288E+02  0.26710973397E+02  0.00000000000E+00 0. -1.
</event>
<event>
 7    1  0.4931104E-009  0.4778728E+02  0.7816164E-02  0.1312668E+00
        -11   -1    0    0    0    0  0.00000000000E+00  0.00000000000E+00  0.45593999997E+02  0.45594000000E+02  0.51100000000E-03 0.  1.
         11   -1    0    0    0    0 -0.00000000000E+00 -0.00000000000E+00 -0.45593999997E+02  0.45594000000E+02  0.51100000000E-03 0. -1.
    9900012    2    1    2    0    0  0.25474236636E+02  0.32532092612E+02 -0.13279646588E+02  0.47787276557E+02  0.20000025133E+02 0.  0.
        -12    1    1    2    0    0 -0.25474236636E+02 -0.32532092612E+02  0.13279646588E+02  0.43400723443E+02  0.00000000000E+00 0.  1.
         11    1    3    3    0    0  0.16319091150E+02  0.93479805422E+01 -0.47088898698E+01  0.19387395912E+02  0.51100000000E-03 0. -1.
        -11    1    3    3    0    0  0.60338648651E+01  0.33526528537E+01 -0.11565684358E+01  0.69989611497E+01  0.51100000000E-03 0.  1.
        -12    1    3    3    0    0  0.31212806209E+01  0.19831459216E+02 -0.74141882821E+01  0.21400919495E+02  0.00000000000E+00 0.  1.
</event>
<event>
 7    1  0.4931104E-009  0.4778727E+02  0.7816164E-02  0.1312668E+00
        -11   -1    0    0    0    0  0.00000000000E+00  0.00000000000E+00  0.45593999997E+02  0.45594000000E+02  0.51100000000E-03 0.  1.
         11   -1    0    0    0    0 -0.00000000000E+00 -0.00000000000E+00 -0.45593999997E+02  0.45594000000E+02  0.51100000000E-03 0. -1.
    9900012    2    1    2    0    0  0.95361179422E+00  0.31495251893E+02 -0.29845653013E+02  0.47787271077E+02  0.20000000150E+02 0.  0.
        -12    1    1    2    0    0 -0.95361179422E+00 -0.31495251893E+02  0.29845653013E+02  0.43400728923E+02  0.00000000000E+00 0.  1.
         11    1    3    3    0    0 -0.13500126712E+01  0.17228536540E+01 -0.60706867860E+01  0.64532160386E+01  0.51100000000E-03 0. -1.
        -11    1    3    3    0    0  0.88297850262E+01  0.19329921547E+02 -0.17410723579E+02  0.27472609385E+02  0.51100000000E-03 0.  1.
        -12    1    3    3    0    0 -0.65261605608E+01  0.10442476692E+02 -0.63642426476E+01  0.13861445653E+02  0.00000000000E+00 0.  1.
</event>
<event>
 7    1  0.4931104E-009  0.4778728E+02  0.7816164E-02  0.1312668E+00
        -11   -1    0    0    0    0  0.00000000000E+00  0.00000000000E+00  0.45593999997E+02  0.45594000000E+02  0.51100000000E-03 0. -1.
         11   -1    0    0    0    0 -0.00000000000E+00 -0.00000000000E+00 -0.45593999997E+02  0.45594000000E+02  0.51100000000E-03 0.  1.
    9900012    2    1    2    0    0  0.27920029220E+02  0.28379709419E+02  0.17282557297E+02  0.47787277367E+02  0.20000028828E+02 0.  0.
        -12    1    1    2    0    0 -0.27920029220E+02 -0.28379709419E+02 -0.17282557297E+02  0.43400722633E+02  0.00000000000E+00 0.  1.
         11    1    3    3    0    0  0.88875463094E-01  0.27880853325E+01  0.18409524147E+01  0.33422185332E+01  0.51100000000E-03 0. -1.
        -11    1    3    3    0    0  0.27911594289E+02  0.24253015235E+02  0.92582931752E+01  0.38117998853E+02  0.51100000000E-03 0.  1.
        -12    1    3    3    0    0 -0.80440532921E-01  0.13386088511E+01  0.61833117072E+01  0.63270599810E+01  0.00000000000E+00 0.  1.
</event>
<event>
 7    1  0.4931104E-009  0.4778727E+02  0.7816164E-02  0.1312668E+00
        -11   -1    0    0    0    0  0.00000000000E+00  0.00000000000E+00  0.45593999997E+02  0.45594000000E+02  0.51100000000E-03 0.  1.
         11   -1    0    0    0    0 -0.00000000000E+00 -0.00000000000E+00 -0.45593999997E+02  0.45594000000E+02  0.51100000000E-03 0. -1.
    9900012    2    1    2    0    0  0.29460123936E+02 -0.26356238006E+02 -0.17918524848E+02  0.47787265940E+02  0.19999976729E+02 0.  0.
        -12    1    1    2    0    0 -0.29460123936E+02  0.26356238006E+02  0.17918524848E+02  0.43400734060E+02  0.00000000000E+00 0.  1.
         11    1    3    3    0    0  0.46459537008E+01  0.11428395767E+01 -0.71963382765E+00  0.48382684088E+01  0.51100000000E-03 0.  1.
        -11    1    3    3    0    0  0.12911064309E+02 -0.14367098452E+02 -0.16760349757E+01  0.19388609878E+02  0.51100000000E-03 0. -1.
        -12    1    3    3    0    0  0.11903105927E+02 -0.13131979131E+02 -0.15522856045E+02  0.23560387654E+02  0.00000000000E+00 0.  1.
</event>
<event>
 7    1  0.4931104E-009  0.4778727E+02  0.7816164E-02  0.1312668E+00
        -11   -1    0    0    0    0  0.00000000000E+00  0.00000000000E+00  0.45593999997E+02  0.45594000000E+02  0.51100000000E-03 0.  1.
         11   -1    0    0    0    0 -0.00000000000E+00 -0.00000000000E+00 -0.45593999997E+02  0.45594000000E+02  0.51100000000E-03 0. -1.
    9900012    2    1    2    0    0  0.61274683848E+01  0.42240384040E+02 -0.78630309477E+01  0.47787272260E+02  0.20000005542E+02 0.  0.
        -12    1    1    2    0    0 -0.61274683848E+01 -0.42240384040E+02  0.78630309477E+01  0.43400727740E+02  0.00000000000E+00 0.  1.
         11    1    3    3    0    0  0.13472683391E+01  0.12359786158E+02  0.11179446125E+01  0.12483158505E+02  0.51100000000E-03 0. -1.
        -11    1    3    3    0    0  0.19723043682E+01  0.23675542352E+02  0.33996465682E+00  0.23759984563E+02  0.51100000000E-03 0.  1.
         12    1    3    3    0    0  0.28078956775E+01  0.62050555302E+01 -0.93209402170E+01  0.11544129192E+02  0.00000000000E+00 0. -1.
</event>
<event>
 7    1  0.4931104E-009  0.4778727E+02  0.7816164E-02  0.1312668E+00
        -11   -1    0    0    0    0  0.00000000000E+00  0.00000000000E+00  0.45593999997E+02  0.45594000000E+02  0.51100000000E-03 0.  1.
         11   -1    0    0    0    0 -0.00000000000E+00 -0.00000000000E+00 -0.45593999997E+02  0.45594000000E+02  0.51100000000E-03 0. -1.
    9900012    2    1    2    0    0  0.73537440491E+01  0.79775565527E+01 -0.42022667852E+02  0.47787267592E+02  0.19999984260E+02 0.  0.
        -12    1    1    2    0    0 -0.73537440491E+01 -0.79775565527E+01  0.42022667852E+02  0.43400732408E+02  0.00000000000E+00 0.  1.
         11    1    3    3    0    0  0.46638147394E+01  0.42042442147E+01 -0.61691443737E+01  0.88025666658E+01  0.51100000000E-03 0. -1.
        -11    1    3    3    0    0  0.58204205294E+01  0.57353287682E+01 -0.10214210999E+02  0.13080573298E+02  0.51100000000E-03 0.  1.
        -12    1    3    3    0    0 -0.31304912196E+01 -0.19620164301E+01 -0.25639312480E+02  0.25904127628E+02  0.00000000000E+00 0.  1.
</event>
<event>
 7    1  0.4931104E-009  0.4778727E+02  0.7816164E-02  0.1312668E+00
        -11   -1    0    0    0    0  0.00000000000E+00  0.00000000000E+00  0.45593999997E+02  0.45594000000E+02  0.51100000000E-03 0. -1.
         11   -1    0    0    0    0 -0.00000000000E+00 -0.00000000000E+00 -0.45593999997E+02  0.45594000000E+02  0.51100000000E-03 0.  1.
    9900012    2    1    2    0    0 -0.30938390971E+02 -0.25275247443E+02  0.16958796140E+02  0.47787274940E+02  0.20000017763E+02 0.  0.
        -12    1    1    2    0    0  0.30938390971E+02  0.25275247443E+02 -0.16958796140E+02  0.43400725060E+02  0.00000000000E+00 0.  1.
         11    1    3    3    0    0 -0.66594613661E+01 -0.49043678708E+01 -0.13367299012E+01  0.83778336692E+01  0.51100000000E-03 0. -1.
        -11    1    3    3    0    0 -0.14210528753E+02 -0.18869312794E+02  0.80224087536E+01  0.24946926368E+02  0.51100000000E-03 0.  1.
         12    1    3    3    0    0 -0.10068400852E+02 -0.15015667779E+01  0.10273117287E+02  0.14462514903E+02  0.00000000000E+00 0. -1.
</event>
<event>
 7    1  0.4931104E-009  0.4778726E+02  0.7816164E-02  0.1312668E+00
        -11   -1    0    0    0    0  0.00000000000E+00  0.00000000000E+00  0.45593999997E+02  0.45594000000E+02  0.51100000000E-03 0.  1.
         11   -1    0    0    0    0 -0.00000000000E+00 -0.00000000000E+00 -0.45593999997E+02  0.45594000000E+02  0.51100000000E-03 0. -1.
    9900012    2    1    2    0    0 -0.88863170548E+00  0.39062124148E+02  0.18894035986E+02  0.47787264924E+02  0.19999972096E+02 0.  0.
        -12    1    1    2    0    0  0.88863170548E+00 -0.39062124148E+02 -0.18894035986E+02  0.43400735076E+02  0.00000000000E+00 0.  1.
         11    1    3    3    0    0  0.22920250538E+01  0.69911310823E+01  0.12957216890E+01  0.74704877762E+01  0.51100000000E-03 0. -1.
        -11    1    3    3    0    0 -0.85395464893E+01  0.95626760838E+01  0.88598791309E+01  0.15584161402E+02  0.51100000000E-03 0.  1.
        -12    1    3    3    0    0  0.53588897300E+01  0.22508316982E+02  0.87384351656E+01  0.24732615746E+02  0.00000000000E+00 0.  1.
</event>
<event>
 7    1  0.4931104E-009  0.4778727E+02  0.7816164E-02  0.1312668E+00
        -11   -1    0    0    0    0  0.00000000000E+00  0.00000000000E+00  0.45593999997E+02  0.45594000000E+02  0.51100000000E-03 0.  1.
         11   -1    0    0    0    0 -0.00000000000E+00 -0.00000000000E+00 -0.45593999997E+02  0.45594000000E+02  0.51100000000E-03 0. -1.
    9900012    2    1    2    0    0  0.41306340900E+02 -0.52653890342E+01 -0.12234584083E+02  0.47787272265E+02  0.20000005567E+02 0.  0.
        -12    1    1    2    0    0 -0.41306340900E+02  0.52653890342E+01  0.12234584083E+02  0.43400727735E+02  0.00000000000E+00 0.  1.
         11    1    3    3    0    0  0.20723428360E+02 -0.13897179254E+00 -0.13730702718E+02  0.24859847014E+02  0.51100000000E-03 0. -1.
        -11    1    3    3    0    0  0.14937813755E+02 -0.44101802665E+01 -0.27646222116E+01  0.15818694826E+02  0.51100000000E-03 0.  1.
         12    1    3    3    0    0  0.56450987855E+01 -0.71623697516E+00  0.42607408474E+01  0.71087304261E+01  0.00000000000E+00 0. -1.
</event>
<event>
 7    1  0.4931104E-009  0.4778727E+02  0.7816164E-02  0.1312668E+00
        -11   -1    0    0    0    0  0.00000000000E+00  0.00000000000E+00  0.45593999997E+02  0.45594000000E+02  0.51100000000E-03 0.  1.
         11   -1    0    0    0    0 -0.00000000000E+00 -0.00000000000E+00 -0.45593999997E+02  0.45594000000E+02  0.51100000000E-03 0. -1.
    9900012    2    1    2    0    0 -0.39177460623E+02  0.45986802806E+01 -0.18099788122E+02  0.47787267158E+02  0.19999982280E+02 0.  0.
        -12    1    1    2    0    0  0.39177460623E+02 -0.45986802806E+01  0.18099788122E+02  0.43400732842E+02  0.00000000000E+00 0.  1.
         11    1    3    3    0    0 -0.18769320617E+02 -0.44363195491E+01 -0.37840279892E+01  0.19654190282E+02  0.51100000000E-03 0. -1.
        -11    1    3    3    0    0  0.22777868239E-01 -0.12535187163E+01 -0.13351341742E+01  0.18315052628E+01  0.51100000000E-03 0.  1.
        -12    1    3    3    0    0 -0.20430917874E+02  0.10288518546E+02 -0.12980625958E+02  0.26301571613E+02  0.00000000000E+00 0.  1.
</event>
<event>
 7    1  0.4931104E-009  0.4778728E+02  0.7816164E-02  0.1312668E+00
        -11   -1    0    0    0    0  0.00000000000E+00  0.00000000000E+00  0.45593999997E+02  0.45594000000E+02  0.51100000000E-03 0. -1.
         11   -1    0    0    0    0 -0.00000000000E+00 -0.00000000000E+00 -0.45593999997E+02  0.45594000000E+02  0.51100000000E-03 0.  1.
    9900012    2    1    2    0    0  0.11579645777E+02 -0.31343809841E+02  0.27696572236E+02  0.47787277365E+02  0.20000028816E+02 0.  0.
        -12    1    1    2    0    0 -0.11579645777E+02  0.31343809841E+02 -0.27696572236E+02  0.43400722635E+02  0.00000000000E+00 0.  1.
         11    1    3    3    0    0  0.34122640909E+01 -0.10504464580E+02  0.55893786779E+01  0.12378549051E+02  0.51100000000E-03 0. -1.
        -11    1    3    3    0    0 -0.13920198370E+01 -0.17429461937E+02  0.13253666839E+02  0.21940454589E+02  0.51100000000E-03 0.  1.
        -12    1    3    3    0    0  0.95594015228E+01 -0.34098833244E+01  0.88535267195E+01  0.13468273725E+02  0.00000000000E+00 0.  1.
</event>
<event>
 7    1  0.4931104E-009  0.4778729E+02  0.7816164E-02  0.1312668E+00
        -11   -1    0    0    0    0  0.00000000000E+00  0.00000000000E+00  0.45593999997E+02  0.45594000000E+02  0.51100000000E-03 0.  1.
         11   -1    0    0    0    0 -0.00000000000E+00 -0.00000000000E+00 -0.45593999997E+02  0.45594000000E+02  0.51100000000E-03 0. -1.
    9900012    2    1    2    0    0 -0.19467928554E+02 -0.44006533817E+01 -0.38539012422E+02  0.47787291817E+02  0.20000094710E+02 0.  0.
        -12    1    1    2    0    0  0.19467928554E+02  0.44006533817E+01  0.38539012422E+02  0.43400708183E+02  0.00000000000E+00 0.  1.
         11    1    3    3    0    0 -0.79139917142E+01 -0.16656805499E+01 -0.11017160010E+02  0.13666878630E+02  0.51100000000E-03 0.  1.
        -11    1    3    3    0    0 -0.13024956647E+02  0.85196235358E-01 -0.10295410917E+02  0.16602778089E+02  0.51100000000E-03 0. -1.
         12    1    3    3    0    0  0.14710198079E+01 -0.28201690672E+01 -0.17226441494E+02  0.17517635097E+02  0.00000000000E+00 0. -1.
</event>
<event>
 7    1  0.4931104E-009  0.4778727E+02  0.7816164E-02  0.1312668E+00
        -11   -1    0    0    0    0  0.00000000000E+00  0.00000000000E+00  0.45593999997E+02  0.45594000000E+02  0.51100000000E-03 0. -1.
         11   -1    0    0    0    0 -0.00000000000E+00 -0.00000000000E+00 -0.45593999997E+02  0.45594000000E+02  0.51100000000E-03 0.  1.
    9900012    2    1    2    0    0 -0.40697837298E+02  0.14322374233E+02  0.47094465337E+01  0.47787271307E+02  0.20000001197E+02 0.  0.
        -12    1    1    2    0    0  0.40697837298E+02 -0.14322374233E+02 -0.47094465337E+01  0.43400728693E+02  0.00000000000E+00 0.  1.
         11    1    3    3    0    0 -0.26016219275E+01  0.28874214828E+00 -0.34615977679E+01  0.43398695890E+01  0.51100000000E-03 0. -1.
        -11    1    3    3    0    0 -0.16058739521E+02 -0.63634540528E+00  0.47171332909E+01  0.16749310350E+02  0.51100000000E-03 0.  1.
         12    1    3    3    0    0 -0.22037475850E+02  0.14669977490E+02  0.34539110107E+01  0.26698091368E+02  0.00000000000E+00 0. -1.
</event>
<event>
 7    1  0.4931104E-009  0.4778727E+02  0.7816164E-02  0.1312668E+00
        -11   -1    0    0    0    0  0.00000000000E+00  0.00000000000E+00  0.45593999997E+02  0.45594000000E+02  0.51100000000E-03 0.  1.
         11   -1    0    0    0    0 -0.00000000000E+00 -0.00000000000E+00 -0.45593999997E+02  0.45594000000E+02  0.51100000000E-03 0. -1.
    9900012    2    1    2    0    0 -0.17915636834E+02 -0.40495975315E+01 -0.39322436487E+02  0.47787270806E+02  0.19999998913E+02 0.  0.
        -12    1    1    2    0    0  0.17915636834E+02  0.40495975315E+01  0.39322436487E+02  0.43400729194E+02  0.00000000000E+00 0.  1.
         11    1    3    3    0    0  0.44486992779E-01 -0.13415551962E+01 -0.38156770261E+00  0.13954725400E+01  0.51100000000E-03 0. -1.
        -11    1    3    3    0    0 -0.88095834092E+01  0.50974503673E+01 -0.72524269448E+01  0.12497618051E+02  0.51100000000E-03 0.  1.
         12    1    3    3    0    0 -0.91505404173E+01 -0.78054927026E+01 -0.31688441839E+02  0.33894180215E+02  0.00000000000E+00 0. -1.
</event>
<event>
 7    1  0.4931104E-009  0.4778727E+02  0.7816164E-02  0.1312668E+00
        -11   -1    0    0    0    0  0.00000000000E+00  0.00000000000E+00  0.45593999997E+02  0.45594000000E+02  0.51100000000E-03 0.  1.
         11   -1    0    0    0    0 -0.00000000000E+00 -0.00000000000E+00 -0.45593999997E+02  0.45594000000E+02  0.51100000000E-03 0. -1.
    9900012    2    1    2    0    0 -0.38860319893E+02  0.13758610080E+01 -0.19277077636E+02  0.47787272150E+02  0.20000005042E+02 0.  0.
        -12    1    1    2    0    0  0.38860319893E+02 -0.13758610080E+01  0.19277077636E+02  0.43400727850E+02  0.00000000000E+00 0.  1.
         11    1    3    3    0    0 -0.35101254703E+01 -0.12406151518E+01 -0.42179873708E+01  0.56259687605E+01  0.51100000000E-03 0. -1.
        -11    1    3    3    0    0 -0.17492685964E+02 -0.72563917031E+01 -0.63345202166E+01  0.19969362269E+02  0.51100000000E-03 0.  1.
         12    1    3    3    0    0 -0.17857508459E+02  0.98728678629E+01 -0.87245700484E+01  0.22191941121E+02  0.00000000000E+00 0. -1.
</event>
<event>
 7    1  0.4931104E-009  0.4778727E+02  0.7816164E-02  0.1312668E+00
        -11   -1    0    0    0    0  0.00000000000E+00  0.00000000000E+00  0.45593999997E+02  0.45594000000E+02  0.51100000000E-03 0.  1.
         11   -1    0    0    0    0 -0.00000000000E+00 -0.00000000000E+00 -0.45593999997E+02  0.45594000000E+02  0.51100000000E-03 0. -1.
    9900012    2    1    2    0    0  0.19014367916E+02 -0.13510088593E+01 -0.38990407757E+02  0.47787270637E+02  0.19999998141E+02 0.  0.
        -12    1    1    2    0    0 -0.19014367916E+02  0.13510088593E+01  0.38990407757E+02  0.43400729363E+02  0.00000000000E+00 0.  1.
         11    1    3    3    0    0  0.24368997424E+01  0.13563655300E+01  0.17854613299E+01  0.33115072440E+01  0.51100000000E-03 0.  1.
        -11    1    3    3    0    0  0.24728990691E+01  0.14373533751E+01 -0.44739278540E+01  0.53101078365E+01  0.51100000000E-03 0. -1.
        -12    1    3    3    0    0  0.14104569104E+02 -0.41447277643E+01 -0.36301941233E+02  0.39165655556E+02  0.00000000000E+00 0.  1.
</event>
<event>
 7    1  0.4931104E-009  0.4778729E+02  0.7816164E-02  0.1312668E+00
        -11   -1    0    0    0    0  0.00000000000E+00  0.00000000000E+00  0.45593999997E+02  0.45594000000E+02  0.51100000000E-03 0. -1.
         11   -1    0    0    0    0 -0.00000000000E+00 -0.00000000000E+00 -0.45593999997E+02  0.45594000000E+02  0.51100000000E-03 0.  1.
    9900012    2    1    2    0    0  0.34717433942E+02 -0.22451278227E+02  0.13200800279E+02  0.47787294458E+02  0.20000106750E+02 0.  0.
        -12    1    1    2    0    0 -0.34717433942E+02  0.22451278227E+02 -0.13200800279E+02  0.43400705542E+02  0.00000000000E+00 0.  1.
         11    1    3    3    0    0  0.11310100760E+02 -0.26026182591E+01 -0.17043559183E+00  0.11606939715E+02  0.51100000000E-03 0. -1.
        -11    1    3    3    0    0  0.95109971419E+01 -0.43259669352E+01 -0.15378578231E+01  0.10561158246E+02  0.51100000000E-03 0.  1.
        -12    1    3    3    0    0  0.13896336040E+02 -0.15522693032E+02  0.14909093694E+02  0.25619196496E+02  0.00000000000E+00 0.  1.
</event>
<event>
 7    1  0.4931104E-009  0.4778727E+02  0.7816164E-02  0.1312668E+00
        -11   -1    0    0    0    0  0.00000000000E+00  0.00000000000E+00  0.45593999997E+02  0.45594000000E+02  0.51100000000E-03 0.  1.
         11   -1    0    0    0    0 -0.00000000000E+00 -0.00000000000E+00 -0.45593999997E+02  0.45594000000E+02  0.51100000000E-03 0. -1.
    9900012    2    1    2    0    0  0.39698784606E+02  0.69205518441E+01  0.16116317752E+02  0.47787271494E+02  0.20000002048E+02 0.  0.
        -12    1    1    2    0    0 -0.39698784606E+02 -0.69205518441E+01 -0.16116317752E+02  0.43400728506E+02  0.00000000000E+00 0.  1.
         11    1    3    3    0    0  0.29252752049E+02 -0.30610840982E+01  0.82620437914E+01  0.30550860972E+02  0.51100000000E-03 0. -1.
        -11    1    3    3    0    0 -0.16218688838E+00  0.93916578286E+00  0.18050763143E+01  0.20412343609E+01  0.51100000000E-03 0.  1.
         12    1    3    3    0    0  0.10608219445E+02  0.90424701595E+01  0.60491976463E+01  0.15195176161E+02  0.00000000000E+00 0. -1.
</event>
<event>
 7    1  0.4931104E-009  0.4778727E+02  0.7816164E-02  0.1312668E+00
        -11   -1    0    0    0    0  0.00000000000E+00  0.00000000000E+00  0.45593999997E+02  0.45594000000E+02  0.51100000000E-03 0.  1.
         11   -1    0    0    0    0 -0.00000000000E+00 -0.00000000000E+00 -0.45593999997E+02  0.45594000000E+02  0.51100000000E-03 0. -1.
    9900012    2    1    2    0    0  0.29161148755E+02 -0.32090189557E+02 -0.18629436745E+01  0.47787269342E+02  0.19999992238E+02 0.  0.
        -12    1    1    2    0    0 -0.29161148755E+02  0.32090189557E+02  0.18629436745E+01  0.43400730658E+02  0.00000000000E+00 0.  1.
         11    1    3    3    0    0  0.26643002500E+02 -0.26207000367E+02 -0.59466842467E+01  0.37842033564E+02  0.51100000000E-03 0. -1.
        -11    1    3    3    0    0  0.13336019973E+01  0.10145837002E+01 -0.27801833616E+00  0.16985784728E+01  0.51100000000E-03 0.  1.
        -12    1    3    3    0    0  0.11845442577E+01 -0.68977728898E+01  0.43617589083E+01  0.82466573053E+01  0.00000000000E+00 0.  1.
</event>
<event>
 7    1  0.4931104E-009  0.4778727E+02  0.7816164E-02  0.1312668E+00
        -11   -1    0    0    0    0  0.00000000000E+00  0.00000000000E+00  0.45593999997E+02  0.45594000000E+02  0.51100000000E-03 0. -1.
         11   -1    0    0    0    0 -0.00000000000E+00 -0.00000000000E+00 -0.45593999997E+02  0.45594000000E+02  0.51100000000E-03 0.  1.
    9900012    2    1    2    0    0  0.25245606387E+02  0.10830308482E+00  0.35302558592E+02  0.47787274032E+02  0.20000013621E+02 0.  0.
        -12    1    1    2    0    0 -0.25245606387E+02 -0.10830308482E+00 -0.35302558592E+02  0.43400725968E+02  0.00000000000E+00 0.  1.
         11    1    3    3    0    0  0.17726390723E+02  0.18320272900E+01  0.14407584902E+02  0.22916364350E+02  0.51100000000E-03 0. -1.
        -11    1    3    3    0    0  0.43695521923E+01  0.46220977124E+01  0.10894140343E+02  0.12615033401E+02  0.51100000000E-03 0.  1.
         12    1    3    3    0    0  0.31496634725E+01 -0.63458219176E+01  0.10000833347E+02  0.12255876281E+02  0.00000000000E+00 0. -1.
</event>
<event>
 7    1  0.4931104E-009  0.4778727E+02  0.7816164E-02  0.1312668E+00
        -11   -1    0    0    0    0  0.00000000000E+00  0.00000000000E+00  0.45593999997E+02  0.45594000000E+02  0.51100000000E-03 0.  1.
         11   -1    0    0    0    0 -0.00000000000E+00 -0.00000000000E+00 -0.45593999997E+02  0.45594000000E+02  0.51100000000E-03 0. -1.
    9900012    2    1    2    0    0  0.50612726751E+01 -0.31415200874E+02 -0.29514264586E+02  0.47787272574E+02  0.20000006973E+02 0.  0.
        -12    1    1    2    0    0 -0.50612726751E+01  0.31415200874E+02  0.29514264586E+02  0.43400727426E+02  0.00000000000E+00 0.  1.
         11    1    3    3    0    0 -0.25019855799E+01 -0.72473018030E+01 -0.65936716949E+01  0.10112359860E+02  0.51100000000E-03 0. -1.
        -11    1    3    3    0    0 -0.46856123462E+01 -0.10037167618E+02 -0.68998422818E+01  0.13050192360E+02  0.51100000000E-03 0.  1.
         12    1    3    3    0    0  0.12248870601E+02 -0.14130731453E+02 -0.16020750610E+02  0.24624720354E+02  0.00000000000E+00 0. -1.
</event>
<event>
 7    1  0.4931104E-009  0.4778727E+02  0.7816164E-02  0.1312668E+00
        -11   -1    0    0    0    0  0.00000000000E+00  0.00000000000E+00  0.45593999997E+02  0.45594000000E+02  0.51100000000E-03 0. -1.
         11   -1    0    0    0    0 -0.00000000000E+00 -0.00000000000E+00 -0.45593999997E+02  0.45594000000E+02  0.51100000000E-03 0.  1.
    9900012    2    1    2    0    0  0.24170403794E+01  0.41405448001E+02  0.12781639828E+02  0.47787268151E+02  0.19999986807E+02 0.  0.
        -12    1    1    2    0    0 -0.24170403794E+01 -0.41405448001E+02 -0.12781639828E+02  0.43400731849E+02  0.00000000000E+00 0.  1.
         11    1    3    3    0    0  0.20018959138E+01  0.12632154028E+02  0.53608968008E+01  0.13867880782E+02  0.51100000000E-03 0. -1.
        -11    1    3    3    0    0  0.33401006873E+01  0.29485222209E+02  0.82455028200E+01  0.30798099265E+02  0.51100000000E-03 0.  1.
        -12    1    3    3    0    0 -0.29249562217E+01 -0.71192823542E+00 -0.82475979304E+00  0.31212881039E+01  0.00000000000E+00 0.  1.
</event>
<event>
 7    1  0.4931104E-009  0.4778727E+02  0.7816164E-02  0.1312668E+00
        -11   -1    0    0    0    0  0.00000000000E+00  0.00000000000E+00  0.45593999997E+02  0.45594000000E+02  0.51100000000E-03 0. -1.
         11   -1    0    0    0    0 -0.00000000000E+00 -0.00000000000E+00 -0.45593999997E+02  0.45594000000E+02  0.51100000000E-03 0.  1.
    9900012    2    1    2    0    0 -0.27836719126E+02 -0.16740734188E+02  0.28783477568E+02  0.47787266207E+02  0.19999977945E+02 0.  0.
        -12    1    1    2    0    0  0.27836719126E+02  0.16740734188E+02 -0.28783477568E+02  0.43400733793E+02  0.00000000000E+00 0.  1.
         11    1    3    3    0    0 -0.12914618393E+02 -0.13938808530E+02  0.11004600265E+02  0.21958574150E+02  0.51100000000E-03 0.  1.
        -11    1    3    3    0    0 -0.57303402978E+01 -0.53783479966E+01  0.33848389914E+01  0.85569014462E+01  0.51100000000E-03 0. -1.
        -12    1    3    3    0    0 -0.91917604352E+01  0.25764223388E+01  0.14394038312E+02  0.17271790610E+02  0.00000000000E+00 0.  1.
</event>
<event>
 7    1  0.4931104E-009  0.4778728E+02  0.7816164E-02  0.1312668E+00
        -11   -1    0    0    0    0  0.00000000000E+00  0.00000000000E+00  0.45593999997E+02  0.45594000000E+02  0.51100000000E-03 0. -1.
         11   -1    0    0    0    0 -0.00000000000E+00 -0.00000000000E+00 -0.45593999997E+02  0.45594000000E+02  0.51100000000E-03 0.  1.
    9900012    2    1    2    0    0 -0.40151311189E+02  0.14668001609E+02  0.75063195829E+01  0.47787275408E+02  0.20000019895E+02 0.  0.
        -12    1    1    2    0    0  0.40151311189E+02 -0.14668001609E+02 -0.75063195829E+01  0.43400724592E+02  0.00000000000E+00 0.  1.
         11    1    3    3    0    0 -0.51738697004E+01  0.30547788576E+01 -0.45367367503E-02  0.60083793480E+01  0.51100000000E-03 0. -1.
        -11    1    3    3    0    0 -0.30796906819E+02  0.15519421693E+02  0.32378947696E+01  0.34637925488E+02  0.51100000000E-03 0.  1.
         12    1    3    3    0    0 -0.41805346697E+01 -0.39061989420E+01  0.42729615501E+01  0.71409705718E+01  0.00000000000E+00 0. -1.
</event>
<event>
 7    1  0.4931104E-009  0.4778725E+02  0.7816164E-02  0.1312668E+00
        -11   -1    0    0    0    0  0.00000000000E+00  0.00000000000E+00  0.45593999997E+02  0.45594000000E+02  0.51100000000E-03 0.  1.
         11   -1    0    0    0    0 -0.00000000000E+00 -0.00000000000E+00 -0.45593999997E+02  0.45594000000E+02  0.51100000000E-03 0. -1.
    9900012    2    1    2    0    0 -0.29813223189E+02  0.96015665096E+01 -0.30043414983E+02  0.47787249543E+02  0.19999901967E+02 0.  0.
        -12    1    1    2    0    0  0.29813223189E+02 -0.96015665096E+01  0.30043414983E+02  0.43400750457E+02  0.00000000000E+00 0.  1.
         11    1    3    3    0    0 -0.80562234733E+01  0.15315152390E+01 -0.76278007110E+01  0.11199625865E+02  0.51100000000E-03 0. -1.
        -11    1    3    3    0    0 -0.19479894272E+02  0.16895038650E+01 -0.22504549715E+02  0.29812337417E+02  0.51100000000E-03 0.  1.
        -12    1    3    3    0    0 -0.22771054442E+01  0.63805474056E+01  0.88935442560E-01  0.67752862605E+01  0.00000000000E+00 0.  1.
</event>
<event>
 7    1  0.4931104E-009  0.4778727E+02  0.7816164E-02  0.1312668E+00
        -11   -1    0    0    0    0  0.00000000000E+00  0.00000000000E+00  0.45593999997E+02  0.45594000000E+02  0.51100000000E-03 0.  1.
         11   -1    0    0    0    0 -0.00000000000E+00 -0.00000000000E+00 -0.45593999997E+02  0.45594000000E+02  0.51100000000E-03 0. -1.
    9900012    2    1    2    0    0  0.76876627263E+01 -0.42412292787E+02  0.50715463442E+01  0.47787270514E+02  0.19999997580E+02 0.  0.
        -12    1    1    2    0    0 -0.76876627263E+01  0.42412292787E+02 -0.50715463442E+01  0.43400729486E+02  0.00000000000E+00 0.  1.
         11    1    3    3    0    0  0.64189011889E+01 -0.33006164833E+02  0.59504080089E+01  0.34146984716E+02  0.51100000000E-03 0. -1.
        -11    1    3    3    0    0  0.52280050929E+01 -0.69863247977E+01  0.66209278934E+00  0.87509507228E+01  0.51100000000E-03 0.  1.
        -12    1    3    3    0    0 -0.39592435555E+01 -0.24198031561E+01 -0.15409544540E+01  0.48893350749E+01  0.00000000000E+00 0.  1.
</event>
<event>
 7    1  0.4931104E-009  0.4778727E+02  0.7816164E-02  0.1312668E+00
        -11   -1    0    0    0    0  0.00000000000E+00  0.00000000000E+00  0.45593999997E+02  0.45594000000E+02  0.51100000000E-03 0.  1.
         11   -1    0    0    0    0 -0.00000000000E+00 -0.00000000000E+00 -0.45593999997E+02  0.45594000000E+02  0.51100000000E-03 0. -1.
    9900012    2    1    2    0    0 -0.15650368423E+00  0.10201630175E+02 -0.42184422355E+02  0.47787271422E+02  0.20000001723E+02 0.  0.
        -12    1    1    2    0    0  0.15650368423E+00 -0.10201630175E+02  0.42184422355E+02  0.43400728578E+02  0.00000000000E+00 0.  1.
         11    1    3    3    0    0 -0.36684625418E+01  0.87208191975E+01 -0.28248225389E+02  0.29790477384E+02  0.51100000000E-03 0. -1.
        -11    1    3    3    0    0  0.56361230442E+00 -0.69790550120E+00 -0.14286005647E+02  0.14314142955E+02  0.51100000000E-03 0.  1.
        -12    1    3    3    0    0  0.29483465531E+01  0.21787164786E+01  0.34980868037E+00  0.36826510837E+01  0.00000000000E+00 0.  1.
</event>
<event>
 7    1  0.4931104E-009  0.4778727E+02  0.7816164E-02  0.1312668E+00
        -11   -1    0    0    0    0  0.00000000000E+00  0.00000000000E+00  0.45593999997E+02  0.45594000000E+02  0.51100000000E-03 0.  1.
         11   -1    0    0    0    0 -0.00000000000E+00 -0.00000000000E+00 -0.45593999997E+02  0.45594000000E+02  0.51100000000E-03 0. -1.
    9900012    2    1    2    0    0  0.16936599872E+02  0.10234111816E+02 -0.38626909285E+02  0.47787267508E+02  0.19999983877E+02 0.  0.
        -12    1    1    2    0    0 -0.16936599872E+02 -0.10234111816E+02  0.38626909285E+02  0.43400732492E+02  0.00000000000E+00 0.  1.
         11    1    3    3    0    0  0.86575149855E+01  0.45141843163E+01 -0.22138106978E+02  0.24195582378E+02  0.51100000000E-03 0. -1.
        -11    1    3    3    0    0  0.45789431070E+01  0.91138165823E+01 -0.15372198769E+02  0.18448112855E+02  0.51100000000E-03 0.  1.
         12    1    3    3    0    0  0.37001417794E+01 -0.33938890823E+01 -0.11166035387E+01  0.51435722754E+01  0.00000000000E+00 0. -1.
</event>
<event>
 7    1  0.4931104E-009  0.4778726E+02  0.7816164E-02  0.1312668E+00
        -11   -1    0    0    0    0  0.00000000000E+00  0.00000000000E+00  0.45593999997E+02  0.45594000000E+02  0.51100000000E-03 0. -1.
         11   -1    0    0    0    0 -0.00000000000E+00 -0.00000000000E+00 -0.45593999997E+02  0.45594000000E+02  0.51100000000E-03 0.  1.
    9900012    2    1    2    0    0 -0.43338661286E+02 -0.10135227033E+01  0.20873631467E+01  0.47787264116E+02  0.19999968411E+02 0.  0.
        -12    1    1    2    0    0  0.43338661286E+02  0.10135227033E+01 -0.20873631467E+01  0.43400735884E+02  0.00000000000E+00 0.  1.
         11    1    3    3    0    0 -0.99499139093E+01 -0.88930289144E+00  0.76320402710E+00  0.10018688890E+02  0.51100000000E-03 0. -1.
        -11    1    3    3    0    0 -0.15504877375E+02  0.32063001467E+00 -0.81564023496E+01  0.17522297954E+02  0.51100000000E-03 0.  1.
         12    1    3    3    0    0 -0.17883870002E+02 -0.44484982657E+00  0.94805614692E+01  0.20246277272E+02  0.00000000000E+00 0. -1.
</event>
<event>
 7    1  0.4931104E-009  0.4778727E+02  0.7816164E-02  0.1312668E+00
        -11   -1    0    0    0    0  0.00000000000E+00  0.00000000000E+00  0.45593999997E+02  0.45594000000E+02  0.51100000000E-03 0.  1.
         11   -1    0    0    0    0 -0.00000000000E+00 -0.00000000000E+00 -0.45593999997E+02  0.45594000000E+02  0.51100000000E-03 0. -1.
    9900012    2    1    2    0    0 -0.30718763851E+02 -0.18718479648E+02 -0.24281667255E+02  0.47787270772E+02  0.19999998759E+02 0.  0.
        -12    1    1    2    0    0  0.30718763851E+02  0.18718479648E+02  0.24281667255E+02  0.43400729228E+02  0.00000000000E+00 0.  1.
         11    1    3    3    0    0 -0.13046346924E+01 -0.74057007664E+01 -0.63021670563E+01  0.98114109785E+01  0.51100000000E-03 0. -1.
        -11    1    3    3    0    0 -0.10027438419E+02 -0.25670753444E+01 -0.12073245974E+02  0.15902913748E+02  0.51100000000E-03 0.  1.
         12    1    3    3    0    0 -0.19386690739E+02 -0.87457035368E+01 -0.59062542244E+01  0.22072946046E+02  0.00000000000E+00 0. -1.
</event>
<event>
 7    1  0.4931104E-009  0.4778727E+02  0.7816164E-02  0.1312668E+00
        -11   -1    0    0    0    0  0.00000000000E+00  0.00000000000E+00  0.45593999997E+02  0.45594000000E+02  0.51100000000E-03 0.  1.
         11   -1    0    0    0    0 -0.00000000000E+00 -0.00000000000E+00 -0.45593999997E+02  0.45594000000E+02  0.51100000000E-03 0. -1.
    9900012    2    1    2    0    0 -0.15099224948E+02 -0.16825429595E+02 -0.37047830967E+02  0.47787268964E+02  0.19999990514E+02 0.  0.
        -12    1    1    2    0    0  0.15099224948E+02  0.16825429595E+02  0.37047830967E+02  0.43400731036E+02  0.00000000000E+00 0.  1.
         11    1    3    3    0    0 -0.12224156904E+02 -0.67824728003E+01 -0.29630224014E+02  0.32762510964E+02  0.51100000000E-03 0. -1.
        -11    1    3    3    0    0 -0.48865854767E+01 -0.30116842803E+01 -0.29349984611E+01  0.64469509113E+01  0.51100000000E-03 0.  1.
         12    1    3    3    0    0  0.20115174331E+01 -0.70312725140E+01 -0.44826084924E+01  0.85778070884E+01  0.00000000000E+00 0. -1.
</event>
<event>
 7    1  0.4931104E-009  0.4778727E+02  0.7816164E-02  0.1312668E+00
        -11   -1    0    0    0    0  0.00000000000E+00  0.00000000000E+00  0.45593999997E+02  0.45594000000E+02  0.51100000000E-03 0. -1.
         11   -1    0    0    0    0 -0.00000000000E+00 -0.00000000000E+00 -0.45593999997E+02  0.45594000000E+02  0.51100000000E-03 0.  1.
    9900012    2    1    2    0    0 -0.11342348845E+00 -0.17924341090E+02  0.39526296716E+02  0.47787274195E+02  0.20000014362E+02 0.  0.
        -12    1    1    2    0    0  0.11342348845E+00  0.17924341090E+02 -0.39526296716E+02  0.43400725805E+02  0.00000000000E+00 0.  1.
         11    1    3    3    0    0 -0.17465116435E+01  0.36286914328E+00  0.24017725674E+01  0.29917367302E+01  0.51100000000E-03 0. -1.
        -11    1    3    3    0    0 -0.28448268937E+01 -0.20053109691E+02  0.30124589029E+02  0.36300290808E+02  0.51100000000E-03 0.  1.
        -12    1    3    3    0    0  0.44779150487E+01  0.17658994576E+01  0.69999351189E+01  0.84952466560E+01  0.00000000000E+00 0.  1.
</event>
<event>
 7    1  0.4931104E-009  0.4778727E+02  0.7816164E-02  0.1312668E+00
        -11   -1    0    0    0    0  0.00000000000E+00  0.00000000000E+00  0.45593999997E+02  0.45594000000E+02  0.51100000000E-03 0.  1.
         11   -1    0    0    0    0 -0.00000000000E+00 -0.00000000000E+00 -0.45593999997E+02  0.45594000000E+02  0.51100000000E-03 0. -1.
    9900012    2    1    2    0    0  0.70395492711E+01 -0.29286563839E+02 -0.31246841938E+02  0.47787271820E+02  0.20000003536E+02 0.  0.
        -12    1    1    2    0    0 -0.70395492711E+01  0.29286563839E+02  0.31246841938E+02  0.43400728180E+02  0.00000000000E+00 0.  1.
         11    1    3    3    0    0 -0.10182145505E+01  0.27010351140E-01 -0.20882274571E+01  0.23233993638E+01  0.51100000000E-03 0.  1.
        -11    1    3    3    0    0 -0.51296379570E+01 -0.10161995140E+02 -0.71204545438E+01  0.13426846389E+02  0.51100000000E-03 0. -1.
         12    1    3    3    0    0  0.13187401779E+02 -0.19151579051E+02 -0.22038159937E+02  0.32037026067E+02  0.00000000000E+00 0. -1.
</event>
<event>
 7    1  0.4931104E-009  0.4778728E+02  0.7816164E-02  0.1312668E+00
        -11   -1    0    0    0    0  0.00000000000E+00  0.00000000000E+00  0.45593999997E+02  0.45594000000E+02  0.51100000000E-03 0.  1.
         11   -1    0    0    0    0 -0.00000000000E+00 -0.00000000000E+00 -0.45593999997E+02  0.45594000000E+02  0.51100000000E-03 0. -1.
    9900012    2    1    2    0    0  0.11536848521E+02 -0.17806718619E+01 -0.41801354718E+02  0.47787275095E+02  0.20000018467E+02 0.  0.
        -12    1    1    2    0    0 -0.11536848521E+02  0.17806718619E+01  0.41801354718E+02  0.43400724905E+02  0.00000000000E+00 0.  1.
         11    1    3    3    0    0  0.12897405430E+02 -0.34529614042E+01 -0.29056180248E+02  0.31976985789E+02  0.51100000000E-03 0. -1.
        -11    1    3    3    0    0 -0.27959642548E+01 -0.29538444031E+01 -0.82683847838E+01  0.92145971190E+01  0.51100000000E-03 0.  1.
        -12    1    3    3    0    0  0.14354073456E+01  0.46261339455E+01 -0.44767896861E+01  0.65956921868E+01  0.00000000000E+00 0.  1.
</event>
<event>
 7    1  0.4931104E-009  0.4778728E+02  0.7816164E-02  0.1312668E+00
        -11   -1    0    0    0    0  0.00000000000E+00  0.00000000000E+00  0.45593999997E+02  0.45594000000E+02  0.51100000000E-03 0. -1.
         11   -1    0    0    0    0 -0.00000000000E+00 -0.00000000000E+00 -0.45593999997E+02  0.45594000000E+02  0.51100000000E-03 0.  1.
    9900012    2    1    2    0    0  0.11678062480E+02 -0.31513768183E+02 -0.27461394575E+02  0.47787275117E+02  0.20000018568E+02 0.  0.
        -12    1    1    2    0    0 -0.11678062480E+02  0.31513768183E+02  0.27461394575E+02  0.43400724883E+02  0.00000000000E+00 0.  1.
         11    1    3    3    0    0 -0.10129380574E+01 -0.40741925382E+01 -0.64192603113E+01  0.76702015327E+01  0.51100000000E-03 0. -1.
        -11    1    3    3    0    0 -0.34496801157E+01 -0.77270304894E+01 -0.33600881585E+01  0.91048056420E+01  0.51100000000E-03 0.  1.
         12    1    3    3    0    0  0.16140680653E+02 -0.19712545156E+02 -0.17682046105E+02  0.31012267942E+02  0.00000000000E+00 0. -1.
</event>
<event>
 7    1  0.4931104E-009  0.4778727E+02  0.7816164E-02  0.1312668E+00
        -11   -1    0    0    0    0  0.00000000000E+00  0.00000000000E+00  0.45593999997E+02  0.45594000000E+02  0.51100000000E-03 0.  1.
         11   -1    0    0    0    0 -0.00000000000E+00 -0.00000000000E+00 -0.45593999997E+02  0.45594000000E+02  0.51100000000E-03 0. -1.
    9900012    2    1    2    0    0 -0.34180736009E+02 -0.13427366640E+02 -0.23130210524E+02  0.47787268119E+02  0.19999986660E+02 0.  0.
        -12    1    1    2    0    0  0.34180736009E+02  0.13427366640E+02  0.23130210524E+02  0.43400731881E+02  0.00000000000E+00 0.  1.
         11    1    3    3    0    0 -0.40896069434E+01 -0.51338560096E+01 -0.37910790235E+01  0.75798181313E+01  0.51100000000E-03 0. -1.
        -11    1    3    3    0    0 -0.24954497620E+01 -0.52182550009E+01  0.89155221770E+00  0.58525481960E+01  0.51100000000E-03 0.  1.
        -12    1    3    3    0    0 -0.27595679303E+02 -0.30752556292E+01 -0.20230683718E+02  0.34354901791E+02  0.00000000000E+00 0.  1.
</event>
<event>
 7    1  0.4931104E-009  0.4778728E+02  0.7816164E-02  0.1312668E+00
        -11   -1    0    0    0    0  0.00000000000E+00  0.00000000000E+00  0.45593999997E+02  0.45594000000E+02  0.51100000000E-03 0.  1.
         11   -1    0    0    0    0 -0.00000000000E+00 -0.00000000000E+00 -0.45593999997E+02  0.45594000000E+02  0.51100000000E-03 0. -1.
    9900012    2    1    2    0    0  0.41582966006E+02 -0.60480018658E+01  0.10858215177E+02  0.47787283125E+02  0.20000055080E+02 0.  0.
        -12    1    1    2    0    0 -0.41582966006E+02  0.60480018658E+01 -0.10858215177E+02  0.43400716875E+02  0.00000000000E+00 0.  1.
         11    1    3    3    0    0  0.20323693501E+02 -0.15344576554E+01  0.12095664008E+02  0.23700467630E+02  0.51100000000E-03 0. -1.
        -11    1    3    3    0    0 -0.95093049095E+00  0.73806573778E+00  0.19425285511E+00  0.12193212312E+01  0.51100000000E-03 0.  1.
         12    1    3    3    0    0  0.22210202996E+02 -0.52516099482E+01 -0.14317016868E+01  0.22867494264E+02  0.00000000000E+00 0. -1.
</event>
<event>
 7    1  0.4931104E-009  0.4778727E+02  0.7816164E-02  0.1312668E+00
        -11   -1    0    0    0    0  0.00000000000E+00  0.00000000000E+00  0.45593999997E+02  0.45594000000E+02  0.51100000000E-03 0.  1.
         11   -1    0    0    0    0 -0.00000000000E+00 -0.00000000000E+00 -0.45593999997E+02  0.45594000000E+02  0.51100000000E-03 0. -1.
    9900012    2    1    2    0    0  0.36419697219E+02  0.15578621017E+02 -0.17735145179E+02  0.47787272439E+02  0.20000006359E+02 0.  0.
        -12    1    1    2    0    0 -0.36419697219E+02 -0.15578621017E+02  0.17735145179E+02  0.43400727561E+02  0.00000000000E+00 0.  1.
         11    1    3    3    0    0  0.65791528913E+01  0.22291451556E+01 -0.25990075532E+01  0.74168174721E+01  0.51100000000E-03 0. -1.
        -11    1    3    3    0    0  0.92472902779E+01  0.52394698498E+00  0.33711928860E+01  0.98565632785E+01  0.51100000000E-03 0.  1.
         12    1    3    3    0    0  0.20593254050E+02  0.12825528876E+02 -0.18507330511E+02  0.30513891689E+02  0.00000000000E+00 0. -1.
</event>
<event>
 7    1  0.4931104E-009  0.4778727E+02  0.7816164E-02  0.1312668E+00
        -11   -1    0    0    0    0  0.00000000000E+00  0.00000000000E+00  0.45593999997E+02  0.45594000000E+02  0.51100000000E-03 0.  1.
         11   -1    0    0    0    0 -0.00000000000E+00 -0.00000000000E+00 -0.45593999997E+02  0.45594000000E+02  0.51100000000E-03 0. -1.
    9900012    2    1    2    0    0  0.75636015466E+01  0.15177132850E+02 -0.39950840889E+02  0.47787272845E+02  0.20000008208E+02 0.  0.
        -12    1    1    2    0    0 -0.75636015466E+01 -0.15177132850E+02  0.39950840889E+02  0.43400727155E+02  0.00000000000E+00 0.  1.
         11    1    3    3    0    0  0.11773970988E+02  0.28725496672E+01 -0.24258149945E+02  0.27117075312E+02  0.51100000000E-03 0.  1.
        -11    1    3    3    0    0  0.99862284704E-01  0.47787384742E+01 -0.56949651835E+01  0.74349810076E+01  0.51100000000E-03 0. -1.
        -12    1    3    3    0    0 -0.43102317265E+01  0.75258447083E+01 -0.99977257598E+01  0.13235216526E+02  0.00000000000E+00 0.  1.
</event>
<event>
 7    1  0.4931104E-009  0.4778727E+02  0.7816164E-02  0.1312668E+00
        -11   -1    0    0    0    0  0.00000000000E+00  0.00000000000E+00  0.45593999997E+02  0.45594000000E+02  0.51100000000E-03 0.  1.
         11   -1    0    0    0    0 -0.00000000000E+00 -0.00000000000E+00 -0.45593999997E+02  0.45594000000E+02  0.51100000000E-03 0. -1.
    9900012    2    1    2    0    0  0.30510714688E+02  0.30566646695E+02 -0.42894789772E+01  0.47787271540E+02  0.20000002259E+02 0.  0.
        -12    1    1    2    0    0 -0.30510714688E+02 -0.30566646695E+02  0.42894789772E+01  0.43400728460E+02  0.00000000000E+00 0.  1.
         11    1    3    3    0    0  0.28713925357E+02  0.27908130325E+02  0.30434289070E+00  0.40043050240E+02  0.51100000000E-03 0. -1.
        -11    1    3    3    0    0 -0.78141055251E-01 -0.14834048043E+00  0.11066774296E+01  0.11193060873E+01  0.51100000000E-03 0.  1.
         12    1    3    3    0    0  0.18749303863E+01  0.28068568501E+01 -0.57004992975E+01  0.66249152123E+01  0.00000000000E+00 0. -1.
</event>
<event>
 7    1  0.4931104E-009  0.4778727E+02  0.7816164E-02  0.1312668E+00
        -11   -1    0    0    0    0  0.00000000000E+00  0.00000000000E+00  0.45593999997E+02  0.45594000000E+02  0.51100000000E-03 0.  1.
         11   -1    0    0    0    0 -0.00000000000E+00 -0.00000000000E+00 -0.45593999997E+02  0.45594000000E+02  0.51100000000E-03 0. -1.
    9900012    2    1    2    0    0 -0.32553353208E+02  0.16955533943E+02 -0.23160580481E+02  0.47787269308E+02  0.19999992083E+02 0.  0.
        -12    1    1    2    0    0  0.32553353208E+02 -0.16955533943E+02  0.23160580481E+02  0.43400730692E+02  0.00000000000E+00 0.  1.
         11    1    3    3    0    0 -0.22535402978E+02  0.91416152457E+01 -0.23994730795E+02  0.34163732567E+02  0.51100000000E-03 0. -1.
        -11    1    3    3    0    0  0.54600087300E+00  0.24837285200E+00  0.10917335022E+00  0.60969263441E+00  0.51100000000E-03 0.  1.
         12    1    3    3    0    0 -0.10563951103E+02  0.75655458455E+01  0.72497696379E+00  0.13013844107E+02  0.00000000000E+00 0. -1.
</event>
<event>
 7    1  0.5938314E-009  0.4778727E+02  0.7816164E-02  0.1312668E+00
        -11   -1    0    0    0    0  0.00000000000E+00  0.00000000000E+00  0.45593999997E+02  0.45594000000E+02  0.51100000000E-03 0.  1.
         11   -1    0    0    0    0 -0.00000000000E+00 -0.00000000000E+00 -0.45593999997E+02  0.45594000000E+02  0.51100000000E-03 0. -1.
    9900012    2    1    2    0    0  0.19700982738E+02 -0.35578344847E+02 -0.15155064789E+02  0.47787270379E+02  0.19999996966E+02 0.  0.
        -12    1    1    2    0    0 -0.19700982738E+02  0.35578344847E+02  0.15155064789E+02  0.43400729621E+02  0.00000000000E+00 0.  1.
         11    1    3    3    0    0  0.11345403822E+02 -0.15114871551E+02 -0.22855586814E+01  0.19036840826E+02  0.51100000000E-03 0. -1.
        -11    1    3    3    0    0  0.83118205392E+01 -0.41884545898E+01 -0.60710836602E+01  0.11112496101E+02  0.51100000000E-03 0.  1.
        -12    1    3    3    0    0  0.43758376625E-01 -0.16275018706E+02 -0.67984224474E+01  0.17637933452E+02  0.00000000000E+00 0.  1.
</event>
<event>
 7    1  0.4931104E-009  0.4778730E+02  0.7816164E-02  0.1312668E+00
        -11   -1    0    0    0    0  0.00000000000E+00  0.00000000000E+00  0.45593999997E+02  0.45594000000E+02  0.51100000000E-03 0.  1.
         11   -1    0    0    0    0 -0.00000000000E+00 -0.00000000000E+00 -0.45593999997E+02  0.45594000000E+02  0.51100000000E-03 0. -1.
    9900012    2    1    2    0    0 -0.10248799403E+01 -0.42231716290E+02 -0.99525189707E+01  0.47787298698E+02  0.20000126083E+02 0.  0.
        -12    1    1    2    0    0  0.10248799403E+01  0.42231716290E+02  0.99525189707E+01  0.43400701302E+02  0.00000000000E+00 0.  1.
         11    1    3    3    0    0 -0.93724681725E+00 -0.52226063348E+01 -0.25482829221E+01  0.58862377319E+01  0.51100000000E-03 0. -1.
        -11    1    3    3    0    0 -0.81605104120E+01 -0.11207316765E+02  0.25241349095E-01  0.13863567962E+02  0.51100000000E-03 0.  1.
         12    1    3    3    0    0  0.80728772889E+01 -0.25801793190E+02 -0.74294773977E+01  0.28037493004E+02  0.00000000000E+00 0. -1.
</event>
<event>
 7    1  0.4931104E-009  0.4778727E+02  0.7816164E-02  0.1312668E+00
        -11   -1    0    0    0    0  0.00000000000E+00  0.00000000000E+00  0.45593999997E+02  0.45594000000E+02  0.51100000000E-03 0.  1.
         11   -1    0    0    0    0 -0.00000000000E+00 -0.00000000000E+00 -0.45593999997E+02  0.45594000000E+02  0.51100000000E-03 0. -1.
    9900012    2    1    2    0    0 -0.24322787849E+02 -0.19590892847E+02 -0.30136723937E+02  0.47787271654E+02  0.20000002779E+02 0.  0.
        -12    1    1    2    0    0  0.24322787849E+02  0.19590892847E+02  0.30136723937E+02  0.43400728346E+02  0.00000000000E+00 0.  1.
         11    1    3    3    0    0 -0.12207683775E+02 -0.93538367679E+01 -0.26977299077E+02  0.31053123373E+02  0.51100000000E-03 0. -1.
        -11    1    3    3    0    0 -0.17695120758E+01 -0.83146236503E-01 -0.11189677931E+01  0.20952745562E+01  0.51100000000E-03 0.  1.
        -12    1    3    3    0    0 -0.10345591999E+02 -0.10153909842E+02 -0.20404570668E+01  0.14638873725E+02  0.00000000000E+00 0.  1.
</event>
<event>
 7    1  0.4931104E-009  0.4778727E+02  0.7816164E-02  0.1312668E+00
        -11   -1    0    0    0    0  0.00000000000E+00  0.00000000000E+00  0.45593999997E+02  0.45594000000E+02  0.51100000000E-03 0. -1.
         11   -1    0    0    0    0 -0.00000000000E+00 -0.00000000000E+00 -0.45593999997E+02  0.45594000000E+02  0.51100000000E-03 0.  1.
    9900012    2    1    2    0    0 -0.33176615821E+02  0.24075618410E+02  0.14258331470E+02  0.47787271257E+02  0.20000000967E+02 0.  0.
        -12    1    1    2    0    0  0.33176615821E+02 -0.24075618410E+02 -0.14258331470E+02  0.43400728743E+02  0.00000000000E+00 0.  1.
         11    1    3    3    0    0 -0.23493381884E+02  0.14128810595E+02  0.10975789798E+02  0.29530158197E+02  0.51100000000E-03 0. -1.
        -11    1    3    3    0    0 -0.87441614303E+01  0.85095866486E+00  0.21352266230E+01  0.90412213092E+01  0.51100000000E-03 0.  1.
         12    1    3    3    0    0 -0.93907250674E+00  0.90958491503E+01  0.11473150487E+01  0.92158917506E+01  0.00000000000E+00 0. -1.
</event>
<event>
 7    1  0.4931104E-009  0.4778728E+02  0.7816164E-02  0.1312668E+00
        -11   -1    0    0    0    0  0.00000000000E+00  0.00000000000E+00  0.45593999997E+02  0.45594000000E+02  0.51100000000E-03 0. -1.
         11   -1    0    0    0    0 -0.00000000000E+00 -0.00000000000E+00 -0.45593999997E+02  0.45594000000E+02  0.51100000000E-03 0.  1.
    9900012    2    1    2    0    0  0.43394883503E+02 -0.17893834971E-01  0.71170156139E+00  0.47787277039E+02  0.20000027331E+02 0.  0.
        -12    1    1    2    0    0 -0.43394883503E+02  0.17893834971E-01 -0.71170156139E+00  0.43400722961E+02  0.00000000000E+00 0.  1.
         11    1    3    3    0    0  0.14140348404E+02  0.63103611296E+00 -0.26176163757E+01  0.14394428621E+02  0.51100000000E-03 0. -1.
        -11    1    3    3    0    0  0.22354311483E+02  0.13486716634E+01 -0.44190995528E+01  0.22826795620E+02  0.51100000000E-03 0.  1.
         12    1    3    3    0    0  0.69002236157E+01 -0.19976016114E+01  0.77484174899E+01  0.10566052799E+02  0.00000000000E+00 0. -1.
</event>
<event>
 7    1  0.4931104E-009  0.4778727E+02  0.7816164E-02  0.1312668E+00
        -11   -1    0    0    0    0  0.00000000000E+00  0.00000000000E+00  0.45593999997E+02  0.45594000000E+02  0.51100000000E-03 0.  1.
         11   -1    0    0    0    0 -0.00000000000E+00 -0.00000000000E+00 -0.45593999997E+02  0.45594000000E+02  0.51100000000E-03 0. -1.
    9900012    2    1    2    0    0 -0.30918669526E+02  0.44166809782E+01 -0.30135563765E+02  0.47787269597E+02  0.19999993399E+02 0.  0.
        -12    1    1    2    0    0  0.30918669526E+02 -0.44166809782E+01  0.30135563765E+02  0.43400730403E+02  0.00000000000E+00 0.  1.
         11    1    3    3    0    0 -0.86027971120E+01  0.63550258486E+01 -0.50636546061E+01  0.11833641448E+02  0.51100000000E-03 0. -1.
        -11    1    3    3    0    0 -0.19000224414E+02  0.32308326940E+01 -0.21395680194E+02  0.28796213968E+02  0.51100000000E-03 0.  1.
        -12    1    3    3    0    0 -0.33156479999E+01 -0.51691775644E+01 -0.36762289647E+01  0.71574141806E+01  0.00000000000E+00 0.  1.
</event>
<event>
 7    1  0.4931104E-009  0.4778727E+02  0.7816164E-02  0.1312668E+00
        -11   -1    0    0    0    0  0.00000000000E+00  0.00000000000E+00  0.45593999997E+02  0.45594000000E+02  0.51100000000E-03 0. -1.
         11   -1    0    0    0    0 -0.00000000000E+00 -0.00000000000E+00 -0.45593999997E+02  0.45594000000E+02  0.51100000000E-03 0.  1.
    9900012    2    1    2    0    0 -0.25179274767E+02  0.35131193619E+02  0.39276842375E+01  0.47787270209E+02  0.19999996192E+02 0.  0.
        -12    1    1    2    0    0  0.25179274767E+02 -0.35131193619E+02 -0.39276842375E+01  0.43400729791E+02  0.00000000000E+00 0.  1.
         11    1    3    3    0    0 -0.11171122390E+02  0.12003678133E+02  0.99765475336E+00  0.16427951164E+02  0.51100000000E-03 0. -1.
        -11    1    3    3    0    0 -0.10708829836E+02  0.44735494862E+01 -0.20190878102E+01  0.11779999885E+02  0.51100000000E-03 0.  1.
        -12    1    3    3    0    0 -0.32993225407E+01  0.18653966000E+02  0.49491172944E+01  0.19579319160E+02  0.00000000000E+00 0.  1.
</event>
<event>
 7    1  0.4931104E-009  0.4778727E+02  0.7816164E-02  0.1312668E+00
        -11   -1    0    0    0    0  0.00000000000E+00  0.00000000000E+00  0.45593999997E+02  0.45594000000E+02  0.51100000000E-03 0.  1.
         11   -1    0    0    0    0 -0.00000000000E+00 -0.00000000000E+00 -0.45593999997E+02  0.45594000000E+02  0.51100000000E-03 0. -1.
    9900012    2    1    2    0    0  0.34886103458E+01 -0.25998477292E+02 -0.34576470381E+02  0.47787268121E+02  0.19999986671E+02 0.  0.
        -12    1    1    2    0    0 -0.34886103458E+01  0.25998477292E+02  0.34576470381E+02  0.43400731879E+02  0.00000000000E+00 0.  1.
         11    1    3    3    0    0 -0.60415938342E+00 -0.16706354568E+02 -0.19207539155E+02  0.25463637842E+02  0.51100000000E-03 0. -1.
        -11    1    3    3    0    0  0.65511631433E+01 -0.47258714764E+01 -0.15106986141E+02  0.17131042883E+02  0.51100000000E-03 0.  1.
        -12    1    3    3    0    0 -0.24583934140E+01 -0.45662512478E+01 -0.26194508518E+00  0.51925873959E+01  0.00000000000E+00 0.  1.
</event>
<event>
 7    1  0.4931104E-009  0.4778727E+02  0.7816164E-02  0.1312668E+00
        -11   -1    0    0    0    0  0.00000000000E+00  0.00000000000E+00  0.45593999997E+02  0.45594000000E+02  0.51100000000E-03 0.  1.
         11   -1    0    0    0    0 -0.00000000000E+00 -0.00000000000E+00 -0.45593999997E+02  0.45594000000E+02  0.51100000000E-03 0. -1.
    9900012    2    1    2    0    0  0.27545708132E+02  0.16645678032E+02 -0.29116635921E+02  0.47787272806E+02  0.20000008030E+02 0.  0.
        -12    1    1    2    0    0 -0.27545708132E+02 -0.16645678032E+02  0.29116635921E+02  0.43400727194E+02  0.00000000000E+00 0.  1.
         11    1    3    3    0    0  0.66656748908E+01  0.27724643474E+01  0.13694514513E+01  0.73480050249E+01  0.51100000000E-03 0. -1.
        -11    1    3    3    0    0  0.25051592397E+00  0.15463116846E+01 -0.57175505693E+01  0.59282563059E+01  0.51100000000E-03 0.  1.
         12    1    3    3    0    0  0.20629517317E+02  0.12326902000E+02 -0.24768536803E+02  0.34511011475E+02  0.00000000000E+00 0. -1.
</event>
<event>
 7    1  0.4931104E-009  0.4778727E+02  0.7816164E-02  0.1312668E+00
        -11   -1    0    0    0    0  0.00000000000E+00  0.00000000000E+00  0.45593999997E+02  0.45594000000E+02  0.51100000000E-03 0.  1.
         11   -1    0    0    0    0 -0.00000000000E+00 -0.00000000000E+00 -0.45593999997E+02  0.45594000000E+02  0.51100000000E-03 0. -1.
    9900012    2    1    2    0    0 -0.35950196839E+02  0.16003999581E+02 -0.18305163074E+02  0.47787266705E+02  0.19999980215E+02 0.  0.
        -12    1    1    2    0    0  0.35950196839E+02 -0.16003999581E+02  0.18305163074E+02  0.43400733295E+02  0.00000000000E+00 0.  1.
         11    1    3    3    0    0 -0.25159422308E+02  0.87291218866E+01 -0.63059096010E+01  0.27367107920E+02  0.51100000000E-03 0. -1.
        -11    1    3    3    0    0 -0.98529584233E+01  0.70576129513E+00 -0.68494492871E+01  0.12020559242E+02  0.51100000000E-03 0.  1.
         12    1    3    3    0    0 -0.93781610808E+00  0.65691163994E+01 -0.51498041863E+01  0.83995995427E+01  0.00000000000E+00 0. -1.
</event>
<event>
 7    1  0.4931104E-009  0.4778729E+02  0.7816164E-02  0.1312668E+00
        -11   -1    0    0    0    0  0.00000000000E+00  0.00000000000E+00  0.45593999997E+02  0.45594000000E+02  0.51100000000E-03 0. -1.
         11   -1    0    0    0    0 -0.00000000000E+00 -0.00000000000E+00 -0.45593999997E+02  0.45594000000E+02  0.51100000000E-03 0.  1.
    9900012    2    1    2    0    0  0.24132676614E+02 -0.17013288526E+02  0.31808539513E+02  0.47787294326E+02  0.20000106151E+02 0.  0.
        -12    1    1    2    0    0 -0.24132676614E+02  0.17013288526E+02 -0.31808539513E+02  0.43400705674E+02  0.00000000000E+00 0.  1.
         11    1    3    3    0    0 -0.49190421575E+00  0.12841005821E+01  0.63987526008E+01  0.65448391248E+01  0.51100000000E-03 0. -1.
        -11    1    3    3    0    0  0.42007792526E+01 -0.91754960086E+01  0.86624024061E+01  0.13299379273E+02  0.51100000000E-03 0.  1.
        -12    1    3    3    0    0  0.20423801577E+02 -0.91218930997E+01  0.16747384506E+02  0.27943075929E+02  0.00000000000E+00 0.  1.
</event>
<event>
 7    1  0.4931104E-009  0.4778727E+02  0.7816164E-02  0.1312668E+00
        -11   -1    0    0    0    0  0.00000000000E+00  0.00000000000E+00  0.45593999997E+02  0.45594000000E+02  0.51100000000E-03 0. -1.
         11   -1    0    0    0    0 -0.00000000000E+00 -0.00000000000E+00 -0.45593999997E+02  0.45594000000E+02  0.51100000000E-03 0.  1.
    9900012    2    1    2    0    0 -0.13127171103E+02 -0.32556752726E+02  0.25521729536E+02  0.47787269041E+02  0.19999990867E+02 0.  0.
        -12    1    1    2    0    0  0.13127171103E+02  0.32556752726E+02 -0.25521729536E+02  0.43400730959E+02  0.00000000000E+00 0.  1.
         11    1    3    3    0    0 -0.13680185680E+01 -0.10851710173E+02  0.30514613123E+01  0.11355285329E+02  0.51100000000E-03 0. -1.
        -11    1    3    3    0    0  0.21233403868E+01 -0.93588729156E+00 -0.63264593764E+00  0.24051404458E+01  0.51100000000E-03 0.  1.
         12    1    3    3    0    0 -0.13882492922E+02 -0.20769155261E+02  0.23102914161E+02  0.34026843267E+02  0.00000000000E+00 0. -1.
</event>
<event>
 7    1  0.4931104E-009  0.4778727E+02  0.7816164E-02  0.1312668E+00
        -11   -1    0    0    0    0  0.00000000000E+00  0.00000000000E+00  0.45593999997E+02  0.45594000000E+02  0.51100000000E-03 0. -1.
         11   -1    0    0    0    0 -0.00000000000E+00 -0.00000000000E+00 -0.45593999997E+02  0.45594000000E+02  0.51100000000E-03 0.  1.
    9900012    2    1    2    0    0  0.45105819768E+01 -0.33280656959E+02  0.27489564179E+02  0.47787267101E+02  0.19999982021E+02 0.  0.
        -12    1    1    2    0    0 -0.45105819768E+01  0.33280656959E+02 -0.27489564179E+02  0.43400732899E+02  0.00000000000E+00 0.  1.
         11    1    3    3    0    0 -0.20109727502E+01 -0.12468426649E+02  0.63125226895E+01  0.14119264055E+02  0.51100000000E-03 0. -1.
        -11    1    3    3    0    0 -0.44439786001E+01 -0.34162792230E+01  0.48038357617E+01  0.73821912610E+01  0.51100000000E-03 0.  1.
        -12    1    3    3    0    0  0.10965533327E+02 -0.17395951088E+02  0.16373205728E+02  0.26285811785E+02  0.00000000000E+00 0.  1.
</event>
<event>
 7    1  0.4931104E-009  0.4778727E+02  0.7816164E-02  0.1312668E+00
        -11   -1    0    0    0    0  0.00000000000E+00  0.00000000000E+00  0.45593999997E+02  0.45594000000E+02  0.51100000000E-03 0.  1.
         11   -1    0    0    0    0 -0.00000000000E+00 -0.00000000000E+00 -0.45593999997E+02  0.45594000000E+02  0.51100000000E-03 0. -1.
    9900012    2    1    2    0    0  0.12227542953E+02  0.13371441350E+02 -0.39437479285E+02  0.47787273937E+02  0.20000013187E+02 0.  0.
        -12    1    1    2    0    0 -0.12227542953E+02 -0.13371441350E+02  0.39437479285E+02  0.43400726063E+02  0.00000000000E+00 0.  1.
         11    1    3    3    0    0  0.90368949041E+01  0.61330292619E+01 -0.12001148948E+02  0.16226740084E+02  0.51100000000E-03 0. -1.
        -11    1    3    3    0    0 -0.19350310503E+01  0.89691144881E+01 -0.22243489553E+02  0.24061633104E+02  0.51100000000E-03 0.  1.
         12    1    3    3    0    0  0.51256790993E+01 -0.17307024002E+01 -0.51928407847E+01  0.74989007489E+01  0.00000000000E+00 0. -1.
</event>
<event>
 7    1  0.4931104E-009  0.4778726E+02  0.7816164E-02  0.1312668E+00
        -11   -1    0    0    0    0  0.00000000000E+00  0.00000000000E+00  0.45593999997E+02  0.45594000000E+02  0.51100000000E-03 0.  1.
         11   -1    0    0    0    0 -0.00000000000E+00 -0.00000000000E+00 -0.45593999997E+02  0.45594000000E+02  0.51100000000E-03 0. -1.
    9900012    2    1    2    0    0 -0.37802055628E+02 -0.19603259873E+02 -0.83869468279E+01  0.47787261706E+02  0.19999957422E+02 0.  0.
        -12    1    1    2    0    0  0.37802055628E+02  0.19603259873E+02  0.83869468279E+01  0.43400738294E+02  0.00000000000E+00 0.  1.
         11    1    3    3    0    0 -0.25193120678E+02 -0.13154169395E+02 -0.84644909477E+01  0.29654225825E+02  0.51100000000E-03 0. -1.
        -11    1    3    3    0    0 -0.74041401835E+01 -0.95067106993E+01 -0.56093403577E+00  0.12062897141E+02  0.51100000000E-03 0.  1.
        -12    1    3    3    0    0 -0.52047947662E+01  0.30576202210E+01  0.63847815554E+00  0.60701387405E+01  0.00000000000E+00 0.  1.
</event>
<event>
 7    1  0.4931104E-009  0.4778727E+02  0.7816164E-02  0.1312668E+00
        -11   -1    0    0    0    0  0.00000000000E+00  0.00000000000E+00  0.45593999997E+02  0.45594000000E+02  0.51100000000E-03 0. -1.
         11   -1    0    0    0    0 -0.00000000000E+00 -0.00000000000E+00 -0.45593999997E+02  0.45594000000E+02  0.51100000000E-03 0.  1.
    9900012    2    1    2    0    0 -0.18737825218E+02  0.16996404724E+02  0.35265274347E+02  0.47787269105E+02  0.19999991156E+02 0.  0.
        -12    1    1    2    0    0  0.18737825218E+02 -0.16996404724E+02 -0.35265274347E+02  0.43400730895E+02  0.00000000000E+00 0.  1.
         11    1    3    3    0    0 -0.38771943990E+01  0.39070945454E+01  0.74601541559E+01  0.92710260751E+01  0.51100000000E-03 0. -1.
        -11    1    3    3    0    0 -0.16866191091E+02  0.66585261259E+01  0.13187962641E+02  0.22421568432E+02  0.51100000000E-03 0.  1.
         12    1    3    3    0    0  0.20055602720E+01  0.64307840530E+01  0.14617157550E+02  0.16094674597E+02  0.00000000000E+00 0. -1.
</event>
<event>
 7    1  0.4931104E-009  0.4778727E+02  0.7816164E-02  0.1312668E+00
        -11   -1    0    0    0    0  0.00000000000E+00  0.00000000000E+00  0.45593999997E+02  0.45594000000E+02  0.51100000000E-03 0.  1.
         11   -1    0    0    0    0 -0.00000000000E+00 -0.00000000000E+00 -0.45593999997E+02  0.45594000000E+02  0.51100000000E-03 0. -1.
    9900012    2    1    2    0    0 -0.14506964326E+02 -0.38898864522E+02 -0.12651091788E+02  0.47787265000E+02  0.19999972442E+02 0.  0.
        -12    1    1    2    0    0  0.14506964326E+02  0.38898864522E+02  0.12651091788E+02  0.43400735000E+02  0.00000000000E+00 0.  1.
         11    1    3    3    0    0 -0.18183889643E+01 -0.42092226789E+01 -0.39983803842E+01  0.60836781592E+01  0.51100000000E-03 0. -1.
        -11    1    3    3    0    0  0.20882555021E+01 -0.75656898428E+01  0.33921515666E+01  0.85502728817E+01  0.51100000000E-03 0.  1.
        -12    1    3    3    0    0 -0.14776830864E+02 -0.27123952000E+02 -0.12044862971E+02  0.33153313959E+02  0.00000000000E+00 0.  1.
</event>
<event>
 7    1  0.4931104E-009  0.4778727E+02  0.7816164E-02  0.1312668E+00
        -11   -1    0    0    0    0  0.00000000000E+00  0.00000000000E+00  0.45593999997E+02  0.45594000000E+02  0.51100000000E-03 0.  1.
         11   -1    0    0    0    0 -0.00000000000E+00 -0.00000000000E+00 -0.45593999997E+02  0.45594000000E+02  0.51100000000E-03 0. -1.
    9900012    2    1    2    0    0 -0.12928950391E+02 -0.24274797622E+02 -0.33573793585E+02  0.47787272201E+02  0.20000005274E+02 0.  0.
        -12    1    1    2    0    0  0.12928950391E+02  0.24274797622E+02  0.33573793585E+02  0.43400727799E+02  0.00000000000E+00 0.  1.
         11    1    3    3    0    0 -0.12236454424E+01 -0.25526069475E+01 -0.76635615040E+01  0.81696563933E+01  0.51100000000E-03 0. -1.
        -11    1    3    3    0    0 -0.15401310183E+02 -0.20939574300E+02 -0.24023059235E+02  0.35394540575E+02  0.51100000000E-03 0.  1.
        -12    1    3    3    0    0  0.36960052339E+01 -0.78261637466E+00 -0.18871728453E+01  0.42230752334E+01  0.00000000000E+00 0.  1.
</event>
<event>
 7    1  0.4931104E-009  0.4778727E+02  0.7816164E-02  0.1312668E+00
        -11   -1    0    0    0    0  0.00000000000E+00  0.00000000000E+00  0.45593999997E+02  0.45594000000E+02  0.51100000000E-03 0.  1.
         11   -1    0    0    0    0 -0.00000000000E+00 -0.00000000000E+00 -0.45593999997E+02  0.45594000000E+02  0.51100000000E-03 0. -1.
    9900012    2    1    2    0    0 -0.13568329148E+02 -0.40252009202E+02 -0.89050066744E+01  0.47787274839E+02  0.20000017300E+02 0.  0.
        -12    1    1    2    0    0  0.13568329148E+02  0.40252009202E+02  0.89050066744E+01  0.43400725161E+02  0.00000000000E+00 0.  1.
         11    1    3    3    0    0 -0.61587670425E+00 -0.23754800194E+02 -0.45289404811E+01  0.24190517533E+02  0.51100000000E-03 0.  1.
        -11    1    3    3    0    0 -0.65654140126E+01 -0.15290982146E+02 -0.24706076052E+01  0.16823278466E+02  0.51100000000E-03 0. -1.
        -12    1    3    3    0    0 -0.63870384309E+01 -0.12062268619E+01 -0.19054585881E+01  0.67734788396E+01  0.00000000000E+00 0.  1.
</event>
<event>
 7    1  0.4931104E-009  0.4778727E+02  0.7816164E-02  0.1312668E+00
        -11   -1    0    0    0    0  0.00000000000E+00  0.00000000000E+00  0.45593999997E+02  0.45594000000E+02  0.51100000000E-03 0.  1.
         11   -1    0    0    0    0 -0.00000000000E+00 -0.00000000000E+00 -0.45593999997E+02  0.45594000000E+02  0.51100000000E-03 0. -1.
    9900012    2    1    2    0    0  0.28514113234E+02 -0.17990849879E+02 -0.27329437724E+02  0.47787268449E+02  0.19999988167E+02 0.  0.
        -12    1    1    2    0    0 -0.28514113234E+02  0.17990849879E+02  0.27329437724E+02  0.43400731551E+02  0.00000000000E+00 0.  1.
         11    1    3    3    0    0  0.15997311389E+02 -0.86069570877E+01 -0.16265012239E+02  0.24383279217E+02  0.51100000000E-03 0. -1.
        -11    1    3    3    0    0 -0.16723195341E+01  0.18351557216E+01 -0.81379422611E+00  0.26127974377E+01  0.51100000000E-03 0.  1.
        -12    1    3    3    0    0  0.14189121379E+02 -0.11219048512E+02 -0.10250631259E+02  0.20791191794E+02  0.00000000000E+00 0.  1.
</event>
<event>
 7    1  0.4931104E-009  0.4778727E+02  0.7816164E-02  0.1312668E+00
        -11   -1    0    0    0    0  0.00000000000E+00  0.00000000000E+00  0.45593999997E+02  0.45594000000E+02  0.51100000000E-03 0.  1.
         11   -1    0    0    0    0 -0.00000000000E+00 -0.00000000000E+00 -0.45593999997E+02  0.45594000000E+02  0.51100000000E-03 0. -1.
    9900012    2    1    2    0    0 -0.43055920292E+02 -0.20376156506E+01 -0.50654948900E+01  0.47787269727E+02  0.19999993994E+02 0.  0.
        -12    1    1    2    0    0  0.43055920292E+02  0.20376156506E+01  0.50654948900E+01  0.43400730273E+02  0.00000000000E+00 0.  1.
         11    1    3    3    0    0 -0.23489409267E+02 -0.85996168121E+01 -0.33382648719E+01  0.25235882581E+02  0.51100000000E-03 0. -1.
        -11    1    3    3    0    0 -0.35706576509E+01  0.84047040656E+00 -0.39819971541E+01  0.54140823933E+01  0.51100000000E-03 0.  1.
        -12    1    3    3    0    0 -0.15995853374E+02  0.57215307550E+01  0.22547671361E+01  0.17137304753E+02  0.00000000000E+00 0.  1.
</event>
<event>
 7    1  0.4931104E-009  0.4778727E+02  0.7816164E-02  0.1312668E+00
        -11   -1    0    0    0    0  0.00000000000E+00  0.00000000000E+00  0.45593999997E+02  0.45594000000E+02  0.51100000000E-03 0.  1.
         11   -1    0    0    0    0 -0.00000000000E+00 -0.00000000000E+00 -0.45593999997E+02  0.45594000000E+02  0.51100000000E-03 0. -1.
    9900012    2    1    2    0    0 -0.40830652985E+02  0.89433931774E+01  0.11683182987E+02  0.47787271096E+02  0.20000000233E+02 0.  0.
        -12    1    1    2    0    0  0.40830652985E+02 -0.89433931774E+01 -0.11683182987E+02  0.43400728904E+02  0.00000000000E+00 0.  1.
         11    1    3    3    0    0 -0.17926848765E+02  0.56339826802E+01  0.11682180269E+02  0.22126613017E+02  0.51100000000E-03 0. -1.
        -11    1    3    3    0    0  0.12540893808E+01  0.36164521513E-01  0.25706513936E+00  0.12806759132E+01  0.51100000000E-03 0.  1.
         12    1    3    3    0    0 -0.24157893601E+02  0.32732459757E+01 -0.25606242083E+00  0.24379982166E+02  0.00000000000E+00 0. -1.
</event>
<event>
 7    1  0.4931104E-009  0.4778727E+02  0.7816164E-02  0.1312668E+00
        -11   -1    0    0    0    0  0.00000000000E+00  0.00000000000E+00  0.45593999997E+02  0.45594000000E+02  0.51100000000E-03 0.  1.
         11   -1    0    0    0    0 -0.00000000000E+00 -0.00000000000E+00 -0.45593999997E+02  0.45594000000E+02  0.51100000000E-03 0. -1.
    9900012    2    1    2    0    0  0.29200081857E+02 -0.25301320134E+02 -0.19769212887E+02  0.47787270062E+02  0.19999995522E+02 0.  0.
        -12    1    1    2    0    0 -0.29200081857E+02  0.25301320134E+02  0.19769212887E+02  0.43400729938E+02  0.00000000000E+00 0.  1.
         11    1    3    3    0    0  0.37084153869E-01 -0.56343886731E+01 -0.41989827161E+00  0.56501350226E+01  0.51100000000E-03 0. -1.
        -11    1    3    3    0    0  0.12151841048E+02 -0.31974533056E+01 -0.18635941439E+01  0.12702910371E+02  0.51100000000E-03 0.  1.
         12    1    3    3    0    0  0.17011156655E+02 -0.16469478155E+02 -0.17485720472E+02  0.29434224669E+02  0.00000000000E+00 0. -1.
</event>
<event>
 7    1  0.4931104E-009  0.4778723E+02  0.7816164E-02  0.1312668E+00
        -11   -1    0    0    0    0  0.00000000000E+00  0.00000000000E+00  0.45593999997E+02  0.45594000000E+02  0.51100000000E-03 0. -1.
         11   -1    0    0    0    0 -0.00000000000E+00 -0.00000000000E+00 -0.45593999997E+02  0.45594000000E+02  0.51100000000E-03 0.  1.
    9900012    2    1    2    0    0  0.30127576236E+02 -0.14582278101E+02  0.27628118493E+02  0.47787232542E+02  0.19999824453E+02 0.  0.
        -12    1    1    2    0    0 -0.30127576236E+02  0.14582278101E+02 -0.27628118493E+02  0.43400767458E+02  0.00000000000E+00 0.  1.
         11    1    3    3    0    0  0.14961214477E+02 -0.72101039375E+01  0.13053834135E+02  0.21124065028E+02  0.51100000000E-03 0. -1.
        -11    1    3    3    0    0  0.12091660297E+02 -0.49638448919E-01  0.27191855500E+01  0.12393735636E+02  0.51100000000E-03 0.  1.
        -12    1    3    3    0    0  0.30747014615E+01 -0.73225357141E+01  0.11855098808E+02  0.14269431878E+02  0.00000000000E+00 0.  1.
</event>
<event>
 7    1  0.4931104E-009  0.4778727E+02  0.7816164E-02  0.1312668E+00
        -11   -1    0    0    0    0  0.00000000000E+00  0.00000000000E+00  0.45593999997E+02  0.45594000000E+02  0.51100000000E-03 0.  1.
         11   -1    0    0    0    0 -0.00000000000E+00 -0.00000000000E+00 -0.45593999997E+02  0.45594000000E+02  0.51100000000E-03 0. -1.
    9900012    2    1    2    0    0  0.25897814086E+02  0.19098483273E+02 -0.29123442841E+02  0.47787265436E+02  0.19999974431E+02 0.  0.
        -12    1    1    2    0    0 -0.25897814086E+02 -0.19098483273E+02  0.29123442841E+02  0.43400734564E+02  0.00000000000E+00 0.  1.
         11    1    3    3    0    0  0.37095207519E+00  0.92169964142E+01 -0.67961455142E+01  0.11457670900E+02  0.51100000000E-03 0. -1.
        -11    1    3    3    0    0  0.31712051313E+01 -0.10684249394E+01 -0.85204536405E+00  0.34531225578E+01  0.51100000000E-03 0.  1.
         12    1    3    3    0    0  0.22355656879E+02  0.10949911798E+02 -0.21475251963E+02  0.32876471979E+02  0.00000000000E+00 0. -1.
</event>
<event>
 7    1  0.4931104E-009  0.4778729E+02  0.7816164E-02  0.1312668E+00
        -11   -1    0    0    0    0  0.00000000000E+00  0.00000000000E+00  0.45593999997E+02  0.45594000000E+02  0.51100000000E-03 0. -1.
         11   -1    0    0    0    0 -0.00000000000E+00 -0.00000000000E+00 -0.45593999997E+02  0.45594000000E+02  0.51100000000E-03 0.  1.
    9900012    2    1    2    0    0  0.32122680874E+02 -0.49060546663E+01  0.28769530055E+02  0.47787287351E+02  0.20000074346E+02 0.  0.
        -12    1    1    2    0    0 -0.32122680874E+02  0.49060546663E+01 -0.28769530055E+02  0.43400712649E+02  0.00000000000E+00 0.  1.
         11    1    3    3    0    0  0.94457201791E+01 -0.41260516871E+01  0.74456710743E+01  0.12715500393E+02  0.51100000000E-03 0.  1.
        -11    1    3    3    0    0  0.81879783656E+01 -0.79926266654E+01  0.67048841945E+01  0.13261996194E+02  0.51100000000E-03 0. -1.
         12    1    3    3    0    0  0.14488982329E+02  0.72126236863E+01  0.14618974786E+02  0.21809790764E+02  0.00000000000E+00 0. -1.
</event>
<event>
 7    1  0.4931104E-009  0.4778729E+02  0.7816164E-02  0.1312668E+00
        -11   -1    0    0    0    0  0.00000000000E+00  0.00000000000E+00  0.45593999997E+02  0.45594000000E+02  0.51100000000E-03 0.  1.
         11   -1    0    0    0    0 -0.00000000000E+00 -0.00000000000E+00 -0.45593999997E+02  0.45594000000E+02  0.51100000000E-03 0. -1.
    9900012    2    1    2    0    0 -0.15823787655E+02 -0.39150852244E+02  0.10021999847E+02  0.47787286087E+02  0.20000068586E+02 0.  0.
        -12    1    1    2    0    0  0.15823787655E+02  0.39150852244E+02 -0.10021999847E+02  0.43400713913E+02  0.00000000000E+00 0.  1.
         11    1    3    3    0    0 -0.54054293279E+01 -0.12829968856E+02 -0.60858727774E+00  0.13935463602E+02  0.51100000000E-03 0. -1.
        -11    1    3    3    0    0 -0.99500568459E+01 -0.61997250292E+01  0.17512315448E+01  0.11853566293E+02  0.51100000000E-03 0.  1.
        -12    1    3    3    0    0 -0.46830148108E+00 -0.20121158359E+02  0.88793555798E+01  0.21998256192E+02  0.00000000000E+00 0.  1.
</event>
<event>
 7    1  0.4931104E-009  0.4778728E+02  0.7816164E-02  0.1312668E+00
        -11   -1    0    0    0    0  0.00000000000E+00  0.00000000000E+00  0.45593999997E+02  0.45594000000E+02  0.51100000000E-03 0. -1.
         11   -1    0    0    0    0 -0.00000000000E+00 -0.00000000000E+00 -0.45593999997E+02  0.45594000000E+02  0.51100000000E-03 0.  1.
    9900012    2    1    2    0    0  0.13056369664E+02 -0.23414806575E+02  0.34130638364E+02  0.47787280757E+02  0.20000044281E+02 0.  0.
        -12    1    1    2    0    0 -0.13056369664E+02  0.23414806575E+02 -0.34130638364E+02  0.43400719243E+02  0.00000000000E+00 0.  1.
         11    1    3    3    0    0  0.12288378957E+02 -0.73997667413E+01  0.21579506464E+02  0.25912080285E+02  0.51100000000E-03 0. -1.
        -11    1    3    3    0    0  0.13382504722E+01 -0.59908382050E+00 -0.61895012503E+00  0.15915135151E+01  0.51100000000E-03 0.  1.
         12    1    3    3    0    0 -0.57025976559E+00 -0.15415956013E+02  0.13170082025E+02  0.20283686956E+02  0.00000000000E+00 0. -1.
</event>
<event>
 7    1  0.4931104E-009  0.4778728E+02  0.7816164E-02  0.1312668E+00
        -11   -1    0    0    0    0  0.00000000000E+00  0.00000000000E+00  0.45593999997E+02  0.45594000000E+02  0.51100000000E-03 0.  1.
         11   -1    0    0    0    0 -0.00000000000E+00 -0.00000000000E+00 -0.45593999997E+02  0.45594000000E+02  0.51100000000E-03 0. -1.
    9900012    2    1    2    0    0 -0.87978719636E-01 -0.25277435862E+02 -0.35279828822E+02  0.47787276207E+02  0.20000023539E+02 0.  0.
        -12    1    1    2    0    0  0.87978719636E-01  0.25277435862E+02  0.35279828822E+02  0.43400723793E+02  0.00000000000E+00 0.  1.
         11    1    3    3    0    0  0.97459666128E+00  0.42501459066E+00 -0.16527179102E+01  0.19651851837E+01  0.51100000000E-03 0. -1.
        -11    1    3    3    0    0  0.50061530856E+01 -0.20772874659E+02 -0.16506605215E+02  0.27000776031E+02  0.51100000000E-03 0.  1.
        -12    1    3    3    0    0 -0.60687284665E+01 -0.49295757941E+01 -0.17120505697E+02  0.18821314992E+02  0.00000000000E+00 0.  1.
</event>
<event>
 7    1  0.4931104E-009  0.4778727E+02  0.7816164E-02  0.1312668E+00
        -11   -1    0    0    0    0  0.00000000000E+00  0.00000000000E+00  0.45593999997E+02  0.45594000000E+02  0.51100000000E-03 0.  1.
         11   -1    0    0    0    0 -0.00000000000E+00 -0.00000000000E+00 -0.45593999997E+02  0.45594000000E+02  0.51100000000E-03 0. -1.
    9900012    2    1    2    0    0 -0.26410471233E+02 -0.31992637406E+02 -0.12750748670E+02  0.47787269239E+02  0.19999991770E+02 0.  0.
        -12    1    1    2    0    0  0.26410471233E+02  0.31992637406E+02  0.12750748670E+02  0.43400730761E+02  0.00000000000E+00 0.  1.
         11    1    3    3    0    0 -0.65750554796E+01 -0.11500897980E+02 -0.94992510119E+01  0.16301465546E+02  0.51100000000E-03 0. -1.
        -11    1    3    3    0    0 -0.51729698429E+01  0.32233023295E+00 -0.30722804382E+01  0.60251490543E+01  0.51100000000E-03 0.  1.
         12    1    3    3    0    0 -0.14662445910E+02 -0.20814069659E+02 -0.17921722008E+00  0.25460654639E+02  0.00000000000E+00 0. -1.
</event>
<event>
 7    1  0.4931104E-009  0.4778727E+02  0.7816164E-02  0.1312668E+00
        -11   -1    0    0    0    0  0.00000000000E+00  0.00000000000E+00  0.45593999997E+02  0.45594000000E+02  0.51100000000E-03 0. -1.
         11   -1    0    0    0    0 -0.00000000000E+00 -0.00000000000E+00 -0.45593999997E+02  0.45594000000E+02  0.51100000000E-03 0.  1.
    9900012    2    1    2    0    0 -0.26929537548E+02 -0.33085366886E+02  0.79863521206E+01  0.47787270574E+02  0.19999997853E+02 0.  0.
        -12    1    1    2    0    0  0.26929537548E+02  0.33085366886E+02 -0.79863521206E+01  0.43400729426E+02  0.00000000000E+00 0.  1.
         11    1    3    3    0    0 -0.17323600062E+02 -0.24552275566E+02  0.90719252612E+01  0.31388233190E+02  0.51100000000E-03 0. -1.
        -11    1    3    3    0    0 -0.97913703987E+01 -0.39012497210E+01  0.21356687920E+01  0.10754151065E+02  0.51100000000E-03 0.  1.
        -12    1    3    3    0    0  0.18543291292E+00 -0.46318415990E+01 -0.32212419326E+01  0.56448863187E+01  0.00000000000E+00 0.  1.
</event>
<event>
 7    1  0.4931104E-009  0.4778728E+02  0.7816164E-02  0.1312668E+00
        -11   -1    0    0    0    0  0.00000000000E+00  0.00000000000E+00  0.45593999997E+02  0.45594000000E+02  0.51100000000E-03 0.  1.
         11   -1    0    0    0    0 -0.00000000000E+00 -0.00000000000E+00 -0.45593999997E+02  0.45594000000E+02  0.51100000000E-03 0. -1.
    9900012    2    1    2    0    0  0.16031663026E+02  0.19616292418E+02  0.35239317258E+02  0.47787278480E+02  0.20000033902E+02 0.  0.
        -12    1    1    2    0    0 -0.16031663026E+02 -0.19616292418E+02 -0.35239317258E+02  0.43400721520E+02  0.00000000000E+00 0.  1.
         11    1    3    3    0    0  0.13022291329E+02  0.13435326257E+02  0.14206639354E+02  0.23492906698E+02  0.51100000000E-03 0.  1.
        -11    1    3    3    0    0  0.38355917567E+01  0.42717447531E+01  0.36839657282E+01  0.68213760421E+01  0.51100000000E-03 0. -1.
        -12    1    3    3    0    0 -0.82622006014E+00  0.19092214076E+01  0.17348712176E+02  0.17472995740E+02  0.00000000000E+00 0.  1.
</event>
<event>
 7    1  0.6447959E-009  0.4778727E+02  0.7816164E-02  0.1312668E+00
        -11   -1    0    0    0    0  0.00000000000E+00  0.00000000000E+00  0.45593999997E+02  0.45594000000E+02  0.51100000000E-03 0.  1.
         11   -1    0    0    0    0 -0.00000000000E+00 -0.00000000000E+00 -0.45593999997E+02  0.45594000000E+02  0.51100000000E-03 0. -1.
    9900012    2    1    2    0    0  0.69520427917E+01  0.34302588520E+02 -0.25663685820E+02  0.47787271343E+02  0.20000001359E+02 0.  0.
        -12    1    1    2    0    0 -0.69520427917E+01 -0.34302588520E+02  0.25663685820E+02  0.43400728657E+02  0.00000000000E+00 0.  1.
         11    1    3    3    0    0  0.12776091562E+01  0.11694023581E+02 -0.11313701821E+02  0.16321223050E+02  0.51100000000E-03 0. -1.
        -11    1    3    3    0    0  0.17251142535E+00  0.19196771051E+02 -0.45642390432E+01  0.19732664729E+02  0.51100000000E-03 0.  1.
        -12    1    3    3    0    0  0.55019222102E+01  0.34117938873E+01 -0.97857449553E+01  0.11733383564E+02  0.00000000000E+00 0.  1.
</event>
<event>
 7    1  0.4931104E-009  0.4778727E+02  0.7816164E-02  0.1312668E+00
        -11   -1    0    0    0    0  0.00000000000E+00  0.00000000000E+00  0.45593999997E+02  0.45594000000E+02  0.51100000000E-03 0. -1.
         11   -1    0    0    0    0 -0.00000000000E+00 -0.00000000000E+00 -0.45593999997E+02  0.45594000000E+02  0.51100000000E-03 0.  1.
    9900012    2    1    2    0    0 -0.33557378972E+02 -0.84152037811E+01  0.26205148514E+02  0.47787272508E+02  0.20000006674E+02 0.  0.
        -12    1    1    2    0    0  0.33557378972E+02  0.84152037811E+01 -0.26205148514E+02  0.43400727492E+02  0.00000000000E+00 0.  1.
         11    1    3    3    0    0 -0.13898704998E+02 -0.87961456889E+01  0.12084091849E+02  0.20410082207E+02  0.51100000000E-03 0. -1.
        -11    1    3    3    0    0 -0.20222858015E+02 -0.15499030534E+01  0.96217997885E+01  0.22448724178E+02  0.51100000000E-03 0.  1.
         12    1    3    3    0    0  0.56418404092E+00  0.19308449611E+01  0.44992568763E+01  0.49284661239E+01  0.00000000000E+00 0. -1.
</event>
<event>
 7    1  0.4931104E-009  0.4778727E+02  0.7816164E-02  0.1312668E+00
        -11   -1    0    0    0    0  0.00000000000E+00  0.00000000000E+00  0.45593999997E+02  0.45594000000E+02  0.51100000000E-03 0.  1.
         11   -1    0    0    0    0 -0.00000000000E+00 -0.00000000000E+00 -0.45593999997E+02  0.45594000000E+02  0.51100000000E-03 0. -1.
    9900012    2    1    2    0    0  0.22682035867E+02 -0.26955688067E+02 -0.25348358804E+02  0.47787272306E+02  0.20000005754E+02 0.  0.
        -12    1    1    2    0    0 -0.22682035867E+02  0.26955688067E+02  0.25348358804E+02  0.43400727694E+02  0.00000000000E+00 0.  1.
         11    1    3    3    0    0  0.10325130644E+02 -0.22789711648E+02 -0.19108127207E+02  0.31481737649E+02  0.51100000000E-03 0. -1.
        -11    1    3    3    0    0 -0.92234355441E+00 -0.92336987289E+00 -0.10818268325E+01  0.16951929422E+01  0.51100000000E-03 0.  1.
        -12    1    3    3    0    0  0.13279248777E+02 -0.32426065466E+01 -0.51584047652E+01  0.14610341715E+02  0.00000000000E+00 0.  1.
</event>
<event>
 7    1  0.4931104E-009  0.4778729E+02  0.7816164E-02  0.1312668E+00
        -11   -1    0    0    0    0  0.00000000000E+00  0.00000000000E+00  0.45593999997E+02  0.45594000000E+02  0.51100000000E-03 0.  1.
         11   -1    0    0    0    0 -0.00000000000E+00 -0.00000000000E+00 -0.45593999997E+02  0.45594000000E+02  0.51100000000E-03 0. -1.
    9900012    2    1    2    0    0 -0.35569790781E+02  0.17835210278E+02 -0.17329648889E+02  0.47787291798E+02  0.20000094622E+02 0.  0.
        -12    1    1    2    0    0  0.35569790781E+02 -0.17835210278E+02  0.17329648889E+02  0.43400708202E+02  0.00000000000E+00 0.  1.
         11    1    3    3    0    0 -0.10506018297E+02  0.90638042285E+01 -0.13453674634E+02  0.19326932735E+02  0.51100000000E-03 0. -1.
        -11    1    3    3    0    0  0.33832199404E+00  0.17130076228E+01  0.28598421240E+00  0.17693626305E+01  0.51100000000E-03 0.  1.
        -12    1    3    3    0    0 -0.25402094478E+02  0.70583984272E+01 -0.41619584673E+01  0.26690996432E+02  0.00000000000E+00 0.  1.
</event>
<event>
 7    1  0.4931104E-009  0.4778727E+02  0.7816164E-02  0.1312668E+00
        -11   -1    0    0    0    0  0.00000000000E+00  0.00000000000E+00  0.45593999997E+02  0.45594000000E+02  0.51100000000E-03 0.  1.
         11   -1    0    0    0    0 -0.00000000000E+00 -0.00000000000E+00 -0.45593999997E+02  0.45594000000E+02  0.51100000000E-03 0. -1.
    9900012    2    1    2    0    0 -0.42740312020E+02  0.74056979480E+01 -0.14300325173E+01  0.47787266980E+02  0.19999981471E+02 0.  0.
        -12    1    1    2    0    0  0.42740312020E+02 -0.74056979480E+01  0.14300325173E+01  0.43400733020E+02  0.00000000000E+00 0.  1.
         11    1    3    3    0    0 -0.22941145716E+02  0.67162528640E+01  0.53168825394E+01  0.24488231040E+02  0.51100000000E-03 0. -1.
        -11    1    3    3    0    0 -0.11412798903E+02 -0.29242927161E+01  0.26692892893E+00  0.11784511785E+02  0.51100000000E-03 0.  1.
        -12    1    3    3    0    0 -0.83863674005E+01  0.36137378002E+01 -0.70138439856E+01  0.11514524155E+02  0.00000000000E+00 0.  1.
</event>
<event>
 7    1  0.4931104E-009  0.4778727E+02  0.7816164E-02  0.1312668E+00
        -11   -1    0    0    0    0  0.00000000000E+00  0.00000000000E+00  0.45593999997E+02  0.45594000000E+02  0.51100000000E-03 0. -1.
         11   -1    0    0    0    0 -0.00000000000E+00 -0.00000000000E+00 -0.45593999997E+02  0.45594000000E+02  0.51100000000E-03 0.  1.
    9900012    2    1    2    0    0 -0.33040243377E+02  0.78814666401E+01  0.27015702667E+02  0.47787269713E+02  0.19999993930E+02 0.  0.
        -12    1    1    2    0    0  0.33040243377E+02 -0.78814666401E+01 -0.27015702667E+02  0.43400730287E+02  0.00000000000E+00 0.  1.
         11    1    3    3    0    0 -0.11311839876E+02  0.38036661168E+01  0.34349728555E+01  0.12418721193E+02  0.51100000000E-03 0. -1.
        -11    1    3    3    0    0 -0.70262918542E+01 -0.30588788068E+01  0.13566315317E+01  0.77824139025E+01  0.51100000000E-03 0.  1.
         12    1    3    3    0    0 -0.14702111647E+02  0.71366793300E+01  0.22224098280E+02  0.27586134617E+02  0.00000000000E+00 0. -1.
</event>
<event>
 7    1  0.4931104E-009  0.4778726E+02  0.7816164E-02  0.1312668E+00
        -11   -1    0    0    0    0  0.00000000000E+00  0.00000000000E+00  0.45593999997E+02  0.45594000000E+02  0.51100000000E-03 0. -1.
         11   -1    0    0    0    0 -0.00000000000E+00 -0.00000000000E+00 -0.45593999997E+02  0.45594000000E+02  0.51100000000E-03 0.  1.
    9900012    2    1    2    0    0  0.18337966872E+02 -0.11773869029E+02  0.37532907800E+02  0.47787260503E+02  0.19999951940E+02 0.  0.
        -12    1    1    2    0    0 -0.18337966872E+02  0.11773869029E+02 -0.37532907800E+02  0.43400739497E+02  0.00000000000E+00 0.  1.
         11    1    3    3    0    0  0.54334891917E+01 -0.45457468897E+01  0.13702724576E+02  0.15425669536E+02  0.51100000000E-03 0. -1.
        -11    1    3    3    0    0  0.14371168588E+02 -0.60760344280E+01  0.10282925375E+02  0.18686552263E+02  0.51100000000E-03 0.  1.
         12    1    3    3    0    0 -0.14666909084E+01 -0.11520877114E+01  0.13547257849E+02  0.13675038704E+02  0.00000000000E+00 0. -1.
</event>
<event>
 7    1  0.4931104E-009  0.4778727E+02  0.7816164E-02  0.1312668E+00
        -11   -1    0    0    0    0  0.00000000000E+00  0.00000000000E+00  0.45593999997E+02  0.45594000000E+02  0.51100000000E-03 0. -1.
         11   -1    0    0    0    0 -0.00000000000E+00 -0.00000000000E+00 -0.45593999997E+02  0.45594000000E+02  0.51100000000E-03 0.  1.
    9900012    2    1    2    0    0  0.24280476343E+02  0.64311994065E+01  0.35393805858E+02  0.47787270163E+02  0.19999995982E+02 0.  0.
        -12    1    1    2    0    0 -0.24280476343E+02 -0.64311994065E+01 -0.35393805858E+02  0.43400729837E+02  0.00000000000E+00 0.  1.
         11    1    3    3    0    0  0.12912702747E+02 -0.13998690834E+01  0.22707244223E+02  0.26159443154E+02  0.51100000000E-03 0. -1.
        -11    1    3    3    0    0  0.72869790712E+01  0.38589150787E+01  0.13556192440E+02  0.15866998560E+02  0.51100000000E-03 0.  1.
        -12    1    3    3    0    0  0.40807945249E+01  0.39721534111E+01 -0.86963080521E+00  0.57608284485E+01  0.00000000000E+00 0.  1.
</event>
<event>
 7    1  0.4931104E-009  0.4778728E+02  0.7816164E-02  0.1312668E+00
        -11   -1    0    0    0    0  0.00000000000E+00  0.00000000000E+00  0.45593999997E+02  0.45594000000E+02  0.51100000000E-03 0.  1.
         11   -1    0    0    0    0 -0.00000000000E+00 -0.00000000000E+00 -0.45593999997E+02  0.45594000000E+02  0.51100000000E-03 0. -1.
    9900012    2    1    2    0    0 -0.17123372009E+02 -0.27617802451E+02 -0.28769253595E+02  0.47787276117E+02  0.20000023126E+02 0.  0.
        -12    1    1    2    0    0  0.17123372009E+02  0.27617802451E+02  0.28769253595E+02  0.43400723883E+02  0.00000000000E+00 0.  1.
         11    1    3    3    0    0 -0.84298753303E+01 -0.82492849711E+01 -0.61807350338E+01  0.13315967349E+02  0.51100000000E-03 0. -1.
        -11    1    3    3    0    0 -0.41897387486E+01 -0.14050941583E+02 -0.48996246210E+01  0.15459275269E+02  0.51100000000E-03 0.  1.
         12    1    3    3    0    0 -0.45037579302E+01 -0.53175758965E+01 -0.17688893940E+02  0.19012033498E+02  0.00000000000E+00 0. -1.
</event>
<event>
 7    1  0.4931104E-009  0.4778727E+02  0.7816164E-02  0.1312668E+00
        -11   -1    0    0    0    0  0.00000000000E+00  0.00000000000E+00  0.45593999997E+02  0.45594000000E+02  0.51100000000E-03 0.  1.
         11   -1    0    0    0    0 -0.00000000000E+00 -0.00000000000E+00 -0.45593999997E+02  0.45594000000E+02  0.51100000000E-03 0. -1.
    9900012    2    1    2    0    0  0.67813215568E+01 -0.39057564887E+02 -0.17667585029E+02  0.47787271231E+02  0.20000000850E+02 0.  0.
        -12    1    1    2    0    0 -0.67813215568E+01  0.39057564887E+02  0.17667585029E+02  0.43400728769E+02  0.00000000000E+00 0.  1.
         11    1    3    3    0    0  0.43512478641E+00 -0.95204700621E+01 -0.87867466852E+01  0.12962854676E+02  0.51100000000E-03 0. -1.
        -11    1    3    3    0    0  0.61071493891E+01 -0.21035258090E+02 -0.12896941122E+02  0.25418702704E+02  0.51100000000E-03 0.  1.
        -12    1    3    3    0    0  0.23904738125E+00 -0.85018367345E+01  0.40161027788E+01  0.94057138507E+01  0.00000000000E+00 0.  1.
</event>
<event>
 7    1  0.4931104E-009  0.4778727E+02  0.7816164E-02  0.1312668E+00
        -11   -1    0    0    0    0  0.00000000000E+00  0.00000000000E+00  0.45593999997E+02  0.45594000000E+02  0.51100000000E-03 0.  1.
         11   -1    0    0    0    0 -0.00000000000E+00 -0.00000000000E+00 -0.45593999997E+02  0.45594000000E+02  0.51100000000E-03 0. -1.
    9900012    2    1    2    0    0 -0.94151383987E+00 -0.10758480132E+02 -0.42035602138E+02  0.47787272009E+02  0.20000004396E+02 0.  0.
        -12    1    1    2    0    0  0.94151383987E+00  0.10758480132E+02  0.42035602138E+02  0.43400727991E+02  0.00000000000E+00 0.  1.
         11    1    3    3    0    0  0.37964098483E+01 -0.65174666968E+01 -0.18511096042E+02  0.19988766266E+02  0.51100000000E-03 0.  1.
        -11    1    3    3    0    0 -0.42518633512E+01 -0.30889240444E+01 -0.25180699161E+02  0.25723285253E+02  0.51100000000E-03 0. -1.
         12    1    3    3    0    0 -0.48606033697E+00 -0.11520893906E+01  0.16561930646E+01  0.20752204901E+01  0.00000000000E+00 0. -1.
</event>
<event>
 7    1  0.4931104E-009  0.4778727E+02  0.7816164E-02  0.1312668E+00
        -11   -1    0    0    0    0  0.00000000000E+00  0.00000000000E+00  0.45593999997E+02  0.45594000000E+02  0.51100000000E-03 0.  1.
         11   -1    0    0    0    0 -0.00000000000E+00 -0.00000000000E+00 -0.45593999997E+02  0.45594000000E+02  0.51100000000E-03 0. -1.
    9900012    2    1    2    0    0 -0.22035417726E+02 -0.26933289133E+02 -0.25935720211E+02  0.47787270965E+02  0.19999999640E+02 0.  0.
        -12    1    1    2    0    0  0.22035417726E+02  0.26933289133E+02  0.25935720211E+02  0.43400729035E+02  0.00000000000E+00 0.  1.
         11    1    3    3    0    0 -0.58537846922E+01 -0.34085927707E+01 -0.43876056011E+01  0.80707114353E+01  0.51100000000E-03 0. -1.
        -11    1    3    3    0    0 -0.97921378439E+01 -0.23608020049E+02 -0.12018966619E+02  0.28243231633E+02  0.51100000000E-03 0.  1.
        -12    1    3    3    0    0 -0.63894951895E+01  0.83323686902E-01 -0.95291479907E+01  0.11473327897E+02  0.00000000000E+00 0.  1.
</event>
<event>
 7    1  0.4931104E-009  0.4778726E+02  0.7816164E-02  0.1312668E+00
        -11   -1    0    0    0    0  0.00000000000E+00  0.00000000000E+00  0.45593999997E+02  0.45594000000E+02  0.51100000000E-03 0. -1.
         11   -1    0    0    0    0 -0.00000000000E+00 -0.00000000000E+00 -0.45593999997E+02  0.45594000000E+02  0.51100000000E-03 0.  1.
    9900012    2    1    2    0    0 -0.42715258023E+02  0.75444437868E+01 -0.14533051145E+01  0.47787262728E+02  0.19999962080E+02 0.  0.
        -12    1    1    2    0    0  0.42715258023E+02 -0.75444437868E+01  0.14533051145E+01  0.43400737272E+02  0.00000000000E+00 0.  1.
         11    1    3    3    0    0 -0.30280139875E+02  0.69608150918E+01  0.28147690043E+01  0.31197159204E+02  0.51100000000E-03 0. -1.
        -11    1    3    3    0    0 -0.68196809362E+01  0.53020917498E+01 -0.30140467427E+01  0.91490274360E+01  0.51100000000E-03 0.  1.
         12    1    3    3    0    0 -0.56154372116E+01 -0.47184630548E+01 -0.12540273760E+01  0.74410760872E+01  0.00000000000E+00 0. -1.
</event>
<event>
 7    1  0.4931104E-009  0.4778727E+02  0.7816164E-02  0.1312668E+00
        -11   -1    0    0    0    0  0.00000000000E+00  0.00000000000E+00  0.45593999997E+02  0.45594000000E+02  0.51100000000E-03 0. -1.
         11   -1    0    0    0    0 -0.00000000000E+00 -0.00000000000E+00 -0.45593999997E+02  0.45594000000E+02  0.51100000000E-03 0.  1.
    9900012    2    1    2    0    0  0.20330180488E+02  0.38039067649E+02  0.48307706971E+01  0.47787271299E+02  0.20000001159E+02 0.  0.
        -12    1    1    2    0    0 -0.20330180488E+02 -0.38039067649E+02 -0.48307706971E+01  0.43400728701E+02  0.00000000000E+00 0.  1.
         11    1    3    3    0    0  0.11227418243E+01  0.32558943812E+01  0.60973826813E+01  0.70028189502E+01  0.51100000000E-03 0. -1.
        -11    1    3    3    0    0  0.44881190215E+01  0.23378071285E+01 -0.98389234965E+00  0.51552496485E+01  0.51100000000E-03 0.  1.
         12    1    3    3    0    0  0.14719319643E+02  0.32445366139E+02 -0.28271963458E+00  0.35629202700E+02  0.00000000000E+00 0. -1.
</event>
<event>
 7    1  0.4931104E-009  0.4778727E+02  0.7816164E-02  0.1312668E+00
        -11   -1    0    0    0    0  0.00000000000E+00  0.00000000000E+00  0.45593999997E+02  0.45594000000E+02  0.51100000000E-03 0. -1.
         11   -1    0    0    0    0 -0.00000000000E+00 -0.00000000000E+00 -0.45593999997E+02  0.45594000000E+02  0.51100000000E-03 0.  1.
    9900012    2    1    2    0    0  0.36726065723E+02  0.58478709979E+01 -0.22374574346E+02  0.47787273326E+02  0.20000010400E+02 0.  0.
        -12    1    1    2    0    0 -0.36726065723E+02 -0.58478709979E+01  0.22374574346E+02  0.43400726674E+02  0.00000000000E+00 0.  1.
         11    1    3    3    0    0  0.24466175087E+02 -0.35906351076E-01 -0.18103370962E+02  0.30435621451E+02  0.51100000000E-03 0. -1.
        -11    1    3    3    0    0  0.17929312730E+01  0.14286572688E+01 -0.54524872033E+01  0.59148356786E+01  0.51100000000E-03 0.  1.
         12    1    3    3    0    0  0.10466959363E+02  0.44551200802E+01  0.11812838194E+01  0.11436816196E+02  0.00000000000E+00 0. -1.
</event>
<event>
 7    1  0.4931104E-009  0.4778727E+02  0.7816164E-02  0.1312668E+00
        -11   -1    0    0    0    0  0.00000000000E+00  0.00000000000E+00  0.45593999997E+02  0.45594000000E+02  0.51100000000E-03 0. -1.
         11   -1    0    0    0    0 -0.00000000000E+00 -0.00000000000E+00 -0.45593999997E+02  0.45594000000E+02  0.51100000000E-03 0.  1.
    9900012    2    1    2    0    0 -0.15581485919E+02  0.81324844213E+01  0.39682535333E+02  0.47787267094E+02  0.19999981988E+02 0.  0.
        -12    1    1    2    0    0  0.15581485919E+02 -0.81324844213E+01 -0.39682535333E+02  0.43400732906E+02  0.00000000000E+00 0.  1.
         11    1    3    3    0    0 -0.21622285098E+01  0.31185037220E+01  0.61649212789E+01  0.72392369922E+01  0.51100000000E-03 0. -1.
        -11    1    3    3    0    0 -0.56784225993E+01  0.40437128015E+01  0.92196760998E+00  0.70317935815E+01  0.51100000000E-03 0.  1.
         12    1    3    3    0    0 -0.77408348103E+01  0.97026789780E+00  0.32595646444E+02  0.33516236520E+02  0.00000000000E+00 0. -1.
</event>
<event>
 7    1  0.4931104E-009  0.4778727E+02  0.7816164E-02  0.1312668E+00
        -11   -1    0    0    0    0  0.00000000000E+00  0.00000000000E+00  0.45593999997E+02  0.45594000000E+02  0.51100000000E-03 0.  1.
         11   -1    0    0    0    0 -0.00000000000E+00 -0.00000000000E+00 -0.45593999997E+02  0.45594000000E+02  0.51100000000E-03 0. -1.
    9900012    2    1    2    0    0  0.26162462483E+02 -0.14536214881E+02 -0.31430043130E+02  0.47787267317E+02  0.19999983007E+02 0.  0.
        -12    1    1    2    0    0 -0.26162462483E+02  0.14536214881E+02  0.31430043130E+02  0.43400732683E+02  0.00000000000E+00 0.  1.
         11    1    3    3    0    0  0.18132901773E+01 -0.10555226436E+01 -0.10219152518E+02  0.10432316510E+02  0.51100000000E-03 0. -1.
        -11    1    3    3    0    0  0.62475457979E+01 -0.95575695904E+01 -0.12359835409E+02  0.16826898008E+02  0.51100000000E-03 0.  1.
        -12    1    3    3    0    0  0.18101626508E+02 -0.39231226469E+01 -0.88510552030E+01  0.20528052799E+02  0.00000000000E+00 0.  1.
</event>
<event>
 7    1  0.4931104E-009  0.4778727E+02  0.7816164E-02  0.1312668E+00
        -11   -1    0    0    0    0  0.00000000000E+00  0.00000000000E+00  0.45593999997E+02  0.45594000000E+02  0.51100000000E-03 0.  1.
         11   -1    0    0    0    0 -0.00000000000E+00 -0.00000000000E+00 -0.45593999997E+02  0.45594000000E+02  0.51100000000E-03 0. -1.
    9900012    2    1    2    0    0  0.37321116113E+02 -0.21901851901E+02 -0.33266383234E+01  0.47787270200E+02  0.19999996150E+02 0.  0.
        -12    1    1    2    0    0 -0.37321116113E+02  0.21901851901E+02  0.33266383234E+01  0.43400729800E+02  0.00000000000E+00 0.  1.
         11    1    3    3    0    0  0.25135860764E+02 -0.11225061321E+02 -0.11850635575E+01  0.27553908505E+02  0.51100000000E-03 0. -1.
        -11    1    3    3    0    0  0.73683980469E+01  0.10436036714E+01 -0.10342432540E+01  0.75134584427E+01  0.51100000000E-03 0.  1.
         12    1    3    3    0    0  0.48168573027E+01 -0.11720394251E+02 -0.11073315119E+01  0.12719903252E+02  0.00000000000E+00 0. -1.
</event>
<event>
 7    1  0.4931104E-009  0.4778727E+02  0.7816164E-02  0.1312668E+00
        -11   -1    0    0    0    0  0.00000000000E+00  0.00000000000E+00  0.45593999997E+02  0.45594000000E+02  0.51100000000E-03 0. -1.
         11   -1    0    0    0    0 -0.00000000000E+00 -0.00000000000E+00 -0.45593999997E+02  0.45594000000E+02  0.51100000000E-03 0.  1.
    9900012    2    1    2    0    0 -0.38345466205E+02  0.67528504941E+01  0.19174137310E+02  0.47787270630E+02  0.19999998109E+02 0.  0.
        -12    1    1    2    0    0  0.38345466205E+02 -0.67528504941E+01 -0.19174137310E+02  0.43400729370E+02  0.00000000000E+00 0.  1.
         11    1    3    3    0    0 -0.23740520585E+01  0.40975949907E+01  0.25339001524E+01  0.53709457387E+01  0.51100000000E-03 0. -1.
        -11    1    3    3    0    0 -0.69875121647E+01 -0.27776950684E+01 -0.16737804640E+01  0.77034055746E+01  0.51100000000E-03 0.  1.
         12    1    3    3    0    0 -0.28983901982E+02  0.54329505718E+01  0.18314017622E+02  0.34712919316E+02  0.00000000000E+00 0. -1.
</event>
<event>
 7    1  0.4931104E-009  0.4778727E+02  0.7816164E-02  0.1312668E+00
        -11   -1    0    0    0    0  0.00000000000E+00  0.00000000000E+00  0.45593999997E+02  0.45594000000E+02  0.51100000000E-03 0.  1.
         11   -1    0    0    0    0 -0.00000000000E+00 -0.00000000000E+00 -0.45593999997E+02  0.45594000000E+02  0.51100000000E-03 0. -1.
    9900012    2    1    2    0    0  0.34878389146E+01  0.17397113990E+02 -0.39608060409E+02  0.47787273684E+02  0.20000012033E+02 0.  0.
        -12    1    1    2    0    0 -0.34878389146E+01 -0.17397113990E+02  0.39608060409E+02  0.43400726316E+02  0.00000000000E+00 0.  1.
         11    1    3    3    0    0  0.90033841268E+01  0.18126229559E+01 -0.12789872186E+02  0.15745709210E+02  0.51100000000E-03 0. -1.
        -11    1    3    3    0    0 -0.10073290996E+01  0.17099738330E+01 -0.66209612712E+00  0.20921505603E+01  0.51100000000E-03 0.  1.
         12    1    3    3    0    0 -0.45082161125E+01  0.13874517201E+02 -0.26156092095E+02  0.29949413914E+02  0.00000000000E+00 0. -1.
</event>
<event>
 7    1  0.4931104E-009  0.4778727E+02  0.7816164E-02  0.1312668E+00
        -11   -1    0    0    0    0  0.00000000000E+00  0.00000000000E+00  0.45593999997E+02  0.45594000000E+02  0.51100000000E-03 0. -1.
         11   -1    0    0    0    0 -0.00000000000E+00 -0.00000000000E+00 -0.45593999997E+02  0.45594000000E+02  0.51100000000E-03 0.  1.
    9900012    2    1    2    0    0  0.19331191866E+02  0.38406931152E+02 -0.59021685997E+01  0.47787274964E+02  0.20000017869E+02 0.  0.
        -12    1    1    2    0    0 -0.19331191866E+02 -0.38406931152E+02  0.59021685997E+01  0.43400725036E+02  0.00000000000E+00 0.  1.
         11    1    3    3    0    0  0.59196470612E+01  0.29076597964E+01 -0.78674454473E-01  0.65956725777E+01  0.51100000000E-03 0. -1.
        -11    1    3    3    0    0 -0.16081297439E+00  0.31942975746E+00 -0.33869726764E+01  0.34058009858E+01  0.51100000000E-03 0.  1.
         12    1    3    3    0    0  0.13572357779E+02  0.35179841598E+02 -0.24365214688E+01  0.37785801400E+02  0.00000000000E+00 0. -1.
</event>
<event>
 7    1  0.4931104E-009  0.4778726E+02  0.7816164E-02  0.1312668E+00
        -11   -1    0    0    0    0  0.00000000000E+00  0.00000000000E+00  0.45593999997E+02  0.45594000000E+02  0.51100000000E-03 0.  1.
         11   -1    0    0    0    0 -0.00000000000E+00 -0.00000000000E+00 -0.45593999997E+02  0.45594000000E+02  0.51100000000E-03 0. -1.
    9900012    2    1    2    0    0 -0.29476716926E+02 -0.21359285663E+02 -0.23633195693E+02  0.47787264253E+02  0.19999969034E+02 0.  0.
        -12    1    1    2    0    0  0.29476716926E+02  0.21359285663E+02  0.23633195693E+02  0.43400735747E+02  0.00000000000E+00 0.  1.
         11    1    3    3    0    0 -0.13149606215E+02 -0.16870286873E+02 -0.11763551735E+02  0.24411060453E+02  0.51100000000E-03 0. -1.
        -11    1    3    3    0    0 -0.10391630145E+01 -0.14812616578E+01 -0.67305942010E+01  0.69695691710E+01  0.51100000000E-03 0.  1.
        -12    1    3    3    0    0 -0.15287947696E+02 -0.30077371324E+01 -0.51390497569E+01  0.16406634628E+02  0.00000000000E+00 0.  1.
</event>
<event>
 7    1  0.4931104E-009  0.4778727E+02  0.7816164E-02  0.1312668E+00
        -11   -1    0    0    0    0  0.00000000000E+00  0.00000000000E+00  0.45593999997E+02  0.45594000000E+02  0.51100000000E-03 0.  1.
         11   -1    0    0    0    0 -0.00000000000E+00 -0.00000000000E+00 -0.45593999997E+02  0.45594000000E+02  0.51100000000E-03 0. -1.
    9900012    2    1    2    0    0 -0.35593788110E+02 -0.25470122243E+01 -0.24702593386E+02  0.47787272549E+02  0.20000006861E+02 0.  0.
        -12    1    1    2    0    0  0.35593788110E+02  0.25470122243E+01  0.24702593386E+02  0.43400727451E+02  0.00000000000E+00 0.  1.
         11    1    3    3    0    0 -0.20167986302E+02 -0.29839387849E+01 -0.13619987360E+02  0.24518475036E+02  0.51100000000E-03 0. -1.
        -11    1    3    3    0    0 -0.12289750815E+02  0.31546984872E+01 -0.14381464103E+01  0.12769430801E+02  0.51100000000E-03 0.  1.
         12    1    3    3    0    0 -0.31360509934E+01 -0.27177719266E+01 -0.96444596151E+01  0.10499366712E+02  0.00000000000E+00 0. -1.
</event>
<event>
 7    1  0.5448556E-009  0.4778728E+02  0.7816164E-02  0.1312668E+00
        -11   -1    0    0    0    0  0.00000000000E+00  0.00000000000E+00  0.45593999997E+02  0.45594000000E+02  0.51100000000E-03 0.  1.
         11   -1    0    0    0    0 -0.00000000000E+00 -0.00000000000E+00 -0.45593999997E+02  0.45594000000E+02  0.51100000000E-03 0. -1.
    9900012    2    1    2    0    0  0.41748718713E+02 -0.10373939631E+02  0.57487486877E+01  0.47787282850E+02  0.20000053826E+02 0.  0.
        -12    1    1    2    0    0 -0.41748718713E+02  0.10373939631E+02 -0.57487486877E+01  0.43400717150E+02  0.00000000000E+00 0.  1.
         11    1    3    3    0    0  0.19961005754E+02 -0.49177973712E+01  0.10806756328E+01  0.20586265853E+02  0.51100000000E-03 0. -1.
        -11    1    3    3    0    0  0.13485271202E+02 -0.76149721753E+01  0.86551103319E+01  0.17741230953E+02  0.51100000000E-03 0.  1.
        -12    1    3    3    0    0  0.83024417581E+01  0.21588299154E+01 -0.39870372771E+01  0.94597860441E+01  0.00000000000E+00 0.  1.
</event>
<event>
 7    1  0.4931104E-009  0.4778728E+02  0.7816164E-02  0.1312668E+00
        -11   -1    0    0    0    0  0.00000000000E+00  0.00000000000E+00  0.45593999997E+02  0.45594000000E+02  0.51100000000E-03 0.  1.
         11   -1    0    0    0    0 -0.00000000000E+00 -0.00000000000E+00 -0.45593999997E+02  0.45594000000E+02  0.51100000000E-03 0. -1.
    9900012    2    1    2    0    0 -0.15781192285E+02  0.33291608878E+02 -0.22940038880E+02  0.47787278399E+02  0.20000033533E+02 0.  0.
        -12    1    1    2    0    0  0.15781192285E+02 -0.33291608878E+02  0.22940038880E+02  0.43400721601E+02  0.00000000000E+00 0.  1.
         11    1    3    3    0    0 -0.82761068415E+01  0.12200551553E+02 -0.78656421795E+01  0.16709749544E+02  0.51100000000E-03 0. -1.
        -11    1    3    3    0    0 -0.13643791437E+01  0.15011417068E+02 -0.17198287690E+01  0.15171090405E+02  0.51100000000E-03 0.  1.
         12    1    3    3    0    0 -0.61407063001E+01  0.60796402574E+01 -0.13354567932E+02  0.15906438450E+02  0.00000000000E+00 0. -1.
</event>
<event>
 7    1  0.4931104E-009  0.4778727E+02  0.7816164E-02  0.1312668E+00
        -11   -1    0    0    0    0  0.00000000000E+00  0.00000000000E+00  0.45593999997E+02  0.45594000000E+02  0.51100000000E-03 0.  1.
         11   -1    0    0    0    0 -0.00000000000E+00 -0.00000000000E+00 -0.45593999997E+02  0.45594000000E+02  0.51100000000E-03 0. -1.
    9900012    2    1    2    0    0 -0.44809875105E+01 -0.37393505614E+02 -0.21570114783E+02  0.47787270019E+02  0.19999995323E+02 0.  0.
        -12    1    1    2    0    0  0.44809875105E+01  0.37393505614E+02  0.21570114783E+02  0.43400729981E+02  0.00000000000E+00 0.  1.
         11    1    3    3    0    0 -0.32384880005E+01 -0.16563565052E+02 -0.12392372669E+02  0.20938251894E+02  0.51100000000E-03 0. -1.
        -11    1    3    3    0    0 -0.28685491500E+01 -0.22403259081E+02 -0.68481948730E+01  0.23601533106E+02  0.51100000000E-03 0.  1.
        -12    1    3    3    0    0  0.16260496400E+01  0.15733185192E+01 -0.23295472409E+01  0.32474850180E+01  0.00000000000E+00 0.  1.
</event>
<event>
 7    1  0.4931104E-009  0.4778727E+02  0.7816164E-02  0.1312668E+00
        -11   -1    0    0    0    0  0.00000000000E+00  0.00000000000E+00  0.45593999997E+02  0.45594000000E+02  0.51100000000E-03 0. -1.
         11   -1    0    0    0    0 -0.00000000000E+00 -0.00000000000E+00 -0.45593999997E+02  0.45594000000E+02  0.51100000000E-03 0.  1.
    9900012    2    1    2    0    0 -0.80305086004E+01  0.48516283900E+00  0.42648549783E+02  0.47787271320E+02  0.20000001256E+02 0.  0.
        -12    1    1    2    0    0  0.80305086004E+01 -0.48516283900E+00 -0.42648549783E+02  0.43400728680E+02  0.00000000000E+00 0.  1.
         11    1    3    3    0    0 -0.26239771529E+01 -0.52581320597E+01  0.64925581695E+01  0.87570840296E+01  0.51100000000E-03 0. -1.
        -11    1    3    3    0    0 -0.53963299247E+01 -0.21274139403E+01  0.86087229359E+01  0.10380576939E+02  0.51100000000E-03 0.  1.
         12    1    3    3    0    0 -0.10201522760E-01  0.78707088390E+01  0.27547268678E+02  0.28649610352E+02  0.00000000000E+00 0. -1.
</event>
<event>
 7    1  0.4931104E-009  0.4778727E+02  0.7816164E-02  0.1312668E+00
        -11   -1    0    0    0    0  0.00000000000E+00  0.00000000000E+00  0.45593999997E+02  0.45594000000E+02  0.51100000000E-03 0. -1.
         11   -1    0    0    0    0 -0.00000000000E+00 -0.00000000000E+00 -0.45593999997E+02  0.45594000000E+02  0.51100000000E-03 0.  1.
    9900012    2    1    2    0    0  0.10446576972E+02  0.39693504963E+02 -0.14103833005E+02  0.47787269452E+02  0.19999992739E+02 0.  0.
        -12    1    1    2    0    0 -0.10446576972E+02 -0.39693504963E+02  0.14103833005E+02  0.43400730548E+02  0.00000000000E+00 0.  1.
         11    1    3    3    0    0  0.50123217298E+01  0.22118915587E+02 -0.11715434540E+02  0.25526872166E+02  0.51100000000E-03 0. -1.
        -11    1    3    3    0    0  0.70465137280E+01  0.70000255138E+01 -0.51846177149E+01  0.11204194483E+02  0.51100000000E-03 0.  1.
        -12    1    3    3    0    0 -0.16122584859E+01  0.10574563862E+02  0.27962192506E+01  0.11056202802E+02  0.00000000000E+00 0.  1.
</event>
<event>
 7    1  0.4931104E-009  0.4778727E+02  0.7816164E-02  0.1312668E+00
        -11   -1    0    0    0    0  0.00000000000E+00  0.00000000000E+00  0.45593999997E+02  0.45594000000E+02  0.51100000000E-03 0.  1.
         11   -1    0    0    0    0 -0.00000000000E+00 -0.00000000000E+00 -0.45593999997E+02  0.45594000000E+02  0.51100000000E-03 0. -1.
    9900012    2    1    2    0    0 -0.36742702855E+02  0.22343027673E+02  0.58639902376E+01  0.47787268667E+02  0.19999989162E+02 0.  0.
        -12    1    1    2    0    0  0.36742702855E+02 -0.22343027673E+02 -0.58639902376E+01  0.43400731333E+02  0.00000000000E+00 0.  1.
         11    1    3    3    0    0 -0.22975533457E+02  0.15916041535E+02 -0.44459700417E+00  0.27953410928E+02  0.51100000000E-03 0. -1.
        -11    1    3    3    0    0 -0.14070904645E+02  0.22038645674E+01  0.63636525933E+01  0.15599469579E+02  0.51100000000E-03 0.  1.
        -12    1    3    3    0    0  0.30373524646E+00  0.42231215703E+01 -0.55065351546E-01  0.42343881601E+01  0.00000000000E+00 0.  1.
</event>
<event>
 7    1  0.4931104E-009  0.4778727E+02  0.7816164E-02  0.1312668E+00
        -11   -1    0    0    0    0  0.00000000000E+00  0.00000000000E+00  0.45593999997E+02  0.45594000000E+02  0.51100000000E-03 0.  1.
         11   -1    0    0    0    0 -0.00000000000E+00 -0.00000000000E+00 -0.45593999997E+02  0.45594000000E+02  0.51100000000E-03 0. -1.
    9900012    2    1    2    0    0  0.31006581003E+02 -0.17214925168E+02 -0.25017230669E+02  0.47787267928E+02  0.19999985790E+02 0.  0.
        -12    1    1    2    0    0 -0.31006581003E+02  0.17214925168E+02  0.25017230669E+02  0.43400732072E+02  0.00000000000E+00 0.  1.
         11    1    3    3    0    0  0.20375810785E+02 -0.39524329928E+01 -0.17008205438E+02  0.26834202880E+02  0.51100000000E-03 0. -1.
        -11    1    3    3    0    0  0.94654176713E+01 -0.97306315197E+01 -0.98801216345E+01  0.16789762513E+02  0.51100000000E-03 0.  1.
        -12    1    3    3    0    0  0.11653525470E+01 -0.35318606553E+01  0.18710964037E+01  0.41633025351E+01  0.00000000000E+00 0.  1.
</event>
<event>
 7    1  0.4931104E-009  0.4778727E+02  0.7816164E-02  0.1312668E+00
        -11   -1    0    0    0    0  0.00000000000E+00  0.00000000000E+00  0.45593999997E+02  0.45594000000E+02  0.51100000000E-03 0.  1.
         11   -1    0    0    0    0 -0.00000000000E+00 -0.00000000000E+00 -0.45593999997E+02  0.45594000000E+02  0.51100000000E-03 0. -1.
    9900012    2    1    2    0    0 -0.34457946351E+02  0.24908294546E+02 -0.87092054249E+01  0.47787268865E+02  0.19999990064E+02 0.  0.
        -12    1    1    2    0    0  0.34457946351E+02 -0.24908294546E+02  0.87092054249E+01  0.43400731135E+02  0.00000000000E+00 0.  1.
         11    1    3    3    0    0 -0.13670727671E+01  0.32848231636E+01  0.15108242784E+01  0.38654290096E+01  0.51100000000E-03 0. -1.
        -11    1    3    3    0    0 -0.26754413959E+01  0.76459590927E+01  0.19024599079E+01  0.83209393143E+01  0.51100000000E-03 0.  1.
         12    1    3    3    0    0 -0.30415432188E+02  0.13977512290E+02 -0.12122489611E+02  0.35600900541E+02  0.00000000000E+00 0. -1.
</event>
<event>
 7    1  0.4931104E-009  0.4778727E+02  0.7816164E-02  0.1312668E+00
        -11   -1    0    0    0    0  0.00000000000E+00  0.00000000000E+00  0.45593999997E+02  0.45594000000E+02  0.51100000000E-03 0. -1.
         11   -1    0    0    0    0 -0.00000000000E+00 -0.00000000000E+00 -0.45593999997E+02  0.45594000000E+02  0.51100000000E-03 0.  1.
    9900012    2    1    2    0    0  0.36898678230E+00 -0.11287964292E+02  0.41905477011E+02  0.47787270829E+02  0.19999999018E+02 0.  0.
        -12    1    1    2    0    0 -0.36898678230E+00  0.11287964292E+02 -0.41905477011E+02  0.43400729171E+02  0.00000000000E+00 0.  1.
         11    1    3    3    0    0 -0.87229482112E+00 -0.96172973063E+01  0.21479925856E+02  0.23550807221E+02  0.51100000000E-03 0. -1.
        -11    1    3    3    0    0  0.43310994288E+01 -0.16832562355E+01  0.20623298887E+02  0.21140298746E+02  0.51100000000E-03 0.  1.
        -12    1    3    3    0    0 -0.30898178254E+01  0.12589250355E-01 -0.19774773304E+00  0.30961648614E+01  0.00000000000E+00 0.  1.
</event>
<event>
 7    1  0.4931104E-009  0.4778727E+02  0.7816164E-02  0.1312668E+00
        -11   -1    0    0    0    0  0.00000000000E+00  0.00000000000E+00  0.45593999997E+02  0.45594000000E+02  0.51100000000E-03 0.  1.
         11   -1    0    0    0    0 -0.00000000000E+00 -0.00000000000E+00 -0.45593999997E+02  0.45594000000E+02  0.51100000000E-03 0. -1.
    9900012    2    1    2    0    0  0.50016446327E+01  0.24110068097E+02 -0.35739493145E+02  0.47787271862E+02  0.20000003727E+02 0.  0.
        -12    1    1    2    0    0 -0.50016446327E+01 -0.24110068097E+02  0.35739493145E+02  0.43400728138E+02  0.00000000000E+00 0.  1.
         11    1    3    3    0    0  0.44892134047E+00 -0.16063025906E+01 -0.14695524096E+01  0.22229086639E+01  0.51100000000E-03 0.  1.
        -11    1    3    3    0    0  0.28900964767E+01  0.11300708064E+02 -0.26832505551E+02  0.29258195686E+02  0.51100000000E-03 0. -1.
        -12    1    3    3    0    0  0.16626268155E+01  0.14415662624E+02 -0.74374351841E+01  0.16306167512E+02  0.00000000000E+00 0.  1.
</event>
<event>
 7    1  0.4931104E-009  0.4778727E+02  0.7816164E-02  0.1312668E+00
        -11   -1    0    0    0    0  0.00000000000E+00  0.00000000000E+00  0.45593999997E+02  0.45594000000E+02  0.51100000000E-03 0.  1.
         11   -1    0    0    0    0 -0.00000000000E+00 -0.00000000000E+00 -0.45593999997E+02  0.45594000000E+02  0.51100000000E-03 0. -1.
    9900012    2    1    2    0    0  0.24604706930E+02 -0.28283838376E+01 -0.35640314763E+02  0.47787269653E+02  0.19999993654E+02 0.  0.
        -12    1    1    2    0    0 -0.24604706930E+02  0.28283838376E+01  0.35640314763E+02  0.43400730347E+02  0.00000000000E+00 0.  1.
         11    1    3    3    0    0  0.17006192390E+02  0.38616102472E+01 -0.26939566097E+02  0.32091476050E+02  0.51100000000E-03 0. -1.
        -11    1    3    3    0    0  0.41909514746E+00 -0.76653212773E-01 -0.53627716429E+01  0.53796688014E+01  0.51100000000E-03 0.  1.
        -12    1    3    3    0    0  0.71794193925E+01 -0.66133408721E+01 -0.33379770239E+01  0.10316124801E+02  0.00000000000E+00 0.  1.
</event>
<event>
 7    1  0.4931104E-009  0.4778727E+02  0.7816164E-02  0.1312668E+00
        -11   -1    0    0    0    0  0.00000000000E+00  0.00000000000E+00  0.45593999997E+02  0.45594000000E+02  0.51100000000E-03 0.  1.
         11   -1    0    0    0    0 -0.00000000000E+00 -0.00000000000E+00 -0.45593999997E+02  0.45594000000E+02  0.51100000000E-03 0. -1.
    9900012    2    1    2    0    0 -0.46341513534E+01 -0.32430434189E+01 -0.43030578836E+02  0.47787269542E+02  0.19999993148E+02 0.  0.
        -12    1    1    2    0    0  0.46341513534E+01  0.32430434189E+01  0.43030578836E+02  0.43400730458E+02  0.00000000000E+00 0.  1.
         11    1    3    3    0    0 -0.10091736114E+01  0.86935198338E+00 -0.23467355368E+02  0.23505126515E+02  0.51100000000E-03 0. -1.
        -11    1    3    3    0    0 -0.47325541778E+01  0.77338415199E+00 -0.18564477262E+02  0.19173810481E+02  0.51100000000E-03 0.  1.
        -12    1    3    3    0    0  0.11075764358E+01 -0.48857795542E+01 -0.99874620559E+00  0.51083325456E+01  0.00000000000E+00 0.  1.
</event>
<event>
 7    1  0.4931104E-009  0.4778728E+02  0.7816164E-02  0.1312668E+00
        -11   -1    0    0    0    0  0.00000000000E+00  0.00000000000E+00  0.45593999997E+02  0.45594000000E+02  0.51100000000E-03 0.  1.
         11   -1    0    0    0    0 -0.00000000000E+00 -0.00000000000E+00 -0.45593999997E+02  0.45594000000E+02  0.51100000000E-03 0. -1.
    9900012    2    1    2    0    0  0.44752474351E+00 -0.34927949038E+02 -0.25757728669E+02  0.47787280091E+02  0.20000041247E+02 0.  0.
        -12    1    1    2    0    0 -0.44752474351E+00  0.34927949038E+02  0.25757728669E+02  0.43400719909E+02  0.00000000000E+00 0.  1.
         11    1    3    3    0    0 -0.44054177033E+01 -0.15506976064E+02 -0.10070902348E+02  0.19007816449E+02  0.51100000000E-03 0. -1.
        -11    1    3    3    0    0  0.30442314911E+01 -0.13040777880E+02 -0.17374636399E+02  0.21936435977E+02  0.51100000000E-03 0.  1.
        -12    1    3    3    0    0  0.18087109558E+01 -0.63801950949E+01  0.16878100787E+01  0.68430276656E+01  0.00000000000E+00 0.  1.
</event>
<event>
 7    1  0.4931104E-009  0.4778727E+02  0.7816164E-02  0.1312668E+00
        -11   -1    0    0    0    0  0.00000000000E+00  0.00000000000E+00  0.45593999997E+02  0.45594000000E+02  0.51100000000E-03 0.  1.
         11   -1    0    0    0    0 -0.00000000000E+00 -0.00000000000E+00 -0.45593999997E+02  0.45594000000E+02  0.51100000000E-03 0. -1.
    9900012    2    1    2    0    0 -0.28921965901E+02  0.28970122581E+02 -0.14417870065E+02  0.47787273150E+02  0.20000009600E+02 0.  0.
        -12    1    1    2    0    0  0.28921965901E+02 -0.28970122581E+02  0.14417870065E+02  0.43400726850E+02  0.00000000000E+00 0.  1.
         11    1    3    3    0    0 -0.24427732085E+01  0.33165686712E+01  0.89839398829E+00  0.42159080539E+01  0.51100000000E-03 0. -1.
        -11    1    3    3    0    0  0.25026939331E+01  0.28587824034E+01 -0.49356095664E+00  0.38314118066E+01  0.51100000000E-03 0.  1.
         12    1    3    3    0    0 -0.28981886625E+02  0.22794771506E+02 -0.14822703097E+02  0.39739953290E+02  0.00000000000E+00 0. -1.
</event>
<event>
 7    1  0.4931104E-009  0.4778728E+02  0.7816164E-02  0.1312668E+00
        -11   -1    0    0    0    0  0.00000000000E+00  0.00000000000E+00  0.45593999997E+02  0.45594000000E+02  0.51100000000E-03 0.  1.
         11   -1    0    0    0    0 -0.00000000000E+00 -0.00000000000E+00 -0.45593999997E+02  0.45594000000E+02  0.51100000000E-03 0. -1.
    9900012    2    1    2    0    0 -0.28445876111E+02 -0.12915742648E+02 -0.30127041905E+02  0.47787275009E+02  0.20000018074E+02 0.  0.
        -12    1    1    2    0    0  0.28445876111E+02  0.12915742648E+02  0.30127041905E+02  0.43400724991E+02  0.00000000000E+00 0.  1.
         11    1    3    3    0    0 -0.19523040951E+02 -0.14241606590E+02 -0.23255004380E+02  0.33537556787E+02  0.51100000000E-03 0. -1.
        -11    1    3    3    0    0 -0.60503312779E+01 -0.10490421854E+01 -0.82426787204E+01  0.10278557818E+02  0.51100000000E-03 0.  1.
        -12    1    3    3    0    0 -0.28725038814E+01  0.23749061273E+01  0.13706411955E+01  0.39711604034E+01  0.00000000000E+00 0.  1.
</event>
<event>
 7    1  0.4931104E-009  0.4778727E+02  0.7816164E-02  0.1312668E+00
        -11   -1    0    0    0    0  0.00000000000E+00  0.00000000000E+00  0.45593999997E+02  0.45594000000E+02  0.51100000000E-03 0.  1.
         11   -1    0    0    0    0 -0.00000000000E+00 -0.00000000000E+00 -0.45593999997E+02  0.45594000000E+02  0.51100000000E-03 0. -1.
    9900012    2    1    2    0    0  0.76764468750E+01  0.37466595740E+01 -0.42551826174E+02  0.47787271834E+02  0.20000003600E+02 0.  0.
        -12    1    1    2    0    0 -0.76764468750E+01 -0.37466595740E+01  0.42551826174E+02  0.43400728166E+02  0.00000000000E+00 0.  1.
         11    1    3    3    0    0  0.27272478884E+01  0.11100261883E+01 -0.13419605583E+01  0.32358766331E+01  0.51100000000E-03 0. -1.
        -11    1    3    3    0    0  0.58396583426E+01 -0.38921889265E+01 -0.77767855104E+01  0.10475167652E+02  0.51100000000E-03 0.  1.
         12    1    3    3    0    0 -0.89045935600E+00  0.65288223121E+01 -0.33433080105E+02  0.34076227549E+02  0.00000000000E+00 0. -1.
</event>
<event>
 7    1  0.4931104E-009  0.4778727E+02  0.7816164E-02  0.1312668E+00
        -11   -1    0    0    0    0  0.00000000000E+00  0.00000000000E+00  0.45593999997E+02  0.45594000000E+02  0.51100000000E-03 0.  1.
         11   -1    0    0    0    0 -0.00000000000E+00 -0.00000000000E+00 -0.45593999997E+02  0.45594000000E+02  0.51100000000E-03 0. -1.
    9900012    2    1    2    0    0 -0.32557194435E+01 -0.31483707211E+02 -0.29695115034E+02  0.47787269756E+02  0.19999994126E+02 0.  0.
        -12    1    1    2    0    0  0.32557194435E+01  0.31483707211E+02  0.29695115034E+02  0.43400730244E+02  0.00000000000E+00 0.  1.
         11    1    3    3    0    0 -0.14626590216E+01 -0.96260685970E+01 -0.75668195884E+01  0.12331152703E+02  0.51100000000E-03 0. -1.
        -11    1    3    3    0    0  0.44667397641E+01 -0.20810612878E+02 -0.15938834466E+02  0.26590972470E+02  0.51100000000E-03 0.  1.
         12    1    3    3    0    0 -0.62598001859E+01 -0.10470257353E+01 -0.61894609797E+01  0.88651445830E+01  0.00000000000E+00 0. -1.
</event>
<event>
 7    1  0.4931104E-009  0.4778727E+02  0.7816164E-02  0.1312668E+00
        -11   -1    0    0    0    0  0.00000000000E+00  0.00000000000E+00  0.45593999997E+02  0.45594000000E+02  0.51100000000E-03 0. -1.
         11   -1    0    0    0    0 -0.00000000000E+00 -0.00000000000E+00 -0.45593999997E+02  0.45594000000E+02  0.51100000000E-03 0.  1.
    9900012    2    1    2    0    0 -0.57174567899E+01  0.37271462136E+02  0.21488890051E+02  0.47787267316E+02  0.19999983000E+02 0.  0.
        -12    1    1    2    0    0  0.57174567899E+01 -0.37271462136E+02 -0.21488890051E+02  0.43400732684E+02  0.00000000000E+00 0.  1.
         11    1    3    3    0    0 -0.17490180632E+01  0.64174073489E+01  0.35569679666E+01  0.75428245800E+01  0.51100000000E-03 0. -1.
        -11    1    3    3    0    0 -0.48862987994E+01  0.36714429397E+01 -0.21031762303E+01  0.64636491035E+01  0.51100000000E-03 0.  1.
         12    1    3    3    0    0  0.91786007265E+00  0.27182611847E+02  0.20035098315E+02  0.33780793632E+02  0.00000000000E+00 0. -1.
</event>
<event>
 7    1  0.4931104E-009  0.4778727E+02  0.7816164E-02  0.1312668E+00
        -11   -1    0    0    0    0  0.00000000000E+00  0.00000000000E+00  0.45593999997E+02  0.45594000000E+02  0.51100000000E-03 0.  1.
         11   -1    0    0    0    0 -0.00000000000E+00 -0.00000000000E+00 -0.45593999997E+02  0.45594000000E+02  0.51100000000E-03 0. -1.
    9900012    2    1    2    0    0 -0.27001599114E+02 -0.17376096626E+02 -0.29199458783E+02  0.47787268648E+02  0.19999989073E+02 0.  0.
        -12    1    1    2    0    0  0.27001599114E+02  0.17376096626E+02  0.29199458783E+02  0.43400731352E+02  0.00000000000E+00 0.  1.
         11    1    3    3    0    0 -0.67500598476E+01 -0.62680171406E+01 -0.71959653136E+01  0.11689023222E+02  0.51100000000E-03 0. -1.
        -11    1    3    3    0    0  0.10281948097E+01 -0.68343284431E+01 -0.54471266081E+01  0.87997964965E+01  0.51100000000E-03 0.  1.
         12    1    3    3    0    0 -0.21279734076E+02 -0.42737510425E+01 -0.16556366861E+02  0.27298448930E+02  0.00000000000E+00 0. -1.
</event>
<event>
 7    1  0.4931104E-009  0.4778726E+02  0.7816164E-02  0.1312668E+00
        -11   -1    0    0    0    0  0.00000000000E+00  0.00000000000E+00  0.45593999997E+02  0.45594000000E+02  0.51100000000E-03 0.  1.
         11   -1    0    0    0    0 -0.00000000000E+00 -0.00000000000E+00 -0.45593999997E+02  0.45594000000E+02  0.51100000000E-03 0. -1.
    9900012    2    1    2    0    0 -0.14654319468E+02  0.25013035225E+01 -0.40775215745E+02  0.47787264782E+02  0.19999971446E+02 0.  0.
        -12    1    1    2    0    0  0.14654319468E+02 -0.25013035225E+01  0.40775215745E+02  0.43400735218E+02  0.00000000000E+00 0.  1.
         11    1    3    3    0    0 -0.39266418998E+01  0.45030211965E+01 -0.26067952340E+02  0.26743856415E+02  0.51100000000E-03 0. -1.
        -11    1    3    3    0    0 -0.30420402657E+01  0.17475355904E+01 -0.11310516537E+02  0.11842114431E+02  0.51100000000E-03 0.  1.
         12    1    3    3    0    0 -0.76856373028E+01 -0.37492532644E+01 -0.33967468691E+01  0.92012939353E+01  0.00000000000E+00 0. -1.
</event>
<event>
 7    1  0.4931104E-009  0.4778727E+02  0.7816164E-02  0.1312668E+00
        -11   -1    0    0    0    0  0.00000000000E+00  0.00000000000E+00  0.45593999997E+02  0.45594000000E+02  0.51100000000E-03 0.  1.
         11   -1    0    0    0    0 -0.00000000000E+00 -0.00000000000E+00 -0.45593999997E+02  0.45594000000E+02  0.51100000000E-03 0. -1.
    9900012    2    1    2    0    0  0.79356166892E+01  0.16736534549E+00 -0.42668743276E+02  0.47787266410E+02  0.19999978871E+02 0.  0.
        -12    1    1    2    0    0 -0.79356166892E+01 -0.16736534549E+00  0.42668743276E+02  0.43400733590E+02  0.00000000000E+00 0.  1.
         11    1    3    3    0    0  0.29356316903E+01 -0.40329878576E+01 -0.30120794591E+02  0.30531052905E+02  0.51100000000E-03 0. -1.
        -11    1    3    3    0    0  0.23242699984E+01  0.43267120472E+01 -0.13537235472E+02  0.14400674034E+02  0.51100000000E-03 0.  1.
         12    1    3    3    0    0  0.26757150004E+01 -0.12635884412E+00  0.98928678657E+00  0.28555394704E+01  0.00000000000E+00 0. -1.
</event>
<event>
 7    1  0.4931104E-009  0.4778727E+02  0.7816164E-02  0.1312668E+00
        -11   -1    0    0    0    0  0.00000000000E+00  0.00000000000E+00  0.45593999997E+02  0.45594000000E+02  0.51100000000E-03 0.  1.
         11   -1    0    0    0    0 -0.00000000000E+00 -0.00000000000E+00 -0.45593999997E+02  0.45594000000E+02  0.51100000000E-03 0. -1.
    9900012    2    1    2    0    0  0.20274620789E+02 -0.31430608614E+02 -0.22015439602E+02  0.47787274351E+02  0.20000015077E+02 0.  0.
        -12    1    1    2    0    0 -0.20274620789E+02  0.31430608614E+02  0.22015439602E+02  0.43400725649E+02  0.00000000000E+00 0.  1.
         11    1    3    3    0    0  0.12212753429E+02 -0.57937883491E+01 -0.11119215419E+02  0.17503036352E+02  0.51100000000E-03 0. -1.
        -11    1    3    3    0    0  0.11786086093E+00  0.60270828519E+00  0.28387219838E+00  0.67655904820E+00  0.51100000000E-03 0.  1.
        -12    1    3    3    0    0  0.79440064998E+01 -0.26239528550E+02 -0.11180096381E+02  0.29607678951E+02  0.00000000000E+00 0.  1.
</event>
<event>
 7    1  0.4931104E-009  0.4778727E+02  0.7816164E-02  0.1312668E+00
        -11   -1    0    0    0    0  0.00000000000E+00  0.00000000000E+00  0.45593999997E+02  0.45594000000E+02  0.51100000000E-03 0.  1.
         11   -1    0    0    0    0 -0.00000000000E+00 -0.00000000000E+00 -0.45593999997E+02  0.45594000000E+02  0.51100000000E-03 0. -1.
    9900012    2    1    2    0    0 -0.35543102044E+02  0.24492682152E+02  0.45188140828E+01  0.47787271174E+02  0.20000000592E+02 0.  0.
        -12    1    1    2    0    0  0.35543102044E+02 -0.24492682152E+02 -0.45188140828E+01  0.43400728826E+02  0.00000000000E+00 0.  1.
         11    1    3    3    0    0 -0.15618879138E+02  0.36289815795E+01  0.27481114039E+01  0.16268712592E+02  0.51100000000E-03 0. -1.
        -11    1    3    3    0    0 -0.31036026462E+01  0.37139098679E+01  0.53692122788E+01  0.72286870625E+01  0.51100000000E-03 0.  1.
         12    1    3    3    0    0 -0.16820620259E+02  0.17149790704E+02 -0.35985095998E+01  0.24289871520E+02  0.00000000000E+00 0. -1.
</event>
<event>
 7    1  0.4931104E-009  0.4778727E+02  0.7816164E-02  0.1312668E+00
        -11   -1    0    0    0    0  0.00000000000E+00  0.00000000000E+00  0.45593999997E+02  0.45594000000E+02  0.51100000000E-03 0.  1.
         11   -1    0    0    0    0 -0.00000000000E+00 -0.00000000000E+00 -0.45593999997E+02  0.45594000000E+02  0.51100000000E-03 0. -1.
    9900012    2    1    2    0    0 -0.42965779130E+02  0.56833474127E+01 -0.22944630023E+01  0.47787272189E+02  0.20000005220E+02 0.  0.
        -12    1    1    2    0    0  0.42965779130E+02 -0.56833474127E+01  0.22944630023E+01  0.43400727811E+02  0.00000000000E+00 0.  1.
         11    1    3    3    0    0 -0.14433948503E+00 -0.56076609808E-01  0.24112633520E+01  0.24162304706E+01  0.51100000000E-03 0.  1.
        -11    1    3    3    0    0 -0.14054078316E+02  0.81474321995E+01 -0.11631299665E+01  0.16286517134E+02  0.51100000000E-03 0. -1.
         12    1    3    3    0    0 -0.28767361328E+02 -0.24080081769E+01 -0.35425963878E+01  0.29084524585E+02  0.00000000000E+00 0. -1.
</event>
<event>
 7    1  0.4931104E-009  0.4778728E+02  0.7816164E-02  0.1312668E+00
        -11   -1    0    0    0    0  0.00000000000E+00  0.00000000000E+00  0.45593999997E+02  0.45594000000E+02  0.51100000000E-03 0.  1.
         11   -1    0    0    0    0 -0.00000000000E+00 -0.00000000000E+00 -0.45593999997E+02  0.45594000000E+02  0.51100000000E-03 0. -1.
    9900012    2    1    2    0    0  0.59665334189E+01 -0.15358460392E+02 -0.40151476179E+02  0.47787275743E+02  0.20000021424E+02 0.  0.
        -12    1    1    2    0    0 -0.59665334189E+01  0.15358460392E+02  0.40151476179E+02  0.43400724257E+02  0.00000000000E+00 0.  1.
         11    1    3    3    0    0  0.57590403673E+01 -0.10979702239E+01 -0.64787056519E+01  0.87376033184E+01  0.51100000000E-03 0.  1.
        -11    1    3    3    0    0  0.99830844551E+00 -0.37999400740E+01 -0.25366586280E+02  0.25669044861E+02  0.51100000000E-03 0. -1.
         12    1    3    3    0    0 -0.79081539383E+00 -0.10460550094E+02 -0.83061842475E+01  0.13380627564E+02  0.00000000000E+00 0. -1.
</event>
<event>
 7    1  0.4931104E-009  0.4778727E+02  0.7816164E-02  0.1312668E+00
        -11   -1    0    0    0    0  0.00000000000E+00  0.00000000000E+00  0.45593999997E+02  0.45594000000E+02  0.51100000000E-03 0.  1.
         11   -1    0    0    0    0 -0.00000000000E+00 -0.00000000000E+00 -0.45593999997E+02  0.45594000000E+02  0.51100000000E-03 0. -1.
    9900012    2    1    2    0    0  0.13350171132E+02 -0.41290413587E+02 -0.70594537238E+00  0.47787266339E+02  0.19999978546E+02 0.  0.
        -12    1    1    2    0    0 -0.13350171132E+02  0.41290413587E+02  0.70594537238E+00  0.43400733661E+02  0.00000000000E+00 0.  1.
         11    1    3    3    0    0  0.11461925472E+01  0.18188403482E+01 -0.35732728889E+00  0.21793624343E+01  0.51100000000E-03 0. -1.
        -11    1    3    3    0    0  0.67757823073E+01 -0.10219704681E+02 -0.52175739471E+00  0.12272971143E+02  0.51100000000E-03 0.  1.
         12    1    3    3    0    0  0.54281962779E+01 -0.32889549255E+02  0.17313931122E+00  0.33334932762E+02  0.00000000000E+00 0. -1.
</event>
<event>
 7    1  0.4931104E-009  0.4778729E+02  0.7816164E-02  0.1312668E+00
        -11   -1    0    0    0    0  0.00000000000E+00  0.00000000000E+00  0.45593999997E+02  0.45594000000E+02  0.51100000000E-03 0. -1.
         11   -1    0    0    0    0 -0.00000000000E+00 -0.00000000000E+00 -0.45593999997E+02  0.45594000000E+02  0.51100000000E-03 0.  1.
    9900012    2    1    2    0    0  0.23065585508E+02 -0.23291439378E+02  0.28444849191E+02  0.47787287694E+02  0.20000075914E+02 0.  0.
        -12    1    1    2    0    0 -0.23065585508E+02  0.23291439378E+02 -0.28444849191E+02  0.43400712306E+02  0.00000000000E+00 0.  1.
         11    1    3    3    0    0  0.51341813544E+01 -0.38986912820E+01  0.20901539772E+01  0.67770462446E+01  0.51100000000E-03 0. -1.
        -11    1    3    3    0    0  0.66004651649E+01 -0.25569100857E+01 -0.78544076861E+00  0.71218569939E+01  0.51100000000E-03 0.  1.
         12    1    3    3    0    0  0.11330938988E+02 -0.16835838010E+02  0.27140135983E+02  0.33888384456E+02  0.00000000000E+00 0. -1.
</event>
<event>
 7    1  0.4931104E-009  0.4778727E+02  0.7816164E-02  0.1312668E+00
        -11   -1    0    0    0    0  0.00000000000E+00  0.00000000000E+00  0.45593999997E+02  0.45594000000E+02  0.51100000000E-03 0.  1.
         11   -1    0    0    0    0 -0.00000000000E+00 -0.00000000000E+00 -0.45593999997E+02  0.45594000000E+02  0.51100000000E-03 0. -1.
    9900012    2    1    2    0    0  0.26095060431E+02 -0.95415700008E+01 -0.33341110260E+02  0.47787269933E+02  0.19999994934E+02 0.  0.
        -12    1    1    2    0    0 -0.26095060431E+02  0.95415700008E+01  0.33341110260E+02  0.43400730067E+02  0.00000000000E+00 0.  1.
         11    1    3    3    0    0  0.68203520991E+01 -0.54207825515E+01 -0.65978364245E+01  0.10928564955E+02  0.51100000000E-03 0. -1.
        -11    1    3    3    0    0  0.25297270292E+00 -0.39867158300E+01  0.55437226683E-01  0.39951185020E+01  0.51100000000E-03 0.  1.
        -12    1    3    3    0    0  0.19021735629E+02 -0.13407161938E+00 -0.26798711062E+02  0.32863586477E+02  0.00000000000E+00 0.  1.
</event>
<event>
 7    1  0.4931104E-009  0.4778727E+02  0.7816164E-02  0.1312668E+00
        -11   -1    0    0    0    0  0.00000000000E+00  0.00000000000E+00  0.45593999997E+02  0.45594000000E+02  0.51100000000E-03 0.  1.
         11   -1    0    0    0    0 -0.00000000000E+00 -0.00000000000E+00 -0.45593999997E+02  0.45594000000E+02  0.51100000000E-03 0. -1.
    9900012    2    1    2    0    0 -0.30350908692E+02 -0.58441275109E+01 -0.30467886160E+02  0.47787267611E+02  0.19999984346E+02 0.  0.
        -12    1    1    2    0    0  0.30350908692E+02  0.58441275109E+01  0.30467886160E+02  0.43400732389E+02  0.00000000000E+00 0.  1.
         11    1    3    3    0    0 -0.15048411092E+02 -0.39657382907E+01 -0.17909829650E+02  0.23726435782E+02  0.51100000000E-03 0. -1.
        -11    1    3    3    0    0 -0.10100870004E+01 -0.49487764139E+01 -0.65125241744E+01  0.82415796500E+01  0.51100000000E-03 0.  1.
         12    1    3    3    0    0 -0.14292410600E+02  0.30703871937E+01 -0.60455323363E+01  0.15819252179E+02  0.00000000000E+00 0. -1.
</event>
<event>
 7    1  0.4931104E-009  0.4778727E+02  0.7816164E-02  0.1312668E+00
        -11   -1    0    0    0    0  0.00000000000E+00  0.00000000000E+00  0.45593999997E+02  0.45594000000E+02  0.51100000000E-03 0.  1.
         11   -1    0    0    0    0 -0.00000000000E+00 -0.00000000000E+00 -0.45593999997E+02  0.45594000000E+02  0.51100000000E-03 0. -1.
    9900012    2    1    2    0    0 -0.35467320186E+01  0.29775836347E+02 -0.31375843634E+02  0.47787270722E+02  0.19999998528E+02 0.  0.
        -12    1    1    2    0    0  0.35467320186E+01 -0.29775836347E+02  0.31375843634E+02  0.43400729278E+02  0.00000000000E+00 0.  1.
         11    1    3    3    0    0 -0.41593914418E+01 -0.10152258891E+01 -0.24995942112E+01  0.49577406401E+01  0.51100000000E-03 0. -1.
        -11    1    3    3    0    0 -0.10652453569E+00  0.12462219699E+01  0.31504392675E+00  0.12898331722E+01  0.51100000000E-03 0.  1.
         12    1    3    3    0    0  0.71918395893E+00  0.29544840266E+02 -0.29191293350E+02  0.41539696909E+02  0.00000000000E+00 0. -1.
</event>
<event>
 7    1  0.4931104E-009  0.4778729E+02  0.7816164E-02  0.1312668E+00
        -11   -1    0    0    0    0  0.00000000000E+00  0.00000000000E+00  0.45593999997E+02  0.45594000000E+02  0.51100000000E-03 0.  1.
         11   -1    0    0    0    0 -0.00000000000E+00 -0.00000000000E+00 -0.45593999997E+02  0.45594000000E+02  0.51100000000E-03 0. -1.
    9900012    2    1    2    0    0  0.15541864401E+02 -0.99044639825E+01 -0.39293434532E+02  0.47787286260E+02  0.20000069373E+02 0.  0.
        -12    1    1    2    0    0 -0.15541864401E+02  0.99044639825E+01  0.39293434532E+02  0.43400713740E+02  0.00000000000E+00 0.  1.
         11    1    3    3    0    0  0.40654680925E+01 -0.38496791898E+01 -0.52576226361E+01  0.76805375281E+01  0.51100000000E-03 0. -1.
        -11    1    3    3    0    0  0.59343994791E+01  0.56091179866E+01 -0.11019753551E+02  0.13715475578E+02  0.51100000000E-03 0.  1.
        -12    1    3    3    0    0  0.55419968294E+01 -0.11663902779E+02 -0.23016058345E+02  0.26391273153E+02  0.00000000000E+00 0.  1.
</event>
<event>
 7    1  0.4931104E-009  0.4778727E+02  0.7816164E-02  0.1312668E+00
        -11   -1    0    0    0    0  0.00000000000E+00  0.00000000000E+00  0.45593999997E+02  0.45594000000E+02  0.51100000000E-03 0.  1.
         11   -1    0    0    0    0 -0.00000000000E+00 -0.00000000000E+00 -0.45593999997E+02  0.45594000000E+02  0.51100000000E-03 0. -1.
    9900012    2    1    2    0    0  0.33744971469E+01  0.39723845709E+02 -0.17153777238E+02  0.47787271637E+02  0.20000002701E+02 0.  0.
        -12    1    1    2    0    0 -0.33744971469E+01 -0.39723845709E+02  0.17153777238E+02  0.43400728363E+02  0.00000000000E+00 0.  1.
         11    1    3    3    0    0 -0.31418957010E+01  0.46059650899E+01 -0.63308148664E+01  0.84359729812E+01  0.51100000000E-03 0. -1.
        -11    1    3    3    0    0  0.16570975494E+01  0.26892095061E+01  0.24282830949E+01  0.39842664451E+01  0.51100000000E-03 0.  1.
         12    1    3    3    0    0  0.48592952986E+01  0.32428671113E+02 -0.13251245466E+02  0.35367032211E+02  0.00000000000E+00 0. -1.
</event>
<event>
 7    1  0.4931104E-009  0.4778727E+02  0.7816164E-02  0.1312668E+00
        -11   -1    0    0    0    0  0.00000000000E+00  0.00000000000E+00  0.45593999997E+02  0.45594000000E+02  0.51100000000E-03 0.  1.
         11   -1    0    0    0    0 -0.00000000000E+00 -0.00000000000E+00 -0.45593999997E+02  0.45594000000E+02  0.51100000000E-03 0. -1.
    9900012    2    1    2    0    0 -0.36600482227E+02 -0.61803348967E+01 -0.22490694193E+02  0.47787272310E+02  0.20000005772E+02 0.  0.
        -12    1    1    2    0    0  0.36600482227E+02  0.61803348967E+01  0.22490694193E+02  0.43400727690E+02  0.00000000000E+00 0.  1.
         11    1    3    3    0    0 -0.24524059138E+02 -0.90600073516E+00 -0.13103759295E+02  0.27820115418E+02  0.51100000000E-03 0. -1.
        -11    1    3    3    0    0 -0.98224478958E+01 -0.40503635502E+01 -0.12188202543E+02  0.16169050963E+02  0.51100000000E-03 0.  1.
        -12    1    3    3    0    0 -0.22539751935E+01 -0.12239706114E+01  0.28012676451E+01  0.37981059292E+01  0.00000000000E+00 0.  1.
</event>
<event>
 7    1  0.4931104E-009  0.4778730E+02  0.7816164E-02  0.1312668E+00
        -11   -1    0    0    0    0  0.00000000000E+00  0.00000000000E+00  0.45593999997E+02  0.45594000000E+02  0.51100000000E-03 0.  1.
         11   -1    0    0    0    0 -0.00000000000E+00 -0.00000000000E+00 -0.45593999997E+02  0.45594000000E+02  0.51100000000E-03 0. -1.
    9900012    2    1    2    0    0  0.32765078207E+01 -0.49475135702E+01 -0.42993108872E+02  0.47787299493E+02  0.20000129707E+02 0.  0.
        -12    1    1    2    0    0 -0.32765078207E+01  0.49475135702E+01  0.42993108872E+02  0.43400700507E+02  0.00000000000E+00 0.  1.
         11    1    3    3    0    0  0.20649126300E+01  0.16195844817E+01 -0.10108827398E+01  0.28122592764E+01  0.51100000000E-03 0.  1.
        -11    1    3    3    0    0  0.54749180528E+01  0.35511082043E+00 -0.61913829280E+01  0.82724877879E+01  0.51100000000E-03 0. -1.
         12    1    3    3    0    0 -0.42633228621E+01 -0.69222088723E+01 -0.35790843204E+02  0.36702552429E+02  0.00000000000E+00 0. -1.
</event>
<event>
 7    1  0.4931104E-009  0.4778727E+02  0.7816164E-02  0.1312668E+00
        -11   -1    0    0    0    0  0.00000000000E+00  0.00000000000E+00  0.45593999997E+02  0.45594000000E+02  0.51100000000E-03 0.  1.
         11   -1    0    0    0    0 -0.00000000000E+00 -0.00000000000E+00 -0.45593999997E+02  0.45594000000E+02  0.51100000000E-03 0. -1.
    9900012    2    1    2    0    0 -0.58536993567E+01 -0.14967072234E+02 -0.40315556431E+02  0.47787272613E+02  0.20000007151E+02 0.  0.
        -12    1    1    2    0    0  0.58536993567E+01  0.14967072234E+02  0.40315556431E+02  0.43400727387E+02  0.00000000000E+00 0.  1.
         11    1    3    3    0    0 -0.36719655707E+01 -0.10916173770E+02 -0.19818085827E+02  0.22921664579E+02  0.51100000000E-03 0. -1.
        -11    1    3    3    0    0 -0.64151166118E+01 -0.63401298781E+01 -0.11056738813E+02  0.14268932737E+02  0.51100000000E-03 0.  1.
         12    1    3    3    0    0  0.42333828257E+01  0.22892314144E+01 -0.94407317900E+01  0.10596675297E+02  0.00000000000E+00 0. -1.
</event>
<event>
 7    1  0.4931104E-009  0.4778727E+02  0.7816164E-02  0.1312668E+00
        -11   -1    0    0    0    0  0.00000000000E+00  0.00000000000E+00  0.45593999997E+02  0.45594000000E+02  0.51100000000E-03 0.  1.
         11   -1    0    0    0    0 -0.00000000000E+00 -0.00000000000E+00 -0.45593999997E+02  0.45594000000E+02  0.51100000000E-03 0. -1.
    9900012    2    1    2    0    0  0.18899608012E+02  0.11109358271E+02 -0.37456778444E+02  0.47787271025E+02  0.19999999911E+02 0.  0.
        -12    1    1    2    0    0 -0.18899608012E+02 -0.11109358271E+02  0.37456778444E+02  0.43400728975E+02  0.00000000000E+00 0.  1.
         11    1    3    3    0    0  0.34242669813E+01 -0.10930034489E+01 -0.10888003521E+02  0.11465988044E+02  0.51100000000E-03 0. -1.
        -11    1    3    3    0    0  0.13125416240E+02  0.15848923671E+01 -0.18687086971E+02  0.22890951379E+02  0.51100000000E-03 0.  1.
        -12    1    3    3    0    0  0.23499247900E+01  0.10617469353E+02 -0.78816879522E+01  0.13430331603E+02  0.00000000000E+00 0.  1.
</event>
<event>
 7    1  0.4931104E-009  0.4778729E+02  0.7816164E-02  0.1312668E+00
        -11   -1    0    0    0    0  0.00000000000E+00  0.00000000000E+00  0.45593999997E+02  0.45594000000E+02  0.51100000000E-03 0. -1.
         11   -1    0    0    0    0 -0.00000000000E+00 -0.00000000000E+00 -0.45593999997E+02  0.45594000000E+02  0.51100000000E-03 0.  1.
    9900012    2    1    2    0    0 -0.19434183387E+02  0.27410163025E+02  0.27470300445E+02  0.47787286555E+02  0.20000070720E+02 0.  0.
        -12    1    1    2    0    0  0.19434183387E+02 -0.27410163025E+02 -0.27470300445E+02  0.43400713445E+02  0.00000000000E+00 0.  1.
         11    1    3    3    0    0 -0.14742748979E+01  0.10613176525E+02  0.15445369610E+02  0.18798203241E+02  0.51100000000E-03 0. -1.
        -11    1    3    3    0    0 -0.13746044018E+01  0.14306176412E+00  0.38723507850E+01  0.41115817872E+01  0.51100000000E-03 0.  1.
         12    1    3    3    0    0 -0.16585304088E+02  0.16653924736E+02  0.81525800495E+01  0.24877501527E+02  0.00000000000E+00 0. -1.
</event>
<event>
 7    1  0.4931104E-009  0.4778726E+02  0.7816164E-02  0.1312668E+00
        -11   -1    0    0    0    0  0.00000000000E+00  0.00000000000E+00  0.45593999997E+02  0.45594000000E+02  0.51100000000E-03 0.  1.
         11   -1    0    0    0    0 -0.00000000000E+00 -0.00000000000E+00 -0.45593999997E+02  0.45594000000E+02  0.51100000000E-03 0. -1.
    9900012    2    1    2    0    0 -0.13463325385E+02 -0.23267999522E+02 -0.34072906753E+02  0.47787263754E+02  0.19999966758E+02 0.  0.
        -12    1    1    2    0    0  0.13463325385E+02  0.23267999522E+02  0.34072906753E+02  0.43400736246E+02  0.00000000000E+00 0.  1.
         11    1    3    3    0    0 -0.13924559466E+02 -0.23765611889E+02 -0.32883552096E+02  0.42895520320E+02  0.51100000000E-03 0. -1.
        -11    1    3    3    0    0  0.28810805141E+00 -0.50556892077E-01 -0.29886076757E+01  0.30028883344E+01  0.51100000000E-03 0.  1.
         12    1    3    3    0    0  0.17312602957E+00  0.54816925946E+00  0.17992530193E+01  0.18888550994E+01  0.00000000000E+00 0. -1.
</event>
<event>
 7    1  0.4931104E-009  0.4778728E+02  0.7816164E-02  0.1312668E+00
        -11   -1    0    0    0    0  0.00000000000E+00  0.00000000000E+00  0.45593999997E+02  0.45594000000E+02  0.51100000000E-03 0. -1.
         11   -1    0    0    0    0 -0.00000000000E+00 -0.00000000000E+00 -0.45593999997E+02  0.45594000000E+02  0.51100000000E-03 0.  1.
    9900012    2    1    2    0    0  0.29239410935E+02  0.24207645080E+02  0.21039704513E+02  0.47787281133E+02  0.20000045999E+02 0.  0.
        -12    1    1    2    0    0 -0.29239410935E+02 -0.24207645080E+02 -0.21039704513E+02  0.43400718867E+02  0.00000000000E+00 0.  1.
         11    1    3    3    0    0  0.11460875748E+02  0.13866940338E+02  0.28557720600E+01  0.18215354555E+02  0.51100000000E-03 0. -1.
        -11    1    3    3    0    0  0.66123851768E+00  0.46872972230E+01  0.13874799698E+01  0.49328584575E+01  0.51100000000E-03 0.  1.
        -12    1    3    3    0    0  0.17117296669E+02  0.56534075193E+01  0.16796452483E+02  0.24639068121E+02  0.00000000000E+00 0.  1.
</event>
<event>
 7    1  0.4931104E-009  0.4778727E+02  0.7816164E-02  0.1312668E+00
        -11   -1    0    0    0    0  0.00000000000E+00  0.00000000000E+00  0.45593999997E+02  0.45594000000E+02  0.51100000000E-03 0.  1.
         11   -1    0    0    0    0 -0.00000000000E+00 -0.00000000000E+00 -0.45593999997E+02  0.45594000000E+02  0.51100000000E-03 0. -1.
    9900012    2    1    2    0    0  0.99806977612E+01  0.21340496615E+02 -0.36449858013E+02  0.47787271058E+02  0.20000000060E+02 0.  0.
        -12    1    1    2    0    0 -0.99806977612E+01 -0.21340496615E+02  0.36449858013E+02  0.43400728942E+02  0.00000000000E+00 0.  1.
         11    1    3    3    0    0  0.76846455409E+01  0.83148387761E+01 -0.16533407133E+02  0.20038559645E+02  0.51100000000E-03 0. -1.
        -11    1    3    3    0    0  0.79526447455E-01  0.12401561937E+00 -0.12891271726E+02  0.12892113532E+02  0.51100000000E-03 0.  1.
        -12    1    3    3    0    0  0.22165257729E+01  0.12901642219E+02 -0.70251791538E+01  0.14856597881E+02  0.00000000000E+00 0.  1.
</event>
<event>
 7    1  0.4931104E-009  0.4778727E+02  0.7816164E-02  0.1312668E+00
        -11   -1    0    0    0    0  0.00000000000E+00  0.00000000000E+00  0.45593999997E+02  0.45594000000E+02  0.51100000000E-03 0.  1.
         11   -1    0    0    0    0 -0.00000000000E+00 -0.00000000000E+00 -0.45593999997E+02  0.45594000000E+02  0.51100000000E-03 0. -1.
    9900012    2    1    2    0    0  0.20334970670E+02 -0.35660829407E+02 -0.14086069547E+02  0.47787272570E+02  0.20000006957E+02 0.  0.
        -12    1    1    2    0    0 -0.20334970670E+02  0.35660829407E+02  0.14086069547E+02  0.43400727430E+02  0.00000000000E+00 0.  1.
         11    1    3    3    0    0  0.12584029457E+01 -0.15008877124E+02 -0.43985275578E+01  0.15690666508E+02  0.51100000000E-03 0. -1.
        -11    1    3    3    0    0  0.20240683038E+01 -0.79434391344E+01  0.10642489984E+01  0.82660573415E+01  0.51100000000E-03 0.  1.
         12    1    3    3    0    0  0.17052499421E+02 -0.12708513148E+02 -0.10751790988E+02  0.23830548721E+02  0.00000000000E+00 0. -1.
</event>
<event>
 7    1  0.4931104E-009  0.4778727E+02  0.7816164E-02  0.1312668E+00
        -11   -1    0    0    0    0  0.00000000000E+00  0.00000000000E+00  0.45593999997E+02  0.45594000000E+02  0.51100000000E-03 0. -1.
         11   -1    0    0    0    0 -0.00000000000E+00 -0.00000000000E+00 -0.45593999997E+02  0.45594000000E+02  0.51100000000E-03 0.  1.
    9900012    2    1    2    0    0 -0.41906078712E+02 -0.18335410908E+01 -0.11141896792E+02  0.47787272240E+02  0.20000005451E+02 0.  0.
        -12    1    1    2    0    0  0.41906078712E+02  0.18335410908E+01  0.11141896792E+02  0.43400727760E+02  0.00000000000E+00 0.  1.
         11    1    3    3    0    0 -0.27912641053E+02 -0.23099314366E+01 -0.38796976467E+01  0.28275490586E+02  0.51100000000E-03 0. -1.
        -11    1    3    3    0    0 -0.12140061227E+02  0.40166778389E+01 -0.20603424871E+01  0.12952212123E+02  0.51100000000E-03 0.  1.
        -12    1    3    3    0    0 -0.18533764326E+01 -0.35402874931E+01 -0.52018566587E+01  0.65595695310E+01  0.00000000000E+00 0.  1.
</event>
<event>
 7    1  0.4931104E-009  0.4778727E+02  0.7816164E-02  0.1312668E+00
        -11   -1    0    0    0    0  0.00000000000E+00  0.00000000000E+00  0.45593999997E+02  0.45594000000E+02  0.51100000000E-03 0.  1.
         11   -1    0    0    0    0 -0.00000000000E+00 -0.00000000000E+00 -0.45593999997E+02  0.45594000000E+02  0.51100000000E-03 0. -1.
    9900012    2    1    2    0    0  0.72007846914E+01  0.26789267450E+01 -0.42715283002E+02  0.47787270161E+02  0.19999995970E+02 0.  0.
        -12    1    1    2    0    0 -0.72007846914E+01 -0.26789267450E+01  0.42715283002E+02  0.43400729839E+02  0.00000000000E+00 0.  1.
         11    1    3    3    0    0 -0.53648507311E+00 -0.45505722521E+01 -0.24244983690E+02  0.24674171890E+02  0.51100000000E-03 0. -1.
        -11    1    3    3    0    0  0.55447378715E+01  0.28250682563E+01 -0.16802953431E+02  0.17918269251E+02  0.51100000000E-03 0.  1.
        -12    1    3    3    0    0  0.21925318930E+01  0.44044307408E+01 -0.16673458809E+01  0.51948290192E+01  0.00000000000E+00 0.  1.
</event>
<event>
 7    1  0.4931104E-009  0.4778727E+02  0.7816164E-02  0.1312668E+00
        -11   -1    0    0    0    0  0.00000000000E+00  0.00000000000E+00  0.45593999997E+02  0.45594000000E+02  0.51100000000E-03 0. -1.
         11   -1    0    0    0    0 -0.00000000000E+00 -0.00000000000E+00 -0.45593999997E+02  0.45594000000E+02  0.51100000000E-03 0.  1.
    9900012    2    1    2    0    0 -0.11273077374E+02 -0.29118420760E+02  0.30143962077E+02  0.47787272463E+02  0.20000006467E+02 0.  0.
        -12    1    1    2    0    0  0.11273077374E+02  0.29118420760E+02 -0.30143962077E+02  0.43400727537E+02  0.00000000000E+00 0.  1.
         11    1    3    3    0    0 -0.13028054438E+01 -0.10502423336E+02  0.11034886270E+02  0.15289437962E+02  0.51100000000E-03 0. -1.
        -11    1    3    3    0    0  0.40768124378E+01 -0.47216398025E+01  0.67586253686E+01  0.91974615634E+01  0.51100000000E-03 0.  1.
        -12    1    3    3    0    0 -0.14047084368E+02 -0.13894357622E+02  0.12350450439E+02  0.23300372937E+02  0.00000000000E+00 0.  1.
</event>
<event>
 7    1  0.4931104E-009  0.4778728E+02  0.7816164E-02  0.1312668E+00
        -11   -1    0    0    0    0  0.00000000000E+00  0.00000000000E+00  0.45593999997E+02  0.45594000000E+02  0.51100000000E-03 0. -1.
         11   -1    0    0    0    0 -0.00000000000E+00 -0.00000000000E+00 -0.45593999997E+02  0.45594000000E+02  0.51100000000E-03 0.  1.
    9900012    2    1    2    0    0 -0.20223596617E+02  0.36875837606E+02 -0.10714550146E+02  0.47787275996E+02  0.20000022574E+02 0.  0.
        -12    1    1    2    0    0  0.20223596617E+02 -0.36875837606E+02  0.10714550146E+02  0.43400724004E+02  0.00000000000E+00 0.  1.
         11    1    3    3    0    0 -0.12864110930E+02  0.32698433964E+02 -0.10165766012E+02  0.36578897367E+02  0.51100000000E-03 0. -1.
        -11    1    3    3    0    0  0.87956976395E+00  0.23412877127E+01  0.87152488401E+00  0.26485518699E+01  0.51100000000E-03 0.  1.
        -12    1    3    3    0    0 -0.82390554512E+01  0.18361159297E+01 -0.14203090176E+01  0.85598267588E+01  0.00000000000E+00 0.  1.
</event>
<event>
 7    1  0.4931104E-009  0.4778727E+02  0.7816164E-02  0.1312668E+00
        -11   -1    0    0    0    0  0.00000000000E+00  0.00000000000E+00  0.45593999997E+02  0.45594000000E+02  0.51100000000E-03 0.  1.
         11   -1    0    0    0    0 -0.00000000000E+00 -0.00000000000E+00 -0.45593999997E+02  0.45594000000E+02  0.51100000000E-03 0. -1.
    9900012    2    1    2    0    0 -0.99291310747E+01 -0.51481142096E+01 -0.41934863747E+02  0.47787268194E+02  0.19999987004E+02 0.  0.
        -12    1    1    2    0    0  0.99291310747E+01  0.51481142096E+01  0.41934863747E+02  0.43400731806E+02  0.00000000000E+00 0.  1.
         11    1    3    3    0    0 -0.95671513126E+01 -0.83300178172E+01 -0.33841300314E+02  0.36140741391E+02  0.51100000000E-03 0. -1.
        -11    1    3    3    0    0 -0.39425325298E+01  0.17338598622E+01 -0.55366228185E+01  0.70145580948E+01  0.51100000000E-03 0.  1.
         12    1    3    3    0    0  0.35805527677E+01  0.14480437454E+01 -0.25569406144E+01  0.46319687085E+01  0.00000000000E+00 0. -1.
</event>
<event>
 7    1  0.4931104E-009  0.4778727E+02  0.7816164E-02  0.1312668E+00
        -11   -1    0    0    0    0  0.00000000000E+00  0.00000000000E+00  0.45593999997E+02  0.45594000000E+02  0.51100000000E-03 0.  1.
         11   -1    0    0    0    0 -0.00000000000E+00 -0.00000000000E+00 -0.45593999997E+02  0.45594000000E+02  0.51100000000E-03 0. -1.
    9900012    2    1    2    0    0 -0.31574702620E+02 -0.25852126699E+02 -0.14775962308E+02  0.47787270023E+02  0.19999995344E+02 0.  0.
        -12    1    1    2    0    0  0.31574702620E+02  0.25852126699E+02  0.14775962308E+02  0.43400729977E+02  0.00000000000E+00 0.  1.
         11    1    3    3    0    0  0.10353694356E+01 -0.38285954357E+01 -0.16095668704E+01  0.42802848795E+01  0.51100000000E-03 0. -1.
        -11    1    3    3    0    0 -0.10301414886E+02 -0.13488128963E+02 -0.18387581141E+01  0.17071315218E+02  0.51100000000E-03 0.  1.
         12    1    3    3    0    0 -0.22308657169E+02 -0.85354022996E+01 -0.11327637324E+02  0.26435669926E+02  0.00000000000E+00 0. -1.
</event>
<event>
 7    1  0.4931104E-009  0.4778727E+02  0.7816164E-02  0.1312668E+00
        -11   -1    0    0    0    0  0.00000000000E+00  0.00000000000E+00  0.45593999997E+02  0.45594000000E+02  0.51100000000E-03 0. -1.
         11   -1    0    0    0    0 -0.00000000000E+00 -0.00000000000E+00 -0.45593999997E+02  0.45594000000E+02  0.51100000000E-03 0.  1.
    9900012    2    1    2    0    0  0.26942996600E+02 -0.29246222679E+02 -0.17388404259E+02  0.47787271786E+02  0.20000003383E+02 0.  0.
        -12    1    1    2    0    0 -0.26942996600E+02  0.29246222679E+02  0.17388404259E+02  0.43400728214E+02  0.00000000000E+00 0.  1.
         11    1    3    3    0    0  0.10491001469E+02 -0.16211452156E+02 -0.13716145106E+01  0.19358554167E+02  0.51100000000E-03 0. -1.
        -11    1    3    3    0    0  0.49021356098E+01 -0.10463476391E+02 -0.92231565632E+01  0.14784515175E+02  0.51100000000E-03 0.  1.
        -12    1    3    3    0    0  0.11549859521E+02 -0.25712941328E+01 -0.67936331851E+01  0.13644202444E+02  0.00000000000E+00 0.  1.
</event>
<event>
 7    1  0.4931104E-009  0.4778728E+02  0.7816164E-02  0.1312668E+00
        -11   -1    0    0    0    0  0.00000000000E+00  0.00000000000E+00  0.45593999997E+02  0.45594000000E+02  0.51100000000E-03 0. -1.
         11   -1    0    0    0    0 -0.00000000000E+00 -0.00000000000E+00 -0.45593999997E+02  0.45594000000E+02  0.51100000000E-03 0.  1.
    9900012    2    1    2    0    0 -0.34062610673E+02 -0.25896008769E+02  0.72634627740E+01  0.47787278722E+02  0.20000035004E+02 0.  0.
        -12    1    1    2    0    0  0.34062610673E+02  0.25896008769E+02 -0.72634627740E+01  0.43400721278E+02  0.00000000000E+00 0.  1.
         11    1    3    3    0    0 -0.20035360133E+01 -0.29080414510E+01  0.58389471263E+01  0.68237940651E+01  0.51100000000E-03 0. -1.
        -11    1    3    3    0    0 -0.87195971658E+01 -0.87844488501E+00 -0.29238227754E+00  0.87686103692E+01  0.51100000000E-03 0.  1.
         12    1    3    3    0    0 -0.23339477494E+02 -0.22109522433E+02  0.17168979252E+01  0.32194874287E+02  0.00000000000E+00 0. -1.
</event>
<event>
 7    1  0.4931104E-009  0.4778727E+02  0.7816164E-02  0.1312668E+00
        -11   -1    0    0    0    0  0.00000000000E+00  0.00000000000E+00  0.45593999997E+02  0.45594000000E+02  0.51100000000E-03 0. -1.
         11   -1    0    0    0    0 -0.00000000000E+00 -0.00000000000E+00 -0.45593999997E+02  0.45594000000E+02  0.51100000000E-03 0.  1.
    9900012    2    1    2    0    0  0.25949527841E+02 -0.26742631776E+02  0.22250326532E+02  0.47787269819E+02  0.19999994413E+02 0.  0.
        -12    1    1    2    0    0 -0.25949527841E+02  0.26742631776E+02 -0.22250326532E+02  0.43400730181E+02  0.00000000000E+00 0.  1.
         11    1    3    3    0    0  0.98344737062E+01 -0.32031228983E+01  0.63248716893E+01  0.12123566782E+02  0.51100000000E-03 0.  1.
        -11    1    3    3    0    0  0.18611854100E+02 -0.19117551892E+02  0.14604001272E+02  0.30416422485E+02  0.51100000000E-03 0. -1.
         12    1    3    3    0    0 -0.24967999653E+01 -0.44219569855E+01  0.13214535705E+01  0.52472805516E+01  0.00000000000E+00 0. -1.
</event>
<event>
 7    1  0.4931104E-009  0.4778727E+02  0.7816164E-02  0.1312668E+00
        -11   -1    0    0    0    0  0.00000000000E+00  0.00000000000E+00  0.45593999997E+02  0.45594000000E+02  0.51100000000E-03 0.  1.
         11   -1    0    0    0    0 -0.00000000000E+00 -0.00000000000E+00 -0.45593999997E+02  0.45594000000E+02  0.51100000000E-03 0. -1.
    9900012    2    1    2    0    0 -0.18496097086E+02 -0.34965752414E+02 -0.17858158898E+02  0.47787270876E+02  0.19999999230E+02 0.  0.
        -12    1    1    2    0    0  0.18496097086E+02  0.34965752414E+02  0.17858158898E+02  0.43400729124E+02  0.00000000000E+00 0.  1.
         11    1    3    3    0    0 -0.14233221714E+02 -0.98143180511E+01 -0.12800948662E+02  0.21512083258E+02  0.51100000000E-03 0. -1.
        -11    1    3    3    0    0 -0.77619071158E+00 -0.69777640145E+01 -0.30734174412E+01  0.76640431687E+01  0.51100000000E-03 0.  1.
        -12    1    3    3    0    0 -0.34866846606E+01 -0.18173670349E+02 -0.19837927945E+01  0.18611144449E+02  0.00000000000E+00 0.  1.
</event>
<event>
 7    1  0.4931104E-009  0.4778727E+02  0.7816164E-02  0.1312668E+00
        -11   -1    0    0    0    0  0.00000000000E+00  0.00000000000E+00  0.45593999997E+02  0.45594000000E+02  0.51100000000E-03 0.  1.
         11   -1    0    0    0    0 -0.00000000000E+00 -0.00000000000E+00 -0.45593999997E+02  0.45594000000E+02  0.51100000000E-03 0. -1.
    9900012    2    1    2    0    0  0.40008568810E+02 -0.49039179664E+01 -0.16090040668E+02  0.47787269610E+02  0.19999993461E+02 0.  0.
        -12    1    1    2    0    0 -0.40008568810E+02  0.49039179664E+01  0.16090040668E+02  0.43400730390E+02  0.00000000000E+00 0.  1.
         11    1    3    3    0    0  0.60483248192E+01  0.22968276989E+01 -0.16468361787E+01  0.66760557410E+01  0.51100000000E-03 0. -1.
        -11    1    3    3    0    0  0.68963142704E+00 -0.50779226930E+01 -0.24631822889E+01  0.56857855773E+01  0.51100000000E-03 0.  1.
        -12    1    3    3    0    0  0.33270612564E+02 -0.21228229724E+01 -0.11980022201E+02  0.35425428292E+02  0.00000000000E+00 0.  1.
</event>
<event>
 7    1  0.4931104E-009  0.4778727E+02  0.7816164E-02  0.1312668E+00
        -11   -1    0    0    0    0  0.00000000000E+00  0.00000000000E+00  0.45593999997E+02  0.45594000000E+02  0.51100000000E-03 0.  1.
         11   -1    0    0    0    0 -0.00000000000E+00 -0.00000000000E+00 -0.45593999997E+02  0.45594000000E+02  0.51100000000E-03 0. -1.
    9900012    2    1    2    0    0 -0.39318752567E+02 -0.98948811945E+01 -0.15483863378E+02  0.47787274172E+02  0.20000014260E+02 0.  0.
        -12    1    1    2    0    0  0.39318752567E+02  0.98948811945E+01  0.15483863378E+02  0.43400725828E+02  0.00000000000E+00 0.  1.
         11    1    3    3    0    0 -0.29808218030E+02 -0.13989224257E+02 -0.12098045202E+02  0.35079779865E+02  0.51100000000E-03 0. -1.
        -11    1    3    3    0    0 -0.31511494422E+01  0.16384222934E+01  0.19488233938E+01  0.40511829506E+01  0.51100000000E-03 0.  1.
        -12    1    3    3    0    0 -0.63593850949E+01  0.24559207692E+01 -0.53346415705E+01  0.86563113562E+01  0.00000000000E+00 0.  1.
</event>
<event>
 7    1  0.4931104E-009  0.4778727E+02  0.7816164E-02  0.1312668E+00
        -11   -1    0    0    0    0  0.00000000000E+00  0.00000000000E+00  0.45593999997E+02  0.45594000000E+02  0.51100000000E-03 0.  1.
         11   -1    0    0    0    0 -0.00000000000E+00 -0.00000000000E+00 -0.45593999997E+02  0.45594000000E+02  0.51100000000E-03 0. -1.
    9900012    2    1    2    0    0 -0.42380479424E+02 -0.80916611908E+01  0.46950054275E+01  0.47787273129E+02  0.20000009503E+02 0.  0.
        -12    1    1    2    0    0  0.42380479424E+02  0.80916611908E+01 -0.46950054275E+01  0.43400726871E+02  0.00000000000E+00 0.  1.
         11    1    3    3    0    0 -0.24008126409E+02 -0.12804600688E+01  0.11396050624E+01  0.24069242024E+02  0.51100000000E-03 0. -1.
        -11    1    3    3    0    0 -0.17287231040E+02 -0.92873735582E+01  0.48916162410E+00  0.19630153947E+02  0.51100000000E-03 0.  1.
         12    1    3    3    0    0 -0.10851219740E+01  0.24761724361E+01  0.30662387409E+01  0.40878771567E+01  0.00000000000E+00 0. -1.
</event>
<event>
 7    1  0.4931104E-009  0.4778727E+02  0.7816164E-02  0.1312668E+00
        -11   -1    0    0    0    0  0.00000000000E+00  0.00000000000E+00  0.45593999997E+02  0.45594000000E+02  0.51100000000E-03 0.  1.
         11   -1    0    0    0    0 -0.00000000000E+00 -0.00000000000E+00 -0.45593999997E+02  0.45594000000E+02  0.51100000000E-03 0. -1.
    9900012    2    1    2    0    0 -0.22514307625E+02 -0.75405780749E+01 -0.36330005951E+02  0.47787266159E+02  0.19999977726E+02 0.  0.
        -12    1    1    2    0    0  0.22514307625E+02  0.75405780749E+01  0.36330005951E+02  0.43400733841E+02  0.00000000000E+00 0.  1.
         11    1    3    3    0    0 -0.10413396475E+02 -0.46687250688E+01 -0.28621194555E+02  0.30812474713E+02  0.51100000000E-03 0. -1.
        -11    1    3    3    0    0  0.26414114252E+00  0.17152365992E+01 -0.18712540202E+01  0.25521361648E+01  0.51100000000E-03 0.  1.
        -12    1    3    3    0    0 -0.12365052293E+02 -0.45870896053E+01 -0.58375573751E+01  0.14422655281E+02  0.00000000000E+00 0.  1.
</event>
<event>
 7    1 -0.5779201E-009  0.4778725E+02  0.7816164E-02  0.1312668E+00
        -11   -1    0    0    0    0  0.00000000000E+00  0.00000000000E+00  0.45593999997E+02  0.45594000000E+02  0.51100000000E-03 0. -1.
         11   -1    0    0    0    0 -0.00000000000E+00 -0.00000000000E+00 -0.45593999997E+02  0.45594000000E+02  0.51100000000E-03 0.  1.
    9900012    2    1    2    0    0 -0.27853912684E+02 -0.28865997537E+02 -0.16569213903E+02  0.47787249834E+02  0.19999903291E+02 0.  0.
        -12    1    1    2    0    0  0.27853912684E+02  0.28865997537E+02  0.16569213903E+02  0.43400750166E+02  0.00000000000E+00 0.  1.
         11    1    3    3    0    0 -0.38183859539E+01 -0.13737802216E+02 -0.13161760669E+01  0.14319203914E+02  0.51100000000E-03 0. -1.
        -11    1    3    3    0    0 -0.18514770123E+01 -0.15541779070E+01 -0.49224949684E+01  0.54840124972E+01  0.51100000000E-03 0.  1.
         12    1    3    3    0    0 -0.22184049718E+02 -0.13574017414E+02 -0.10330542868E+02  0.27984033422E+02  0.00000000000E+00 0. -1.
</event>
<event>
 7    1  0.4931104E-009  0.4778727E+02  0.7816164E-02  0.1312668E+00
        -11   -1    0    0    0    0  0.00000000000E+00  0.00000000000E+00  0.45593999997E+02  0.45594000000E+02  0.51100000000E-03 0. -1.
         11   -1    0    0    0    0 -0.00000000000E+00 -0.00000000000E+00 -0.45593999997E+02  0.45594000000E+02  0.51100000000E-03 0.  1.
    9900012    2    1    2    0    0  0.35047155337E+02 -0.24917792406E+02  0.58671931667E+01  0.47787269232E+02  0.19999991735E+02 0.  0.
        -12    1    1    2    0    0 -0.35047155337E+02  0.24917792406E+02 -0.58671931667E+01  0.43400730768E+02  0.00000000000E+00 0.  1.
         11    1    3    3    0    0  0.12403381249E+02 -0.12371789263E+01  0.35256139077E+01  0.12953934993E+02  0.51100000000E-03 0. -1.
        -11    1    3    3    0    0  0.19268805971E+01 -0.78005915026E+00  0.33426104980E+01  0.39362934743E+01  0.51100000000E-03 0.  1.
         12    1    3    3    0    0  0.20716893490E+02 -0.22900554329E+02 -0.10010312390E+01  0.30897040765E+02  0.00000000000E+00 0. -1.
</event>
<event>
 7    1  0.4931104E-009  0.4778727E+02  0.7816164E-02  0.1312668E+00
        -11   -1    0    0    0    0  0.00000000000E+00  0.00000000000E+00  0.45593999997E+02  0.45594000000E+02  0.51100000000E-03 0.  1.
         11   -1    0    0    0    0 -0.00000000000E+00 -0.00000000000E+00 -0.45593999997E+02  0.45594000000E+02  0.51100000000E-03 0. -1.
    9900012    2    1    2    0    0 -0.33548933232E+01  0.20156880880E+02 -0.38289273287E+02  0.47787267231E+02  0.19999982614E+02 0.  0.
        -12    1    1    2    0    0  0.33548933232E+01 -0.20156880880E+02  0.38289273287E+02  0.43400732769E+02  0.00000000000E+00 0.  1.
         11    1    3    3    0    0 -0.18587263400E+01  0.42857208722E+01 -0.16231673143E+02  0.16890514507E+02  0.51100000000E-03 0. -1.
        -11    1    3    3    0    0 -0.32431366119E+01 -0.11256538805E+01 -0.82262047021E+01  0.89137801075E+01  0.51100000000E-03 0.  1.
         12    1    3    3    0    0  0.17469696286E+01  0.16996813888E+02 -0.13831395442E+02  0.21982972617E+02  0.00000000000E+00 0. -1.
</event>
<event>
 7    1  0.4931104E-009  0.4778728E+02  0.7816164E-02  0.1312668E+00
        -11   -1    0    0    0    0  0.00000000000E+00  0.00000000000E+00  0.45593999997E+02  0.45594000000E+02  0.51100000000E-03 0.  1.
         11   -1    0    0    0    0 -0.00000000000E+00 -0.00000000000E+00 -0.45593999997E+02  0.45594000000E+02  0.51100000000E-03 0. -1.
    9900012    2    1    2    0    0  0.22221533002E+02 -0.36418769657E+02 -0.79686340876E+01  0.47787280633E+02  0.20000043719E+02 0.  0.
        -12    1    1    2    0    0 -0.22221533002E+02  0.36418769657E+02  0.79686340876E+01  0.43400719367E+02  0.00000000000E+00 0.  1.
         11    1    3    3    0    0  0.99831779731E+01 -0.26873857933E+02 -0.76389012178E+01  0.29668516895E+02  0.51100000000E-03 0. -1.
        -11    1    3    3    0    0  0.10844858943E+02 -0.11408440693E+02  0.15789300073E+00  0.15741296484E+02  0.51100000000E-03 0.  1.
        -12    1    3    3    0    0  0.13934960864E+01  0.18635289683E+01 -0.48762587052E+00  0.23774672549E+01  0.00000000000E+00 0.  1.
</event>
<event>
 7    1  0.4931104E-009  0.4778726E+02  0.7816164E-02  0.1312668E+00
        -11   -1    0    0    0    0  0.00000000000E+00  0.00000000000E+00  0.45593999997E+02  0.45594000000E+02  0.51100000000E-03 0. -1.
         11   -1    0    0    0    0 -0.00000000000E+00 -0.00000000000E+00 -0.45593999997E+02  0.45594000000E+02  0.51100000000E-03 0.  1.
    9900012    2    1    2    0    0  0.57304583118E+01  0.37753662588E+02  0.20626363466E+02  0.47787261975E+02  0.19999958650E+02 0.  0.
        -12    1    1    2    0    0 -0.57304583118E+01 -0.37753662588E+02 -0.20626363466E+02  0.43400738025E+02  0.00000000000E+00 0.  1.
         11    1    3    3    0    0  0.36755219268E+01  0.27201884293E+02  0.17948492292E+02  0.32796346539E+02  0.51100000000E-03 0. -1.
        -11    1    3    3    0    0 -0.20438933219E+01  0.13855716262E+01  0.41635359178E+01  0.48406962560E+01  0.51100000000E-03 0.  1.
         12    1    3    3    0    0  0.40988297069E+01  0.91662066691E+01 -0.14856647441E+01  0.10150219180E+02  0.00000000000E+00 0. -1.
</event>
<event>
 7    1  0.4931104E-009  0.4778727E+02  0.7816164E-02  0.1312668E+00
        -11   -1    0    0    0    0  0.00000000000E+00  0.00000000000E+00  0.45593999997E+02  0.45594000000E+02  0.51100000000E-03 0.  1.
         11   -1    0    0    0    0 -0.00000000000E+00 -0.00000000000E+00 -0.45593999997E+02  0.45594000000E+02  0.51100000000E-03 0. -1.
    9900012    2    1    2    0    0 -0.10448253758E+02  0.39894300951E+02 -0.13524138403E+02  0.47787267581E+02  0.19999984209E+02 0.  0.
        -12    1    1    2    0    0  0.10448253758E+02 -0.39894300951E+02  0.13524138403E+02  0.43400732419E+02  0.00000000000E+00 0.  1.
         11    1    3    3    0    0  0.12503038358E+01  0.14573748658E+02 -0.81251633041E+01  0.16732474073E+02  0.51100000000E-03 0. -1.
        -11    1    3    3    0    0 -0.96866757645E+01  0.26121374724E+02 -0.65258611474E+01  0.28613716445E+02  0.51100000000E-03 0.  1.
        -12    1    3    3    0    0 -0.20118818291E+01 -0.80082243072E+00  0.11268860489E+01  0.24410770629E+01  0.00000000000E+00 0.  1.
</event>
<event>
 7    1  0.4931104E-009  0.4778727E+02  0.7816164E-02  0.1312668E+00
        -11   -1    0    0    0    0  0.00000000000E+00  0.00000000000E+00  0.45593999997E+02  0.45594000000E+02  0.51100000000E-03 0.  1.
         11   -1    0    0    0    0 -0.00000000000E+00 -0.00000000000E+00 -0.45593999997E+02  0.45594000000E+02  0.51100000000E-03 0. -1.
    9900012    2    1    2    0    0 -0.32444469551E+02 -0.13734662347E+02 -0.25344400823E+02  0.47787271811E+02  0.20000003494E+02 0.  0.
        -12    1    1    2    0    0  0.32444469551E+02  0.13734662347E+02  0.25344400823E+02  0.43400728189E+02  0.00000000000E+00 0.  1.
         11    1    3    3    0    0 -0.17738402628E+02 -0.67057548504E+01 -0.57078397695E+01  0.19803977151E+02  0.51100000000E-03 0. -1.
        -11    1    3    3    0    0 -0.15514902118E+02 -0.33730868121E+01 -0.13733040395E+02  0.20992529650E+02  0.51100000000E-03 0.  1.
        -12    1    3    3    0    0  0.80883519425E+00 -0.36558206847E+01 -0.59035206590E+01  0.69907650097E+01  0.00000000000E+00 0.  1.
</event>
<event>
 7    1  0.8340288E-009  0.4778727E+02  0.7816164E-02  0.1312668E+00
        -11   -1    0    0    0    0  0.00000000000E+00  0.00000000000E+00  0.45593999997E+02  0.45594000000E+02  0.51100000000E-03 0. -1.
         11   -1    0    0    0    0 -0.00000000000E+00 -0.00000000000E+00 -0.45593999997E+02  0.45594000000E+02  0.51100000000E-03 0.  1.
    9900012    2    1    2    0    0  0.34372553091E+02  0.23068659691E+02  0.13037934189E+02  0.47787271966E+02  0.20000004202E+02 0.  0.
        -12    1    1    2    0    0 -0.34372553091E+02 -0.23068659691E+02 -0.13037934189E+02  0.43400728034E+02  0.00000000000E+00 0.  1.
         11    1    3    3    0    0  0.14550486453E+02  0.10054229874E+02  0.10490889110E+02  0.20563631707E+02  0.51100000000E-03 0. -1.
        -11    1    3    3    0    0  0.20721754726E+02  0.90782082405E+01  0.39172674567E+01  0.22959746697E+02  0.51100000000E-03 0.  1.
        -12    1    3    3    0    0 -0.89968808814E+00  0.39362215759E+01 -0.13702223770E+01  0.42638935626E+01  0.00000000000E+00 0.  1.
</event>
<event>
 7    1  0.5197944E-009  0.4778727E+02  0.7816164E-02  0.1312668E+00
        -11   -1    0    0    0    0  0.00000000000E+00  0.00000000000E+00  0.45593999997E+02  0.45594000000E+02  0.51100000000E-03 0. -1.
         11   -1    0    0    0    0 -0.00000000000E+00 -0.00000000000E+00 -0.45593999997E+02  0.45594000000E+02  0.51100000000E-03 0.  1.
    9900012    2    1    2    0    0 -0.22887309565E+02 -0.11900151875E+02  0.34902444828E+02  0.47787271795E+02  0.20000003421E+02 0.  0.
        -12    1    1    2    0    0  0.22887309565E+02  0.11900151875E+02 -0.34902444828E+02  0.43400728205E+02  0.00000000000E+00 0.  1.
         11    1    3    3    0    0 -0.11214365438E+02 -0.46329498930E+01  0.20262946264E+02  0.23618069533E+02  0.51100000000E-03 0. -1.
        -11    1    3    3    0    0 -0.19824476166E+01  0.38647478581E+01  0.45549680054E+01  0.62939739712E+01  0.51100000000E-03 0.  1.
        -12    1    3    3    0    0 -0.96904965111E+01 -0.11131949840E+02  0.10084530558E+02  0.17875228291E+02  0.00000000000E+00 0.  1.
</event>
<event>
 7    1  0.4931104E-009  0.4778727E+02  0.7816164E-02  0.1312668E+00
        -11   -1    0    0    0    0  0.00000000000E+00  0.00000000000E+00  0.45593999997E+02  0.45594000000E+02  0.51100000000E-03 0. -1.
         11   -1    0    0    0    0 -0.00000000000E+00 -0.00000000000E+00 -0.45593999997E+02  0.45594000000E+02  0.51100000000E-03 0.  1.
    9900012    2    1    2    0    0  0.27336609350E+01  0.32643235423E+02  0.28470500405E+02  0.47787272882E+02  0.20000008380E+02 0.  0.
        -12    1    1    2    0    0 -0.27336609350E+01 -0.32643235423E+02 -0.28470500405E+02  0.43400727118E+02  0.00000000000E+00 0.  1.
         11    1    3    3    0    0 -0.57667706637E+00 -0.65027729582E+00  0.26086942559E+01  0.27496732501E+01  0.51100000000E-03 0. -1.
        -11    1    3    3    0    0 -0.13694966716E+01  0.18419821151E+01 -0.17801764250E+01  0.29047284918E+01  0.51100000000E-03 0.  1.
         12    1    3    3    0    0  0.46798346730E+01  0.31451530604E+02  0.27641982574E+02  0.42132871141E+02  0.00000000000E+00 0. -1.
</event>
<event>
 7    1  0.4931104E-009  0.4778726E+02  0.7816164E-02  0.1312668E+00
        -11   -1    0    0    0    0  0.00000000000E+00  0.00000000000E+00  0.45593999997E+02  0.45594000000E+02  0.51100000000E-03 0.  1.
         11   -1    0    0    0    0 -0.00000000000E+00 -0.00000000000E+00 -0.45593999997E+02  0.45594000000E+02  0.51100000000E-03 0. -1.
    9900012    2    1    2    0    0  0.10484993465E+02  0.40401013680E+02 -0.11893169374E+02  0.47787257240E+02  0.19999937061E+02 0.  0.
        -12    1    1    2    0    0 -0.10484993465E+02 -0.40401013680E+02  0.11893169374E+02  0.43400742760E+02  0.00000000000E+00 0.  1.
         11    1    3    3    0    0  0.37243394079E+01  0.24179301945E+02 -0.95931632744E+01  0.26278092177E+02  0.51100000000E-03 0. -1.
        -11    1    3    3    0    0 -0.25118552531E+01  0.95207048991E+01 -0.20951657452E+01  0.10066923977E+02  0.51100000000E-03 0.  1.
        -12    1    3    3    0    0  0.92725093100E+01  0.67010068358E+01 -0.20484035402E+00  0.11442241087E+02  0.00000000000E+00 0.  1.
</event>
<event>
 7    1  0.4931104E-009  0.4778727E+02  0.7816164E-02  0.1312668E+00
        -11   -1    0    0    0    0  0.00000000000E+00  0.00000000000E+00  0.45593999997E+02  0.45594000000E+02  0.51100000000E-03 0.  1.
         11   -1    0    0    0    0 -0.00000000000E+00 -0.00000000000E+00 -0.45593999997E+02  0.45594000000E+02  0.51100000000E-03 0. -1.
    9900012    2    1    2    0    0 -0.33286994161E+02  0.26053480334E+02 -0.98395051199E+01  0.47787266379E+02  0.19999978729E+02 0.  0.
        -12    1    1    2    0    0  0.33286994161E+02 -0.26053480334E+02  0.98395051199E+01  0.43400733621E+02  0.00000000000E+00 0.  1.
         11    1    3    3    0    0 -0.19855015618E+02  0.19190226173E+02 -0.36968916090E+01  0.27859530391E+02  0.51100000000E-03 0. -1.
        -11    1    3    3    0    0 -0.81650209426E+01  0.98111936816E+01 -0.29549040564E+01  0.13101852796E+02  0.51100000000E-03 0.  1.
        -12    1    3    3    0    0 -0.52669576007E+01 -0.29479395206E+01 -0.31877094544E+01  0.68258831920E+01  0.00000000000E+00 0.  1.
</event>
<event>
 7    1  0.4931104E-009  0.4778730E+02  0.7816164E-02  0.1312668E+00
        -11   -1    0    0    0    0  0.00000000000E+00  0.00000000000E+00  0.45593999997E+02  0.45594000000E+02  0.51100000000E-03 0.  1.
         11   -1    0    0    0    0 -0.00000000000E+00 -0.00000000000E+00 -0.45593999997E+02  0.45594000000E+02  0.51100000000E-03 0. -1.
    9900012    2    1    2    0    0 -0.15064797704E+01 -0.15977049763E+02 -0.40324741222E+02  0.47787304671E+02  0.20000153315E+02 0.  0.
        -12    1    1    2    0    0  0.15064797704E+01  0.15977049763E+02  0.40324741222E+02  0.43400695329E+02  0.00000000000E+00 0.  1.
         11    1    3    3    0    0 -0.85899737592E+01 -0.63403095121E+01 -0.15305752764E+02  0.18661544465E+02  0.51100000000E-03 0. -1.
        -11    1    3    3    0    0 -0.19200502518E+01 -0.34617139793E+01 -0.75744643658E+01  0.85464944470E+01  0.51100000000E-03 0.  1.
        -12    1    3    3    0    0  0.90035442405E+01 -0.61750262719E+01 -0.17444524093E+02  0.20579265759E+02  0.00000000000E+00 0.  1.
</event>
<event>
 7    1  0.4931104E-009  0.4778726E+02  0.7816164E-02  0.1312668E+00
        -11   -1    0    0    0    0  0.00000000000E+00  0.00000000000E+00  0.45593999997E+02  0.45594000000E+02  0.51100000000E-03 0.  1.
         11   -1    0    0    0    0 -0.00000000000E+00 -0.00000000000E+00 -0.45593999997E+02  0.45594000000E+02  0.51100000000E-03 0. -1.
    9900012    2    1    2    0    0 -0.86352139256E+01 -0.41913969107E+02 -0.72302689382E+01  0.47787256749E+02  0.19999934822E+02 0.  0.
        -12    1    1    2    0    0  0.86352139256E+01  0.41913969107E+02  0.72302689382E+01  0.43400743251E+02  0.00000000000E+00 0.  1.
         11    1    3    3    0    0 -0.41415349180E+01 -0.28433566028E+02  0.23296690788E+01  0.28827891821E+02  0.51100000000E-03 0. -1.
        -11    1    3    3    0    0  0.35342137735E+00  0.79888141031E+00  0.32125802849E+00  0.93076589951E+00  0.51100000000E-03 0.  1.
         12    1    3    3    0    0 -0.48471003850E+01 -0.14279284489E+02 -0.98811960455E+01  0.18028599029E+02  0.00000000000E+00 0. -1.
</event>
<event>
 7    1  0.4931104E-009  0.4778727E+02  0.7816164E-02  0.1312668E+00
        -11   -1    0    0    0    0  0.00000000000E+00  0.00000000000E+00  0.45593999997E+02  0.45594000000E+02  0.51100000000E-03 0.  1.
         11   -1    0    0    0    0 -0.00000000000E+00 -0.00000000000E+00 -0.45593999997E+02  0.45594000000E+02  0.51100000000E-03 0. -1.
    9900012    2    1    2    0    0 -0.75622447722E+01 -0.86872059734E+00 -0.42727986438E+02  0.47787273664E+02  0.20000011943E+02 0.  0.
        -12    1    1    2    0    0  0.75622447722E+01  0.86872059734E+00  0.42727986438E+02  0.43400726336E+02  0.00000000000E+00 0.  1.
         11    1    3    3    0    0 -0.67276651816E+01 -0.14048264897E+01 -0.83537195743E+01  0.10817561983E+02  0.51100000000E-03 0. -1.
        -11    1    3    3    0    0 -0.41003547606E+01 -0.36845830246E+01 -0.28520893913E+02  0.29048759889E+02  0.51100000000E-03 0.  1.
        -12    1    3    3    0    0  0.32657751700E+01  0.42206889170E+01 -0.58533729501E+01  0.79209517918E+01  0.00000000000E+00 0.  1.
</event>
<event>
 7    1  0.4931104E-009  0.4778727E+02  0.7816164E-02  0.1312668E+00
        -11   -1    0    0    0    0  0.00000000000E+00  0.00000000000E+00  0.45593999997E+02  0.45594000000E+02  0.51100000000E-03 0. -1.
         11   -1    0    0    0    0 -0.00000000000E+00 -0.00000000000E+00 -0.45593999997E+02  0.45594000000E+02  0.51100000000E-03 0.  1.
    9900012    2    1    2    0    0  0.30087025088E+02 -0.31855095014E+01  0.31116666652E+02  0.47787268520E+02  0.19999988491E+02 0.  0.
        -12    1    1    2    0    0 -0.30087025088E+02  0.31855095014E+01 -0.31116666652E+02  0.43400731480E+02  0.00000000000E+00 0.  1.
         11    1    3    3    0    0  0.28011371606E+01 -0.25187139495E+01  0.77121810156E+01  0.85830079594E+01  0.51100000000E-03 0. -1.
        -11    1    3    3    0    0  0.21324662106E+01  0.13359724496E+01  0.10626336596E+02  0.10920222719E+02  0.51100000000E-03 0.  1.
        -12    1    3    3    0    0  0.25153421717E+02 -0.20027680014E+01  0.12778149041E+02  0.28284037842E+02  0.00000000000E+00 0.  1.
</event>
<event>
 7    1  0.4931104E-009  0.4778727E+02  0.7816164E-02  0.1312668E+00
        -11   -1    0    0    0    0  0.00000000000E+00  0.00000000000E+00  0.45593999997E+02  0.45594000000E+02  0.51100000000E-03 0. -1.
         11   -1    0    0    0    0 -0.00000000000E+00 -0.00000000000E+00 -0.45593999997E+02  0.45594000000E+02  0.51100000000E-03 0.  1.
    9900012    2    1    2    0    0 -0.15046748277E+01  0.42713159468E+02  0.75462281150E+01  0.47787267323E+02  0.19999983034E+02 0.  0.
        -12    1    1    2    0    0  0.15046748277E+01 -0.42713159468E+02 -0.75462281150E+01  0.43400732677E+02  0.00000000000E+00 0.  1.
         11    1    3    3    0    0  0.34499835516E+00  0.26212798598E+02 -0.14027105156E+01  0.26252569994E+02  0.51100000000E-03 0. -1.
        -11    1    3    3    0    0 -0.21098655903E+01  0.45810769373E+01 -0.19249526105E+01  0.53984480667E+01  0.51100000000E-03 0.  1.
        -12    1    3    3    0    0  0.26019240740E+00  0.11919283933E+02  0.10873891241E+02  0.16136249263E+02  0.00000000000E+00 0.  1.
</event>
<event>
 7    1  0.4931104E-009  0.4778727E+02  0.7816164E-02  0.1312668E+00
        -11   -1    0    0    0    0  0.00000000000E+00  0.00000000000E+00  0.45593999997E+02  0.45594000000E+02  0.51100000000E-03 0.  1.
         11   -1    0    0    0    0 -0.00000000000E+00 -0.00000000000E+00 -0.45593999997E+02  0.45594000000E+02  0.51100000000E-03 0. -1.
    9900012    2    1    2    0    0 -0.11593442680E+01  0.68995600920E+01 -0.42833112036E+02  0.47787268494E+02  0.19999988371E+02 0.  0.
        -12    1    1    2    0    0  0.11593442680E+01 -0.68995600920E+01  0.42833112036E+02  0.43400731506E+02  0.00000000000E+00 0.  1.
         11    1    3    3    0    0  0.12080351387E+01 -0.19605498884E+01 -0.18787411817E+02  0.18928020176E+02  0.51100000000E-03 0. -1.
        -11    1    3    3    0    0 -0.41856335616E+01 -0.64932236607E+00 -0.18081218944E+01  0.46054807450E+01  0.51100000000E-03 0.  1.
        -12    1    3    3    0    0  0.18182541549E+01  0.95094323465E+01 -0.22237578325E+02  0.24253767573E+02  0.00000000000E+00 0.  1.
</event>
<event>
 7    1  0.4931104E-009  0.4778727E+02  0.7816164E-02  0.1312668E+00
        -11   -1    0    0    0    0  0.00000000000E+00  0.00000000000E+00  0.45593999997E+02  0.45594000000E+02  0.51100000000E-03 0. -1.
         11   -1    0    0    0    0 -0.00000000000E+00 -0.00000000000E+00 -0.45593999997E+02  0.45594000000E+02  0.51100000000E-03 0.  1.
    9900012    2    1    2    0    0  0.26004425014E+02  0.31113210623E+02 -0.15471299461E+02  0.47787273018E+02  0.20000008998E+02 0.  0.
        -12    1    1    2    0    0 -0.26004425014E+02 -0.31113210623E+02  0.15471299461E+02  0.43400726982E+02  0.00000000000E+00 0.  1.
         11    1    3    3    0    0  0.59690313868E+00 -0.86923730719E+00  0.70291419281E+00  0.12672629864E+01  0.51100000000E-03 0.  1.
        -11    1    3    3    0    0  0.22837721062E+02  0.17897879267E+02 -0.13294754095E+02  0.31916235246E+02  0.51100000000E-03 0. -1.
         12    1    3    3    0    0  0.25698008137E+01  0.14084568663E+02 -0.28794595580E+01  0.14603774786E+02  0.00000000000E+00 0. -1.
</event>
<event>
 7    1  0.4931104E-009  0.4778727E+02  0.7816164E-02  0.1312668E+00
        -11   -1    0    0    0    0  0.00000000000E+00  0.00000000000E+00  0.45593999997E+02  0.45594000000E+02  0.51100000000E-03 0.  1.
         11   -1    0    0    0    0 -0.00000000000E+00 -0.00000000000E+00 -0.45593999997E+02  0.45594000000E+02  0.51100000000E-03 0. -1.
    9900012    2    1    2    0    0 -0.28949011297E+02 -0.21066522016E+02 -0.24531197029E+02  0.47787271520E+02  0.20000002166E+02 0.  0.
        -12    1    1    2    0    0  0.28949011297E+02  0.21066522016E+02  0.24531197029E+02  0.43400728480E+02  0.00000000000E+00 0.  1.
         11    1    3    3    0    0 -0.68411538130E+01 -0.10386472286E+02 -0.86125836912E+01  0.15128013423E+02  0.51100000000E-03 0. -1.
        -11    1    3    3    0    0 -0.63330152235E+01 -0.42155465359E+01  0.20612346677E+01  0.78820430749E+01  0.51100000000E-03 0.  1.
         12    1    3    3    0    0 -0.15774842261E+02 -0.64645031947E+01 -0.17979848006E+02  0.24777215021E+02  0.00000000000E+00 0. -1.
</event>
<event>
 7    1  0.4931104E-009  0.4778727E+02  0.7816164E-02  0.1312668E+00
        -11   -1    0    0    0    0  0.00000000000E+00  0.00000000000E+00  0.45593999997E+02  0.45594000000E+02  0.51100000000E-03 0.  1.
         11   -1    0    0    0    0 -0.00000000000E+00 -0.00000000000E+00 -0.45593999997E+02  0.45594000000E+02  0.51100000000E-03 0. -1.
    9900012    2    1    2    0    0 -0.26236302951E+02 -0.31537268444E+02  0.14166173172E+02  0.47787270101E+02  0.19999995699E+02 0.  0.
        -12    1    1    2    0    0  0.26236302951E+02  0.31537268444E+02 -0.14166173172E+02  0.43400729899E+02  0.00000000000E+00 0.  1.
         11    1    3    3    0    0 -0.12258257508E+02 -0.81217834259E+01  0.47567227931E+01  0.15454923330E+02  0.51100000000E-03 0. -1.
        -11    1    3    3    0    0 -0.11617160906E+02 -0.11040549580E+02  0.11277065068E+02  0.19596539474E+02  0.51100000000E-03 0.  1.
        -12    1    3    3    0    0 -0.23608845379E+01 -0.12374935438E+02 -0.18676146895E+01  0.12735807298E+02  0.00000000000E+00 0.  1.
</event>
<event>
 7    1  0.4931104E-009  0.4778727E+02  0.7816164E-02  0.1312668E+00
        -11   -1    0    0    0    0  0.00000000000E+00  0.00000000000E+00  0.45593999997E+02  0.45594000000E+02  0.51100000000E-03 0.  1.
         11   -1    0    0    0    0 -0.00000000000E+00 -0.00000000000E+00 -0.45593999997E+02  0.45594000000E+02  0.51100000000E-03 0. -1.
    9900012    2    1    2    0    0  0.39440877008E+02  0.63735438912E+01 -0.16953422161E+02  0.47787270008E+02  0.19999995272E+02 0.  0.
        -12    1    1    2    0    0 -0.39440877008E+02 -0.63735438912E+01  0.16953422161E+02  0.43400729992E+02  0.00000000000E+00 0.  1.
         11    1    3    3    0    0  0.89793099315E+01 -0.12506259108E+01 -0.14930163471E+00  0.90672136433E+01  0.51100000000E-03 0. -1.
        -11    1    3    3    0    0  0.24370342815E+02  0.43763949165E+01 -0.53266663912E+01  0.25326662166E+02  0.51100000000E-03 0.  1.
        -12    1    3    3    0    0  0.60912242619E+01  0.32477748854E+01 -0.11477454135E+02  0.13393394198E+02  0.00000000000E+00 0.  1.
</event>
<event>
 7    1  0.4931104E-009  0.4778726E+02  0.7816164E-02  0.1312668E+00
        -11   -1    0    0    0    0  0.00000000000E+00  0.00000000000E+00  0.45593999997E+02  0.45594000000E+02  0.51100000000E-03 0.  1.
         11   -1    0    0    0    0 -0.00000000000E+00 -0.00000000000E+00 -0.45593999997E+02  0.45594000000E+02  0.51100000000E-03 0. -1.
    9900012    2    1    2    0    0 -0.25009654940E+02  0.20206150859E+02 -0.29152237713E+02  0.47787258803E+02  0.19999944187E+02 0.  0.
        -12    1    1    2    0    0  0.25009654940E+02 -0.20206150859E+02  0.29152237713E+02  0.43400741197E+02  0.00000000000E+00 0.  1.
         11    1    3    3    0    0 -0.18705635804E+02  0.11939432693E+02 -0.15267025170E+02  0.26935718325E+02  0.51100000000E-03 0. -1.
        -11    1    3    3    0    0 -0.93411134271E+01  0.83011337688E+01 -0.11598870580E+02  0.17049897973E+02  0.51100000000E-03 0.  1.
        -12    1    3    3    0    0  0.30370942911E+01 -0.34415602893E-01 -0.22863419628E+01  0.38016425053E+01  0.00000000000E+00 0.  1.
</event>
<event>
 7    1  0.4931104E-009  0.4778727E+02  0.7816164E-02  0.1312668E+00
        -11   -1    0    0    0    0  0.00000000000E+00  0.00000000000E+00  0.45593999997E+02  0.45594000000E+02  0.51100000000E-03 0. -1.
         11   -1    0    0    0    0 -0.00000000000E+00 -0.00000000000E+00 -0.45593999997E+02  0.45594000000E+02  0.51100000000E-03 0.  1.
    9900012    2    1    2    0    0 -0.67320578528E+01 -0.42383354787E+02  0.64771718040E+01  0.47787272811E+02  0.20000008056E+02 0.  0.
        -12    1    1    2    0    0  0.67320578528E+01  0.42383354787E+02 -0.64771718040E+01  0.43400727189E+02  0.00000000000E+00 0.  1.
         11    1    3    3    0    0 -0.89358439109E+00 -0.17304584028E+02  0.94206871246E+01  0.19722993373E+02  0.51100000000E-03 0. -1.
        -11    1    3    3    0    0  0.27161089169E+01 -0.23318546552E+01 -0.79635412751E+00  0.36672842730E+01  0.51100000000E-03 0.  1.
        -12    1    3    3    0    0 -0.85545823786E+01 -0.22746916104E+02 -0.21471611931E+01  0.24396995165E+02  0.00000000000E+00 0.  1.
</event>
<event>
 7    1  0.4931104E-009  0.4778728E+02  0.7816164E-02  0.1312668E+00
        -11   -1    0    0    0    0  0.00000000000E+00  0.00000000000E+00  0.45593999997E+02  0.45594000000E+02  0.51100000000E-03 0. -1.
         11   -1    0    0    0    0 -0.00000000000E+00 -0.00000000000E+00 -0.45593999997E+02  0.45594000000E+02  0.51100000000E-03 0.  1.
    9900012    2    1    2    0    0 -0.21175199867E+02  0.35003753167E+02 -0.14490372883E+02  0.47787277293E+02  0.20000028490E+02 0.  0.
        -12    1    1    2    0    0  0.21175199867E+02 -0.35003753167E+02  0.14490372883E+02  0.43400722707E+02  0.00000000000E+00 0.  1.
         11    1    3    3    0    0 -0.12780623538E+02  0.11493698542E+02 -0.12559119703E+01  0.17234464289E+02  0.51100000000E-03 0. -1.
        -11    1    3    3    0    0 -0.89616402260E+01  0.10424818701E+02 -0.10173745504E+02  0.17102424926E+02  0.51100000000E-03 0.  1.
         12    1    3    3    0    0  0.56706389673E+00  0.13085235925E+02 -0.30607154081E+01  0.13450388079E+02  0.00000000000E+00 0. -1.
</event>
<event>
 7    1  0.4931104E-009  0.4778728E+02  0.7816164E-02  0.1312668E+00
        -11   -1    0    0    0    0  0.00000000000E+00  0.00000000000E+00  0.45593999997E+02  0.45594000000E+02  0.51100000000E-03 0.  1.
         11   -1    0    0    0    0 -0.00000000000E+00 -0.00000000000E+00 -0.45593999997E+02  0.45594000000E+02  0.51100000000E-03 0. -1.
    9900012    2    1    2    0    0  0.10889984642E+02  0.13635794308E+02 -0.39737843713E+02  0.47787275641E+02  0.20000020957E+02 0.  0.
        -12    1    1    2    0    0 -0.10889984642E+02 -0.13635794308E+02  0.39737843713E+02  0.43400724359E+02  0.00000000000E+00 0.  1.
         11    1    3    3    0    0  0.16133226009E+01 -0.12262228552E+01  0.14596544653E+00  0.20316836560E+01  0.51100000000E-03 0. -1.
        -11    1    3    3    0    0  0.22967124892E+01 -0.24376711225E+01 -0.98089458458E+01  0.10364967324E+02  0.51100000000E-03 0.  1.
         12    1    3    3    0    0  0.69799495522E+01  0.17299688286E+02 -0.30074863314E+02  0.35390624661E+02  0.00000000000E+00 0. -1.
</event>
<event>
 7    1  0.4931104E-009  0.4778727E+02  0.7816164E-02  0.1312668E+00
        -11   -1    0    0    0    0  0.00000000000E+00  0.00000000000E+00  0.45593999997E+02  0.45594000000E+02  0.51100000000E-03 0.  1.
         11   -1    0    0    0    0 -0.00000000000E+00 -0.00000000000E+00 -0.45593999997E+02  0.45594000000E+02  0.51100000000E-03 0. -1.
    9900012    2    1    2    0    0  0.11042366334E+02 -0.41590617977E+02 -0.56489287013E+01  0.47787265520E+02  0.19999974811E+02 0.  0.
        -12    1    1    2    0    0 -0.11042366334E+02  0.41590617977E+02  0.56489287013E+01  0.43400734480E+02  0.00000000000E+00 0.  1.
         11    1    3    3    0    0  0.25027537504E+01  0.97682043095E+00  0.27596638563E+00  0.27007614105E+01  0.51100000000E-03 0. -1.
        -11    1    3    3    0    0 -0.21259565585E+01 -0.14174821318E+02 -0.27040154834E+01  0.14586190410E+02  0.51100000000E-03 0.  1.
         12    1    3    3    0    0  0.10665569142E+02 -0.28392617089E+02 -0.32208796035E+01  0.30500313699E+02  0.00000000000E+00 0. -1.
</event>
<event>
 7    1  0.4931104E-009  0.4778727E+02  0.7816164E-02  0.1312668E+00
        -11   -1    0    0    0    0  0.00000000000E+00  0.00000000000E+00  0.45593999997E+02  0.45594000000E+02  0.51100000000E-03 0.  1.
         11   -1    0    0    0    0 -0.00000000000E+00 -0.00000000000E+00 -0.45593999997E+02  0.45594000000E+02  0.51100000000E-03 0. -1.
    9900012    2    1    2    0    0 -0.19398808498E+02 -0.31506401779E+02 -0.22686039117E+02  0.47787268497E+02  0.19999988384E+02 0.  0.
        -12    1    1    2    0    0  0.19398808498E+02  0.31506401779E+02  0.22686039117E+02  0.43400731503E+02  0.00000000000E+00 0.  1.
         11    1    3    3    0    0 -0.11456955665E+02 -0.18593724321E+02 -0.10296220834E+02  0.24145404966E+02  0.51100000000E-03 0. -1.
        -11    1    3    3    0    0 -0.10755755548E+02 -0.64616234692E+01 -0.10482434695E+02  0.16349932497E+02  0.51100000000E-03 0.  1.
        -12    1    3    3    0    0  0.28139027142E+01 -0.64510539888E+01 -0.19073835872E+01  0.72919310336E+01  0.00000000000E+00 0.  1.
</event>
<event>
 7    1  0.4931104E-009  0.4778727E+02  0.7816164E-02  0.1312668E+00
        -11   -1    0    0    0    0  0.00000000000E+00  0.00000000000E+00  0.45593999997E+02  0.45594000000E+02  0.51100000000E-03 0. -1.
         11   -1    0    0    0    0 -0.00000000000E+00 -0.00000000000E+00 -0.45593999997E+02  0.45594000000E+02  0.51100000000E-03 0.  1.
    9900012    2    1    2    0    0 -0.48305119875E+01 -0.39306449655E+02  0.17756485364E+02  0.47787267252E+02  0.19999982710E+02 0.  0.
        -12    1    1    2    0    0  0.48305119875E+01  0.39306449655E+02 -0.17756485364E+02  0.43400732748E+02  0.00000000000E+00 0.  1.
         11    1    3    3    0    0 -0.36932528124E+00  0.11696365800E+01  0.13523614784E+00  0.12339935046E+01  0.51100000000E-03 0. -1.
        -11    1    3    3    0    0  0.34853175313E+00  0.63015987574E+00  0.23190584288E+01  0.24282932503E+01  0.51100000000E-03 0.  1.
         12    1    3    3    0    0 -0.48097184594E+01 -0.41106246111E+02  0.15302190788E+02  0.44124980497E+02  0.00000000000E+00 0. -1.
</event>
<event>
 7    1  0.4931104E-009  0.4778727E+02  0.7816164E-02  0.1312668E+00
        -11   -1    0    0    0    0  0.00000000000E+00  0.00000000000E+00  0.45593999997E+02  0.45594000000E+02  0.51100000000E-03 0.  1.
         11   -1    0    0    0    0 -0.00000000000E+00 -0.00000000000E+00 -0.45593999997E+02  0.45594000000E+02  0.51100000000E-03 0. -1.
    9900012    2    1    2    0    0  0.29247883243E+02 -0.26252558400E+02 -0.18411622998E+02  0.47787270073E+02  0.19999995571E+02 0.  0.
        -12    1    1    2    0    0 -0.29247883243E+02  0.26252558400E+02  0.18411622998E+02  0.43400729927E+02  0.00000000000E+00 0.  1.
         11    1    3    3    0    0 -0.52958304647E+00 -0.23098594104E+01 -0.76129396111E+00  0.24890716051E+01  0.51100000000E-03 0. -1.
        -11    1    3    3    0    0  0.39418724280E+01 -0.12475376395E+02 -0.28439518007E+01  0.13388854937E+02  0.51100000000E-03 0.  1.
         12    1    3    3    0    0  0.25835593862E+02 -0.11467322595E+02 -0.14806377236E+02  0.31909343530E+02  0.00000000000E+00 0. -1.
</event>
<event>
 7    1  0.4931104E-009  0.4778731E+02  0.7816164E-02  0.1312668E+00
        -11   -1    0    0    0    0  0.00000000000E+00  0.00000000000E+00  0.45593999997E+02  0.45594000000E+02  0.51100000000E-03 0.  1.
         11   -1    0    0    0    0 -0.00000000000E+00 -0.00000000000E+00 -0.45593999997E+02  0.45594000000E+02  0.51100000000E-03 0. -1.
    9900012    2    1    2    0    0  0.30112173755E+02  0.10717952586E+02 -0.29359882630E+02  0.47787306181E+02  0.20000160203E+02 0.  0.
        -12    1    1    2    0    0 -0.30112173755E+02 -0.10717952586E+02  0.29359882630E+02  0.43400693819E+02  0.00000000000E+00 0.  1.
         11    1    3    3    0    0  0.18572534530E+02  0.10753864400E+02 -0.16113984905E+02  0.26837383408E+02  0.51100000000E-03 0. -1.
        -11    1    3    3    0    0  0.77983251330E+01 -0.26786298212E+00 -0.67502289551E+00  0.78320675194E+01  0.51100000000E-03 0.  1.
        -12    1    3    3    0    0  0.37413140917E+01  0.23195116775E+00 -0.12570874830E+02  0.13117855254E+02  0.00000000000E+00 0.  1.
</event>
<event>
 7    1  0.4931104E-009  0.4778727E+02  0.7816164E-02  0.1312668E+00
        -11   -1    0    0    0    0  0.00000000000E+00  0.00000000000E+00  0.45593999997E+02  0.45594000000E+02  0.51100000000E-03 0. -1.
         11   -1    0    0    0    0 -0.00000000000E+00 -0.00000000000E+00 -0.45593999997E+02  0.45594000000E+02  0.51100000000E-03 0.  1.
    9900012    2    1    2    0    0 -0.36297860649E+02  0.15360498192E+02  0.18169848477E+02  0.47787274360E+02  0.20000015117E+02 0.  0.
        -12    1    1    2    0    0  0.36297860649E+02 -0.15360498192E+02 -0.18169848477E+02  0.43400725640E+02  0.00000000000E+00 0.  1.
         11    1    3    3    0    0 -0.82975258433E+01  0.11716997150E+02  0.84964832887E+00  0.14382588775E+02  0.51100000000E-03 0. -1.
        -11    1    3    3    0    0 -0.21267384238E+01  0.83948018376E+00  0.29484830952E+00  0.23053587766E+01  0.51100000000E-03 0.  1.
        -12    1    3    3    0    0 -0.25873596382E+02  0.28040208587E+01  0.17025351839E+02  0.31099326808E+02  0.00000000000E+00 0.  1.
</event>
<event>
 7    1  0.4931104E-009  0.4778727E+02  0.7816164E-02  0.1312668E+00
        -11   -1    0    0    0    0  0.00000000000E+00  0.00000000000E+00  0.45593999997E+02  0.45594000000E+02  0.51100000000E-03 0. -1.
         11   -1    0    0    0    0 -0.00000000000E+00 -0.00000000000E+00 -0.45593999997E+02  0.45594000000E+02  0.51100000000E-03 0.  1.
    9900012    2    1    2    0    0 -0.37928629771E+01  0.40927785802E+02  0.13933914388E+02  0.47787269241E+02  0.19999991778E+02 0.  0.
        -12    1    1    2    0    0  0.37928629771E+01 -0.40927785802E+02 -0.13933914388E+02  0.43400730759E+02  0.00000000000E+00 0.  1.
         11    1    3    3    0    0 -0.21994217586E+01  0.14719867153E+01  0.32500675809E+01  0.41913172755E+01  0.51100000000E-03 0. -1.
        -11    1    3    3    0    0 -0.59431632846E+01  0.91931701875E+01  0.65162324763E+01  0.12739578245E+02  0.51100000000E-03 0.  1.
         12    1    3    3    0    0  0.43497220661E+01  0.30262628899E+02  0.41676143306E+01  0.30856373720E+02  0.00000000000E+00 0. -1.
</event>
<event>
 7    1  0.4931104E-009  0.4778727E+02  0.7816164E-02  0.1312668E+00
        -11   -1    0    0    0    0  0.00000000000E+00  0.00000000000E+00  0.45593999997E+02  0.45594000000E+02  0.51100000000E-03 0. -1.
         11   -1    0    0    0    0 -0.00000000000E+00 -0.00000000000E+00 -0.45593999997E+02  0.45594000000E+02  0.51100000000E-03 0.  1.
    9900012    2    1    2    0    0  0.64168500754E+00 -0.39334643252E+02  0.18330234563E+02  0.47787269378E+02  0.19999992401E+02 0.  0.
        -12    1    1    2    0    0 -0.64168500754E+00  0.39334643252E+02 -0.18330234563E+02  0.43400730622E+02  0.00000000000E+00 0.  1.
         11    1    3    3    0    0 -0.45237623936E+00 -0.13486859666E+02  0.91652917756E+01  0.16312651578E+02  0.51100000000E-03 0. -1.
        -11    1    3    3    0    0 -0.37120390592E+01 -0.15616068387E-01  0.21043475640E+01  0.42670548121E+01  0.51100000000E-03 0.  1.
         12    1    3    3    0    0  0.48061003061E+01 -0.25832167518E+02  0.70605952231E+01  0.27207562987E+02  0.00000000000E+00 0. -1.
</event>
<event>
 7    1  0.4931104E-009  0.4778727E+02  0.7816164E-02  0.1312668E+00
        -11   -1    0    0    0    0  0.00000000000E+00  0.00000000000E+00  0.45593999997E+02  0.45594000000E+02  0.51100000000E-03 0.  1.
         11   -1    0    0    0    0 -0.00000000000E+00 -0.00000000000E+00 -0.45593999997E+02  0.45594000000E+02  0.51100000000E-03 0. -1.
    9900012    2    1    2    0    0  0.18691586333E+02 -0.30422678485E+02 -0.24672020302E+02  0.47787270148E+02  0.19999995915E+02 0.  0.
        -12    1    1    2    0    0 -0.18691586333E+02  0.30422678485E+02  0.24672020302E+02  0.43400729852E+02  0.00000000000E+00 0.  1.
         11    1    3    3    0    0  0.48007016300E+01 -0.56061730654E+01 -0.10944068539E+02  0.13200323823E+02  0.51100000000E-03 0. -1.
        -11    1    3    3    0    0  0.85100766231E+01 -0.37149323764E+01 -0.75025513747E+01  0.11937772157E+02  0.51100000000E-03 0.  1.
         12    1    3    3    0    0  0.53808080795E+01 -0.21101573043E+02 -0.62254003886E+01  0.22649174168E+02  0.00000000000E+00 0. -1.
</event>
<event>
 7    1  0.5746375E-009  0.4778727E+02  0.7816164E-02  0.1312668E+00
        -11   -1    0    0    0    0  0.00000000000E+00  0.00000000000E+00  0.45593999997E+02  0.45594000000E+02  0.51100000000E-03 0.  1.
         11   -1    0    0    0    0 -0.00000000000E+00 -0.00000000000E+00 -0.45593999997E+02  0.45594000000E+02  0.51100000000E-03 0. -1.
    9900012    2    1    2    0    0  0.18778414679E+02 -0.28761606286E+02 -0.26528559351E+02  0.47787270568E+02  0.19999997829E+02 0.  0.
        -12    1    1    2    0    0 -0.18778414679E+02  0.28761606286E+02  0.26528559351E+02  0.43400729432E+02  0.00000000000E+00 0.  1.
         11    1    3    3    0    0  0.43275472180E+01 -0.11803227478E+02 -0.11769574121E+02  0.17221112596E+02  0.51100000000E-03 0. -1.
        -11    1    3    3    0    0  0.16041453115E+02 -0.17646376024E+02 -0.10671923560E+02  0.26126858930E+02  0.51100000000E-03 0.  1.
        -12    1    3    3    0    0 -0.15905856539E+01  0.68799721557E+00 -0.40870616700E+01  0.44392990421E+01  0.00000000000E+00 0.  1.
</event>
<event>
 7    1  0.4931104E-009  0.4778728E+02  0.7816164E-02  0.1312668E+00
        -11   -1    0    0    0    0  0.00000000000E+00  0.00000000000E+00  0.45593999997E+02  0.45594000000E+02  0.51100000000E-03 0.  1.
         11   -1    0    0    0    0 -0.00000000000E+00 -0.00000000000E+00 -0.45593999997E+02  0.45594000000E+02  0.51100000000E-03 0. -1.
    9900012    2    1    2    0    0 -0.36629018842E+02 -0.19249601129E+02 -0.13091625736E+02  0.47787276166E+02  0.20000023349E+02 0.  0.
        -12    1    1    2    0    0  0.36629018842E+02  0.19249601129E+02  0.13091625736E+02  0.43400723834E+02  0.00000000000E+00 0.  1.
         11    1    3    3    0    0 -0.14636601023E+02 -0.64614158026E+01 -0.69760566871E+01  0.17454092668E+02  0.51100000000E-03 0. -1.
        -11    1    3    3    0    0 -0.20551664203E+00 -0.12544935618E+01 -0.55305536956E+01  0.56747700947E+01  0.51100000000E-03 0.  1.
         12    1    3    3    0    0 -0.21786901176E+02 -0.11533691765E+02 -0.58501535342E+00  0.24658413403E+02  0.00000000000E+00 0. -1.
</event>
<event>
 7    1  0.4931104E-009  0.4778727E+02  0.7816164E-02  0.1312668E+00
        -11   -1    0    0    0    0  0.00000000000E+00  0.00000000000E+00  0.45593999997E+02  0.45594000000E+02  0.51100000000E-03 0.  1.
         11   -1    0    0    0    0 -0.00000000000E+00 -0.00000000000E+00 -0.45593999997E+02  0.45594000000E+02  0.51100000000E-03 0. -1.
    9900012    2    1    2    0    0 -0.43073004139E+02 -0.45271013887E+01 -0.28008904169E+01  0.47787270517E+02  0.19999997596E+02 0.  0.
        -12    1    1    2    0    0  0.43073004139E+02  0.45271013887E+01  0.28008904169E+01  0.43400729483E+02  0.00000000000E+00 0.  1.
         11    1    3    3    0    0 -0.64871785737E+01 -0.44982051280E+01 -0.11107471105E+01  0.79718940425E+01  0.51100000000E-03 0. -1.
        -11    1    3    3    0    0 -0.65406054953E+01 -0.47267533930E+00 -0.66737842243E+01  0.93564062735E+01  0.51100000000E-03 0.  1.
         12    1    3    3    0    0 -0.30045220070E+02  0.44377907859E+00  0.49836409178E+01  0.30458970201E+02  0.00000000000E+00 0. -1.
</event>
<event>
 7    1  0.4931104E-009  0.4778727E+02  0.7816164E-02  0.1312668E+00
        -11   -1    0    0    0    0  0.00000000000E+00  0.00000000000E+00  0.45593999997E+02  0.45594000000E+02  0.51100000000E-03 0. -1.
         11   -1    0    0    0    0 -0.00000000000E+00 -0.00000000000E+00 -0.45593999997E+02  0.45594000000E+02  0.51100000000E-03 0.  1.
    9900012    2    1    2    0    0  0.32876255981E+02  0.17964215531E+02  0.21910315228E+02  0.47787272352E+02  0.20000005963E+02 0.  0.
        -12    1    1    2    0    0 -0.32876255981E+02 -0.17964215531E+02 -0.21910315228E+02  0.43400727648E+02  0.00000000000E+00 0.  1.
         11    1    3    3    0    0  0.29996887478E+02  0.96434137839E+01  0.16331037262E+02  0.35489596589E+02  0.51100000000E-03 0.  1.
        -11    1    3    3    0    0  0.47853623985E+01  0.65740192918E+01  0.30603729924E+01  0.86881129163E+01  0.51100000000E-03 0. -1.
        -12    1    3    3    0    0 -0.19059938956E+01  0.17467824555E+01  0.25189049736E+01  0.36095628465E+01  0.00000000000E+00 0.  1.
</event>
<event>
 7    1  0.4931104E-009  0.4778727E+02  0.7816164E-02  0.1312668E+00
        -11   -1    0    0    0    0  0.00000000000E+00  0.00000000000E+00  0.45593999997E+02  0.45594000000E+02  0.51100000000E-03 0.  1.
         11   -1    0    0    0    0 -0.00000000000E+00 -0.00000000000E+00 -0.45593999997E+02  0.45594000000E+02  0.51100000000E-03 0. -1.
    9900012    2    1    2    0    0  0.22394683613E+02 -0.34634127460E+01 -0.37014944120E+02  0.47787272239E+02  0.20000005445E+02 0.  0.
        -12    1    1    2    0    0 -0.22394683613E+02  0.34634127460E+01  0.37014944120E+02  0.43400727761E+02  0.00000000000E+00 0.  1.
         11    1    3    3    0    0  0.29341894370E+01 -0.41809586248E+01 -0.16075602963E+01  0.53548233436E+01  0.51100000000E-03 0. -1.
        -11    1    3    3    0    0  0.17396254061E+02  0.47580451087E+01 -0.23042176407E+02  0.29261075552E+02  0.51100000000E-03 0.  1.
         12    1    3    3    0    0  0.20642401147E+01 -0.40404992300E+01 -0.12365207417E+02  0.13171373343E+02  0.00000000000E+00 0. -1.
</event>
<event>
 7    1  0.6313502E-009  0.4778727E+02  0.7816164E-02  0.1312668E+00
        -11   -1    0    0    0    0  0.00000000000E+00  0.00000000000E+00  0.45593999997E+02  0.45594000000E+02  0.51100000000E-03 0.  1.
         11   -1    0    0    0    0 -0.00000000000E+00 -0.00000000000E+00 -0.45593999997E+02  0.45594000000E+02  0.51100000000E-03 0. -1.
    9900012    2    1    2    0    0  0.40768956838E+02  0.13863919172E+02 -0.54135983555E+01  0.47787272545E+02  0.20000006841E+02 0.  0.
        -12    1    1    2    0    0 -0.40768956838E+02 -0.13863919172E+02  0.54135983555E+01  0.43400727455E+02  0.00000000000E+00 0.  1.
         11    1    3    3    0    0  0.26399893580E+02  0.60403331883E+01 -0.24550497652E+01  0.27193147586E+02  0.51100000000E-03 0. -1.
        -11    1    3    3    0    0  0.51838975366E+01 -0.29004764106E+01 -0.25606503879E+01  0.64685769493E+01  0.51100000000E-03 0.  1.
        -12    1    3    3    0    0  0.91851657218E+01  0.10724062394E+02 -0.39789820235E+00  0.14125548009E+02  0.00000000000E+00 0.  1.
</event>
<event>
 7    1  0.4931104E-009  0.4778727E+02  0.7816164E-02  0.1312668E+00
        -11   -1    0    0    0    0  0.00000000000E+00  0.00000000000E+00  0.45593999997E+02  0.45594000000E+02  0.51100000000E-03 0. -1.
         11   -1    0    0    0    0 -0.00000000000E+00 -0.00000000000E+00 -0.45593999997E+02  0.45594000000E+02  0.51100000000E-03 0.  1.
    9900012    2    1    2    0    0 -0.51640084608E+00  0.43355974574E+02 -0.19016014055E+01  0.47787270871E+02  0.19999999207E+02 0.  0.
        -12    1    1    2    0    0  0.51640084608E+00 -0.43355974574E+02  0.19016014055E+01  0.43400729129E+02  0.00000000000E+00 0.  1.
         11    1    3    3    0    0 -0.56885758973E+01  0.34075002327E+02 -0.13521326636E+01  0.34573023332E+02  0.51100000000E-03 0. -1.
        -11    1    3    3    0    0 -0.19390049892E+01  0.19304266741E+01 -0.11528806729E+01  0.29690775671E+01  0.51100000000E-03 0.  1.
        -12    1    3    3    0    0  0.71111800405E+01  0.73505455722E+01  0.60341193092E+00  0.10245169971E+02  0.00000000000E+00 0.  1.
</event>
<event>
 7    1  0.4931104E-009  0.4778727E+02  0.7816164E-02  0.1312668E+00
        -11   -1    0    0    0    0  0.00000000000E+00  0.00000000000E+00  0.45593999997E+02  0.45594000000E+02  0.51100000000E-03 0.  1.
         11   -1    0    0    0    0 -0.00000000000E+00 -0.00000000000E+00 -0.45593999997E+02  0.45594000000E+02  0.51100000000E-03 0. -1.
    9900012    2    1    2    0    0  0.92137077389E+00  0.30871762656E+02 -0.30491125398E+02  0.47787269803E+02  0.19999994342E+02 0.  0.
        -12    1    1    2    0    0 -0.92137077389E+00 -0.30871762656E+02  0.30491125398E+02  0.43400730197E+02  0.00000000000E+00 0.  1.
         11    1    3    3    0    0 -0.30487519234E+01  0.22316329646E+02 -0.20669324140E+02  0.30570155672E+02  0.51100000000E-03 0.  1.
        -11    1    3    3    0    0  0.25651273787E+01  0.93165543633E+01 -0.28647729166E+01  0.10078937831E+02  0.51100000000E-03 0. -1.
        -12    1    3    3    0    0  0.14049953186E+01 -0.76112135313E+00 -0.69570283411E+01  0.71381763006E+01  0.00000000000E+00 0.  1.
</event>
<event>
 7    1  0.4931104E-009  0.4778727E+02  0.7816164E-02  0.1312668E+00
        -11   -1    0    0    0    0  0.00000000000E+00  0.00000000000E+00  0.45593999997E+02  0.45594000000E+02  0.51100000000E-03 0. -1.
         11   -1    0    0    0    0 -0.00000000000E+00 -0.00000000000E+00 -0.45593999997E+02  0.45594000000E+02  0.51100000000E-03 0.  1.
    9900012    2    1    2    0    0  0.42223741157E+02  0.15579297506E+01 -0.99172487529E+01  0.47787270913E+02  0.19999999402E+02 0.  0.
        -12    1    1    2    0    0 -0.42223741157E+02 -0.15579297506E+01  0.99172487529E+01  0.43400729087E+02  0.00000000000E+00 0.  1.
         11    1    3    3    0    0  0.63853828890E+01 -0.38558615319E+01  0.63580455378E+00  0.74863228947E+01  0.51100000000E-03 0. -1.
        -11    1    3    3    0    0  0.65431025177E+01  0.46488397659E+01  0.22278341716E+01  0.83298947822E+01  0.51100000000E-03 0.  1.
         12    1    3    3    0    0  0.29295255751E+02  0.76495151661E+00 -0.12780887478E+02  0.31971053236E+02  0.00000000000E+00 0. -1.
</event>
<event>
 7    1  0.4931104E-009  0.4778727E+02  0.7816164E-02  0.1312668E+00
        -11   -1    0    0    0    0  0.00000000000E+00  0.00000000000E+00  0.45593999997E+02  0.45594000000E+02  0.51100000000E-03 0.  1.
         11   -1    0    0    0    0 -0.00000000000E+00 -0.00000000000E+00 -0.45593999997E+02  0.45594000000E+02  0.51100000000E-03 0. -1.
    9900012    2    1    2    0    0 -0.10480940932E+02 -0.14123530793E+02 -0.39677437236E+02  0.47787271083E+02  0.20000000177E+02 0.  0.
        -12    1    1    2    0    0  0.10480940932E+02  0.14123530793E+02  0.39677437236E+02  0.43400728917E+02  0.00000000000E+00 0.  1.
         11    1    3    3    0    0  0.10650445289E+01  0.80447823157E+00 -0.10635684865E+01  0.17066585072E+01  0.51100000000E-03 0. -1.
        -11    1    3    3    0    0 -0.37998414346E+01  0.31888127633E+01 -0.45632613725E+01  0.67402282145E+01  0.51100000000E-03 0.  1.
         12    1    3    3    0    0 -0.77461440260E+01 -0.18116821788E+02 -0.34050607377E+02  0.39340384362E+02  0.00000000000E+00 0. -1.
</event>
<event>
 7    1  0.4931104E-009  0.4778727E+02  0.7816164E-02  0.1312668E+00
        -11   -1    0    0    0    0  0.00000000000E+00  0.00000000000E+00  0.45593999997E+02  0.45594000000E+02  0.51100000000E-03 0.  1.
         11   -1    0    0    0    0 -0.00000000000E+00 -0.00000000000E+00 -0.45593999997E+02  0.45594000000E+02  0.51100000000E-03 0. -1.
    9900012    2    1    2    0    0 -0.13752295315E+02 -0.15017660544E+02 -0.38327109196E+02  0.47787273578E+02  0.20000011550E+02 0.  0.
        -12    1    1    2    0    0  0.13752295315E+02  0.15017660544E+02  0.38327109196E+02  0.43400726422E+02  0.00000000000E+00 0.  1.
         11    1    3    3    0    0 -0.14577599113E+02 -0.89268273973E+01 -0.24987353292E+02  0.30274782709E+02  0.51100000000E-03 0. -1.
        -11    1    3    3    0    0 -0.28584516939E+01  0.10657426096E+01 -0.21654753111E+01  0.37411010385E+01  0.51100000000E-03 0.  1.
        -12    1    3    3    0    0  0.36837554914E+01 -0.71565757566E+01 -0.11174280593E+02  0.13771389830E+02  0.00000000000E+00 0.  1.
</event>
<event>
 7    1  0.4931104E-009  0.4778728E+02  0.7816164E-02  0.1312668E+00
        -11   -1    0    0    0    0  0.00000000000E+00  0.00000000000E+00  0.45593999997E+02  0.45594000000E+02  0.51100000000E-03 0. -1.
         11   -1    0    0    0    0 -0.00000000000E+00 -0.00000000000E+00 -0.45593999997E+02  0.45594000000E+02  0.51100000000E-03 0.  1.
    9900012    2    1    2    0    0  0.63837020404E+01 -0.42891078226E+02  0.17961471997E+01  0.47787281252E+02  0.20000046539E+02 0.  0.
        -12    1    1    2    0    0 -0.63837020404E+01  0.42891078226E+02 -0.17961471997E+01  0.43400718748E+02  0.00000000000E+00 0.  1.
         11    1    3    3    0    0 -0.24692127429E+01 -0.33818956518E+01  0.17119498784E+01  0.45238260816E+01  0.51100000000E-03 0. -1.
        -11    1    3    3    0    0  0.32474676492E+01 -0.52561289888E+01 -0.52992991584E+01  0.81397487622E+01  0.51100000000E-03 0.  1.
         12    1    3    3    0    0  0.56054471342E+01 -0.34253053585E+02  0.53834964798E+01  0.35123706408E+02  0.00000000000E+00 0. -1.
</event>
<event>
 7    1  0.4931104E-009  0.4778727E+02  0.7816164E-02  0.1312668E+00
        -11   -1    0    0    0    0  0.00000000000E+00  0.00000000000E+00  0.45593999997E+02  0.45594000000E+02  0.51100000000E-03 0.  1.
         11   -1    0    0    0    0 -0.00000000000E+00 -0.00000000000E+00 -0.45593999997E+02  0.45594000000E+02  0.51100000000E-03 0. -1.
    9900012    2    1    2    0    0  0.38033104017E+02  0.20514155482E+02 -0.40343141072E+01  0.47787271128E+02  0.20000000380E+02 0.  0.
        -12    1    1    2    0    0 -0.38033104017E+02 -0.20514155482E+02  0.40343141072E+01  0.43400728872E+02  0.00000000000E+00 0.  1.
         11    1    3    3    0    0  0.11129344383E+02  0.19522640173E+01  0.28112607489E+01  0.11643746324E+02  0.51100000000E-03 0. -1.
        -11    1    3    3    0    0  0.58643256973E+01  0.44043146341E+01  0.42351371417E+01  0.84690430481E+01  0.51100000000E-03 0.  1.
         12    1    3    3    0    0  0.21039433937E+02  0.14157576831E+02 -0.11080711998E+02  0.27674481756E+02  0.00000000000E+00 0. -1.
</event>
<event>
 7    1  0.4931104E-009  0.4778727E+02  0.7816164E-02  0.1312668E+00
        -11   -1    0    0    0    0  0.00000000000E+00  0.00000000000E+00  0.45593999997E+02  0.45594000000E+02  0.51100000000E-03 0.  1.
         11   -1    0    0    0    0 -0.00000000000E+00 -0.00000000000E+00 -0.45593999997E+02  0.45594000000E+02  0.51100000000E-03 0. -1.
    9900012    2    1    2    0    0 -0.36411914549E+02  0.22968591574E+02 -0.54990389418E+01  0.47787272479E+02  0.20000006541E+02 0.  0.
        -12    1    1    2    0    0  0.36411914549E+02 -0.22968591574E+02  0.54990389418E+01  0.43400727521E+02  0.00000000000E+00 0.  1.
         11    1    3    3    0    0 -0.18898605466E+02  0.16857156093E+02 -0.34910013046E+01  0.25563804304E+02  0.51100000000E-03 0. -1.
        -11    1    3    3    0    0 -0.15349878586E+02  0.91083993522E+01  0.32625416949E+00  0.17851838937E+02  0.51100000000E-03 0.  1.
        -12    1    3    3    0    0 -0.21634304967E+01 -0.29969638711E+01 -0.23342918066E+01  0.43716292383E+01  0.00000000000E+00 0.  1.
</event>
<event>
 7    1  0.4931104E-009  0.4778727E+02  0.7816164E-02  0.1312668E+00
        -11   -1    0    0    0    0  0.00000000000E+00  0.00000000000E+00  0.45593999997E+02  0.45594000000E+02  0.51100000000E-03 0. -1.
         11   -1    0    0    0    0 -0.00000000000E+00 -0.00000000000E+00 -0.45593999997E+02  0.45594000000E+02  0.51100000000E-03 0.  1.
    9900012    2    1    2    0    0  0.14616743312E+02  0.30351687976E+02 -0.27363279257E+02  0.47787271899E+02  0.20000003894E+02 0.  0.
        -12    1    1    2    0    0 -0.14616743312E+02 -0.30351687976E+02  0.27363279257E+02  0.43400728101E+02  0.00000000000E+00 0.  1.
         11    1    3    3    0    0 -0.17563537146E+01  0.22952898396E+01 -0.42503502010E+00  0.29212649397E+01  0.51100000000E-03 0. -1.
        -11    1    3    3    0    0  0.74781913796E+01  0.20138308642E+02 -0.89028523850E+01  0.23253722328E+02  0.51100000000E-03 0.  1.
        -12    1    3    3    0    0  0.88949056471E+01  0.79180894948E+01 -0.18035391852E+02  0.21612284631E+02  0.00000000000E+00 0.  1.
</event>
<event>
 7    1  0.4931104E-009  0.4778727E+02  0.7816164E-02  0.1312668E+00
        -11   -1    0    0    0    0  0.00000000000E+00  0.00000000000E+00  0.45593999997E+02  0.45594000000E+02  0.51100000000E-03 0.  1.
         11   -1    0    0    0    0 -0.00000000000E+00 -0.00000000000E+00 -0.45593999997E+02  0.45594000000E+02  0.51100000000E-03 0. -1.
    9900012    2    1    2    0    0  0.26069083335E+02  0.19957228310E+02 -0.28385472963E+02  0.47787272551E+02  0.20000006868E+02 0.  0.
        -12    1    1    2    0    0 -0.26069083335E+02 -0.19957228310E+02  0.28385472963E+02  0.43400727449E+02  0.00000000000E+00 0.  1.
         11    1    3    3    0    0  0.21066413327E+02  0.10687126179E+02 -0.20693597695E+02  0.31404353555E+02  0.51100000000E-03 0. -1.
        -11    1    3    3    0    0  0.25672446004E+01  0.68543480418E+01 -0.98936345048E+01  0.12306780078E+02  0.51100000000E-03 0.  1.
         12    1    3    3    0    0  0.24354254079E+01  0.24157540897E+01  0.22017592362E+01  0.40761389173E+01  0.00000000000E+00 0. -1.
</event>
<event>
 7    1  0.4931104E-009  0.4778727E+02  0.7816164E-02  0.1312668E+00
        -11   -1    0    0    0    0  0.00000000000E+00  0.00000000000E+00  0.45593999997E+02  0.45594000000E+02  0.51100000000E-03 0. -1.
         11   -1    0    0    0    0 -0.00000000000E+00 -0.00000000000E+00 -0.45593999997E+02  0.45594000000E+02  0.51100000000E-03 0.  1.
    9900012    2    1    2    0    0  0.42880755539E+02  0.52379421948E+01 -0.41746955028E+01  0.47787270553E+02  0.19999997758E+02 0.  0.
        -12    1    1    2    0    0 -0.42880755539E+02 -0.52379421948E+01  0.41746955028E+01  0.43400729447E+02  0.00000000000E+00 0.  1.
         11    1    3    3    0    0  0.14308392929E+02  0.50135131069E+01  0.21283307433E+01  0.15309971061E+02  0.51100000000E-03 0. -1.
        -11    1    3    3    0    0  0.24331982736E+02  0.33489335758E+01 -0.39815002677E+00  0.24564593701E+02  0.51100000000E-03 0.  1.
        -12    1    3    3    0    0  0.42403798738E+01 -0.31245044879E+01 -0.59048762193E+01  0.79127057910E+01  0.00000000000E+00 0.  1.
</event>
<event>
 7    1  0.4931104E-009  0.4778727E+02  0.7816164E-02  0.1312668E+00
        -11   -1    0    0    0    0  0.00000000000E+00  0.00000000000E+00  0.45593999997E+02  0.45594000000E+02  0.51100000000E-03 0.  1.
         11   -1    0    0    0    0 -0.00000000000E+00 -0.00000000000E+00 -0.45593999997E+02  0.45594000000E+02  0.51100000000E-03 0. -1.
    9900012    2    1    2    0    0 -0.23325176347E+02 -0.22099895985E+02 -0.29174540342E+02  0.47787273528E+02  0.20000011324E+02 0.  0.
        -12    1    1    2    0    0  0.23325176347E+02  0.22099895985E+02  0.29174540342E+02  0.43400726472E+02  0.00000000000E+00 0.  1.
         11    1    3    3    0    0 -0.50788372315E+01 -0.11071183912E+02 -0.72675602059E+01  0.14183903991E+02  0.51100000000E-03 0. -1.
        -11    1    3    3    0    0 -0.68565586243E+01 -0.90906530509E+01 -0.35752550287E+01  0.11934605894E+02  0.51100000000E-03 0.  1.
        -12    1    3    3    0    0 -0.11389780491E+02 -0.19380590221E+01 -0.18331725107E+02  0.21668763643E+02  0.00000000000E+00 0.  1.
</event>
<event>
 7    1  0.4931104E-009  0.4778727E+02  0.7816164E-02  0.1312668E+00
        -11   -1    0    0    0    0  0.00000000000E+00  0.00000000000E+00  0.45593999997E+02  0.45594000000E+02  0.51100000000E-03 0.  1.
         11   -1    0    0    0    0 -0.00000000000E+00 -0.00000000000E+00 -0.45593999997E+02  0.45594000000E+02  0.51100000000E-03 0. -1.
    9900012    2    1    2    0    0 -0.50059284790E+01 -0.21622781652E+02 -0.37296371159E+02  0.47787270652E+02  0.19999998211E+02 0.  0.
        -12    1    1    2    0    0  0.50059284790E+01  0.21622781652E+02  0.37296371159E+02  0.43400729348E+02  0.00000000000E+00 0.  1.
         11    1    3    3    0    0  0.76486037853E+00 -0.12687692561E+02 -0.12262059143E+02  0.17661275396E+02  0.51100000000E-03 0. -1.
        -11    1    3    3    0    0  0.11553181942E+01 -0.86296349832E+01 -0.19135834639E+02  0.21023451850E+02  0.51100000000E-03 0.  1.
        -12    1    3    3    0    0 -0.69261070517E+01 -0.30545410825E+00 -0.58984773760E+01  0.91025434061E+01  0.00000000000E+00 0.  1.
</event>
<event>
 7    1  0.6608196E-009  0.4778727E+02  0.7816164E-02  0.1312668E+00
        -11   -1    0    0    0    0  0.00000000000E+00  0.00000000000E+00  0.45593999997E+02  0.45594000000E+02  0.51100000000E-03 0.  1.
         11   -1    0    0    0    0 -0.00000000000E+00 -0.00000000000E+00 -0.45593999997E+02  0.45594000000E+02  0.51100000000E-03 0. -1.
    9900012    2    1    2    0    0  0.12004894268E+02  0.41573452277E+02 -0.33397397718E+01  0.47787270947E+02  0.19999999554E+02 0.  0.
        -12    1    1    2    0    0 -0.12004894268E+02 -0.41573452277E+02  0.33397397718E+01  0.43400729053E+02  0.00000000000E+00 0.  1.
         11    1    3    3    0    0  0.11660666216E+01  0.99702271240E+01 -0.17412990986E+01  0.10188094183E+02  0.51100000000E-03 0. -1.
        -11    1    3    3    0    0  0.12529272219E+01  0.18100002753E+01  0.51338506078E+01  0.55859063673E+01  0.51100000000E-03 0.  1.
        -12    1    3    3    0    0  0.95859004247E+01  0.29793224878E+02 -0.67322912810E+01  0.32013270396E+02  0.00000000000E+00 0.  1.
</event>
<event>
 7    1  0.4931104E-009  0.4778728E+02  0.7816164E-02  0.1312668E+00
        -11   -1    0    0    0    0  0.00000000000E+00  0.00000000000E+00  0.45593999997E+02  0.45594000000E+02  0.51100000000E-03 0.  1.
         11   -1    0    0    0    0 -0.00000000000E+00 -0.00000000000E+00 -0.45593999997E+02  0.45594000000E+02  0.51100000000E-03 0. -1.
    9900012    2    1    2    0    0 -0.15868048401E+02 -0.18827219383E+02 -0.35740225559E+02  0.47787275665E+02  0.20000021068E+02 0.  0.
        -12    1    1    2    0    0  0.15868048401E+02  0.18827219383E+02  0.35740225559E+02  0.43400724335E+02  0.00000000000E+00 0.  1.
         11    1    3    3    0    0 -0.10615002671E+02 -0.14043452258E+02 -0.11039806913E+02  0.20779176354E+02  0.51100000000E-03 0. -1.
        -11    1    3    3    0    0 -0.54135850916E+01 -0.23835489824E+01 -0.70868401553E+01  0.92310082301E+01  0.51100000000E-03 0.  1.
        -12    1    3    3    0    0  0.16053936148E+00 -0.24002181421E+01 -0.17613578491E+02  0.17777091081E+02  0.00000000000E+00 0.  1.
</event>
<event>
 7    1  0.4931104E-009  0.4778729E+02  0.7816164E-02  0.1312668E+00
        -11   -1    0    0    0    0  0.00000000000E+00  0.00000000000E+00  0.45593999997E+02  0.45594000000E+02  0.51100000000E-03 0.  1.
         11   -1    0    0    0    0 -0.00000000000E+00 -0.00000000000E+00 -0.45593999997E+02  0.45594000000E+02  0.51100000000E-03 0. -1.
    9900012    2    1    2    0    0 -0.24889005132E+02  0.16520698750E+02 -0.31483731893E+02  0.47787292200E+02  0.20000096456E+02 0.  0.
        -12    1    1    2    0    0  0.24889005132E+02 -0.16520698750E+02  0.31483731893E+02  0.43400707800E+02  0.00000000000E+00 0.  1.
         11    1    3    3    0    0 -0.15778918922E+01  0.19626238744E+01 -0.41872252658E+01  0.48861529840E+01  0.51100000000E-03 0.  1.
        -11    1    3    3    0    0 -0.39496032313E+01 -0.20098217827E+01  0.12802977670E+01  0.46127987076E+01  0.51100000000E-03 0. -1.
         12    1    3    3    0    0 -0.19361510008E+02  0.16567896658E+02 -0.28576804394E+02  0.38288340508E+02  0.00000000000E+00 0. -1.
</event>
<event>
 7    1  0.4931104E-009  0.4778727E+02  0.7816164E-02  0.1312668E+00
        -11   -1    0    0    0    0  0.00000000000E+00  0.00000000000E+00  0.45593999997E+02  0.45594000000E+02  0.51100000000E-03 0.  1.
         11   -1    0    0    0    0 -0.00000000000E+00 -0.00000000000E+00 -0.45593999997E+02  0.45594000000E+02  0.51100000000E-03 0. -1.
    9900012    2    1    2    0    0  0.44188135664E+01  0.42100600840E+02 -0.95726935341E+01  0.47787274592E+02  0.20000016174E+02 0.  0.
        -12    1    1    2    0    0 -0.44188135664E+01 -0.42100600840E+02  0.95726935341E+01  0.43400725408E+02  0.00000000000E+00 0.  1.
         11    1    3    3    0    0  0.63229826049E+01  0.20947162774E+02 -0.31187580161E+01  0.22101818684E+02  0.51100000000E-03 0. -1.
        -11    1    3    3    0    0 -0.63894551037E+01  0.11654426081E+02  0.12324154101E+00  0.13291575246E+02  0.51100000000E-03 0.  1.
         12    1    3    3    0    0  0.44852860652E+01  0.94990119859E+01 -0.65771770590E+01  0.12393880662E+02  0.00000000000E+00 0. -1.
</event>
<event>
 7    1  0.4931104E-009  0.4778728E+02  0.7816164E-02  0.1312668E+00
        -11   -1    0    0    0    0  0.00000000000E+00  0.00000000000E+00  0.45593999997E+02  0.45594000000E+02  0.51100000000E-03 0. -1.
         11   -1    0    0    0    0 -0.00000000000E+00 -0.00000000000E+00 -0.45593999997E+02  0.45594000000E+02  0.51100000000E-03 0.  1.
    9900012    2    1    2    0    0 -0.20740007647E+02 -0.34943522120E+02  0.15245494517E+02  0.47787276982E+02  0.20000027074E+02 0.  0.
        -12    1    1    2    0    0  0.20740007647E+02  0.34943522120E+02 -0.15245494517E+02  0.43400723018E+02  0.00000000000E+00 0.  1.
         11    1    3    3    0    0 -0.21709152900E+01 -0.84487927126E+01  0.75568465143E+01  0.11541269471E+02  0.51100000000E-03 0. -1.
        -11    1    3    3    0    0  0.10729553590E+01 -0.62937395073E+01 -0.15935032758E+01  0.65803984028E+01  0.51100000000E-03 0.  1.
         12    1    3    3    0    0 -0.19642047716E+02 -0.20200989901E+02  0.92821512782E+01  0.29665609109E+02  0.00000000000E+00 0. -1.
</event>
<event>
 7    1  0.4931104E-009  0.4778726E+02  0.7816164E-02  0.1312668E+00
        -11   -1    0    0    0    0  0.00000000000E+00  0.00000000000E+00  0.45593999997E+02  0.45594000000E+02  0.51100000000E-03 0. -1.
         11   -1    0    0    0    0 -0.00000000000E+00 -0.00000000000E+00 -0.45593999997E+02  0.45594000000E+02  0.51100000000E-03 0.  1.
    9900012    2    1    2    0    0 -0.65464426478E+01 -0.42552290311E+02 -0.54836734825E+01  0.47787262714E+02  0.19999962020E+02 0.  0.
        -12    1    1    2    0    0  0.65464426478E+01  0.42552290311E+02  0.54836734825E+01  0.43400737286E+02  0.00000000000E+00 0.  1.
         11    1    3    3    0    0  0.23120092644E+01 -0.20122712346E+02  0.32544907897E+01  0.20514888485E+02  0.51100000000E-03 0. -1.
        -11    1    3    3    0    0  0.12439370432E+01 -0.56668338805E+01  0.88530675488E-01  0.58024325536E+01  0.51100000000E-03 0.  1.
        -12    1    3    3    0    0 -0.10102388955E+02 -0.16762744085E+02 -0.88266949477E+01  0.21469941676E+02  0.00000000000E+00 0.  1.
</event>
<event>
 7    1  0.4931104E-009  0.4778727E+02  0.7816164E-02  0.1312668E+00
        -11   -1    0    0    0    0  0.00000000000E+00  0.00000000000E+00  0.45593999997E+02  0.45594000000E+02  0.51100000000E-03 0. -1.
         11   -1    0    0    0    0 -0.00000000000E+00 -0.00000000000E+00 -0.45593999997E+02  0.45594000000E+02  0.51100000000E-03 0.  1.
    9900012    2    1    2    0    0  0.30305935795E+02 -0.12094465604E+02  0.28616380238E+02  0.47787273501E+02  0.20000011202E+02 0.  0.
        -12    1    1    2    0    0 -0.30305935795E+02  0.12094465604E+02 -0.28616380238E+02  0.43400726499E+02  0.00000000000E+00 0.  1.
         11    1    3    3    0    0  0.57988819828E+00  0.27091430561E+01  0.26677257287E+01  0.38461002647E+01  0.51100000000E-03 0. -1.
        -11    1    3    3    0    0  0.33045982626E+01  0.16127802472E+01  0.42086208684E+00  0.37011558952E+01  0.51100000000E-03 0.  1.
         12    1    3    3    0    0  0.26421449334E+02 -0.16416388907E+02  0.25527792423E+02  0.40240017342E+02  0.00000000000E+00 0. -1.
</event>
<event>
 7    1  0.4931104E-009  0.4778727E+02  0.7816164E-02  0.1312668E+00
        -11   -1    0    0    0    0  0.00000000000E+00  0.00000000000E+00  0.45593999997E+02  0.45594000000E+02  0.51100000000E-03 0.  1.
         11   -1    0    0    0    0 -0.00000000000E+00 -0.00000000000E+00 -0.45593999997E+02  0.45594000000E+02  0.51100000000E-03 0. -1.
    9900012    2    1    2    0    0  0.39959986362E+02  0.74228940962E+01 -0.15222458476E+02  0.47787272945E+02  0.20000008666E+02 0.  0.
        -12    1    1    2    0    0 -0.39959986362E+02 -0.74228940962E+01  0.15222458476E+02  0.43400727055E+02  0.00000000000E+00 0.  1.
         11    1    3    3    0    0  0.54974259307E+01  0.30617078192E+01 -0.10128764487E+02  0.11924244921E+02  0.51100000000E-03 0. -1.
        -11    1    3    3    0    0 -0.34861369300E-01  0.65114050523E+00  0.35343640165E+00  0.74169860708E+00  0.51100000000E-03 0.  1.
         12    1    3    3    0    0  0.34497421801E+02  0.37100457718E+01 -0.54471303905E+01  0.35121329417E+02  0.00000000000E+00 0. -1.
</event>
<event>
 7    1  0.4931104E-009  0.4778726E+02  0.7816164E-02  0.1312668E+00
        -11   -1    0    0    0    0  0.00000000000E+00  0.00000000000E+00  0.45593999997E+02  0.45594000000E+02  0.51100000000E-03 0. -1.
         11   -1    0    0    0    0 -0.00000000000E+00 -0.00000000000E+00 -0.45593999997E+02  0.45594000000E+02  0.51100000000E-03 0.  1.
    9900012    2    1    2    0    0 -0.12104994300E+02 -0.41538222593E+02  0.34159987299E+01  0.47787264170E+02  0.19999968658E+02 0.  0.
        -12    1    1    2    0    0  0.12104994300E+02  0.41538222593E+02 -0.34159987299E+01  0.43400735830E+02  0.00000000000E+00 0.  1.
         11    1    3    3    0    0 -0.81434953637E+01 -0.20648016266E+02  0.98344968491E+01  0.24277034847E+02  0.51100000000E-03 0. -1.
        -11    1    3    3    0    0  0.16007853101E+01 -0.86746976899E+00 -0.75730878377E+00  0.19719366785E+01  0.51100000000E-03 0.  1.
         12    1    3    3    0    0 -0.55622842468E+01 -0.20022736559E+02 -0.56611893354E+01  0.21538292644E+02  0.00000000000E+00 0. -1.
</event>
<event>
 7    1  0.4931104E-009  0.4778727E+02  0.7816164E-02  0.1312668E+00
        -11   -1    0    0    0    0  0.00000000000E+00  0.00000000000E+00  0.45593999997E+02  0.45594000000E+02  0.51100000000E-03 0.  1.
         11   -1    0    0    0    0 -0.00000000000E+00 -0.00000000000E+00 -0.45593999997E+02  0.45594000000E+02  0.51100000000E-03 0. -1.
    9900012    2    1    2    0    0  0.92076683110E+00 -0.41375069849E+02  0.13072077106E+02  0.47787269402E+02  0.19999992514E+02 0.  0.
        -12    1    1    2    0    0 -0.92076683110E+00  0.41375069849E+02 -0.13072077106E+02  0.43400730598E+02  0.00000000000E+00 0.  1.
         11    1    3    3    0    0 -0.55427309081E+00 -0.58541620682E+01 -0.52381028856E+00  0.59036268225E+01  0.51100000000E-03 0. -1.
        -11    1    3    3    0    0  0.72405692526E+01 -0.31642230463E+02  0.12787276629E+02  0.34887978382E+02  0.51100000000E-03 0.  1.
         12    1    3    3    0    0 -0.57655293307E+01 -0.38786773180E+01  0.80861076556E+00  0.69956641980E+01  0.00000000000E+00 0. -1.
</event>
<event>
 7    1  0.4931104E-009  0.4778727E+02  0.7816164E-02  0.1312668E+00
        -11   -1    0    0    0    0  0.00000000000E+00  0.00000000000E+00  0.45593999997E+02  0.45594000000E+02  0.51100000000E-03 0.  1.
         11   -1    0    0    0    0 -0.00000000000E+00 -0.00000000000E+00 -0.45593999997E+02  0.45594000000E+02  0.51100000000E-03 0. -1.
    9900012    2    1    2    0    0  0.35461539953E+02 -0.24678827591E+02 -0.41301125936E+01  0.47787272159E+02  0.20000005081E+02 0.  0.
        -12    1    1    2    0    0 -0.35461539953E+02  0.24678827591E+02  0.41301125936E+01  0.43400727841E+02  0.00000000000E+00 0.  1.
         11    1    3    3    0    0  0.17693918064E+02 -0.17943664908E+02  0.16213114101E+01  0.25252296880E+02  0.51100000000E-03 0. -1.
        -11    1    3    3    0    0  0.45348608189E+01 -0.60847582806E+01  0.10184561548E+01  0.76567943149E+01  0.51100000000E-03 0.  1.
        -12    1    3    3    0    0  0.13232761070E+02 -0.65040440267E+00 -0.67698801585E+01  0.14878180964E+02  0.00000000000E+00 0.  1.
</event>
<event>
 7    1  0.4931104E-009  0.4778727E+02  0.7816164E-02  0.1312668E+00
        -11   -1    0    0    0    0  0.00000000000E+00  0.00000000000E+00  0.45593999997E+02  0.45594000000E+02  0.51100000000E-03 0.  1.
         11   -1    0    0    0    0 -0.00000000000E+00 -0.00000000000E+00 -0.45593999997E+02  0.45594000000E+02  0.51100000000E-03 0. -1.
    9900012    2    1    2    0    0  0.38743881579E+02 -0.91982054467E+01  0.17260587193E+02  0.47787271739E+02  0.20000003169E+02 0.  0.
        -12    1    1    2    0    0 -0.38743881579E+02  0.91982054467E+01 -0.17260587193E+02  0.43400728261E+02  0.00000000000E+00 0.  1.
         11    1    3    3    0    0  0.57442196907E+01 -0.31257942738E-01  0.28022730593E+01  0.63913825949E+01  0.51100000000E-03 0. -1.
        -11    1    3    3    0    0  0.16253275767E+02 -0.13651981339E+02  0.10170783304E+02  0.23537000678E+02  0.51100000000E-03 0.  1.
        -12    1    3    3    0    0  0.16746386122E+02  0.44850338350E+01  0.42875308296E+01  0.17858888467E+02  0.00000000000E+00 0.  1.
</event>
<event>
 7    1  0.5481804E-009  0.4778727E+02  0.7816164E-02  0.1312668E+00
        -11   -1    0    0    0    0  0.00000000000E+00  0.00000000000E+00  0.45593999997E+02  0.45594000000E+02  0.51100000000E-03 0.  1.
         11   -1    0    0    0    0 -0.00000000000E+00 -0.00000000000E+00 -0.45593999997E+02  0.45594000000E+02  0.51100000000E-03 0. -1.
    9900012    2    1    2    0    0 -0.25885467140E+02  0.27920288255E+02 -0.20833226214E+02  0.47787271668E+02  0.20000002842E+02 0.  0.
        -12    1    1    2    0    0  0.25885467140E+02 -0.27920288255E+02  0.20833226214E+02  0.43400728332E+02  0.00000000000E+00 0.  1.
         11    1    3    3    0    0 -0.13828823690E+02  0.17458469188E+02 -0.10820759305E+02  0.24761327574E+02  0.51100000000E-03 0. -1.
        -11    1    3    3    0    0 -0.72351071142E+01  0.86563823338E+01  0.52917305880E+00  0.11294235452E+02  0.51100000000E-03 0.  1.
        -12    1    3    3    0    0 -0.48215363355E+01  0.18054367331E+01 -0.10541639967E+02  0.11731708641E+02  0.00000000000E+00 0.  1.
</event>
<event>
 7    1  0.4931104E-009  0.4778726E+02  0.7816164E-02  0.1312668E+00
        -11   -1    0    0    0    0  0.00000000000E+00  0.00000000000E+00  0.45593999997E+02  0.45594000000E+02  0.51100000000E-03 0.  1.
         11   -1    0    0    0    0 -0.00000000000E+00 -0.00000000000E+00 -0.45593999997E+02  0.45594000000E+02  0.51100000000E-03 0. -1.
    9900012    2    1    2    0    0  0.40148689309E+02  0.16021220754E+02 -0.38764731547E+01  0.47787264847E+02  0.19999971744E+02 0.  0.
        -12    1    1    2    0    0 -0.40148689309E+02 -0.16021220754E+02  0.38764731547E+01  0.43400735153E+02  0.00000000000E+00 0.  1.
         11    1    3    3    0    0  0.18586981011E+02  0.10096614341E+02  0.29103853305E+01  0.21351529859E+02  0.51100000000E-03 0. -1.
        -11    1    3    3    0    0  0.15444784652E+02  0.55950830206E+01  0.10831282065E+01  0.16462669708E+02  0.51100000000E-03 0.  1.
        -12    1    3    3    0    0  0.61169236460E+01  0.32952339170E+00 -0.78699866917E+01  0.99730652803E+01  0.00000000000E+00 0.  1.
</event>
<event>
 7    1  0.4931104E-009  0.4778728E+02  0.7816164E-02  0.1312668E+00
        -11   -1    0    0    0    0  0.00000000000E+00  0.00000000000E+00  0.45593999997E+02  0.45594000000E+02  0.51100000000E-03 0. -1.
         11   -1    0    0    0    0 -0.00000000000E+00 -0.00000000000E+00 -0.45593999997E+02  0.45594000000E+02  0.51100000000E-03 0.  1.
    9900012    2    1    2    0    0 -0.45326733278E+01 -0.40528255269E+02 -0.14850528738E+02  0.47787276429E+02  0.20000024552E+02 0.  0.
        -12    1    1    2    0    0  0.45326733278E+01  0.40528255269E+02  0.14850528738E+02  0.43400723571E+02  0.00000000000E+00 0.  1.
         11    1    3    3    0    0 -0.26270100128E+01 -0.28728476389E+01  0.98791227755E+00  0.40162676819E+01  0.51100000000E-03 0. -1.
        -11    1    3    3    0    0 -0.69065025891E+01 -0.13193068798E+02 -0.14706898423E+01  0.14963949051E+02  0.51100000000E-03 0.  1.
         12    1    3    3    0    0  0.50008392740E+01 -0.24462338832E+02 -0.14367751173E+02  0.28807059697E+02  0.00000000000E+00 0. -1.
</event>
<event>
 7    1  0.4931104E-009  0.4778727E+02  0.7816164E-02  0.1312668E+00
        -11   -1    0    0    0    0  0.00000000000E+00  0.00000000000E+00  0.45593999997E+02  0.45594000000E+02  0.51100000000E-03 0.  1.
         11   -1    0    0    0    0 -0.00000000000E+00 -0.00000000000E+00 -0.45593999997E+02  0.45594000000E+02  0.51100000000E-03 0. -1.
    9900012    2    1    2    0    0  0.88640982173E+01 -0.42309950177E+02  0.38625247890E+01  0.47787271678E+02  0.20000002888E+02 0.  0.
        -12    1    1    2    0    0 -0.88640982173E+01  0.42309950177E+02 -0.38625247890E+01  0.43400728322E+02  0.00000000000E+00 0.  1.
         11    1    3    3    0    0  0.19852379826E+01 -0.78827900993E+01 -0.33362770369E+01  0.87869388484E+01  0.51100000000E-03 0.  1.
        -11    1    3    3    0    0  0.11022615639E+02 -0.29921427252E+02  0.41324206124E+01  0.32153798605E+02  0.51100000000E-03 0. -1.
         12    1    3    3    0    0 -0.41437554044E+01 -0.45057328251E+01  0.30663812135E+01  0.68465342246E+01  0.00000000000E+00 0. -1.
</event>
<event>
 7    1  0.4931104E-009  0.4778725E+02  0.7816164E-02  0.1312668E+00
        -11   -1    0    0    0    0  0.00000000000E+00  0.00000000000E+00  0.45593999997E+02  0.45594000000E+02  0.51100000000E-03 0. -1.
         11   -1    0    0    0    0 -0.00000000000E+00 -0.00000000000E+00 -0.45593999997E+02  0.45594000000E+02  0.51100000000E-03 0.  1.
    9900012    2    1    2    0    0  0.37562258105E+02  0.12220479248E+02  0.17982259748E+02  0.47787251013E+02  0.19999908667E+02 0.  0.
        -12    1    1    2    0    0 -0.37562258105E+02 -0.12220479248E+02 -0.17982259748E+02  0.43400748987E+02  0.00000000000E+00 0.  1.
         11    1    3    3    0    0  0.54778368727E+01  0.15031661289E+01  0.35327611445E+01  0.66892904542E+01  0.51100000000E-03 0. -1.
        -11    1    3    3    0    0  0.34341812343E+02  0.10937243256E+02  0.12630212403E+02  0.38190386626E+02  0.51100000000E-03 0.  1.
        -12    1    3    3    0    0 -0.22573911107E+01 -0.21993013678E+00  0.18192862009E+01  0.29075739324E+01  0.00000000000E+00 0.  1.
</event>
<event>
 7    1  0.4931104E-009  0.4778727E+02  0.7816164E-02  0.1312668E+00
        -11   -1    0    0    0    0  0.00000000000E+00  0.00000000000E+00  0.45593999997E+02  0.45594000000E+02  0.51100000000E-03 0.  1.
         11   -1    0    0    0    0 -0.00000000000E+00 -0.00000000000E+00 -0.45593999997E+02  0.45594000000E+02  0.51100000000E-03 0. -1.
    9900012    2    1    2    0    0  0.41994621560E+01  0.95952409710E+01 -0.42117918894E+02  0.47787271623E+02  0.20000002637E+02 0.  0.
        -12    1    1    2    0    0 -0.41994621560E+01 -0.95952409710E+01  0.42117918894E+02  0.43400728377E+02  0.00000000000E+00 0.  1.
         11    1    3    3    0    0  0.96245799137E+01  0.21101220093E+01 -0.28682847459E+02  0.30328054537E+02  0.51100000000E-03 0. -1.
        -11    1    3    3    0    0 -0.49729048055E+00  0.27834171404E+01 -0.87420779408E+01  0.91879614596E+01  0.51100000000E-03 0.  1.
        -12    1    3    3    0    0 -0.49278272772E+01  0.47017018213E+01 -0.46929934946E+01  0.82712556260E+01  0.00000000000E+00 0.  1.
</event>
<event>
 7    1  0.4931104E-009  0.4778727E+02  0.7816164E-02  0.1312668E+00
        -11   -1    0    0    0    0  0.00000000000E+00  0.00000000000E+00  0.45593999997E+02  0.45594000000E+02  0.51100000000E-03 0.  1.
         11   -1    0    0    0    0 -0.00000000000E+00 -0.00000000000E+00 -0.45593999997E+02  0.45594000000E+02  0.51100000000E-03 0. -1.
    9900012    2    1    2    0    0 -0.24769730957E+02 -0.43882359750E+01 -0.35367036612E+02  0.47787268838E+02  0.19999989941E+02 0.  0.
        -12    1    1    2    0    0  0.24769730957E+02  0.43882359750E+01  0.35367036612E+02  0.43400731162E+02  0.00000000000E+00 0.  1.
         11    1    3    3    0    0  0.17111528763E+00 -0.35876945732E+01 -0.35491614779E+01  0.50494930685E+01  0.51100000000E-03 0. -1.
        -11    1    3    3    0    0 -0.48356406471E+01  0.53555275358E+01 -0.10950599153E+02  0.13114141898E+02  0.51100000000E-03 0.  1.
         12    1    3    3    0    0 -0.20105205597E+02 -0.61560689377E+01 -0.20867275982E+02  0.29623633872E+02  0.00000000000E+00 0. -1.
</event>
<event>
 7    1  0.4931104E-009  0.4778727E+02  0.7816164E-02  0.1312668E+00
        -11   -1    0    0    0    0  0.00000000000E+00  0.00000000000E+00  0.45593999997E+02  0.45594000000E+02  0.51100000000E-03 0.  1.
         11   -1    0    0    0    0 -0.00000000000E+00 -0.00000000000E+00 -0.45593999997E+02  0.45594000000E+02  0.51100000000E-03 0. -1.
    9900012    2    1    2    0    0  0.14530955994E+02  0.17346473386E+02 -0.37034773725E+02  0.47787270906E+02  0.19999999370E+02 0.  0.
        -12    1    1    2    0    0 -0.14530955994E+02 -0.17346473386E+02  0.37034773725E+02  0.43400729094E+02  0.00000000000E+00 0.  1.
         11    1    3    3    0    0  0.28121295264E+01  0.97551554682E+01 -0.16443018137E+02  0.19324698610E+02  0.51100000000E-03 0. -1.
        -11    1    3    3    0    0  0.18430233710E+00  0.70343193171E+01 -0.12557643663E+02  0.14394791775E+02  0.51100000000E-03 0.  1.
        -12    1    3    3    0    0  0.11534524131E+02  0.55699860031E+00 -0.80341119247E+01  0.14067780521E+02  0.00000000000E+00 0.  1.
</event>
<event>
 7    1  0.4931104E-009  0.4778727E+02  0.7816164E-02  0.1312668E+00
        -11   -1    0    0    0    0  0.00000000000E+00  0.00000000000E+00  0.45593999997E+02  0.45594000000E+02  0.51100000000E-03 0.  1.
         11   -1    0    0    0    0 -0.00000000000E+00 -0.00000000000E+00 -0.45593999997E+02  0.45594000000E+02  0.51100000000E-03 0. -1.
    9900012    2    1    2    0    0 -0.20889340855E+02 -0.24067091607E+02 -0.29462421315E+02  0.47787265795E+02  0.19999976066E+02 0.  0.
        -12    1    1    2    0    0  0.20889340855E+02  0.24067091607E+02  0.29462421315E+02  0.43400734205E+02  0.00000000000E+00 0.  1.
         11    1    3    3    0    0 -0.11137234121E+00 -0.79691875973E+01 -0.76964816360E+01  0.11079539006E+02  0.51100000000E-03 0. -1.
        -11    1    3    3    0    0  0.19136578620E+01 -0.23310562967E+01 -0.21183236497E+01  0.36855400170E+01  0.51100000000E-03 0.  1.
         12    1    3    3    0    0 -0.22691626376E+02 -0.13766847713E+02 -0.19647616029E+02  0.33022186772E+02  0.00000000000E+00 0. -1.
</event>
<event>
 7    1  0.4931104E-009  0.4778726E+02  0.7816164E-02  0.1312668E+00
        -11   -1    0    0    0    0  0.00000000000E+00  0.00000000000E+00  0.45593999997E+02  0.45594000000E+02  0.51100000000E-03 0.  1.
         11   -1    0    0    0    0 -0.00000000000E+00 -0.00000000000E+00 -0.45593999997E+02  0.45594000000E+02  0.51100000000E-03 0. -1.
    9900012    2    1    2    0    0  0.28375909442E+02 -0.45236374555E+01 -0.32526424487E+02  0.47787264725E+02  0.19999971187E+02 0.  0.
        -12    1    1    2    0    0 -0.28375909442E+02  0.45236374555E+01  0.32526424487E+02  0.43400735275E+02  0.00000000000E+00 0.  1.
         11    1    3    3    0    0  0.27196646425E+02  0.21318277177E+01 -0.27577510897E+02  0.38790738246E+02  0.51100000000E-03 0. -1.
        -11    1    3    3    0    0 -0.54706670468E+00 -0.27496216056E+00  0.17091185480E+00  0.63568647330E+00  0.51100000000E-03 0.  1.
         12    1    3    3    0    0  0.17263297219E+01 -0.63805030127E+01 -0.51198254451E+01  0.83608400052E+01  0.00000000000E+00 0. -1.
</event>
<event>
 7    1  0.4931104E-009  0.4778727E+02  0.7816164E-02  0.1312668E+00
        -11   -1    0    0    0    0  0.00000000000E+00  0.00000000000E+00  0.45593999997E+02  0.45594000000E+02  0.51100000000E-03 0.  1.
         11   -1    0    0    0    0 -0.00000000000E+00 -0.00000000000E+00 -0.45593999997E+02  0.45594000000E+02  0.51100000000E-03 0. -1.
    9900012    2    1    2    0    0  0.27937408776E+01  0.39789690941E+02 -0.17105523521E+02  0.47787269266E+02  0.19999991892E+02 0.  0.
        -12    1    1    2    0    0 -0.27937408776E+01 -0.39789690941E+02  0.17105523521E+02  0.43400730734E+02  0.00000000000E+00 0.  1.
         11    1    3    3    0    0 -0.61362536885E+01  0.78985612835E+01 -0.66777657155E+01  0.12026364159E+02  0.51100000000E-03 0. -1.
        -11    1    3    3    0    0 -0.84057348564E+00  0.51524515288E+00  0.53100177796E+00  0.11198234243E+01  0.51100000000E-03 0.  1.
        -12    1    3    3    0    0  0.97705680517E+01  0.31375884505E+02 -0.10958759584E+02  0.34641081683E+02  0.00000000000E+00 0.  1.
</event>
<event>
 7    1  0.4931104E-009  0.4778727E+02  0.7816164E-02  0.1312668E+00
        -11   -1    0    0    0    0  0.00000000000E+00  0.00000000000E+00  0.45593999997E+02  0.45594000000E+02  0.51100000000E-03 0.  1.
         11   -1    0    0    0    0 -0.00000000000E+00 -0.00000000000E+00 -0.45593999997E+02  0.45594000000E+02  0.51100000000E-03 0. -1.
    9900012    2    1    2    0    0  0.42232614278E+02 -0.37608190467E+01 -0.92674586885E+01  0.47787271214E+02  0.20000000771E+02 0.  0.
        -12    1    1    2    0    0 -0.42232614278E+02  0.37608190467E+01  0.92674586885E+01  0.43400728786E+02  0.00000000000E+00 0.  1.
         11    1    3    3    0    0  0.17757773162E+02 -0.63589047180E+01 -0.25331555535E+01  0.19031317722E+02  0.51100000000E-03 0. -1.
        -11    1    3    3    0    0  0.13518510956E+02 -0.42480242901E+01  0.35570702372E-01  0.14170289848E+02  0.51100000000E-03 0.  1.
        -12    1    3    3    0    0  0.10956330159E+02  0.68461099613E+01 -0.67698738373E+01  0.14585663644E+02  0.00000000000E+00 0.  1.
</event>
<event>
 7    1  0.4931104E-009  0.4778727E+02  0.7816164E-02  0.1312668E+00
        -11   -1    0    0    0    0  0.00000000000E+00  0.00000000000E+00  0.45593999997E+02  0.45594000000E+02  0.51100000000E-03 0.  1.
         11   -1    0    0    0    0 -0.00000000000E+00 -0.00000000000E+00 -0.45593999997E+02  0.45594000000E+02  0.51100000000E-03 0. -1.
    9900012    2    1    2    0    0  0.39453482708E+01  0.19044778218E+02 -0.38798889565E+02  0.47787272105E+02  0.20000004835E+02 0.  0.
        -12    1    1    2    0    0 -0.39453482708E+01 -0.19044778218E+02  0.38798889565E+02  0.43400727895E+02  0.00000000000E+00 0.  1.
         11    1    3    3    0    0 -0.12790702714E+01 -0.78383969603E+00 -0.45232117682E+01  0.47654874241E+01  0.51100000000E-03 0. -1.
        -11    1    3    3    0    0  0.32994301118E+00 -0.40611423509E+00  0.15227259649E+01  0.16101198054E+01  0.51100000000E-03 0.  1.
         12    1    3    3    0    0  0.48944755310E+01  0.20234732149E+02 -0.35798403762E+02  0.41411664875E+02  0.00000000000E+00 0. -1.
</event>
<event>
 7    1  0.4931104E-009  0.4778727E+02  0.7816164E-02  0.1312668E+00
        -11   -1    0    0    0    0  0.00000000000E+00  0.00000000000E+00  0.45593999997E+02  0.45594000000E+02  0.51100000000E-03 0. -1.
         11   -1    0    0    0    0 -0.00000000000E+00 -0.00000000000E+00 -0.45593999997E+02  0.45594000000E+02  0.51100000000E-03 0.  1.
    9900012    2    1    2    0    0 -0.27593904357E+02 -0.20775088179E+02  0.26279183457E+02  0.47787270401E+02  0.19999997068E+02 0.  0.
        -12    1    1    2    0    0  0.27593904357E+02  0.20775088179E+02 -0.26279183457E+02  0.43400729599E+02  0.00000000000E+00 0.  1.
         11    1    3    3    0    0 -0.98258003697E+01 -0.67867511637E+01  0.50220372637E+01  0.12954813885E+02  0.51100000000E-03 0. -1.
        -11    1    3    3    0    0 -0.12286876240E+02 -0.16289360654E+00  0.12711245154E+02  0.17679638449E+02  0.51100000000E-03 0.  1.
        -12    1    3    3    0    0 -0.54812277478E+01 -0.13825443409E+02  0.85459010390E+01  0.17152818067E+02  0.00000000000E+00 0.  1.
</event>
<event>
 7    1  0.4931104E-009  0.4778727E+02  0.7816164E-02  0.1312668E+00
        -11   -1    0    0    0    0  0.00000000000E+00  0.00000000000E+00  0.45593999997E+02  0.45594000000E+02  0.51100000000E-03 0.  1.
         11   -1    0    0    0    0 -0.00000000000E+00 -0.00000000000E+00 -0.45593999997E+02  0.45594000000E+02  0.51100000000E-03 0. -1.
    9900012    2    1    2    0    0  0.11553674822E+02  0.21424737809E+02 -0.35932109247E+02  0.47787271123E+02  0.20000000360E+02 0.  0.
        -12    1    1    2    0    0 -0.11553674822E+02 -0.21424737809E+02  0.35932109247E+02  0.43400728877E+02  0.00000000000E+00 0.  1.
         11    1    3    3    0    0  0.27704967240E+01  0.13688842426E+01 -0.16981355991E+01  0.35260687658E+01  0.51100000000E-03 0. -1.
        -11    1    3    3    0    0 -0.12536886254E+01  0.25715543242E+01 -0.18413772199E+02  0.18634688988E+02  0.51100000000E-03 0.  1.
         12    1    3    3    0    0  0.10036866723E+02  0.17484299242E+02 -0.15820201449E+02  0.25626513370E+02  0.00000000000E+00 0. -1.
</event>
<event>
 7    1  0.4931104E-009  0.4778726E+02  0.7816164E-02  0.1312668E+00
        -11   -1    0    0    0    0  0.00000000000E+00  0.00000000000E+00  0.45593999997E+02  0.45594000000E+02  0.51100000000E-03 0.  1.
         11   -1    0    0    0    0 -0.00000000000E+00 -0.00000000000E+00 -0.45593999997E+02  0.45594000000E+02  0.51100000000E-03 0. -1.
    9900012    2    1    2    0    0  0.34902720967E+02  0.10814034687E+02 -0.23419667109E+02  0.47787261704E+02  0.19999957414E+02 0.  0.
        -12    1    1    2    0    0 -0.34902720967E+02 -0.10814034687E+02  0.23419667109E+02  0.43400738296E+02  0.00000000000E+00 0.  1.
         11    1    3    3    0    0  0.18212223595E+01  0.15281199456E+01  0.13056101657E+01  0.27123089088E+01  0.51100000000E-03 0. -1.
        -11    1    3    3    0    0  0.76968716987E+01 -0.57770605558E+00  0.78645473198E+00  0.77584850029E+01  0.51100000000E-03 0.  1.
         12    1    3    3    0    0  0.25384626909E+02  0.98636207974E+01 -0.25511732006E+02  0.37316467792E+02  0.00000000000E+00 0. -1.
</event>
<event>
 7    1  0.4931104E-009  0.4778727E+02  0.7816164E-02  0.1312668E+00
        -11   -1    0    0    0    0  0.00000000000E+00  0.00000000000E+00  0.45593999997E+02  0.45594000000E+02  0.51100000000E-03 0.  1.
         11   -1    0    0    0    0 -0.00000000000E+00 -0.00000000000E+00 -0.45593999997E+02  0.45594000000E+02  0.51100000000E-03 0. -1.
    9900012    2    1    2    0    0  0.23424270957E+02 -0.24478018745E+02 -0.27124776796E+02  0.47787269732E+02  0.19999994018E+02 0.  0.
        -12    1    1    2    0    0 -0.23424270957E+02  0.24478018745E+02  0.27124776796E+02  0.43400730268E+02  0.00000000000E+00 0.  1.
         11    1    3    3    0    0  0.19976894437E+01 -0.28456821007E+00 -0.39656086945E+01  0.44494712898E+01  0.51100000000E-03 0. -1.
        -11    1    3    3    0    0  0.48259382162E+01  0.49752522966E+00 -0.93561191344E+01  0.10539173428E+02  0.51100000000E-03 0.  1.
         12    1    3    3    0    0  0.16600643297E+02 -0.24690975765E+02 -0.13803048967E+02  0.32798625015E+02  0.00000000000E+00 0. -1.
</event>
<event>
 7    1  0.4931104E-009  0.4778727E+02  0.7816164E-02  0.1312668E+00
        -11   -1    0    0    0    0  0.00000000000E+00  0.00000000000E+00  0.45593999997E+02  0.45594000000E+02  0.51100000000E-03 0.  1.
         11   -1    0    0    0    0 -0.00000000000E+00 -0.00000000000E+00 -0.45593999997E+02  0.45594000000E+02  0.51100000000E-03 0. -1.
    9900012    2    1    2    0    0 -0.20341022344E+02  0.88752073944E+01 -0.37297409247E+02  0.47787271517E+02  0.20000002154E+02 0.  0.
        -12    1    1    2    0    0  0.20341022344E+02 -0.88752073944E+01  0.37297409247E+02  0.43400728483E+02  0.00000000000E+00 0.  1.
         11    1    3    3    0    0 -0.61910551376E+01 -0.15299405857E+01 -0.56412299140E+01  0.85143030904E+01  0.51100000000E-03 0.  1.
        -11    1    3    3    0    0  0.25969373502E+01 -0.96302407140E+00 -0.22218450907E+01  0.35507879169E+01  0.51100000000E-03 0. -1.
         12    1    3    3    0    0 -0.16746904557E+02  0.11368172052E+02 -0.29434334243E+02  0.35722180509E+02  0.00000000000E+00 0. -1.
</event>
<event>
 7    1  0.4931104E-009  0.4778727E+02  0.7816164E-02  0.1312668E+00
        -11   -1    0    0    0    0  0.00000000000E+00  0.00000000000E+00  0.45593999997E+02  0.45594000000E+02  0.51100000000E-03 0. -1.
         11   -1    0    0    0    0 -0.00000000000E+00 -0.00000000000E+00 -0.45593999997E+02  0.45594000000E+02  0.51100000000E-03 0.  1.
    9900012    2    1    2    0    0 -0.78558571502E+01 -0.40892592659E+02  0.12235383912E+02  0.47787271372E+02  0.20000001495E+02 0.  0.
        -12    1    1    2    0    0  0.78558571502E+01  0.40892592659E+02 -0.12235383912E+02  0.43400728628E+02  0.00000000000E+00 0.  1.
         11    1    3    3    0    0  0.38281700083E+00 -0.23644794910E+02  0.93705823053E+01  0.25436797915E+02  0.51100000000E-03 0. -1.
        -11    1    3    3    0    0 -0.51239919321E+01 -0.17216016949E+02 -0.22404699952E+00  0.17963761584E+02  0.51100000000E-03 0.  1.
         12    1    3    3    0    0 -0.31146822190E+01 -0.31780799655E-01  0.30888486064E+01  0.43867118731E+01  0.00000000000E+00 0. -1.
</event>
<event>
 7    1  0.4931104E-009  0.4778727E+02  0.7816164E-02  0.1312668E+00
        -11   -1    0    0    0    0  0.00000000000E+00  0.00000000000E+00  0.45593999997E+02  0.45594000000E+02  0.51100000000E-03 0.  1.
         11   -1    0    0    0    0 -0.00000000000E+00 -0.00000000000E+00 -0.45593999997E+02  0.45594000000E+02  0.51100000000E-03 0. -1.
    9900012    2    1    2    0    0  0.58355534786E+01 -0.29948458190E+02 -0.30865183981E+02  0.47787269424E+02  0.19999992612E+02 0.  0.
        -12    1    1    2    0    0 -0.58355534786E+01  0.29948458190E+02  0.30865183981E+02  0.43400730576E+02  0.00000000000E+00 0.  1.
         11    1    3    3    0    0  0.26886353458E+01 -0.14198079740E+02 -0.17085407628E+02  0.22376893940E+02  0.51100000000E-03 0. -1.
        -11    1    3    3    0    0 -0.35846515850E+01 -0.13608830411E+02 -0.10818528388E+02  0.17750790092E+02  0.51100000000E-03 0.  1.
         12    1    3    3    0    0  0.67315697178E+01 -0.21415480386E+01 -0.29612479642E+01  0.76595853917E+01  0.00000000000E+00 0. -1.
</event>
<event>
 7    1  0.4931104E-009  0.4778727E+02  0.7816164E-02  0.1312668E+00
        -11   -1    0    0    0    0  0.00000000000E+00  0.00000000000E+00  0.45593999997E+02  0.45594000000E+02  0.51100000000E-03 0.  1.
         11   -1    0    0    0    0 -0.00000000000E+00 -0.00000000000E+00 -0.45593999997E+02  0.45594000000E+02  0.51100000000E-03 0. -1.
    9900012    2    1    2    0    0 -0.44035257585E+00 -0.21302265002E+02 -0.37810614343E+02  0.47787274642E+02  0.20000016402E+02 0.  0.
        -12    1    1    2    0    0  0.44035257585E+00  0.21302265002E+02  0.37810614343E+02  0.43400725358E+02  0.00000000000E+00 0.  1.
         11    1    3    3    0    0 -0.42055859436E+01 -0.19068366976E+02 -0.21564023134E+02  0.29091178495E+02  0.51100000000E-03 0. -1.
        -11    1    3    3    0    0  0.38622542553E+01 -0.49975073789E+01 -0.95350393500E+01  0.11437179005E+02  0.51100000000E-03 0.  1.
        -12    1    3    3    0    0 -0.97020887526E-01  0.27636093524E+01 -0.67115518588E+01  0.72589171409E+01  0.00000000000E+00 0.  1.
</event>
<event>
 7    1  0.4931104E-009  0.4778726E+02  0.7816164E-02  0.1312668E+00
        -11   -1    0    0    0    0  0.00000000000E+00  0.00000000000E+00  0.45593999997E+02  0.45594000000E+02  0.51100000000E-03 0.  1.
         11   -1    0    0    0    0 -0.00000000000E+00 -0.00000000000E+00 -0.45593999997E+02  0.45594000000E+02  0.51100000000E-03 0. -1.
    9900012    2    1    2    0    0  0.29406733124E+02  0.31897429383E+02 -0.11926247920E+01  0.47787259129E+02  0.19999945674E+02 0.  0.
        -12    1    1    2    0    0 -0.29406733124E+02 -0.31897429383E+02  0.11926247920E+01  0.43400740871E+02  0.00000000000E+00 0.  1.
         11    1    3    3    0    0  0.10163489356E+02  0.13013108964E+00  0.10519526656E+00  0.10164866763E+02  0.51100000000E-03 0. -1.
        -11    1    3    3    0    0  0.47173747084E+01  0.71103162962E+01  0.21451835279E+01  0.87984109134E+01  0.51100000000E-03 0.  1.
        -12    1    3    3    0    0  0.14525869059E+02  0.24656981997E+02 -0.34430035865E+01  0.28823981453E+02  0.00000000000E+00 0.  1.
</event>
<event>
 7    1  0.4931104E-009  0.4778727E+02  0.7816164E-02  0.1312668E+00
        -11   -1    0    0    0    0  0.00000000000E+00  0.00000000000E+00  0.45593999997E+02  0.45594000000E+02  0.51100000000E-03 0.  1.
         11   -1    0    0    0    0 -0.00000000000E+00 -0.00000000000E+00 -0.45593999997E+02  0.45594000000E+02  0.51100000000E-03 0. -1.
    9900012    2    1    2    0    0 -0.11978375248E+02  0.12825540308E+01 -0.41695285032E+02  0.47787271753E+02  0.20000003232E+02 0.  0.
        -12    1    1    2    0    0  0.11978375248E+02 -0.12825540308E+01  0.41695285032E+02  0.43400728247E+02  0.00000000000E+00 0.  1.
         11    1    3    3    0    0 -0.64545043114E+00 -0.23867554166E+00 -0.46195205451E+01  0.46704970401E+01  0.51100000000E-03 0. -1.
        -11    1    3    3    0    0  0.29697244508E+01 -0.16760780104E+01 -0.21349695874E+02  0.21620314868E+02  0.51100000000E-03 0.  1.
         12    1    3    3    0    0 -0.14302649268E+02  0.31973075828E+01 -0.15726068613E+02  0.21496459845E+02  0.00000000000E+00 0. -1.
</event>
<event>
 7    1  0.4931104E-009  0.4778726E+02  0.7816164E-02  0.1312668E+00
        -11   -1    0    0    0    0  0.00000000000E+00  0.00000000000E+00  0.45593999997E+02  0.45594000000E+02  0.51100000000E-03 0.  1.
         11   -1    0    0    0    0 -0.00000000000E+00 -0.00000000000E+00 -0.45593999997E+02  0.45594000000E+02  0.51100000000E-03 0. -1.
    9900012    2    1    2    0    0 -0.26185569418E+02  0.21917234254E+02 -0.26787594507E+02  0.47787257811E+02  0.19999939664E+02 0.  0.
        -12    1    1    2    0    0  0.26185569418E+02 -0.21917234254E+02  0.26787594507E+02  0.43400742189E+02  0.00000000000E+00 0.  1.
         11    1    3    3    0    0 -0.13994309498E+02  0.50801052242E+00 -0.10861868936E+02  0.17722273276E+02  0.51100000000E-03 0. -1.
        -11    1    3    3    0    0 -0.60091242628E+01  0.67962782656E+01 -0.89122321251E+01  0.12717187361E+02  0.51100000000E-03 0.  1.
        -12    1    3    3    0    0 -0.61821356565E+01  0.14612945466E+02 -0.70134934463E+01  0.17347797174E+02  0.00000000000E+00 0.  1.
</event>
<event>
 7    1  0.4931104E-009  0.4778727E+02  0.7816164E-02  0.1312668E+00
        -11   -1    0    0    0    0  0.00000000000E+00  0.00000000000E+00  0.45593999997E+02  0.45594000000E+02  0.51100000000E-03 0.  1.
         11   -1    0    0    0    0 -0.00000000000E+00 -0.00000000000E+00 -0.45593999997E+02  0.45594000000E+02  0.51100000000E-03 0. -1.
    9900012    2    1    2    0    0  0.16153756062E+02 -0.31703569559E+02 -0.24850824639E+02  0.47787266793E+02  0.19999980615E+02 0.  0.
        -12    1    1    2    0    0 -0.16153756062E+02  0.31703569559E+02  0.24850824639E+02  0.43400733207E+02  0.00000000000E+00 0.  1.
         11    1    3    3    0    0  0.12688270346E+02 -0.24517759463E+02 -0.10582900710E+02  0.29565360156E+02  0.51100000000E-03 0. -1.
        -11    1    3    3    0    0 -0.61982569016E+00  0.42966085184E+00  0.64070939326E+00  0.98959644377E+00  0.51100000000E-03 0.  1.
         12    1    3    3    0    0  0.40853114068E+01 -0.76154709476E+01 -0.14908633322E+02  0.17232310193E+02  0.00000000000E+00 0. -1.
</event>
<event>
 7    1  0.4931104E-009  0.4778728E+02  0.7816164E-02  0.1312668E+00
        -11   -1    0    0    0    0  0.00000000000E+00  0.00000000000E+00  0.45593999997E+02  0.45594000000E+02  0.51100000000E-03 0.  1.
         11   -1    0    0    0    0 -0.00000000000E+00 -0.00000000000E+00 -0.45593999997E+02  0.45594000000E+02  0.51100000000E-03 0. -1.
    9900012    2    1    2    0    0 -0.61115210992E+01 -0.22025932152E+02 -0.36893496268E+02  0.47787280603E+02  0.20000043582E+02 0.  0.
        -12    1    1    2    0    0  0.61115210992E+01  0.22025932152E+02  0.36893496268E+02  0.43400719397E+02  0.00000000000E+00 0.  1.
         11    1    3    3    0    0 -0.38794925794E+01 -0.16037514763E+02 -0.24529641320E+02  0.29562740841E+02  0.51100000000E-03 0. -1.
        -11    1    3    3    0    0 -0.28746791888E+01 -0.10160015208E+01 -0.12831728297E+02  0.13188983694E+02  0.51100000000E-03 0.  1.
        -12    1    3    3    0    0  0.64265066895E+00 -0.49724158682E+01  0.46787334974E+00  0.50355560686E+01  0.00000000000E+00 0.  1.
</event>
<event>
 7    1  0.4931104E-009  0.4778727E+02  0.7816164E-02  0.1312668E+00
        -11   -1    0    0    0    0  0.00000000000E+00  0.00000000000E+00  0.45593999997E+02  0.45594000000E+02  0.51100000000E-03 0. -1.
         11   -1    0    0    0    0 -0.00000000000E+00 -0.00000000000E+00 -0.45593999997E+02  0.45594000000E+02  0.51100000000E-03 0.  1.
    9900012    2    1    2    0    0 -0.82736317218E+01  0.98460174766E+01  0.41451493426E+02  0.47787270176E+02  0.19999996040E+02 0.  0.
        -12    1    1    2    0    0  0.82736317218E+01 -0.98460174766E+01 -0.41451493426E+02  0.43400729824E+02  0.00000000000E+00 0.  1.
         11    1    3    3    0    0  0.38971644069E+01  0.34493307081E+01  0.91930143347E+01  0.10563961642E+02  0.51100000000E-03 0. -1.
        -11    1    3    3    0    0 -0.45398751992E+00 -0.12184146071E+01 -0.66250348451E+00  0.14592977596E+01  0.51100000000E-03 0.  1.
         12    1    3    3    0    0 -0.11716808609E+02  0.76151013755E+01  0.32920982576E+02  0.35764010775E+02  0.00000000000E+00 0. -1.
</event>
<event>
 7    1  0.4931104E-009  0.4778727E+02  0.7816164E-02  0.1312668E+00
        -11   -1    0    0    0    0  0.00000000000E+00  0.00000000000E+00  0.45593999997E+02  0.45594000000E+02  0.51100000000E-03 0.  1.
         11   -1    0    0    0    0 -0.00000000000E+00 -0.00000000000E+00 -0.45593999997E+02  0.45594000000E+02  0.51100000000E-03 0. -1.
    9900012    2    1    2    0    0  0.26526779915E+02 -0.20321282312E+02 -0.27694739260E+02  0.47787272470E+02  0.20000006498E+02 0.  0.
        -12    1    1    2    0    0 -0.26526779915E+02  0.20321282312E+02  0.27694739260E+02  0.43400727530E+02  0.00000000000E+00 0.  1.
         11    1    3    3    0    0  0.34970629544E+01 -0.82993661670E+01 -0.78249133404E+01  0.11930557285E+02  0.51100000000E-03 0. -1.
        -11    1    3    3    0    0  0.62995282303E+01 -0.38132551710E+01  0.14870910576E+01  0.75124171209E+01  0.51100000000E-03 0.  1.
         12    1    3    3    0    0  0.16730188731E+02 -0.82086609739E+01 -0.21356916977E+02  0.28344298064E+02  0.00000000000E+00 0. -1.
</event>
<event>
 7    1  0.4931104E-009  0.4778727E+02  0.7816164E-02  0.1312668E+00
        -11   -1    0    0    0    0  0.00000000000E+00  0.00000000000E+00  0.45593999997E+02  0.45594000000E+02  0.51100000000E-03 0.  1.
         11   -1    0    0    0    0 -0.00000000000E+00 -0.00000000000E+00 -0.45593999997E+02  0.45594000000E+02  0.51100000000E-03 0. -1.
    9900012    2    1    2    0    0 -0.11019354140E+02 -0.17141366512E+02 -0.38319331417E+02  0.47787265308E+02  0.19999973845E+02 0.  0.
        -12    1    1    2    0    0  0.11019354140E+02  0.17141366512E+02  0.38319331417E+02  0.43400734692E+02  0.00000000000E+00 0.  1.
         11    1    3    3    0    0 -0.11185974951E+02 -0.66188925755E+01 -0.32626532082E+02  0.35120170422E+02  0.51100000000E-03 0. -1.
        -11    1    3    3    0    0 -0.73341669211E+00 -0.15141669123E+00  0.97273043480E-01  0.75517505570E+00  0.51100000000E-03 0.  1.
         12    1    3    3    0    0  0.90003750260E+00 -0.10371057245E+02 -0.57900723784E+01  0.11911919830E+02  0.00000000000E+00 0. -1.
</event>
<event>
 7    1  0.4931104E-009  0.4778727E+02  0.7816164E-02  0.1312668E+00
        -11   -1    0    0    0    0  0.00000000000E+00  0.00000000000E+00  0.45593999997E+02  0.45594000000E+02  0.51100000000E-03 0.  1.
         11   -1    0    0    0    0 -0.00000000000E+00 -0.00000000000E+00 -0.45593999997E+02  0.45594000000E+02  0.51100000000E-03 0. -1.
    9900012    2    1    2    0    0 -0.62202454712E+01 -0.42708924173E+02 -0.45694259551E+01  0.47787270614E+02  0.19999998036E+02 0.  0.
        -12    1    1    2    0    0  0.62202454712E+01  0.42708924173E+02  0.45694259551E+01  0.43400729386E+02  0.00000000000E+00 0.  1.
         11    1    3    3    0    0 -0.92949375695E+00 -0.24318347982E+02 -0.61460676929E+01  0.25100202301E+02  0.51100000000E-03 0. -1.
        -11    1    3    3    0    0 -0.35942544179E+01 -0.17415176774E+02 -0.26980575925E+01  0.17985732177E+02  0.51100000000E-03 0.  1.
        -12    1    3    3    0    0 -0.16964972964E+01 -0.97539941660E+00  0.42746993303E+01  0.47013361359E+01  0.00000000000E+00 0.  1.
</event>
<event>
 7    1  0.4931104E-009  0.4778727E+02  0.7816164E-02  0.1312668E+00
        -11   -1    0    0    0    0  0.00000000000E+00  0.00000000000E+00  0.45593999997E+02  0.45594000000E+02  0.51100000000E-03 0. -1.
         11   -1    0    0    0    0 -0.00000000000E+00 -0.00000000000E+00 -0.45593999997E+02  0.45594000000E+02  0.51100000000E-03 0.  1.
    9900012    2    1    2    0    0 -0.40636885309E+02 -0.15238755685E+02 -0.21706316032E+00  0.47787271448E+02  0.20000001840E+02 0.  0.
        -12    1    1    2    0    0  0.40636885309E+02  0.15238755685E+02  0.21706316032E+00  0.43400728552E+02  0.00000000000E+00 0.  1.
         11    1    3    3    0    0 -0.25659766006E+02 -0.16728212627E+02  0.19287459853E+00  0.30631583211E+02  0.51100000000E-03 0. -1.
        -11    1    3    3    0    0 -0.74137872511E+01 -0.26204131289E+01 -0.25850576055E+01  0.82772779013E+01  0.51100000000E-03 0.  1.
        -12    1    3    3    0    0 -0.75633320523E+01  0.41098700713E+01  0.21751198467E+01  0.88784103354E+01  0.00000000000E+00 0.  1.
</event>
<event>
 7    1  0.4931104E-009  0.4778727E+02  0.7816164E-02  0.1312668E+00
        -11   -1    0    0    0    0  0.00000000000E+00  0.00000000000E+00  0.45593999997E+02  0.45594000000E+02  0.51100000000E-03 0.  1.
         11   -1    0    0    0    0 -0.00000000000E+00 -0.00000000000E+00 -0.45593999997E+02  0.45594000000E+02  0.51100000000E-03 0. -1.
    9900012    2    1    2    0    0 -0.44240160859E+01  0.19088094497E+02 -0.38725909290E+02  0.47787270511E+02  0.19999997569E+02 0.  0.
        -12    1    1    2    0    0  0.44240160859E+01 -0.19088094497E+02  0.38725909290E+02  0.43400729489E+02  0.00000000000E+00 0.  1.
         11    1    3    3    0    0 -0.87873251012E+00  0.53023749537E+01 -0.12712404728E+02  0.13801905130E+02  0.51100000000E-03 0. -1.
        -11    1    3    3    0    0  0.65126594293E+01  0.32722419003E+01 -0.95595890473E+01  0.12021149817E+02  0.51100000000E-03 0.  1.
        -12    1    3    3    0    0 -0.10057943005E+02  0.10513477643E+02 -0.16453915514E+02  0.21964215565E+02  0.00000000000E+00 0.  1.
</event>
<event>
 7    1  0.4931104E-009  0.4778726E+02  0.7816164E-02  0.1312668E+00
        -11   -1    0    0    0    0  0.00000000000E+00  0.00000000000E+00  0.45593999997E+02  0.45594000000E+02  0.51100000000E-03 0. -1.
         11   -1    0    0    0    0 -0.00000000000E+00 -0.00000000000E+00 -0.45593999997E+02  0.45594000000E+02  0.51100000000E-03 0.  1.
    9900012    2    1    2    0    0 -0.31480515596E+02  0.29759791727E+02 -0.26374160518E+01  0.47787262342E+02  0.19999960324E+02 0.  0.
        -12    1    1    2    0    0  0.31480515596E+02 -0.29759791727E+02  0.26374160518E+01  0.43400737658E+02  0.00000000000E+00 0.  1.
         11    1    3    3    0    0 -0.12984653835E+02  0.93387112316E+01 -0.43515919085E+01  0.16575557761E+02  0.51100000000E-03 0. -1.
        -11    1    3    3    0    0 -0.32679671946E+01 -0.83206067432E+00 -0.31535079595E+01  0.46169846504E+01  0.51100000000E-03 0.  1.
         12    1    3    3    0    0 -0.15227894566E+02  0.21253141170E+02  0.48676838162E+01  0.26594719931E+02  0.00000000000E+00 0. -1.
</event>
<event>
 7    1  0.4931104E-009  0.4778727E+02  0.7816164E-02  0.1312668E+00
        -11   -1    0    0    0    0  0.00000000000E+00  0.00000000000E+00  0.45593999997E+02  0.45594000000E+02  0.51100000000E-03 0.  1.
         11   -1    0    0    0    0 -0.00000000000E+00 -0.00000000000E+00 -0.45593999997E+02  0.45594000000E+02  0.51100000000E-03 0. -1.
    9900012    2    1    2    0    0 -0.36663838869E+02  0.22207395810E+02  0.67983685362E+01  0.47787270467E+02  0.19999997367E+02 0.  0.
        -12    1    1    2    0    0  0.36663838869E+02 -0.22207395810E+02 -0.67983685362E+01  0.43400729533E+02  0.00000000000E+00 0.  1.
         11    1    3    3    0    0 -0.78856305420E+01  0.44982370884E+01  0.28118371034E+01  0.95038799501E+01  0.51100000000E-03 0. -1.
        -11    1    3    3    0    0 -0.13527688262E+02  0.59805465056E+01  0.10312702407E+02  0.18031004337E+02  0.51100000000E-03 0.  1.
         12    1    3    3    0    0 -0.15250520065E+02  0.11728612216E+02 -0.63261709747E+01  0.20252386179E+02  0.00000000000E+00 0. -1.
</event>
<event>
 7    1  0.4931104E-009  0.4778727E+02  0.7816164E-02  0.1312668E+00
        -11   -1    0    0    0    0  0.00000000000E+00  0.00000000000E+00  0.45593999997E+02  0.45594000000E+02  0.51100000000E-03 0. -1.
         11   -1    0    0    0    0 -0.00000000000E+00 -0.00000000000E+00 -0.45593999997E+02  0.45594000000E+02  0.51100000000E-03 0.  1.
    9900012    2    1    2    0    0  0.14940289615E+02  0.34667671349E+02 -0.21414099656E+02  0.47787270114E+02  0.19999995756E+02 0.  0.
        -12    1    1    2    0    0 -0.14940289615E+02 -0.34667671349E+02  0.21414099656E+02  0.43400729886E+02  0.00000000000E+00 0.  1.
         11    1    3    3    0    0  0.40981805384E+01  0.17138467031E+02 -0.57636829943E+01  0.18540285268E+02  0.51100000000E-03 0. -1.
        -11    1    3    3    0    0  0.68233019076E+01  0.34810121675E+00 -0.26416143254E+01  0.73250767835E+01  0.51100000000E-03 0.  1.
         12    1    3    3    0    0  0.40188071692E+01  0.17181103102E+02 -0.13008802337E+02  0.21921908062E+02  0.00000000000E+00 0. -1.
</event>
<event>
 7    1  0.4931104E-009  0.4778726E+02  0.7816164E-02  0.1312668E+00
        -11   -1    0    0    0    0  0.00000000000E+00  0.00000000000E+00  0.45593999997E+02  0.45594000000E+02  0.51100000000E-03 0. -1.
         11   -1    0    0    0    0 -0.00000000000E+00 -0.00000000000E+00 -0.45593999997E+02  0.45594000000E+02  0.51100000000E-03 0.  1.
    9900012    2    1    2    0    0 -0.35083639085E+02 -0.22038167925E+02 -0.12926003290E+02  0.47787261089E+02  0.19999954610E+02 0.  0.
        -12    1    1    2    0    0  0.35083639085E+02  0.22038167925E+02  0.12926003290E+02  0.43400738911E+02  0.00000000000E+00 0.  1.
         11    1    3    3    0    0 -0.43041389989E+01 -0.10196531871E+02 -0.36127115186E+01  0.11642446457E+02  0.51100000000E-03 0. -1.
        -11    1    3    3    0    0 -0.53673235043E+00  0.20851845465E+00 -0.29094710427E+01  0.29659035000E+01  0.51100000000E-03 0.  1.
         12    1    3    3    0    0 -0.30242767736E+02 -0.12050154509E+02 -0.64038207288E+01  0.33178911132E+02  0.00000000000E+00 0. -1.
</event>
<event>
 7    1  0.4931104E-009  0.4778727E+02  0.7816164E-02  0.1312668E+00
        -11   -1    0    0    0    0  0.00000000000E+00  0.00000000000E+00  0.45593999997E+02  0.45594000000E+02  0.51100000000E-03 0.  1.
         11   -1    0    0    0    0 -0.00000000000E+00 -0.00000000000E+00 -0.45593999997E+02  0.45594000000E+02  0.51100000000E-03 0. -1.
    9900012    2    1    2    0    0  0.44452078367E+01 -0.80322423074E+01 -0.42418710315E+02  0.47787265283E+02  0.19999973732E+02 0.  0.
        -12    1    1    2    0    0 -0.44452078367E+01  0.80322423074E+01  0.42418710315E+02  0.43400734717E+02  0.00000000000E+00 0.  1.
         11    1    3    3    0    0  0.84012259199E+00 -0.21640431757E+01 -0.63160959656E+01  0.67291869749E+01  0.51100000000E-03 0. -1.
        -11    1    3    3    0    0 -0.56919527467E+01  0.28715320193E+01 -0.82885573602E+01  0.10456777973E+02  0.51100000000E-03 0.  1.
        -12    1    3    3    0    0  0.92970379914E+01 -0.87397311510E+01 -0.27814056989E+02  0.30601300335E+02  0.00000000000E+00 0.  1.
</event>
<event>
 7    1  0.4931104E-009  0.4778727E+02  0.7816164E-02  0.1312668E+00
        -11   -1    0    0    0    0  0.00000000000E+00  0.00000000000E+00  0.45593999997E+02  0.45594000000E+02  0.51100000000E-03 0.  1.
         11   -1    0    0    0    0 -0.00000000000E+00 -0.00000000000E+00 -0.45593999997E+02  0.45594000000E+02  0.51100000000E-03 0. -1.
    9900012    2    1    2    0    0 -0.95440737368E+01 -0.28930224409E+02 -0.30912392584E+02  0.47787271399E+02  0.20000001615E+02 0.  0.
        -12    1    1    2    0    0  0.95440737368E+01  0.28930224409E+02  0.30912392584E+02  0.43400728601E+02  0.00000000000E+00 0.  1.
         11    1    3    3    0    0 -0.11548884543E+01 -0.59522619841E-01 -0.35115820517E+01  0.36970960294E+01  0.51100000000E-03 0. -1.
        -11    1    3    3    0    0  0.66921353231E+00 -0.19394838837E+02 -0.87365793125E+01  0.21282279920E+02  0.51100000000E-03 0.  1.
        -12    1    3    3    0    0 -0.90583988148E+01 -0.94758629524E+01 -0.18664231220E+02  0.22807895449E+02  0.00000000000E+00 0.  1.
</event>
<event>
 7    1  0.4931104E-009  0.4778727E+02  0.7816164E-02  0.1312668E+00
        -11   -1    0    0    0    0  0.00000000000E+00  0.00000000000E+00  0.45593999997E+02  0.45594000000E+02  0.51100000000E-03 0. -1.
         11   -1    0    0    0    0 -0.00000000000E+00 -0.00000000000E+00 -0.45593999997E+02  0.45594000000E+02  0.51100000000E-03 0.  1.
    9900012    2    1    2    0    0 -0.36927165334E+02  0.36494829236E+01  0.22509751828E+02  0.47787271981E+02  0.20000004271E+02 0.  0.
        -12    1    1    2    0    0  0.36927165334E+02 -0.36494829236E+01 -0.22509751828E+02  0.43400728019E+02  0.00000000000E+00 0.  1.
         11    1    3    3    0    0 -0.23874802848E+02  0.72086549738E+01  0.19741100587E+02  0.31806948458E+02  0.51100000000E-03 0. -1.
        -11    1    3    3    0    0 -0.46143048544E+01  0.25922120652E+01  0.10982860639E+01  0.54053311850E+01  0.51100000000E-03 0.  1.
        -12    1    3    3    0    0 -0.84380576319E+01 -0.61513841154E+01  0.16703651765E+01  0.10574992338E+02  0.00000000000E+00 0.  1.
</event>
<event>
 7    1  0.4931104E-009  0.4778728E+02  0.7816164E-02  0.1312668E+00
        -11   -1    0    0    0    0  0.00000000000E+00  0.00000000000E+00  0.45593999997E+02  0.45594000000E+02  0.51100000000E-03 0.  1.
         11   -1    0    0    0    0 -0.00000000000E+00 -0.00000000000E+00 -0.45593999997E+02  0.45594000000E+02  0.51100000000E-03 0. -1.
    9900012    2    1    2    0    0 -0.11153228106E+02  0.31883045548E+02 -0.27252509833E+02  0.47787281310E+02  0.20000046805E+02 0.  0.
        -12    1    1    2    0    0  0.11153228106E+02 -0.31883045548E+02  0.27252509833E+02  0.43400718690E+02  0.00000000000E+00 0.  1.
         11    1    3    3    0    0 -0.89132623964E+01  0.91883932394E+01 -0.18185295787E+02  0.22239105198E+02  0.51100000000E-03 0. -1.
        -11    1    3    3    0    0 -0.25360822721E+01  0.35028558251E+01 -0.34988302335E+01  0.55626904899E+01  0.51100000000E-03 0.  1.
        -12    1    3    3    0    0  0.29611656200E+00  0.19191796483E+02 -0.55683838124E+01  0.19985485622E+02  0.00000000000E+00 0.  1.
</event>
<event>
 7    1  0.4931104E-009  0.4778729E+02  0.7816164E-02  0.1312668E+00
        -11   -1    0    0    0    0  0.00000000000E+00  0.00000000000E+00  0.45593999997E+02  0.45594000000E+02  0.51100000000E-03 0. -1.
         11   -1    0    0    0    0 -0.00000000000E+00 -0.00000000000E+00 -0.45593999997E+02  0.45594000000E+02  0.51100000000E-03 0.  1.
    9900012    2    1    2    0    0  0.27682274049E+02  0.28807670979E+02 -0.16953795042E+02  0.47787292977E+02  0.20000099998E+02 0.  0.
        -12    1    1    2    0    0 -0.27682274049E+02 -0.28807670979E+02  0.16953795042E+02  0.43400707023E+02  0.00000000000E+00 0.  1.
         11    1    3    3    0    0  0.36702513331E+01  0.11728052793E+02 -0.26432668434E+01  0.12569997097E+02  0.51100000000E-03 0. -1.
        -11    1    3    3    0    0  0.16050938170E+01  0.41369956574E+01  0.17410137171E+01  0.47667796524E+01  0.51100000000E-03 0.  1.
        -12    1    3    3    0    0  0.22406928899E+02  0.12942622529E+02 -0.16051541916E+02  0.30450516227E+02  0.00000000000E+00 0.  1.
</event>
<event>
 7    1  0.4931104E-009  0.4778727E+02  0.7816164E-02  0.1312668E+00
        -11   -1    0    0    0    0  0.00000000000E+00  0.00000000000E+00  0.45593999997E+02  0.45594000000E+02  0.51100000000E-03 0.  1.
         11   -1    0    0    0    0 -0.00000000000E+00 -0.00000000000E+00 -0.45593999997E+02  0.45594000000E+02  0.51100000000E-03 0. -1.
    9900012    2    1    2    0    0  0.26421223502E+02  0.32548630162E+02  0.11230717363E+02  0.47787269716E+02  0.19999993941E+02 0.  0.
        -12    1    1    2    0    0 -0.26421223502E+02 -0.32548630162E+02 -0.11230717363E+02  0.43400730284E+02  0.00000000000E+00 0.  1.
         11    1    3    3    0    0  0.13344114989E+01  0.70067059834E+00  0.21386661607E+01  0.26163880721E+01  0.51100000000E-03 0. -1.
        -11    1    3    3    0    0  0.11514626032E+02  0.31684732018E+01  0.57856843931E+01  0.13270266736E+02  0.51100000000E-03 0.  1.
         12    1    3    3    0    0  0.13572185971E+02  0.28679486362E+02  0.33063668089E+01  0.31900614907E+02  0.00000000000E+00 0. -1.
</event>
<event>
 7    1  0.4931104E-009  0.4778727E+02  0.7816164E-02  0.1312668E+00
        -11   -1    0    0    0    0  0.00000000000E+00  0.00000000000E+00  0.45593999997E+02  0.45594000000E+02  0.51100000000E-03 0.  1.
         11   -1    0    0    0    0 -0.00000000000E+00 -0.00000000000E+00 -0.45593999997E+02  0.45594000000E+02  0.51100000000E-03 0. -1.
    9900012    2    1    2    0    0 -0.32476213831E+02  0.26502917149E+02  0.11247862053E+02  0.47787268636E+02  0.19999989018E+02 0.  0.
        -12    1    1    2    0    0  0.32476213831E+02 -0.26502917149E+02 -0.11247862053E+02  0.43400731364E+02  0.00000000000E+00 0.  1.
         11    1    3    3    0    0 -0.13581256095E+02  0.13154156860E+02  0.89579264679E+01  0.20921921677E+02  0.51100000000E-03 0. -1.
        -11    1    3    3    0    0 -0.73669349289E+01 -0.82071109838E+00  0.41654147906E+01  0.85027041342E+01  0.51100000000E-03 0.  1.
         12    1    3    3    0    0 -0.11528022807E+02  0.14169471388E+02 -0.18754792057E+01  0.18362642824E+02  0.00000000000E+00 0. -1.
</event>
<event>
 7    1  0.4931104E-009  0.4778727E+02  0.7816164E-02  0.1312668E+00
        -11   -1    0    0    0    0  0.00000000000E+00  0.00000000000E+00  0.45593999997E+02  0.45594000000E+02  0.51100000000E-03 0.  1.
         11   -1    0    0    0    0 -0.00000000000E+00 -0.00000000000E+00 -0.45593999997E+02  0.45594000000E+02  0.51100000000E-03 0. -1.
    9900012    2    1    2    0    0  0.33291211751E+02 -0.17250611325E+02 -0.21857150982E+02  0.47787269361E+02  0.19999992326E+02 0.  0.
        -12    1    1    2    0    0 -0.33291211751E+02  0.17250611325E+02  0.21857150982E+02  0.43400730639E+02  0.00000000000E+00 0.  1.
         11    1    3    3    0    0  0.16781646448E+02 -0.51969920172E+01 -0.10966434016E+02  0.20709781718E+02  0.51100000000E-03 0. -1.
        -11    1    3    3    0    0  0.75048107323E+01 -0.79317627482E+01 -0.12973849175E+02  0.16957470539E+02  0.51100000000E-03 0.  1.
        -12    1    3    3    0    0  0.90047545708E+01 -0.41218565598E+01  0.20831322094E+01  0.10120017104E+02  0.00000000000E+00 0.  1.
</event>
<event>
 7    1  0.4931104E-009  0.4778727E+02  0.7816164E-02  0.1312668E+00
        -11   -1    0    0    0    0  0.00000000000E+00  0.00000000000E+00  0.45593999997E+02  0.45594000000E+02  0.51100000000E-03 0. -1.
         11   -1    0    0    0    0 -0.00000000000E+00 -0.00000000000E+00 -0.45593999997E+02  0.45594000000E+02  0.51100000000E-03 0.  1.
    9900012    2    1    2    0    0 -0.34172335939E+02  0.25849349091E+02  0.69054861226E+01  0.47787272695E+02  0.20000007526E+02 0.  0.
        -12    1    1    2    0    0  0.34172335939E+02 -0.25849349091E+02 -0.69054861226E+01  0.43400727305E+02  0.00000000000E+00 0.  1.
         11    1    3    3    0    0 -0.25053824453E+02  0.10506830354E+02  0.22558590949E+01  0.27261263806E+02  0.51100000000E-03 0. -1.
        -11    1    3    3    0    0 -0.47357537682E+01  0.28694698610E+01 -0.17913804922E+01  0.58198166092E+01  0.51100000000E-03 0.  1.
        -12    1    3    3    0    0 -0.43827577183E+01  0.12473048877E+02  0.64410075199E+01  0.14706192280E+02  0.00000000000E+00 0.  1.
</event>
<event>
 7    1  0.4931104E-009  0.4778725E+02  0.7816164E-02  0.1312668E+00
        -11   -1    0    0    0    0  0.00000000000E+00  0.00000000000E+00  0.45593999997E+02  0.45594000000E+02  0.51100000000E-03 0. -1.
         11   -1    0    0    0    0 -0.00000000000E+00 -0.00000000000E+00 -0.45593999997E+02  0.45594000000E+02  0.51100000000E-03 0.  1.
    9900012    2    1    2    0    0 -0.19797527487E+02  0.62634246622E+01  0.38111051309E+02  0.47787253290E+02  0.19999919052E+02 0.  0.
        -12    1    1    2    0    0  0.19797527487E+02 -0.62634246622E+01 -0.38111051309E+02  0.43400746710E+02  0.00000000000E+00 0.  1.
         11    1    3    3    0    0 -0.11953263136E+02  0.11067485539E+01  0.17108462235E+02  0.20899877327E+02  0.51100000000E-03 0. -1.
        -11    1    3    3    0    0 -0.10595677152E+02 -0.36867751129E+00  0.13779643461E+02  0.17386284007E+02  0.51100000000E-03 0.  1.
        -12    1    3    3    0    0  0.27514128017E+01  0.55253536195E+01  0.72229456134E+01  0.95010919562E+01  0.00000000000E+00 0.  1.
</event>
<event>
 7    1  0.4931104E-009  0.4778727E+02  0.7816164E-02  0.1312668E+00
        -11   -1    0    0    0    0  0.00000000000E+00  0.00000000000E+00  0.45593999997E+02  0.45594000000E+02  0.51100000000E-03 0. -1.
         11   -1    0    0    0    0 -0.00000000000E+00 -0.00000000000E+00 -0.45593999997E+02  0.45594000000E+02  0.51100000000E-03 0.  1.
    9900012    2    1    2    0    0  0.41738037469E+02 -0.58328095796E+01  0.10370046161E+02  0.47787270781E+02  0.19999998798E+02 0.  0.
        -12    1    1    2    0    0 -0.41738037469E+02  0.58328095796E+01 -0.10370046161E+02  0.43400729219E+02  0.00000000000E+00 0.  1.
         11    1    3    3    0    0  0.77880295352E+01 -0.44477770974E+01  0.79664835744E+01  0.11995873705E+02  0.51100000000E-03 0. -1.
        -11    1    3    3    0    0  0.34955472598E+01 -0.19423021081E+01  0.34969006734E+01  0.53122220120E+01  0.51100000000E-03 0.  1.
         12    1    3    3    0    0  0.30454460674E+02  0.55726962590E+00 -0.10933380866E+01  0.30479175064E+02  0.00000000000E+00 0. -1.
</event>
<event>
 7    1  0.4931104E-009  0.4778727E+02  0.7816164E-02  0.1312668E+00
        -11   -1    0    0    0    0  0.00000000000E+00  0.00000000000E+00  0.45593999997E+02  0.45594000000E+02  0.51100000000E-03 0.  1.
         11   -1    0    0    0    0 -0.00000000000E+00 -0.00000000000E+00 -0.45593999997E+02  0.45594000000E+02  0.51100000000E-03 0. -1.
    9900012    2    1    2    0    0 -0.35948909007E+01 -0.14277987347E+02 -0.40826943661E+02  0.47787268532E+02  0.19999988546E+02 0.  0.
        -12    1    1    2    0    0  0.35948909007E+01  0.14277987347E+02  0.40826943661E+02  0.43400731468E+02  0.00000000000E+00 0.  1.
         11    1    3    3    0    0 -0.36883643522E+01 -0.70944818266E+01 -0.15039076694E+02  0.17032602034E+02  0.51100000000E-03 0. -1.
        -11    1    3    3    0    0 -0.19727388703E+01  0.19472881366E+01 -0.18975054918E+02  0.19176452725E+02  0.51100000000E-03 0.  1.
         12    1    3    3    0    0  0.20662123219E+01 -0.91307936567E+01 -0.68128120494E+01  0.11578213773E+02  0.00000000000E+00 0. -1.
</event>
<event>
 7    1  0.4931104E-009  0.4778727E+02  0.7816164E-02  0.1312668E+00
        -11   -1    0    0    0    0  0.00000000000E+00  0.00000000000E+00  0.45593999997E+02  0.45594000000E+02  0.51100000000E-03 0. -1.
         11   -1    0    0    0    0 -0.00000000000E+00 -0.00000000000E+00 -0.45593999997E+02  0.45594000000E+02  0.51100000000E-03 0.  1.
    9900012    2    1    2    0    0 -0.67275925972E+01 -0.21968130296E+02  0.36820705245E+02  0.47787267453E+02  0.19999983626E+02 0.  0.
        -12    1    1    2    0    0  0.67275925972E+01  0.21968130296E+02 -0.36820705245E+02  0.43400732547E+02  0.00000000000E+00 0.  1.
         11    1    3    3    0    0 -0.28695537738E+01 -0.64419281170E+00  0.37717357279E+01  0.47828144331E+01  0.51100000000E-03 0. -1.
        -11    1    3    3    0    0 -0.85554459430E+01 -0.73453274237E+01  0.76214754300E+01  0.13610157172E+02  0.51100000000E-03 0.  1.
         12    1    3    3    0    0  0.46974071197E+01 -0.13978610061E+02  0.25427494087E+02  0.29394295848E+02  0.00000000000E+00 0. -1.
</event>
<event>
 7    1  0.4931104E-009  0.4778727E+02  0.7816164E-02  0.1312668E+00
        -11   -1    0    0    0    0  0.00000000000E+00  0.00000000000E+00  0.45593999997E+02  0.45594000000E+02  0.51100000000E-03 0. -1.
         11   -1    0    0    0    0 -0.00000000000E+00 -0.00000000000E+00 -0.45593999997E+02  0.45594000000E+02  0.51100000000E-03 0.  1.
    9900012    2    1    2    0    0 -0.20856007906E+02  0.40807086524E+01  0.37841749861E+02  0.47787270957E+02  0.19999999601E+02 0.  0.
        -12    1    1    2    0    0  0.20856007906E+02 -0.40807086524E+01 -0.37841749861E+02  0.43400729043E+02  0.00000000000E+00 0.  1.
         11    1    3    3    0    0 -0.95745151103E+01  0.18631307778E+01  0.12783375485E+02  0.16079716569E+02  0.51100000000E-03 0. -1.
        -11    1    3    3    0    0 -0.54283501404E+01 -0.55284953399E+01  0.44703240095E+01  0.89451127987E+01  0.51100000000E-03 0.  1.
         12    1    3    3    0    0 -0.58531426556E+01  0.77460732145E+01  0.20588050366E+02  0.22762441589E+02  0.00000000000E+00 0. -1.
</event>
<event>
 7    1  0.4931104E-009  0.4778728E+02  0.7816164E-02  0.1312668E+00
        -11   -1    0    0    0    0  0.00000000000E+00  0.00000000000E+00  0.45593999997E+02  0.45594000000E+02  0.51100000000E-03 0. -1.
         11   -1    0    0    0    0 -0.00000000000E+00 -0.00000000000E+00 -0.45593999997E+02  0.45594000000E+02  0.51100000000E-03 0.  1.
    9900012    2    1    2    0    0 -0.41652977222E+02 -0.54525107270E+01  0.10905159729E+02  0.47787275427E+02  0.20000019984E+02 0.  0.
        -12    1    1    2    0    0  0.41652977222E+02  0.54525107270E+01 -0.10905159729E+02  0.43400724573E+02  0.00000000000E+00 0.  1.
         11    1    3    3    0    0 -0.13552182051E+02  0.23456385138E+01  0.38023858000E+01  0.14269610941E+02  0.51100000000E-03 0. -1.
        -11    1    3    3    0    0 -0.17277136273E+02 -0.43287267134E+01  0.11642209759E+02  0.21278589265E+02  0.51100000000E-03 0.  1.
        -12    1    3    3    0    0 -0.10823658898E+02 -0.34694225274E+01 -0.45394358306E+01  0.12239075221E+02  0.00000000000E+00 0.  1.
</event>
<event>
 7    1  0.4931104E-009  0.4778727E+02  0.7816164E-02  0.1312668E+00
        -11   -1    0    0    0    0  0.00000000000E+00  0.00000000000E+00  0.45593999997E+02  0.45594000000E+02  0.51100000000E-03 0. -1.
         11   -1    0    0    0    0 -0.00000000000E+00 -0.00000000000E+00 -0.45593999997E+02  0.45594000000E+02  0.51100000000E-03 0.  1.
    9900012    2    1    2    0    0 -0.14545190404E+02 -0.39898139561E+02  0.89553902623E+01  0.47787272828E+02  0.20000008130E+02 0.  0.
        -12    1    1    2    0    0  0.14545190404E+02  0.39898139561E+02 -0.89553902623E+01  0.43400727172E+02  0.00000000000E+00 0.  1.
         11    1    3    3    0    0 -0.75410433588E+01 -0.10581882585E+02 -0.10022266591E+01  0.13032575820E+02  0.51100000000E-03 0. -1.
        -11    1    3    3    0    0 -0.73870179523E+01 -0.16529325486E+02 -0.67913070901E+00  0.18117611709E+02  0.51100000000E-03 0.  1.
        -12    1    3    3    0    0  0.38287090670E+00 -0.12786931490E+02  0.10636747630E+02  0.16637085298E+02  0.00000000000E+00 0.  1.
</event>
<event>
 7    1  0.4931104E-009  0.4778727E+02  0.7816164E-02  0.1312668E+00
        -11   -1    0    0    0    0  0.00000000000E+00  0.00000000000E+00  0.45593999997E+02  0.45594000000E+02  0.51100000000E-03 0. -1.
         11   -1    0    0    0    0 -0.00000000000E+00 -0.00000000000E+00 -0.45593999997E+02  0.45594000000E+02  0.51100000000E-03 0.  1.
    9900012    2    1    2    0    0 -0.33142769396E+02 -0.24186434299E+02 -0.14149078238E+02  0.47787272099E+02  0.20000004809E+02 0.  0.
        -12    1    1    2    0    0  0.33142769396E+02  0.24186434299E+02  0.14149078238E+02  0.43400727901E+02  0.00000000000E+00 0.  1.
         11    1    3    3    0    0 -0.64633987162E+01 -0.15921739905E+00  0.30973918738E+00  0.64727746578E+01  0.51100000000E-03 0. -1.
        -11    1    3    3    0    0  0.18507067275E+00 -0.53371192406E+01  0.43569927755E+00  0.53580712075E+01  0.51100000000E-03 0.  1.
         12    1    3    3    0    0 -0.26864441352E+02 -0.18690097659E+02 -0.14894516703E+02  0.35956426234E+02  0.00000000000E+00 0. -1.
</event>
<event>
 7    1  0.4931104E-009  0.4778727E+02  0.7816164E-02  0.1312668E+00
        -11   -1    0    0    0    0  0.00000000000E+00  0.00000000000E+00  0.45593999997E+02  0.45594000000E+02  0.51100000000E-03 0.  1.
         11   -1    0    0    0    0 -0.00000000000E+00 -0.00000000000E+00 -0.45593999997E+02  0.45594000000E+02  0.51100000000E-03 0. -1.
    9900012    2    1    2    0    0  0.43022588882E+02 -0.37310865724E+00 -0.57044750161E+01  0.47787269598E+02  0.19999993406E+02 0.  0.
        -12    1    1    2    0    0 -0.43022588882E+02  0.37310865724E+00  0.57044750161E+01  0.43400730402E+02  0.00000000000E+00 0.  1.
         11    1    3    3    0    0  0.26023041826E+02  0.78064470726E+01 -0.48944412026E+01  0.27606065941E+02  0.51100000000E-03 0. -1.
        -11    1    3    3    0    0  0.65682288236E-01 -0.18094362209E+01  0.87415866574E+00  0.20106036991E+01  0.51100000000E-03 0.  1.
        -12    1    3    3    0    0  0.16933864768E+02 -0.63701195089E+01 -0.16841924793E+01  0.18170599958E+02  0.00000000000E+00 0.  1.
</event>
<event>
 7    1  0.4931104E-009  0.4778727E+02  0.7816164E-02  0.1312668E+00
        -11   -1    0    0    0    0  0.00000000000E+00  0.00000000000E+00  0.45593999997E+02  0.45594000000E+02  0.51100000000E-03 0.  1.
         11   -1    0    0    0    0 -0.00000000000E+00 -0.00000000000E+00 -0.45593999997E+02  0.45594000000E+02  0.51100000000E-03 0. -1.
    9900012    2    1    2    0    0  0.34617783457E+02 -0.23658025036E+02 -0.11204016500E+02  0.47787273441E+02  0.20000010927E+02 0.  0.
        -12    1    1    2    0    0 -0.34617783457E+02  0.23658025036E+02  0.11204016500E+02  0.43400726559E+02  0.00000000000E+00 0.  1.
         11    1    3    3    0    0  0.29017389063E+01 -0.77393281209E+01 -0.13505679392E+00  0.82665306533E+01  0.51100000000E-03 0. -1.
        -11    1    3    3    0    0  0.46714522560E+01 -0.69288529166E+01  0.12922752613E+01  0.84558526792E+01  0.51100000000E-03 0.  1.
         12    1    3    3    0    0  0.27044592295E+02 -0.89898439984E+01 -0.12361234968E+02  0.31064890108E+02  0.00000000000E+00 0. -1.
</event>
<event>
 7    1  0.4931104E-009  0.4778727E+02  0.7816164E-02  0.1312668E+00
        -11   -1    0    0    0    0  0.00000000000E+00  0.00000000000E+00  0.45593999997E+02  0.45594000000E+02  0.51100000000E-03 0.  1.
         11   -1    0    0    0    0 -0.00000000000E+00 -0.00000000000E+00 -0.45593999997E+02  0.45594000000E+02  0.51100000000E-03 0. -1.
    9900012    2    1    2    0    0 -0.10244368420E+02 -0.31537972314E+02 -0.28000582031E+02  0.47787269867E+02  0.19999994633E+02 0.  0.
        -12    1    1    2    0    0  0.10244368420E+02  0.31537972314E+02  0.28000582031E+02  0.43400730133E+02  0.00000000000E+00 0.  1.
         11    1    3    3    0    0  0.91777678133E+00 -0.90674589966E+01 -0.11940119582E+02  0.15020904858E+02  0.51100000000E-03 0. -1.
        -11    1    3    3    0    0  0.68517559664E+00 -0.11363637948E+02 -0.26092204860E+01  0.11679459097E+02  0.51100000000E-03 0.  1.
        -12    1    3    3    0    0 -0.11847320798E+02 -0.11106875369E+02 -0.13451241963E+02  0.21086905911E+02  0.00000000000E+00 0.  1.
</event>
<event>
 7    1  0.4931104E-009  0.4778727E+02  0.7816164E-02  0.1312668E+00
        -11   -1    0    0    0    0  0.00000000000E+00  0.00000000000E+00  0.45593999997E+02  0.45594000000E+02  0.51100000000E-03 0.  1.
         11   -1    0    0    0    0 -0.00000000000E+00 -0.00000000000E+00 -0.45593999997E+02  0.45594000000E+02  0.51100000000E-03 0. -1.
    9900012    2    1    2    0    0 -0.15997562485E+01 -0.34890196885E+02 -0.25763120750E+02  0.47787269021E+02  0.19999990773E+02 0.  0.
        -12    1    1    2    0    0  0.15997562485E+01  0.34890196885E+02  0.25763120750E+02  0.43400730979E+02  0.00000000000E+00 0.  1.
         11    1    3    3    0    0 -0.68515482735E+01 -0.25310539601E+02 -0.15110268704E+02  0.30263630800E+02  0.51100000000E-03 0. -1.
        -11    1    3    3    0    0 -0.21000776325E+01 -0.41945826096E+01 -0.26054173887E+01  0.53659155194E+01  0.51100000000E-03 0.  1.
        -12    1    3    3    0    0  0.73518696575E+01 -0.53850746752E+01 -0.80474346578E+01  0.12157722702E+02  0.00000000000E+00 0.  1.
</event>
<event>
 7    1  0.4931104E-009  0.4778727E+02  0.7816164E-02  0.1312668E+00
        -11   -1    0    0    0    0  0.00000000000E+00  0.00000000000E+00  0.45593999997E+02  0.45594000000E+02  0.51100000000E-03 0.  1.
         11   -1    0    0    0    0 -0.00000000000E+00 -0.00000000000E+00 -0.45593999997E+02  0.45594000000E+02  0.51100000000E-03 0. -1.
    9900012    2    1    2    0    0 -0.99807288857E+01 -0.15762878940E+02 -0.39185964103E+02  0.47787273229E+02  0.20000009959E+02 0.  0.
        -12    1    1    2    0    0  0.99807288857E+01  0.15762878940E+02  0.39185964103E+02  0.43400726771E+02  0.00000000000E+00 0.  1.
         11    1    3    3    0    0 -0.21948640767E+01  0.28971096712E+01 -0.98189292223E+01  0.10470054637E+02  0.51100000000E-03 0. -1.
        -11    1    3    3    0    0 -0.28032947557E+01 -0.77494092149E+01 -0.21363064107E+02  0.22897430270E+02  0.51100000000E-03 0.  1.
        -12    1    3    3    0    0 -0.49825700533E+01 -0.10910579396E+02 -0.80039707738E+01  0.14419788322E+02  0.00000000000E+00 0.  1.
</event>
<event>
 7    1  0.4931104E-009  0.4778727E+02  0.7816164E-02  0.1312668E+00
        -11   -1    0    0    0    0  0.00000000000E+00  0.00000000000E+00  0.45593999997E+02  0.45594000000E+02  0.51100000000E-03 0.  1.
         11   -1    0    0    0    0 -0.00000000000E+00 -0.00000000000E+00 -0.45593999997E+02  0.45594000000E+02  0.51100000000E-03 0. -1.
    9900012    2    1    2    0    0  0.37457363462E+02  0.21861331293E+02 -0.16283461500E+01  0.47787269653E+02  0.19999993657E+02 0.  0.
        -12    1    1    2    0    0 -0.37457363462E+02 -0.21861331293E+02  0.16283461500E+01  0.43400730347E+02  0.00000000000E+00 0.  1.
         11    1    3    3    0    0  0.81100675815E+01  0.85350524172E+00 -0.19634368011E+01  0.83878931626E+01  0.51100000000E-03 0. -1.
        -11    1    3    3    0    0  0.60981466355E+01 -0.13163468220E+01  0.32529072735E+01  0.70357350245E+01  0.51100000000E-03 0.  1.
         12    1    3    3    0    0  0.23249149245E+02  0.22324172873E+02 -0.29178166223E+01  0.32363641466E+02  0.00000000000E+00 0. -1.
</event>
<event>
 7    1  0.4931104E-009  0.4778727E+02  0.7816164E-02  0.1312668E+00
        -11   -1    0    0    0    0  0.00000000000E+00  0.00000000000E+00  0.45593999997E+02  0.45594000000E+02  0.51100000000E-03 0.  1.
         11   -1    0    0    0    0 -0.00000000000E+00 -0.00000000000E+00 -0.45593999997E+02  0.45594000000E+02  0.51100000000E-03 0. -1.
    9900012    2    1    2    0    0 -0.33456250191E+02 -0.13501501485E+02 -0.24124923305E+02  0.47787272544E+02  0.20000006838E+02 0.  0.
        -12    1    1    2    0    0  0.33456250191E+02  0.13501501485E+02  0.24124923305E+02  0.43400727456E+02  0.00000000000E+00 0.  1.
         11    1    3    3    0    0 -0.18680903043E+01 -0.17043783139E+01  0.22737415287E+01  0.34006716429E+01  0.51100000000E-03 0. -1.
        -11    1    3    3    0    0 -0.88274821769E+01 -0.71216720202E+01 -0.37690192289E+01  0.11951910314E+02  0.51100000000E-03 0.  1.
         12    1    3    3    0    0 -0.22760677710E+02 -0.46754511508E+01 -0.22629645605E+02  0.32434690587E+02  0.00000000000E+00 0. -1.
</event>
<event>
 7    1  0.4931104E-009  0.4778727E+02  0.7816164E-02  0.1312668E+00
        -11   -1    0    0    0    0  0.00000000000E+00  0.00000000000E+00  0.45593999997E+02  0.45594000000E+02  0.51100000000E-03 0.  1.
         11   -1    0    0    0    0 -0.00000000000E+00 -0.00000000000E+00 -0.45593999997E+02  0.45594000000E+02  0.51100000000E-03 0. -1.
    9900012    2    1    2    0    0 -0.11135141175E+02 -0.35433505647E+02 -0.22452143034E+02  0.47787269381E+02  0.19999992417E+02 0.  0.
        -12    1    1    2    0    0  0.11135141175E+02  0.35433505647E+02  0.22452143034E+02  0.43400730619E+02  0.00000000000E+00 0.  1.
         11    1    3    3    0    0 -0.55535331128E+01 -0.23832875442E+02 -0.13280720684E+02  0.27842866663E+02  0.51100000000E-03 0. -1.
        -11    1    3    3    0    0 -0.90022566295E+00 -0.11403602110E+02 -0.99907908601E+01  0.15187773029E+02  0.51100000000E-03 0.  1.
        -12    1    3    3    0    0 -0.46813823997E+01 -0.19702809481E+00  0.81936850961E+00  0.47566296888E+01  0.00000000000E+00 0.  1.
</event>
<event>
 7    1  0.4931104E-009  0.4778727E+02  0.7816164E-02  0.1312668E+00
        -11   -1    0    0    0    0  0.00000000000E+00  0.00000000000E+00  0.45593999997E+02  0.45594000000E+02  0.51100000000E-03 0.  1.
         11   -1    0    0    0    0 -0.00000000000E+00 -0.00000000000E+00 -0.45593999997E+02  0.45594000000E+02  0.51100000000E-03 0. -1.
    9900012    2    1    2    0    0  0.23264004410E+01 -0.13259830274E+02 -0.41260004254E+02  0.47787272023E+02  0.20000004463E+02 0.  0.
        -12    1    1    2    0    0 -0.23264004410E+01  0.13259830274E+02  0.41260004254E+02  0.43400727977E+02  0.00000000000E+00 0.  1.
         11    1    3    3    0    0  0.49007643005E+01 -0.85573443829E+01 -0.17718499295E+02  0.20277841383E+02  0.51100000000E-03 0. -1.
        -11    1    3    3    0    0 -0.27648344741E+01 -0.73234961429E+01 -0.62435130994E+01  0.10012959678E+02  0.51100000000E-03 0.  1.
         12    1    3    3    0    0  0.19047061456E+00  0.26210102516E+01 -0.17297991859E+02  0.17496470962E+02  0.00000000000E+00 0. -1.
</event>
<event>
 7    1  0.4931104E-009  0.4778728E+02  0.7816164E-02  0.1312668E+00
        -11   -1    0    0    0    0  0.00000000000E+00  0.00000000000E+00  0.45593999997E+02  0.45594000000E+02  0.51100000000E-03 0. -1.
         11   -1    0    0    0    0 -0.00000000000E+00 -0.00000000000E+00 -0.45593999997E+02  0.45594000000E+02  0.51100000000E-03 0.  1.
    9900012    2    1    2    0    0  0.29323798783E+02 -0.23329162397E+02  0.21897212814E+02  0.47787275096E+02  0.20000018471E+02 0.  0.
        -12    1    1    2    0    0 -0.29323798783E+02  0.23329162397E+02 -0.21897212814E+02  0.43400724904E+02  0.00000000000E+00 0.  1.
         11    1    3    3    0    0  0.18434643388E+02 -0.67575582427E+01  0.11669161516E+02  0.22840096344E+02  0.51100000000E-03 0. -1.
        -11    1    3    3    0    0  0.11061457972E+02 -0.75008292253E+01  0.81024923647E+01  0.15629097041E+02  0.51100000000E-03 0.  1.
        -12    1    3    3    0    0 -0.17230257712E+00 -0.90707749288E+01  0.21255589334E+01  0.93180817107E+01  0.00000000000E+00 0.  1.
</event>
<event>
 7    1  0.4931104E-009  0.4778727E+02  0.7816164E-02  0.1312668E+00
        -11   -1    0    0    0    0  0.00000000000E+00  0.00000000000E+00  0.45593999997E+02  0.45594000000E+02  0.51100000000E-03 0. -1.
         11   -1    0    0    0    0 -0.00000000000E+00 -0.00000000000E+00 -0.45593999997E+02  0.45594000000E+02  0.51100000000E-03 0.  1.
    9900012    2    1    2    0    0 -0.10170713023E+02  0.10941189376E+02  0.40748868376E+02  0.47787270717E+02  0.19999998509E+02 0.  0.
        -12    1    1    2    0    0  0.10170713023E+02 -0.10941189376E+02 -0.40748868376E+02  0.43400729283E+02  0.00000000000E+00 0.  1.
         11    1    3    3    0    0 -0.11737086165E+01  0.55220463188E+01  0.12147886689E+02  0.13395586539E+02  0.51100000000E-03 0. -1.
        -11    1    3    3    0    0 -0.11841908967E+02  0.86221047389E+01  0.20088511872E+02  0.24862015357E+02  0.51100000000E-03 0.  1.
        -12    1    3    3    0    0  0.28449045601E+01 -0.32029616821E+01  0.85124698148E+01  0.95296688212E+01  0.00000000000E+00 0.  1.
</event>
<event>
 7    1  0.4931104E-009  0.4778726E+02  0.7816164E-02  0.1312668E+00
        -11   -1    0    0    0    0  0.00000000000E+00  0.00000000000E+00  0.45593999997E+02  0.45594000000E+02  0.51100000000E-03 0.  1.
         11   -1    0    0    0    0 -0.00000000000E+00 -0.00000000000E+00 -0.45593999997E+02  0.45594000000E+02  0.51100000000E-03 0. -1.
    9900012    2    1    2    0    0 -0.21771889746E+02 -0.25501331180E+02 -0.27555230762E+02  0.47787264783E+02  0.19999971451E+02 0.  0.
        -12    1    1    2    0    0  0.21771889746E+02  0.25501331180E+02  0.27555230762E+02  0.43400735217E+02  0.00000000000E+00 0.  1.
         11    1    3    3    0    0 -0.46764527553E+01 -0.15615509908E+01 -0.54253634692E+01  0.73309086001E+01  0.51100000000E-03 0. -1.
        -11    1    3    3    0    0  0.18522171707E+01 -0.61546809389E+00  0.13052903906E+01  0.23480401800E+01  0.51100000000E-03 0.  1.
        -12    1    3    3    0    0 -0.18947654161E+02 -0.23324312095E+02 -0.23435157683E+02  0.38108316003E+02  0.00000000000E+00 0.  1.
</event>
<event>
 7    1  0.4931104E-009  0.4778723E+02  0.7816164E-02  0.1312668E+00
        -11   -1    0    0    0    0  0.00000000000E+00  0.00000000000E+00  0.45593999997E+02  0.45594000000E+02  0.51100000000E-03 0. -1.
         11   -1    0    0    0    0 -0.00000000000E+00 -0.00000000000E+00 -0.45593999997E+02  0.45594000000E+02  0.51100000000E-03 0.  1.
    9900012    2    1    2    0    0 -0.27689358611E+02  0.97168090200E+01  0.31976708543E+02  0.47787229879E+02  0.19999812311E+02 0.  0.
        -12    1    1    2    0    0  0.27689358611E+02 -0.97168090200E+01 -0.31976708543E+02  0.43400770121E+02  0.00000000000E+00 0.  1.
         11    1    3    3    0    0 -0.12650477563E+02  0.71461374724E+01  0.16619679208E+02  0.22075225946E+02  0.51100000000E-03 0. -1.
        -11    1    3    3    0    0 -0.12579472313E+02  0.70704121241E+01  0.73260661816E+01  0.16183482235E+02  0.51100000000E-03 0.  1.
         12    1    3    3    0    0 -0.24594087344E+01 -0.44997405764E+01  0.80309631535E+01  0.95285216981E+01  0.00000000000E+00 0. -1.
</event>
<event>
 7    1  0.4931104E-009  0.4778729E+02  0.7816164E-02  0.1312668E+00
        -11   -1    0    0    0    0  0.00000000000E+00  0.00000000000E+00  0.45593999997E+02  0.45594000000E+02  0.51100000000E-03 0. -1.
         11   -1    0    0    0    0 -0.00000000000E+00 -0.00000000000E+00 -0.45593999997E+02  0.45594000000E+02  0.51100000000E-03 0.  1.
    9900012    2    1    2    0    0  0.42071690324E+02 -0.10395295641E+02  0.23521510642E+01  0.47787286724E+02  0.20000071491E+02 0.  0.
        -12    1    1    2    0    0 -0.42071690324E+02  0.10395295641E+02 -0.23521510642E+01  0.43400713276E+02  0.00000000000E+00 0.  1.
         11    1    3    3    0    0  0.20160052524E+02 -0.10394160009E+02 -0.61303068753E+00  0.22690131929E+02  0.51100000000E-03 0. -1.
        -11    1    3    3    0    0  0.19345451915E+02 -0.14041889563E+01 -0.18278293378E+01  0.19482279558E+02  0.51100000000E-03 0.  1.
        -12    1    3    3    0    0  0.25661858850E+01  0.14030533245E+01  0.47930110895E+01  0.56148752374E+01  0.00000000000E+00 0.  1.
</event>
<event>
 7    1  0.4931104E-009  0.4778727E+02  0.7816164E-02  0.1312668E+00
        -11   -1    0    0    0    0  0.00000000000E+00  0.00000000000E+00  0.45593999997E+02  0.45594000000E+02  0.51100000000E-03 0. -1.
         11   -1    0    0    0    0 -0.00000000000E+00 -0.00000000000E+00 -0.45593999997E+02  0.45594000000E+02  0.51100000000E-03 0.  1.
    9900012    2    1    2    0    0  0.36134583537E+02 -0.12174321816E+02  0.20729231341E+02  0.47787271077E+02  0.20000000147E+02 0.  0.
        -12    1    1    2    0    0 -0.36134583537E+02  0.12174321816E+02 -0.20729231341E+02  0.43400728923E+02  0.00000000000E+00 0.  1.
         11    1    3    3    0    0  0.24442033608E+01 -0.51085776601E+01  0.98889360964E+01  0.11395733989E+02  0.51100000000E-03 0.  1.
        -11    1    3    3    0    0  0.42511484093E+01 -0.15668344246E+01  0.29999402520E+01  0.54338636980E+01  0.51100000000E-03 0. -1.
        -12    1    3    3    0    0  0.29439231767E+02 -0.54989097313E+01  0.78403549922E+01  0.30957673389E+02  0.00000000000E+00 0.  1.
</event>
<event>
 7    1  0.4931104E-009  0.4778727E+02  0.7816164E-02  0.1312668E+00
        -11   -1    0    0    0    0  0.00000000000E+00  0.00000000000E+00  0.45593999997E+02  0.45594000000E+02  0.51100000000E-03 0.  1.
         11   -1    0    0    0    0 -0.00000000000E+00 -0.00000000000E+00 -0.45593999997E+02  0.45594000000E+02  0.51100000000E-03 0. -1.
    9900012    2    1    2    0    0 -0.26423897195E+02 -0.22061248464E+02 -0.26432977727E+02  0.47787270302E+02  0.19999996617E+02 0.  0.
        -12    1    1    2    0    0  0.26423897195E+02  0.22061248464E+02  0.26432977727E+02  0.43400729698E+02  0.00000000000E+00 0.  1.
         11    1    3    3    0    0 -0.12616184700E+02 -0.44826494233E+01 -0.60207244856E+01  0.14680306054E+02  0.51100000000E-03 0. -1.
        -11    1    3    3    0    0 -0.20828634454E+01 -0.38280342112E+01  0.15864731813E+01  0.46377864839E+01  0.51100000000E-03 0.  1.
         12    1    3    3    0    0 -0.11724849049E+02 -0.13750564829E+02 -0.21998726423E+02  0.28469177764E+02  0.00000000000E+00 0. -1.
</event>
<event>
 7    1  0.4931104E-009  0.4778727E+02  0.7816164E-02  0.1312668E+00
        -11   -1    0    0    0    0  0.00000000000E+00  0.00000000000E+00  0.45593999997E+02  0.45594000000E+02  0.51100000000E-03 0. -1.
         11   -1    0    0    0    0 -0.00000000000E+00 -0.00000000000E+00 -0.45593999997E+02  0.45594000000E+02  0.51100000000E-03 0.  1.
    9900012    2    1    2    0    0 -0.30079986450E+02  0.24518103118E+02  0.19433999626E+02  0.47787270665E+02  0.19999998272E+02 0.  0.
        -12    1    1    2    0    0  0.30079986450E+02 -0.24518103118E+02 -0.19433999626E+02  0.43400729335E+02  0.00000000000E+00 0.  1.
         11    1    3    3    0    0 -0.85582733124E+01  0.27709907481E+01  0.30931884530E+01  0.95126361689E+01  0.51100000000E-03 0. -1.
        -11    1    3    3    0    0 -0.14147734694E+02  0.36859671426E+01  0.38798522978E+01  0.15126070371E+02  0.51100000000E-03 0.  1.
         12    1    3    3    0    0 -0.73739784437E+01  0.18061145227E+02  0.12460958875E+02  0.23148564126E+02  0.00000000000E+00 0. -1.
</event>
<event>
 7    1  0.4931104E-009  0.4778728E+02  0.7816164E-02  0.1312668E+00
        -11   -1    0    0    0    0  0.00000000000E+00  0.00000000000E+00  0.45593999997E+02  0.45594000000E+02  0.51100000000E-03 0.  1.
         11   -1    0    0    0    0 -0.00000000000E+00 -0.00000000000E+00 -0.45593999997E+02  0.45594000000E+02  0.51100000000E-03 0. -1.
    9900012    2    1    2    0    0 -0.13252672225E+02  0.32594366216E+02 -0.25408595281E+02  0.47787277146E+02  0.20000027817E+02 0.  0.
        -12    1    1    2    0    0  0.13252672225E+02 -0.32594366216E+02  0.25408595281E+02  0.43400722854E+02  0.00000000000E+00 0.  1.
         11    1    3    3    0    0 -0.44932026848E+01  0.27738515405E+01 -0.51074321587E+01  0.73463587070E+01  0.51100000000E-03 0. -1.
        -11    1    3    3    0    0  0.41747792807E+01  0.57619748335E+01 -0.14751246949E+01  0.72667137794E+01  0.51100000000E-03 0.  1.
         12    1    3    3    0    0 -0.12934248821E+02  0.24058539842E+02 -0.18826038428E+02  0.33174204659E+02  0.00000000000E+00 0. -1.
</event>
<event>
 7    1  0.4931104E-009  0.4778727E+02  0.7816164E-02  0.1312668E+00
        -11   -1    0    0    0    0  0.00000000000E+00  0.00000000000E+00  0.45593999997E+02  0.45594000000E+02  0.51100000000E-03 0. -1.
         11   -1    0    0    0    0 -0.00000000000E+00 -0.00000000000E+00 -0.45593999997E+02  0.45594000000E+02  0.51100000000E-03 0.  1.
    9900012    2    1    2    0    0 -0.24180142837E+02 -0.18115924500E+02  0.31156982073E+02  0.47787267748E+02  0.19999984970E+02 0.  0.
        -12    1    1    2    0    0  0.24180142837E+02  0.18115924500E+02 -0.31156982073E+02  0.43400732252E+02  0.00000000000E+00 0.  1.
         11    1    3    3    0    0 -0.34453942523E+01  0.94231139936E+00  0.76234309171E+01  0.84187523741E+01  0.51100000000E-03 0. -1.
        -11    1    3    3    0    0  0.86483072743E+00  0.13658422445E+01  0.31110174044E+00  0.16462811965E+01  0.51100000000E-03 0.  1.
         12    1    3    3    0    0 -0.21599579312E+02 -0.20424078144E+02  0.23222449416E+02  0.37722234177E+02  0.00000000000E+00 0. -1.
</event>
<event>
 7    1  0.4931104E-009  0.4778727E+02  0.7816164E-02  0.1312668E+00
        -11   -1    0    0    0    0  0.00000000000E+00  0.00000000000E+00  0.45593999997E+02  0.45594000000E+02  0.51100000000E-03 0.  1.
         11   -1    0    0    0    0 -0.00000000000E+00 -0.00000000000E+00 -0.45593999997E+02  0.45594000000E+02  0.51100000000E-03 0. -1.
    9900012    2    1    2    0    0  0.30592944952E+02 -0.13016168160E+01 -0.30757128039E+02  0.47787269449E+02  0.19999992724E+02 0.  0.
        -12    1    1    2    0    0 -0.30592944952E+02  0.13016168160E+01  0.30757128039E+02  0.43400730551E+02  0.00000000000E+00 0.  1.
         11    1    3    3    0    0  0.67748277878E+01 -0.70079001468E+01 -0.83191433513E+01  0.12814722095E+02  0.51100000000E-03 0. -1.
        -11    1    3    3    0    0  0.18116009241E+01 -0.26487589346E+01 -0.36073332483E+01  0.48281130090E+01  0.51100000000E-03 0.  1.
         12    1    3    3    0    0  0.22006516240E+02  0.83550422654E+01 -0.18830651440E+02  0.30144434344E+02  0.00000000000E+00 0. -1.
</event>
<event>
 7    1  0.4931104E-009  0.4778723E+02  0.7816164E-02  0.1312668E+00
        -11   -1    0    0    0    0  0.00000000000E+00  0.00000000000E+00  0.45593999997E+02  0.45594000000E+02  0.51100000000E-03 0.  1.
         11   -1    0    0    0    0 -0.00000000000E+00 -0.00000000000E+00 -0.45593999997E+02  0.45594000000E+02  0.51100000000E-03 0. -1.
    9900012    2    1    2    0    0  0.12921369535E+02 -0.22654917318E+02 -0.34690345068E+02  0.47787226847E+02  0.19999798484E+02 0.  0.
        -12    1    1    2    0    0 -0.12921369535E+02  0.22654917318E+02  0.34690345068E+02  0.43400773153E+02  0.00000000000E+00 0.  1.
         11    1    3    3    0    0  0.25935013410E+01 -0.43647702069E+01 -0.58295574361E+01  0.77305373893E+01  0.51100000000E-03 0. -1.
        -11    1    3    3    0    0  0.99602414859E+01 -0.15139599054E+02 -0.95450234658E+01  0.20482220172E+02  0.51100000000E-03 0.  1.
         12    1    3    3    0    0  0.36762670800E+00 -0.31505480575E+01 -0.19315764166E+02  0.19574469285E+02  0.00000000000E+00 0. -1.
</event>
<event>
 7    1  0.4931104E-009  0.4778727E+02  0.7816164E-02  0.1312668E+00
        -11   -1    0    0    0    0  0.00000000000E+00  0.00000000000E+00  0.45593999997E+02  0.45594000000E+02  0.51100000000E-03 0. -1.
         11   -1    0    0    0    0 -0.00000000000E+00 -0.00000000000E+00 -0.45593999997E+02  0.45594000000E+02  0.51100000000E-03 0.  1.
    9900012    2    1    2    0    0 -0.30804367770E+02  0.10729253447E+02  0.28628607560E+02  0.47787272770E+02  0.20000007868E+02 0.  0.
        -12    1    1    2    0    0  0.30804367770E+02 -0.10729253447E+02 -0.28628607560E+02  0.43400727230E+02  0.00000000000E+00 0.  1.
         11    1    3    3    0    0 -0.55938902790E+01  0.94375661038E+00  0.54591138434E+01  0.78730050940E+01  0.51100000000E-03 0. -1.
        -11    1    3    3    0    0  0.11554303509E+01 -0.16454002235E+01  0.62516608107E+01  0.65670103049E+01  0.51100000000E-03 0.  1.
        -12    1    3    3    0    0 -0.26365907842E+02  0.11430897061E+02  0.16917832906E+02  0.33347257371E+02  0.00000000000E+00 0.  1.
</event>
<event>
 7    1  0.4931104E-009  0.4778727E+02  0.7816164E-02  0.1312668E+00
        -11   -1    0    0    0    0  0.00000000000E+00  0.00000000000E+00  0.45593999997E+02  0.45594000000E+02  0.51100000000E-03 0.  1.
         11   -1    0    0    0    0 -0.00000000000E+00 -0.00000000000E+00 -0.45593999997E+02  0.45594000000E+02  0.51100000000E-03 0. -1.
    9900012    2    1    2    0    0  0.18016277792E+02  0.17277034884E+01 -0.39446829687E+02  0.47787267320E+02  0.19999983019E+02 0.  0.
        -12    1    1    2    0    0 -0.18016277792E+02 -0.17277034884E+01  0.39446829687E+02  0.43400732680E+02  0.00000000000E+00 0.  1.
         11    1    3    3    0    0 -0.54822225974E+00 -0.21053512348E+00 -0.29604803242E-01  0.58800458314E+00  0.51100000000E-03 0. -1.
        -11    1    3    3    0    0 -0.25590259982E+01  0.31422492806E+01 -0.11342553521E+02  0.12044744299E+02  0.51100000000E-03 0.  1.
         12    1    3    3    0    0  0.21123526050E+02 -0.12040106687E+01 -0.28074671363E+02  0.35154518438E+02  0.00000000000E+00 0. -1.
</event>
<event>
 7    1  0.4931104E-009  0.4778727E+02  0.7816164E-02  0.1312668E+00
        -11   -1    0    0    0    0  0.00000000000E+00  0.00000000000E+00  0.45593999997E+02  0.45594000000E+02  0.51100000000E-03 0.  1.
         11   -1    0    0    0    0 -0.00000000000E+00 -0.00000000000E+00 -0.45593999997E+02  0.45594000000E+02  0.51100000000E-03 0. -1.
    9900012    2    1    2    0    0 -0.12929683881E+02  0.37880520258E+02 -0.16778341769E+02  0.47787270827E+02  0.19999999007E+02 0.  0.
        -12    1    1    2    0    0  0.12929683881E+02 -0.37880520258E+02  0.16778341769E+02  0.43400729173E+02  0.00000000000E+00 0.  1.
         11    1    3    3    0    0 -0.20236839948E+01  0.75526067243E+01  0.62936158028E+00  0.78443139600E+01  0.51100000000E-03 0. -1.
        -11    1    3    3    0    0 -0.12973041114E+01  0.20989873262E+01  0.29433305195E+01  0.38408255052E+01  0.51100000000E-03 0.  1.
         12    1    3    3    0    0 -0.96086957748E+01  0.28228926207E+02 -0.20351033869E+02  0.36102131361E+02  0.00000000000E+00 0. -1.
</event>
<event>
 7    1  0.4931104E-009  0.4778725E+02  0.7816164E-02  0.1312668E+00
        -11   -1    0    0    0    0  0.00000000000E+00  0.00000000000E+00  0.45593999997E+02  0.45594000000E+02  0.51100000000E-03 0.  1.
         11   -1    0    0    0    0 -0.00000000000E+00 -0.00000000000E+00 -0.45593999997E+02  0.45594000000E+02  0.51100000000E-03 0. -1.
    9900012    2    1    2    0    0 -0.12170484987E+02 -0.35119130215E+01 -0.41511090388E+02  0.47787252736E+02  0.19999916525E+02 0.  0.
        -12    1    1    2    0    0  0.12170484987E+02  0.35119130215E+01  0.41511090388E+02  0.43400747264E+02  0.00000000000E+00 0.  1.
         11    1    3    3    0    0 -0.28617670764E+01  0.16230514299E+01 -0.18513130783E+02  0.18803191707E+02  0.51100000000E-03 0. -1.
        -11    1    3    3    0    0 -0.10284412946E+02 -0.74309432040E+01 -0.23239620560E+02  0.26477689298E+02  0.51100000000E-03 0.  1.
        -12    1    3    3    0    0  0.97569503573E+00  0.22959787526E+01  0.24166095476E+00  0.25063717306E+01  0.00000000000E+00 0.  1.
</event>
<event>
 7    1  0.4931104E-009  0.4778724E+02  0.7816164E-02  0.1312668E+00
        -11   -1    0    0    0    0  0.00000000000E+00  0.00000000000E+00  0.45593999997E+02  0.45594000000E+02  0.51100000000E-03 0.  1.
         11   -1    0    0    0    0 -0.00000000000E+00 -0.00000000000E+00 -0.45593999997E+02  0.45594000000E+02  0.51100000000E-03 0. -1.
    9900012    2    1    2    0    0  0.29237850575E+02  0.30259413250E+02 -0.10636807106E+02  0.47787243533E+02  0.19999874564E+02 0.  0.
        -12    1    1    2    0    0 -0.29237850575E+02 -0.30259413250E+02  0.10636807106E+02  0.43400756467E+02  0.00000000000E+00 0.  1.
         11    1    3    3    0    0  0.82687267683E+01  0.70787434691E+01  0.51332138257E+01  0.12034547599E+02  0.51100000000E-03 0. -1.
        -11    1    3    3    0    0  0.62083881174E+01  0.40975478245E+01 -0.11068965791E+01  0.75205851826E+01  0.51100000000E-03 0.  1.
        -12    1    3    3    0    0  0.14760735689E+02  0.19083121957E+02 -0.14663124353E+02  0.28232110751E+02  0.00000000000E+00 0.  1.
</event>
<event>
 7    1  0.4931104E-009  0.4778727E+02  0.7816164E-02  0.1312668E+00
        -11   -1    0    0    0    0  0.00000000000E+00  0.00000000000E+00  0.45593999997E+02  0.45594000000E+02  0.51100000000E-03 0.  1.
         11   -1    0    0    0    0 -0.00000000000E+00 -0.00000000000E+00 -0.45593999997E+02  0.45594000000E+02  0.51100000000E-03 0. -1.
    9900012    2    1    2    0    0  0.11386969134E+02  0.37666131669E+02 -0.18309098811E+02  0.47787266823E+02  0.19999980755E+02 0.  0.
        -12    1    1    2    0    0 -0.11386969134E+02 -0.37666131669E+02  0.18309098811E+02  0.43400733177E+02  0.00000000000E+00 0.  1.
         11    1    3    3    0    0  0.33991542249E+01  0.30658636902E+02 -0.96007667872E+01  0.32306051899E+02  0.51100000000E-03 0. -1.
        -11    1    3    3    0    0  0.42906336858E+00  0.49051059241E+01 -0.28451363276E+01  0.56867354857E+01  0.51100000000E-03 0.  1.
        -12    1    3    3    0    0  0.75587515407E+01  0.21023888432E+01 -0.58631956963E+01  0.97944794387E+01  0.00000000000E+00 0.  1.
</event>
<event>
 7    1  0.4931104E-009  0.4778727E+02  0.7816164E-02  0.1312668E+00
        -11   -1    0    0    0    0  0.00000000000E+00  0.00000000000E+00  0.45593999997E+02  0.45594000000E+02  0.51100000000E-03 0. -1.
         11   -1    0    0    0    0 -0.00000000000E+00 -0.00000000000E+00 -0.45593999997E+02  0.45594000000E+02  0.51100000000E-03 0.  1.
    9900012    2    1    2    0    0  0.90546588461E+01  0.28535441225E+00  0.42444730412E+02  0.47787269434E+02  0.19999992655E+02 0.  0.
        -12    1    1    2    0    0 -0.90546588461E+01 -0.28535441225E+00 -0.42444730412E+02  0.43400730566E+02  0.00000000000E+00 0.  1.
         11    1    3    3    0    0 -0.38681591292E-01  0.24413685604E+01  0.15971211122E+01  0.29176313717E+01  0.51100000000E-03 0. -1.
        -11    1    3    3    0    0  0.21739509677E+01  0.62867094706E+01  0.89178953683E+01  0.11125539845E+02  0.51100000000E-03 0.  1.
         12    1    3    3    0    0  0.69193894697E+01 -0.84427236188E+01  0.31929713931E+02  0.33744098217E+02  0.00000000000E+00 0. -1.
</event>
<event>
 7    1  0.4931104E-009  0.4778727E+02  0.7816164E-02  0.1312668E+00
        -11   -1    0    0    0    0  0.00000000000E+00  0.00000000000E+00  0.45593999997E+02  0.45594000000E+02  0.51100000000E-03 0.  1.
         11   -1    0    0    0    0 -0.00000000000E+00 -0.00000000000E+00 -0.45593999997E+02  0.45594000000E+02  0.51100000000E-03 0. -1.
    9900012    2    1    2    0    0 -0.20016636323E+02  0.26309976654E+02 -0.28120151058E+02  0.47787268477E+02  0.19999988293E+02 0.  0.
        -12    1    1    2    0    0  0.20016636323E+02 -0.26309976654E+02  0.28120151058E+02  0.43400731523E+02  0.00000000000E+00 0.  1.
         11    1    3    3    0    0 -0.11658407970E+02  0.12823717250E+02 -0.19521516061E+02  0.26104708198E+02  0.51100000000E-03 0. -1.
        -11    1    3    3    0    0 -0.10285744808E+02  0.58755047024E+01 -0.66846970136E+01  0.13601590943E+02  0.51100000000E-03 0.  1.
        -12    1    3    3    0    0  0.19275164547E+01  0.76107547011E+01 -0.19139379834E+01  0.80809693359E+01  0.00000000000E+00 0.  1.
</event>
<event>
 7    1  0.4931104E-009  0.4778727E+02  0.7816164E-02  0.1312668E+00
        -11   -1    0    0    0    0  0.00000000000E+00  0.00000000000E+00  0.45593999997E+02  0.45594000000E+02  0.51100000000E-03 0.  1.
         11   -1    0    0    0    0 -0.00000000000E+00 -0.00000000000E+00 -0.45593999997E+02  0.45594000000E+02  0.51100000000E-03 0. -1.
    9900012    2    1    2    0    0  0.24910546694E+02 -0.22174788562E+02 -0.27773489684E+02  0.47787270587E+02  0.19999997912E+02 0.  0.
        -12    1    1    2    0    0 -0.24910546694E+02  0.22174788562E+02  0.27773489684E+02  0.43400729413E+02  0.00000000000E+00 0.  1.
         11    1    3    3    0    0  0.16528147064E+02 -0.15561483295E+02 -0.14595399781E+02  0.26988240082E+02  0.51100000000E-03 0. -1.
        -11    1    3    3    0    0  0.85614189756E+01 -0.90217675107E+00 -0.29813173961E+01  0.91104375001E+01  0.51100000000E-03 0.  1.
         12    1    3    3    0    0 -0.17901934541E+00 -0.57111285166E+01 -0.10196772508E+02  0.11688593005E+02  0.00000000000E+00 0. -1.
</event>
<event>
 7    1  0.4931104E-009  0.4778727E+02  0.7816164E-02  0.1312668E+00
        -11   -1    0    0    0    0  0.00000000000E+00  0.00000000000E+00  0.45593999997E+02  0.45594000000E+02  0.51100000000E-03 0. -1.
         11   -1    0    0    0    0 -0.00000000000E+00 -0.00000000000E+00 -0.45593999997E+02  0.45594000000E+02  0.51100000000E-03 0.  1.
    9900012    2    1    2    0    0  0.35574648014E+02 -0.65670562785E+00  0.24852300685E+02  0.47787266217E+02  0.19999977989E+02 0.  0.
        -12    1    1    2    0    0 -0.35574648014E+02  0.65670562785E+00 -0.24852300685E+02  0.43400733783E+02  0.00000000000E+00 0.  1.
         11    1    3    3    0    0  0.74243528594E+01 -0.17527337137E+01 -0.29607519475E+00  0.76341831020E+01  0.51100000000E-03 0. -1.
        -11    1    3    3    0    0  0.86449942410E-01  0.31449046652E+01  0.29455341991E+01  0.43097646021E+01  0.51100000000E-03 0.  1.
         12    1    3    3    0    0  0.28063845212E+02 -0.20488765794E+01  0.22202841680E+02  0.35843318513E+02  0.00000000000E+00 0. -1.
</event>
<event>
 7    1  0.4931104E-009  0.4778726E+02  0.7816164E-02  0.1312668E+00
        -11   -1    0    0    0    0  0.00000000000E+00  0.00000000000E+00  0.45593999997E+02  0.45594000000E+02  0.51100000000E-03 0.  1.
         11   -1    0    0    0    0 -0.00000000000E+00 -0.00000000000E+00 -0.45593999997E+02  0.45594000000E+02  0.51100000000E-03 0. -1.
    9900012    2    1    2    0    0 -0.26668670423E+02  0.19567025333E+02 -0.28098709347E+02  0.47787263491E+02  0.19999965563E+02 0.  0.
        -12    1    1    2    0    0  0.26668670423E+02 -0.19567025333E+02  0.28098709347E+02  0.43400736509E+02  0.00000000000E+00 0.  1.
         11    1    3    3    0    0 -0.15603068259E+02  0.12996188013E+02 -0.21817892334E+02  0.29805654969E+02  0.51100000000E-03 0. -1.
        -11    1    3    3    0    0 -0.50107008552E+01  0.65807835842E+01 -0.81828480439E+01  0.11634983370E+02  0.51100000000E-03 0.  1.
        -12    1    3    3    0    0 -0.60549013086E+01 -0.99462642933E-02  0.19020310309E+01  0.63466251526E+01  0.00000000000E+00 0.  1.
</event>
<event>
 7    1  0.4931104E-009  0.4778727E+02  0.7816164E-02  0.1312668E+00
        -11   -1    0    0    0    0  0.00000000000E+00  0.00000000000E+00  0.45593999997E+02  0.45594000000E+02  0.51100000000E-03 0.  1.
         11   -1    0    0    0    0 -0.00000000000E+00 -0.00000000000E+00 -0.45593999997E+02  0.45594000000E+02  0.51100000000E-03 0. -1.
    9900012    2    1    2    0    0  0.23573597026E+02  0.21117613144E+02 -0.29697731946E+02  0.47787270232E+02  0.19999996296E+02 0.  0.
        -12    1    1    2    0    0 -0.23573597026E+02 -0.21117613144E+02  0.29697731946E+02  0.43400729768E+02  0.00000000000E+00 0.  1.
         11    1    3    3    0    0  0.53396624728E+01 -0.24014017980E+00 -0.46470944829E+01  0.70827360549E+01  0.51100000000E-03 0.  1.
        -11    1    3    3    0    0  0.19361456477E+02  0.13677207257E+02 -0.15187968193E+02  0.28153265767E+02  0.51100000000E-03 0. -1.
        -12    1    3    3    0    0 -0.11275219237E+01  0.76805460672E+01 -0.98626692700E+01  0.12551268410E+02  0.00000000000E+00 0.  1.
</event>
<event>
 7    1  0.4931104E-009  0.4778727E+02  0.7816164E-02  0.1312668E+00
        -11   -1    0    0    0    0  0.00000000000E+00  0.00000000000E+00  0.45593999997E+02  0.45594000000E+02  0.51100000000E-03 0.  1.
         11   -1    0    0    0    0 -0.00000000000E+00 -0.00000000000E+00 -0.45593999997E+02  0.45594000000E+02  0.51100000000E-03 0. -1.
    9900012    2    1    2    0    0 -0.32368334588E+02 -0.12518841175E+02 -0.26061322715E+02  0.47787274085E+02  0.20000013862E+02 0.  0.
        -12    1    1    2    0    0  0.32368334588E+02  0.12518841175E+02  0.26061322715E+02  0.43400725915E+02  0.00000000000E+00 0.  1.
         11    1    3    3    0    0 -0.72391010461E+01 -0.56648023118E+01 -0.18800272351E+01  0.93823809266E+01  0.51100000000E-03 0. -1.
        -11    1    3    3    0    0 -0.14680328939E+02 -0.46701202183E+01 -0.45568857195E+01  0.16065095342E+02  0.51100000000E-03 0.  1.
         12    1    3    3    0    0 -0.10448904602E+02 -0.21839186446E+01 -0.19624409760E+02  0.22339797816E+02  0.00000000000E+00 0. -1.
</event>
<event>
 7    1  0.4931104E-009  0.4778727E+02  0.7816164E-02  0.1312668E+00
        -11   -1    0    0    0    0  0.00000000000E+00  0.00000000000E+00  0.45593999997E+02  0.45594000000E+02  0.51100000000E-03 0.  1.
         11   -1    0    0    0    0 -0.00000000000E+00 -0.00000000000E+00 -0.45593999997E+02  0.45594000000E+02  0.51100000000E-03 0. -1.
    9900012    2    1    2    0    0  0.33537745408E+02  0.92033991309E+01 -0.25964215261E+02  0.47787269629E+02  0.19999993546E+02 0.  0.
        -12    1    1    2    0    0 -0.33537745408E+02 -0.92033991309E+01  0.25964215261E+02  0.43400730371E+02  0.00000000000E+00 0.  1.
         11    1    3    3    0    0  0.48993051892E+01  0.48807877950E+01 -0.64735382810E+01  0.94726964995E+01  0.51100000000E-03 0. -1.
        -11    1    3    3    0    0  0.53651249558E+01 -0.35106660261E+01 -0.10223906205E+02  0.12068040441E+02  0.51100000000E-03 0.  1.
         12    1    3    3    0    0  0.23273315263E+02  0.78332773621E+01 -0.92667707752E+01  0.26246532688E+02  0.00000000000E+00 0. -1.
</event>
<event>
 7    1  0.4931104E-009  0.4778727E+02  0.7816164E-02  0.1312668E+00
        -11   -1    0    0    0    0  0.00000000000E+00  0.00000000000E+00  0.45593999997E+02  0.45594000000E+02  0.51100000000E-03 0.  1.
         11   -1    0    0    0    0 -0.00000000000E+00 -0.00000000000E+00 -0.45593999997E+02  0.45594000000E+02  0.51100000000E-03 0. -1.
    9900012    2    1    2    0    0 -0.21602993709E+02  0.16074550217E+02 -0.34037373819E+02  0.47787270532E+02  0.19999997664E+02 0.  0.
        -12    1    1    2    0    0  0.21602993709E+02 -0.16074550217E+02  0.34037373819E+02  0.43400729468E+02  0.00000000000E+00 0.  1.
         11    1    3    3    0    0  0.43784291219E+00  0.58808640168E+01 -0.56747477010E+01  0.81840717085E+01  0.51100000000E-03 0.  1.
        -11    1    3    3    0    0 -0.67558316647E+00  0.51864541441E+01 -0.86331074790E+01  0.10093872607E+02  0.51100000000E-03 0. -1.
         12    1    3    3    0    0 -0.21365253454E+02  0.50072320560E+01 -0.19729518639E+02  0.29509326217E+02  0.00000000000E+00 0. -1.
</event>
<event>
 7    1  0.4931104E-009  0.4778729E+02  0.7816164E-02  0.1312668E+00
        -11   -1    0    0    0    0  0.00000000000E+00  0.00000000000E+00  0.45593999997E+02  0.45594000000E+02  0.51100000000E-03 0.  1.
         11   -1    0    0    0    0 -0.00000000000E+00 -0.00000000000E+00 -0.45593999997E+02  0.45594000000E+02  0.51100000000E-03 0. -1.
    9900012    2    1    2    0    0  0.10066814460E+02 -0.39419861356E+02 -0.15111422119E+02  0.47787293771E+02  0.20000103619E+02 0.  0.
        -12    1    1    2    0    0 -0.10066814460E+02  0.39419861356E+02  0.15111422119E+02  0.43400706229E+02  0.00000000000E+00 0.  1.
         11    1    3    3    0    0  0.40271700045E+01 -0.45152733923E+01  0.90969456039E+00  0.61182788844E+01  0.51100000000E-03 0. -1.
        -11    1    3    3    0    0 -0.36915085730E+01 -0.21625341468E+02 -0.10344516546E+02  0.24254724323E+02  0.51100000000E-03 0.  1.
        -12    1    3    3    0    0  0.97311530283E+01 -0.13279246496E+02 -0.56766001338E+01  0.17414290564E+02  0.00000000000E+00 0.  1.
</event>
<event>
 7    1  0.4931104E-009  0.4778727E+02  0.7816164E-02  0.1312668E+00
        -11   -1    0    0    0    0  0.00000000000E+00  0.00000000000E+00  0.45593999997E+02  0.45594000000E+02  0.51100000000E-03 0. -1.
         11   -1    0    0    0    0 -0.00000000000E+00 -0.00000000000E+00 -0.45593999997E+02  0.45594000000E+02  0.51100000000E-03 0.  1.
    9900012    2    1    2    0    0  0.58126340029E+01 -0.32979764954E+02  0.27607459864E+02  0.47787269008E+02  0.19999990715E+02 0.  0.
        -12    1    1    2    0    0 -0.58126340029E+01  0.32979764954E+02 -0.27607459864E+02  0.43400730992E+02  0.00000000000E+00 0.  1.
         11    1    3    3    0    0  0.27696898186E+01 -0.52965754138E-02  0.60027160848E+01  0.66108857501E+01  0.51100000000E-03 0. -1.
        -11    1    3    3    0    0 -0.43716826519E+01 -0.13771055933E+02  0.95934226028E+01  0.17343221967E+02  0.51100000000E-03 0.  1.
         12    1    3    3    0    0  0.74146268362E+01 -0.19203412446E+02  0.12011321176E+02  0.23833161290E+02  0.00000000000E+00 0. -1.
</event>
<event>
 7    1  0.4931104E-009  0.4778727E+02  0.7816164E-02  0.1312668E+00
        -11   -1    0    0    0    0  0.00000000000E+00  0.00000000000E+00  0.45593999997E+02  0.45594000000E+02  0.51100000000E-03 0.  1.
         11   -1    0    0    0    0 -0.00000000000E+00 -0.00000000000E+00 -0.45593999997E+02  0.45594000000E+02  0.51100000000E-03 0. -1.
    9900012    2    1    2    0    0  0.18844203130E+02  0.27732546269E+02 -0.27557671364E+02  0.47787269993E+02  0.19999995204E+02 0.  0.
        -12    1    1    2    0    0 -0.18844203130E+02 -0.27732546269E+02  0.27557671364E+02  0.43400730007E+02  0.00000000000E+00 0.  1.
         11    1    3    3    0    0  0.64525216213E+01  0.23578778808E+01 -0.37736601688E+01  0.78380568194E+01  0.51100000000E-03 0. -1.
        -11    1    3    3    0    0  0.34987699234E+01 -0.13878367807E+01 -0.17005537252E+01  0.41302984324E+01  0.51100000000E-03 0.  1.
        -12    1    3    3    0    0  0.88929115856E+01  0.26762505169E+02 -0.22083457470E+02  0.35818914741E+02  0.00000000000E+00 0.  1.
</event>
<event>
 7    1  0.4931104E-009  0.4778727E+02  0.7816164E-02  0.1312668E+00
        -11   -1    0    0    0    0  0.00000000000E+00  0.00000000000E+00  0.45593999997E+02  0.45594000000E+02  0.51100000000E-03 0. -1.
         11   -1    0    0    0    0 -0.00000000000E+00 -0.00000000000E+00 -0.45593999997E+02  0.45594000000E+02  0.51100000000E-03 0.  1.
    9900012    2    1    2    0    0 -0.40006832810E+02 -0.11555696950E+02 -0.12228753992E+02  0.47787271577E+02  0.20000002427E+02 0.  0.
        -12    1    1    2    0    0  0.40006832810E+02  0.11555696950E+02  0.12228753992E+02  0.43400728423E+02  0.00000000000E+00 0.  1.
         11    1    3    3    0    0 -0.62899326676E+01  0.19721864902E+01 -0.64724949014E+01  0.92382878839E+01  0.51100000000E-03 0.  1.
        -11    1    3    3    0    0 -0.17797668804E+01 -0.29641337482E+01 -0.33659893407E+01  0.48253024287E+01  0.51100000000E-03 0. -1.
         12    1    3    3    0    0 -0.31937133262E+02 -0.10563749692E+02 -0.23902697503E+01  0.33723681264E+02  0.00000000000E+00 0. -1.
</event>
<event>
 7    1  0.4931104E-009  0.4778727E+02  0.7816164E-02  0.1312668E+00
        -11   -1    0    0    0    0  0.00000000000E+00  0.00000000000E+00  0.45593999997E+02  0.45594000000E+02  0.51100000000E-03 0. -1.
         11   -1    0    0    0    0 -0.00000000000E+00 -0.00000000000E+00 -0.45593999997E+02  0.45594000000E+02  0.51100000000E-03 0.  1.
    9900012    2    1    2    0    0 -0.16322736542E+02 -0.15969572070E+02  0.36907511309E+02  0.47787270152E+02  0.19999995933E+02 0.  0.
        -12    1    1    2    0    0  0.16322736542E+02  0.15969572070E+02 -0.36907511309E+02  0.43400729848E+02  0.00000000000E+00 0.  1.
         11    1    3    3    0    0 -0.70023162266E+00  0.29611398944E+01  0.30622991833E+01  0.43169839412E+01  0.51100000000E-03 0. -1.
        -11    1    3    3    0    0 -0.38520137106E+01  0.85608215273E-01  0.10297705707E+02  0.10994911618E+02  0.51100000000E-03 0.  1.
         12    1    3    3    0    0 -0.11770491209E+02 -0.19016320179E+02  0.23547506418E+02  0.32475374593E+02  0.00000000000E+00 0. -1.
</event>
<event>
 7    1  0.4931104E-009  0.4778728E+02  0.7816164E-02  0.1312668E+00
        -11   -1    0    0    0    0  0.00000000000E+00  0.00000000000E+00  0.45593999997E+02  0.45594000000E+02  0.51100000000E-03 0. -1.
         11   -1    0    0    0    0 -0.00000000000E+00 -0.00000000000E+00 -0.45593999997E+02  0.45594000000E+02  0.51100000000E-03 0.  1.
    9900012    2    1    2    0    0 -0.42941895442E+02 -0.32881176718E+01 -0.53670114028E+01  0.47787275197E+02  0.20000018935E+02 0.  0.
        -12    1    1    2    0    0  0.42941895442E+02  0.32881176718E+01  0.53670114028E+01  0.43400724803E+02  0.00000000000E+00 0.  1.
         11    1    3    3    0    0 -0.23707239349E+01 -0.40317393655E+01  0.43440113490E+00  0.46972288526E+01  0.51100000000E-03 0. -1.
        -11    1    3    3    0    0 -0.95723800155E+01 -0.36996740261E+01 -0.57722428965E+01  0.11774414439E+02  0.51100000000E-03 0.  1.
         12    1    3    3    0    0 -0.30998791492E+02  0.44432957198E+01 -0.29169641176E-01  0.31315631906E+02  0.00000000000E+00 0. -1.
</event>
<event>
 7    1  0.4931104E-009  0.4778727E+02  0.7816164E-02  0.1312668E+00
        -11   -1    0    0    0    0  0.00000000000E+00  0.00000000000E+00  0.45593999997E+02  0.45594000000E+02  0.51100000000E-03 0. -1.
         11   -1    0    0    0    0 -0.00000000000E+00 -0.00000000000E+00 -0.45593999997E+02  0.45594000000E+02  0.51100000000E-03 0.  1.
    9900012    2    1    2    0    0  0.24213069406E+02 -0.21019202607E+02  0.29249678353E+02  0.47787270835E+02  0.19999999046E+02 0.  0.
        -12    1    1    2    0    0 -0.24213069406E+02  0.21019202607E+02 -0.29249678353E+02  0.43400729165E+02  0.00000000000E+00 0.  1.
         11    1    3    3    0    0  0.16269625934E+02 -0.21190787695E+02  0.20961491409E+02  0.33957831697E+02  0.51100000000E-03 0. -1.
        -11    1    3    3    0    0  0.21831123954E+01 -0.26453959390E+01  0.10271282951E+00  0.34314209289E+01  0.51100000000E-03 0.  1.
        -12    1    3    3    0    0  0.57603310770E+01  0.28169810269E+01  0.81854741137E+01  0.10398018210E+02  0.00000000000E+00 0.  1.
</event>
<event>
 7    1  0.4931104E-009  0.4778726E+02  0.7816164E-02  0.1312668E+00
        -11   -1    0    0    0    0  0.00000000000E+00  0.00000000000E+00  0.45593999997E+02  0.45594000000E+02  0.51100000000E-03 0.  1.
         11   -1    0    0    0    0 -0.00000000000E+00 -0.00000000000E+00 -0.45593999997E+02  0.45594000000E+02  0.51100000000E-03 0. -1.
    9900012    2    1    2    0    0  0.23063549466E+01 -0.14017895048E+01 -0.43316740843E+02  0.47787258944E+02  0.19999944828E+02 0.  0.
        -12    1    1    2    0    0 -0.23063549466E+01  0.14017895048E+01  0.43316740843E+02  0.43400741056E+02  0.00000000000E+00 0.  1.
         11    1    3    3    0    0  0.43629363689E+01  0.40684037242E+00 -0.66926360842E+01  0.79995069138E+01  0.51100000000E-03 0. -1.
        -11    1    3    3    0    0  0.16851032962E+01  0.46878100141E+01 -0.42229091340E+01  0.65305510994E+01  0.51100000000E-03 0.  1.
         12    1    3    3    0    0 -0.37416847185E+01 -0.64964398913E+01 -0.32401195625E+02  0.33257200930E+02  0.00000000000E+00 0. -1.
</event>
<event>
 7    1  0.4931104E-009  0.4778727E+02  0.7816164E-02  0.1312668E+00
        -11   -1    0    0    0    0  0.00000000000E+00  0.00000000000E+00  0.45593999997E+02  0.45594000000E+02  0.51100000000E-03 0.  1.
         11   -1    0    0    0    0 -0.00000000000E+00 -0.00000000000E+00 -0.45593999997E+02  0.45594000000E+02  0.51100000000E-03 0. -1.
    9900012    2    1    2    0    0  0.27027888511E+02  0.19117724932E+01 -0.33903709882E+02  0.47787272181E+02  0.20000005184E+02 0.  0.
        -12    1    1    2    0    0 -0.27027888511E+02 -0.19117724932E+01  0.33903709882E+02  0.43400727819E+02  0.00000000000E+00 0.  1.
         11    1    3    3    0    0  0.20877417190E+01 -0.31582639079E+01 -0.90111975806E+01  0.97741996345E+01  0.51100000000E-03 0. -1.
        -11    1    3    3    0    0  0.14966065601E+02 -0.32200284951E+01 -0.10100335401E+02  0.18340351102E+02  0.51100000000E-03 0.  1.
        -12    1    3    3    0    0  0.99740811909E+01  0.82900648963E+01 -0.14792176901E+02  0.19672721445E+02  0.00000000000E+00 0.  1.
</event>
<event>
 7    1  0.4931104E-009  0.4778727E+02  0.7816164E-02  0.1312668E+00
        -11   -1    0    0    0    0  0.00000000000E+00  0.00000000000E+00  0.45593999997E+02  0.45594000000E+02  0.51100000000E-03 0.  1.
         11   -1    0    0    0    0 -0.00000000000E+00 -0.00000000000E+00 -0.45593999997E+02  0.45594000000E+02  0.51100000000E-03 0. -1.
    9900012    2    1    2    0    0 -0.40751412362E+02 -0.14891424248E+02 -0.10915759182E+01  0.47787266555E+02  0.19999979529E+02 0.  0.
        -12    1    1    2    0    0  0.40751412362E+02  0.14891424248E+02  0.10915759182E+01  0.43400733445E+02  0.00000000000E+00 0.  1.
         11    1    3    3    0    0 -0.12633440741E+02  0.91508807587E-02  0.48415989075E+00  0.12642718053E+02  0.51100000000E-03 0. -1.
        -11    1    3    3    0    0 -0.33529014997E+01  0.13100620340E+01 -0.40786940557E+01  0.54400327628E+01  0.51100000000E-03 0.  1.
         12    1    3    3    0    0 -0.24765070121E+02 -0.16210637163E+02  0.25029582467E+01  0.29704515739E+02  0.00000000000E+00 0. -1.
</event>
<event>
 7    1  0.4931104E-009  0.4778727E+02  0.7816164E-02  0.1312668E+00
        -11   -1    0    0    0    0  0.00000000000E+00  0.00000000000E+00  0.45593999997E+02  0.45594000000E+02  0.51100000000E-03 0.  1.
         11   -1    0    0    0    0 -0.00000000000E+00 -0.00000000000E+00 -0.45593999997E+02  0.45594000000E+02  0.51100000000E-03 0. -1.
    9900012    2    1    2    0    0 -0.49084415878E+01  0.43268034532E+01 -0.42904650317E+02  0.47787273672E+02  0.20000011980E+02 0.  0.
        -12    1    1    2    0    0  0.49084415878E+01 -0.43268034532E+01  0.42904650317E+02  0.43400726328E+02  0.00000000000E+00 0.  1.
         11    1    3    3    0    0 -0.15681563332E+01  0.26837295472E+01 -0.13108486124E+02  0.13471968204E+02  0.51100000000E-03 0. -1.
        -11    1    3    3    0    0  0.18239323707E+01 -0.68438614896E+01 -0.12034157000E+02  0.13963742490E+02  0.51100000000E-03 0.  1.
        -12    1    3    3    0    0 -0.51642176253E+01  0.84869353956E+01 -0.17762007194E+02  0.20351562978E+02  0.00000000000E+00 0.  1.
</event>
<event>
 7    1  0.4931104E-009  0.4778727E+02  0.7816164E-02  0.1312668E+00
        -11   -1    0    0    0    0  0.00000000000E+00  0.00000000000E+00  0.45593999997E+02  0.45594000000E+02  0.51100000000E-03 0.  1.
         11   -1    0    0    0    0 -0.00000000000E+00 -0.00000000000E+00 -0.45593999997E+02  0.45594000000E+02  0.51100000000E-03 0. -1.
    9900012    2    1    2    0    0 -0.10997130968E+00  0.34630862602E+02 -0.26159409243E+02  0.47787269243E+02  0.19999991788E+02 0.  0.
        -12    1    1    2    0    0  0.10997130968E+00 -0.34630862602E+02  0.26159409243E+02  0.43400730757E+02  0.00000000000E+00 0.  1.
         11    1    3    3    0    0  0.59022699947E+00  0.14665046742E+02 -0.42750352786E+01  0.15286853527E+02  0.51100000000E-03 0. -1.
        -11    1    3    3    0    0 -0.48372016417E+01  0.18134309313E+01 -0.67939948697E+01  0.85349527249E+01  0.51100000000E-03 0.  1.
         12    1    3    3    0    0  0.41370033325E+01  0.18152384929E+02 -0.15090379095E+02  0.23965462992E+02  0.00000000000E+00 0. -1.
</event>
<event>
 7    1  0.4931104E-009  0.4778727E+02  0.7816164E-02  0.1312668E+00
        -11   -1    0    0    0    0  0.00000000000E+00  0.00000000000E+00  0.45593999997E+02  0.45594000000E+02  0.51100000000E-03 0.  1.
         11   -1    0    0    0    0 -0.00000000000E+00 -0.00000000000E+00 -0.45593999997E+02  0.45594000000E+02  0.51100000000E-03 0. -1.
    9900012    2    1    2    0    0 -0.13063233709E+02 -0.15423912322E+02 -0.38406746584E+02  0.47787270404E+02  0.19999997081E+02 0.  0.
        -12    1    1    2    0    0  0.13063233709E+02  0.15423912322E+02  0.38406746584E+02  0.43400729596E+02  0.00000000000E+00 0.  1.
         11    1    3    3    0    0 -0.57759709680E+01 -0.11483928022E+02 -0.13523660174E+02  0.18658291139E+02  0.51100000000E-03 0. -1.
        -11    1    3    3    0    0 -0.71279941953E+01 -0.19890924862E+01 -0.45189089736E+01  0.86709473958E+01  0.51100000000E-03 0.  1.
         12    1    3    3    0    0 -0.15926854592E+00 -0.19508918137E+01 -0.20364177436E+02  0.20458031870E+02  0.00000000000E+00 0. -1.
</event>
<event>
 7    1  0.4931104E-009  0.4778727E+02  0.7816164E-02  0.1312668E+00
        -11   -1    0    0    0    0  0.00000000000E+00  0.00000000000E+00  0.45593999997E+02  0.45594000000E+02  0.51100000000E-03 0.  1.
         11   -1    0    0    0    0 -0.00000000000E+00 -0.00000000000E+00 -0.45593999997E+02  0.45594000000E+02  0.51100000000E-03 0. -1.
    9900012    2    1    2    0    0 -0.39146381598E+02 -0.12469073448E+02 -0.13989506822E+02  0.47787270905E+02  0.19999999363E+02 0.  0.
        -12    1    1    2    0    0  0.39146381598E+02  0.12469073448E+02  0.13989506822E+02  0.43400729095E+02  0.00000000000E+00 0.  1.
         11    1    3    3    0    0 -0.97860311960E+01 -0.72764385392E+01 -0.63710912640E+01  0.13758770604E+02  0.51100000000E-03 0. -1.
        -11    1    3    3    0    0 -0.11846467571E+01 -0.47298524771E+01 -0.21233306388E+01  0.53182163981E+01  0.51100000000E-03 0.  1.
         12    1    3    3    0    0 -0.28175703645E+02 -0.46278243126E+00 -0.54950849193E+01  0.28710283902E+02  0.00000000000E+00 0. -1.
</event>
<event>
 7    1  0.4931104E-009  0.4778727E+02  0.7816164E-02  0.1312668E+00
        -11   -1    0    0    0    0  0.00000000000E+00  0.00000000000E+00  0.45593999997E+02  0.45594000000E+02  0.51100000000E-03 0.  1.
         11   -1    0    0    0    0 -0.00000000000E+00 -0.00000000000E+00 -0.45593999997E+02  0.45594000000E+02  0.51100000000E-03 0. -1.
    9900012    2    1    2    0    0  0.28533980480E+02 -0.26519786322E+02 -0.19134689000E+02  0.47787269226E+02  0.19999991709E+02 0.  0.
        -12    1    1    2    0    0 -0.28533980480E+02  0.26519786322E+02  0.19134689000E+02  0.43400730774E+02  0.00000000000E+00 0.  1.
         11    1    3    3    0    0  0.40127304052E+01 -0.84078094335E+01 -0.39094920899E+01  0.10103335758E+02  0.51100000000E-03 0. -1.
        -11    1    3    3    0    0  0.32260554399E+01 -0.96366575479E+01 -0.98279833199E+01  0.14137250751E+02  0.51100000000E-03 0.  1.
         12    1    3    3    0    0  0.21295194635E+02 -0.84753193411E+01 -0.53972135899E+01  0.23546682717E+02  0.00000000000E+00 0. -1.
</event>
<event>
 7    1  0.4931104E-009  0.4778727E+02  0.7816164E-02  0.1312668E+00
        -11   -1    0    0    0    0  0.00000000000E+00  0.00000000000E+00  0.45593999997E+02  0.45594000000E+02  0.51100000000E-03 0.  1.
         11   -1    0    0    0    0 -0.00000000000E+00 -0.00000000000E+00 -0.45593999997E+02  0.45594000000E+02  0.51100000000E-03 0. -1.
    9900012    2    1    2    0    0 -0.13651261901E+02  0.10835315991E+01 -0.41183640077E+02  0.47787271870E+02  0.20000003764E+02 0.  0.
        -12    1    1    2    0    0  0.13651261901E+02 -0.10835315991E+01  0.41183640077E+02  0.43400728130E+02  0.00000000000E+00 0.  1.
         11    1    3    3    0    0 -0.14801443051E+00 -0.33972433914E+01 -0.16256495063E+02  0.16608335345E+02  0.51100000000E-03 0. -1.
        -11    1    3    3    0    0 -0.71614182355E+01  0.11878779651E+01 -0.22484352720E+02  0.23627168318E+02  0.51100000000E-03 0.  1.
        -12    1    3    3    0    0 -0.63418292350E+01  0.32928970254E+01 -0.24427922936E+01  0.75517682072E+01  0.00000000000E+00 0.  1.
</event>
<event>
 7    1  0.4931104E-009  0.4778727E+02  0.7816164E-02  0.1312668E+00
        -11   -1    0    0    0    0  0.00000000000E+00  0.00000000000E+00  0.45593999997E+02  0.45594000000E+02  0.51100000000E-03 0. -1.
         11   -1    0    0    0    0 -0.00000000000E+00 -0.00000000000E+00 -0.45593999997E+02  0.45594000000E+02  0.51100000000E-03 0.  1.
    9900012    2    1    2    0    0  0.11236750614E+01  0.21481100861E+02  0.37695130672E+02  0.47787271709E+02  0.20000003028E+02 0.  0.
        -12    1    1    2    0    0 -0.11236750614E+01 -0.21481100861E+02 -0.37695130672E+02  0.43400728291E+02  0.00000000000E+00 0.  1.
         11    1    3    3    0    0 -0.94206449633E-01  0.10628503713E+02  0.10035353208E+02  0.14617875369E+02  0.51100000000E-03 0. -1.
        -11    1    3    3    0    0  0.29590348769E+01  0.96658794088E+01  0.28973500289E+02  0.30686297127E+02  0.51100000000E-03 0.  1.
         12    1    3    3    0    0 -0.17411533659E+01  0.11867177386E+01 -0.13137228249E+01  0.24830992117E+01  0.00000000000E+00 0. -1.
</event>
<event>
 7    1  0.4931104E-009  0.4778728E+02  0.7816164E-02  0.1312668E+00
        -11   -1    0    0    0    0  0.00000000000E+00  0.00000000000E+00  0.45593999997E+02  0.45594000000E+02  0.51100000000E-03 0. -1.
         11   -1    0    0    0    0 -0.00000000000E+00 -0.00000000000E+00 -0.45593999997E+02  0.45594000000E+02  0.51100000000E-03 0.  1.
    9900012    2    1    2    0    0 -0.27200915712E+02  0.86992085219E+01  0.32681138773E+02  0.47787275628E+02  0.20000020900E+02 0.  0.
        -12    1    1    2    0    0  0.27200915712E+02 -0.86992085219E+01 -0.32681138773E+02  0.43400724372E+02  0.00000000000E+00 0.  1.
         11    1    3    3    0    0 -0.26513836675E+01  0.22448847460E+01  0.10951750689E+02  0.11489568586E+02  0.51100000000E-03 0. -1.
        -11    1    3    3    0    0  0.18439037748E+01 -0.13497924419E+00  0.17481611792E+01  0.25444583503E+01  0.51100000000E-03 0.  1.
        -12    1    3    3    0    0 -0.26393435820E+02  0.65893030202E+01  0.19981226904E+02  0.33753248692E+02  0.00000000000E+00 0.  1.
</event>
<event>
 7    1  0.4931104E-009  0.4778727E+02  0.7816164E-02  0.1312668E+00
        -11   -1    0    0    0    0  0.00000000000E+00  0.00000000000E+00  0.45593999997E+02  0.45594000000E+02  0.51100000000E-03 0.  1.
         11   -1    0    0    0    0 -0.00000000000E+00 -0.00000000000E+00 -0.45593999997E+02  0.45594000000E+02  0.51100000000E-03 0. -1.
    9900012    2    1    2    0    0  0.32568890751E+02 -0.42956504224E+01 -0.28362614796E+02  0.47787272179E+02  0.20000005174E+02 0.  0.
        -12    1    1    2    0    0 -0.32568890751E+02  0.42956504224E+01  0.28362614796E+02  0.43400727821E+02  0.00000000000E+00 0.  1.
         11    1    3    3    0    0  0.79248697901E+01  0.18678809325E-01 -0.14866222734E+02  0.16846616536E+02  0.51100000000E-03 0. -1.
        -11    1    3    3    0    0  0.17292934717E+02 -0.22028508743E+01 -0.15172689574E+02  0.23110790819E+02  0.51100000000E-03 0.  1.
        -12    1    3    3    0    0  0.73510862439E+01 -0.21114783574E+01  0.16762975114E+01  0.78298648243E+01  0.00000000000E+00 0.  1.
</event>
<event>
 7    1  0.4931104E-009  0.4778728E+02  0.7816164E-02  0.1312668E+00
        -11   -1    0    0    0    0  0.00000000000E+00  0.00000000000E+00  0.45593999997E+02  0.45594000000E+02  0.51100000000E-03 0.  1.
         11   -1    0    0    0    0 -0.00000000000E+00 -0.00000000000E+00 -0.45593999997E+02  0.45594000000E+02  0.51100000000E-03 0. -1.
    9900012    2    1    2    0    0 -0.25627346216E+01 -0.16764747134E+02 -0.39949948462E+02  0.47787277226E+02  0.20000028185E+02 0.  0.
        -12    1    1    2    0    0  0.25627346216E+01  0.16764747134E+02  0.39949948462E+02  0.43400722774E+02  0.00000000000E+00 0.  1.
         11    1    3    3    0    0  0.12725121847E+01 -0.90557970579E+01 -0.94078211830E+01  0.13119978936E+02  0.51100000000E-03 0. -1.
        -11    1    3    3    0    0  0.47910937214E+01 -0.58652854751E+01 -0.13616632736E+02  0.15581041046E+02  0.51100000000E-03 0.  1.
         12    1    3    3    0    0 -0.86263405277E+01 -0.18436646011E+01 -0.16925494543E+02  0.19086257244E+02  0.00000000000E+00 0. -1.
</event>
<event>
 7    1  0.4931104E-009  0.4778727E+02  0.7816164E-02  0.1312668E+00
        -11   -1    0    0    0    0  0.00000000000E+00  0.00000000000E+00  0.45593999997E+02  0.45594000000E+02  0.51100000000E-03 0.  1.
         11   -1    0    0    0    0 -0.00000000000E+00 -0.00000000000E+00 -0.45593999997E+02  0.45594000000E+02  0.51100000000E-03 0. -1.
    9900012    2    1    2    0    0  0.24188176599E+02  0.35855165825E+02 -0.36003371727E+01  0.47787271535E+02  0.20000002238E+02 0.  0.
        -12    1    1    2    0    0 -0.24188176599E+02 -0.35855165825E+02  0.36003371727E+01  0.43400728465E+02  0.00000000000E+00 0.  1.
         11    1    3    3    0    0  0.21071538026E+02  0.31914770233E+02 -0.21723972603E+01  0.38305111721E+02  0.51100000000E-03 0. -1.
        -11    1    3    3    0    0  0.48622010039E+01  0.31497446075E+01 -0.34123454849E+01  0.67235401139E+01  0.51100000000E-03 0.  1.
        -12    1    3    3    0    0 -0.17455624304E+01  0.79065098414E+00  0.19844055725E+01  0.27586197007E+01  0.00000000000E+00 0.  1.
</event>
<event>
 7    1  0.4931104E-009  0.4778727E+02  0.7816164E-02  0.1312668E+00
        -11   -1    0    0    0    0  0.00000000000E+00  0.00000000000E+00  0.45593999997E+02  0.45594000000E+02  0.51100000000E-03 0.  1.
         11   -1    0    0    0    0 -0.00000000000E+00 -0.00000000000E+00 -0.45593999997E+02  0.45594000000E+02  0.51100000000E-03 0. -1.
    9900012    2    1    2    0    0  0.28779981320E+02 -0.29973503837E+02 -0.12526972803E+02  0.47787270690E+02  0.19999998383E+02 0.  0.
        -12    1    1    2    0    0 -0.28779981320E+02  0.29973503837E+02  0.12526972803E+02  0.43400729310E+02  0.00000000000E+00 0.  1.
         11    1    3    3    0    0 -0.63148680426E+00 -0.73264267751E+01  0.23768047359E+01  0.77281631640E+01  0.51100000000E-03 0. -1.
        -11    1    3    3    0    0  0.61881833827E+01 -0.37853926708E+01 -0.25190609193E+01  0.76790936592E+01  0.51100000000E-03 0.  1.
         12    1    3    3    0    0  0.23223284742E+02 -0.18861684391E+02 -0.12384716619E+02  0.32380013867E+02  0.00000000000E+00 0. -1.
</event>
<event>
 7    1  0.4931104E-009  0.4778728E+02  0.7816164E-02  0.1312668E+00
        -11   -1    0    0    0    0  0.00000000000E+00  0.00000000000E+00  0.45593999997E+02  0.45594000000E+02  0.51100000000E-03 0.  1.
         11   -1    0    0    0    0 -0.00000000000E+00 -0.00000000000E+00 -0.45593999997E+02  0.45594000000E+02  0.51100000000E-03 0. -1.
    9900012    2    1    2    0    0 -0.10148178338E+02 -0.27212184827E+02 -0.32251107152E+02  0.47787280661E+02  0.20000043844E+02 0.  0.
        -12    1    1    2    0    0  0.10148178338E+02  0.27212184827E+02  0.32251107152E+02  0.43400719339E+02  0.00000000000E+00 0.  1.
         11    1    3    3    0    0  0.15813368685E+01 -0.67619204841E+01 -0.33735905472E+01  0.77204474201E+01  0.51100000000E-03 0. -1.
        -11    1    3    3    0    0  0.27769466202E+01 -0.13282283371E+00 -0.23584728344E+01  0.36457466736E+01  0.51100000000E-03 0.  1.
        -12    1    3    3    0    0 -0.14506461826E+02 -0.20317441509E+02 -0.26519043771E+02  0.36421086567E+02  0.00000000000E+00 0.  1.
</event>
<event>
 7    1  0.4931104E-009  0.4778727E+02  0.7816164E-02  0.1312668E+00
        -11   -1    0    0    0    0  0.00000000000E+00  0.00000000000E+00  0.45593999997E+02  0.45594000000E+02  0.51100000000E-03 0.  1.
         11   -1    0    0    0    0 -0.00000000000E+00 -0.00000000000E+00 -0.45593999997E+02  0.45594000000E+02  0.51100000000E-03 0. -1.
    9900012    2    1    2    0    0  0.45648856463E+01  0.29625450636E+01 -0.43058196391E+02  0.47787272694E+02  0.20000007521E+02 0.  0.
        -12    1    1    2    0    0 -0.45648856463E+01 -0.29625450636E+01  0.43058196391E+02  0.43400727306E+02  0.00000000000E+00 0.  1.
         11    1    3    3    0    0  0.40812010821E+00  0.70928142616E+00 -0.23195066576E+02  0.23209497105E+02  0.51100000000E-03 0. -1.
        -11    1    3    3    0    0  0.39273480892E+01  0.73600444609E+01 -0.16410198942E+02  0.18408936609E+02  0.51100000000E-03 0.  1.
        -12    1    3    3    0    0  0.22941744886E+00 -0.51067808235E+01 -0.34529308731E+01  0.61688389798E+01  0.00000000000E+00 0.  1.
</event>
<event>
 7    1  0.4931104E-009  0.4778727E+02  0.7816164E-02  0.1312668E+00
        -11   -1    0    0    0    0  0.00000000000E+00  0.00000000000E+00  0.45593999997E+02  0.45594000000E+02  0.51100000000E-03 0.  1.
         11   -1    0    0    0    0 -0.00000000000E+00 -0.00000000000E+00 -0.45593999997E+02  0.45594000000E+02  0.51100000000E-03 0. -1.
    9900012    2    1    2    0    0 -0.43356541752E+02 -0.14805976505E+01  0.12811011784E+01  0.47787273021E+02  0.20000009012E+02 0.  0.
        -12    1    1    2    0    0  0.43356541752E+02  0.14805976505E+01 -0.12811011784E+01  0.43400726979E+02  0.00000000000E+00 0.  1.
         11    1    3    3    0    0 -0.28378767896E+01 -0.32335231386E+01 -0.26781053714E+01  0.50676883490E+01  0.51100000000E-03 0. -1.
        -11    1    3    3    0    0 -0.77882927695E+01 -0.31653058555E+01  0.46644411149E+01  0.96142434230E+01  0.51100000000E-03 0.  1.
         12    1    3    3    0    0 -0.32730372193E+02  0.49182313436E+01 -0.70523456502E+00  0.33105341249E+02  0.00000000000E+00 0. -1.
</event>
<event>
 7    1  0.4931104E-009  0.4778727E+02  0.7816164E-02  0.1312668E+00
        -11   -1    0    0    0    0  0.00000000000E+00  0.00000000000E+00  0.45593999997E+02  0.45594000000E+02  0.51100000000E-03 0.  1.
         11   -1    0    0    0    0 -0.00000000000E+00 -0.00000000000E+00 -0.45593999997E+02  0.45594000000E+02  0.51100000000E-03 0. -1.
    9900012    2    1    2    0    0  0.18482926045E+02 -0.31637148495E+02 -0.23261458787E+02  0.47787272068E+02  0.20000004669E+02 0.  0.
        -12    1    1    2    0    0 -0.18482926045E+02  0.31637148495E+02  0.23261458787E+02  0.43400727932E+02  0.00000000000E+00 0.  1.
         11    1    3    3    0    0 -0.75288051788E+00 -0.23863318363E+01  0.26357522101E+01  0.36343635868E+01  0.51100000000E-03 0. -1.
        -11    1    3    3    0    0 -0.41756357853E+00 -0.96980061082E+00  0.11817073712E-01  0.10559415094E+01  0.51100000000E-03 0.  1.
         12    1    3    3    0    0  0.19653370142E+02 -0.28281016048E+02 -0.25909028071E+02  0.43096966972E+02  0.00000000000E+00 0. -1.
</event>
<event>
 7    1  0.4931104E-009  0.4778727E+02  0.7816164E-02  0.1312668E+00
        -11   -1    0    0    0    0  0.00000000000E+00  0.00000000000E+00  0.45593999997E+02  0.45594000000E+02  0.51100000000E-03 0. -1.
         11   -1    0    0    0    0 -0.00000000000E+00 -0.00000000000E+00 -0.45593999997E+02  0.45594000000E+02  0.51100000000E-03 0.  1.
    9900012    2    1    2    0    0 -0.26290622974E+02  0.32000873985E+02  0.12975765425E+02  0.47787270968E+02  0.19999999650E+02 0.  0.
        -12    1    1    2    0    0  0.26290622974E+02 -0.32000873985E+02 -0.12975765425E+02  0.43400729032E+02  0.00000000000E+00 0.  1.
         11    1    3    3    0    0 -0.13474785638E+02  0.10087440862E+02  0.68449837661E+01  0.18170858927E+02  0.51100000000E-03 0. -1.
        -11    1    3    3    0    0 -0.10827215774E+01  0.86056243096E-03  0.45862785227E+01  0.47123494887E+01  0.51100000000E-03 0.  1.
         12    1    3    3    0    0 -0.11733115759E+02  0.21912572561E+02  0.15445031357E+01  0.24904062552E+02  0.00000000000E+00 0. -1.
</event>
<event>
 7    1  0.4931104E-009  0.4778727E+02  0.7816164E-02  0.1312668E+00
        -11   -1    0    0    0    0  0.00000000000E+00  0.00000000000E+00  0.45593999997E+02  0.45594000000E+02  0.51100000000E-03 0. -1.
         11   -1    0    0    0    0 -0.00000000000E+00 -0.00000000000E+00 -0.45593999997E+02  0.45594000000E+02  0.51100000000E-03 0.  1.
    9900012    2    1    2    0    0 -0.20219950716E+02 -0.38088120409E+02  0.49063369867E+01  0.47787268832E+02  0.19999989914E+02 0.  0.
        -12    1    1    2    0    0  0.20219950716E+02  0.38088120409E+02 -0.49063369867E+01  0.43400731168E+02  0.00000000000E+00 0.  1.
         11    1    3    3    0    0 -0.10934653806E+02 -0.16410242650E+02 -0.15738755032E+00  0.19720230445E+02  0.51100000000E-03 0. -1.
        -11    1    3    3    0    0 -0.11740310186E+02 -0.16075426515E+02 -0.33441879940E+00  0.19908944148E+02  0.51100000000E-03 0.  1.
        -12    1    3    3    0    0  0.24550132767E+01 -0.56024512445E+01  0.53981433364E+01  0.81580942392E+01  0.00000000000E+00 0.  1.
</event>
<event>
 7    1  0.4931104E-009  0.4778727E+02  0.7816164E-02  0.1312668E+00
        -11   -1    0    0    0    0  0.00000000000E+00  0.00000000000E+00  0.45593999997E+02  0.45594000000E+02  0.51100000000E-03 0.  1.
         11   -1    0    0    0    0 -0.00000000000E+00 -0.00000000000E+00 -0.45593999997E+02  0.45594000000E+02  0.51100000000E-03 0. -1.
    9900012    2    1    2    0    0 -0.42248266116E+02  0.72042127492E+01 -0.68415115565E+01  0.47787274758E+02  0.20000016933E+02 0.  0.
        -12    1    1    2    0    0  0.42248266116E+02 -0.72042127492E+01  0.68415115565E+01  0.43400725242E+02  0.00000000000E+00 0.  1.
         11    1    3    3    0    0 -0.20994172099E+02  0.28193712683E+01 -0.67945982847E+01  0.22245689079E+02  0.51100000000E-03 0. -1.
        -11    1    3    3    0    0 -0.33959207544E+01 -0.18298468575E+01 -0.46886191395E+01  0.60715539188E+01  0.51100000000E-03 0.  1.
         12    1    3    3    0    0 -0.17858173262E+02  0.62146883384E+01  0.46417058677E+01  0.19470031761E+02  0.00000000000E+00 0. -1.
</event>
<event>
 7    1  0.4931104E-009  0.4778728E+02  0.7816164E-02  0.1312668E+00
        -11   -1    0    0    0    0  0.00000000000E+00  0.00000000000E+00  0.45593999997E+02  0.45594000000E+02  0.51100000000E-03 0.  1.
         11   -1    0    0    0    0 -0.00000000000E+00 -0.00000000000E+00 -0.45593999997E+02  0.45594000000E+02  0.51100000000E-03 0. -1.
    9900012    2    1    2    0    0 -0.60681615150E+01 -0.60881203748E+00 -0.42970093625E+02  0.47787283619E+02  0.20000057330E+02 0.  0.
        -12    1    1    2    0    0  0.60681615150E+01  0.60881203748E+00  0.42970093625E+02  0.43400716381E+02  0.00000000000E+00 0.  1.
         11    1    3    3    0    0  0.47793103486E+01 -0.43046905731E+00 -0.56725106347E+01  0.74299722866E+01  0.51100000000E-03 0.  1.
        -11    1    3    3    0    0  0.88146431903E+00  0.29066789918E+01 -0.10746453121E+02  0.11167453472E+02  0.51100000000E-03 0. -1.
        -12    1    3    3    0    0 -0.11728936183E+02 -0.30850219719E+01 -0.26551129869E+02  0.29189857860E+02  0.00000000000E+00 0.  1.
</event>
<event>
 7    1  0.4931104E-009  0.4778726E+02  0.7816164E-02  0.1312668E+00
        -11   -1    0    0    0    0  0.00000000000E+00  0.00000000000E+00  0.45593999997E+02  0.45594000000E+02  0.51100000000E-03 0.  1.
         11   -1    0    0    0    0 -0.00000000000E+00 -0.00000000000E+00 -0.45593999997E+02  0.45594000000E+02  0.51100000000E-03 0. -1.
    9900012    2    1    2    0    0 -0.61986901624E+01 -0.42080877271E+02 -0.86255396083E+01  0.47787263541E+02  0.19999965788E+02 0.  0.
        -12    1    1    2    0    0  0.61986901624E+01  0.42080877271E+02  0.86255396083E+01  0.43400736459E+02  0.00000000000E+00 0.  1.
         11    1    3    3    0    0  0.62499183723E+01 -0.98514165897E+01 -0.14676396323E+01  0.11758650213E+02  0.51100000000E-03 0. -1.
        -11    1    3    3    0    0 -0.33574499105E+01 -0.13926425022E+02  0.14592577796E+00  0.14326167610E+02  0.51100000000E-03 0.  1.
        -12    1    3    3    0    0 -0.90911586242E+01 -0.18303035660E+02 -0.73038257540E+01  0.21702445718E+02  0.00000000000E+00 0.  1.
</event>
<event>
 7    1  0.4931104E-009  0.4778728E+02  0.7816164E-02  0.1312668E+00
        -11   -1    0    0    0    0  0.00000000000E+00  0.00000000000E+00  0.45593999997E+02  0.45594000000E+02  0.51100000000E-03 0.  1.
         11   -1    0    0    0    0 -0.00000000000E+00 -0.00000000000E+00 -0.45593999997E+02  0.45594000000E+02  0.51100000000E-03 0. -1.
    9900012    2    1    2    0    0  0.15012569617E+02 -0.19885650979E+02 -0.35535989158E+02  0.47787275504E+02  0.20000020332E+02 0.  0.
        -12    1    1    2    0    0 -0.15012569617E+02  0.19885650979E+02  0.35535989158E+02  0.43400724496E+02  0.00000000000E+00 0.  1.
         11    1    3    3    0    0  0.77053426986E+01 -0.72954006124E+01 -0.16847203397E+02  0.19910385199E+02  0.51100000000E-03 0. -1.
        -11    1    3    3    0    0  0.49300163481E+01 -0.67197758524E+01 -0.19767081550E+02  0.21452225106E+02  0.51100000000E-03 0.  1.
        -12    1    3    3    0    0  0.23772105699E+01 -0.58704745146E+01  0.10782957895E+01  0.64246651998E+01  0.00000000000E+00 0.  1.
</event>
<event>
 7    1  0.4931104E-009  0.4778727E+02  0.7816164E-02  0.1312668E+00
        -11   -1    0    0    0    0  0.00000000000E+00  0.00000000000E+00  0.45593999997E+02  0.45594000000E+02  0.51100000000E-03 0.  1.
         11   -1    0    0    0    0 -0.00000000000E+00 -0.00000000000E+00 -0.45593999997E+02  0.45594000000E+02  0.51100000000E-03 0. -1.
    9900012    2    1    2    0    0  0.16203894878E+02 -0.20956345621E+02 -0.34378608934E+02  0.47787269784E+02  0.19999994255E+02 0.  0.
        -12    1    1    2    0    0 -0.16203894878E+02  0.20956345621E+02  0.34378608934E+02  0.43400730216E+02  0.00000000000E+00 0.  1.
         11    1    3    3    0    0  0.36372254226E+01 -0.14909008252E+02 -0.14910997130E+02  0.21397330944E+02  0.51100000000E-03 0. -1.
        -11    1    3    3    0    0  0.45606892320E+01 -0.53830938570E+01 -0.22750121015E+01  0.74130470164E+01  0.51100000000E-03 0.  1.
         12    1    3    3    0    0  0.80059802228E+01 -0.66424351180E+00 -0.17192599703E+02  0.18976891824E+02  0.00000000000E+00 0. -1.
</event>
<event>
 7    1  0.4931104E-009  0.4778728E+02  0.7816164E-02  0.1312668E+00
        -11   -1    0    0    0    0  0.00000000000E+00  0.00000000000E+00  0.45593999997E+02  0.45594000000E+02  0.51100000000E-03 0.  1.
         11   -1    0    0    0    0 -0.00000000000E+00 -0.00000000000E+00 -0.45593999997E+02  0.45594000000E+02  0.51100000000E-03 0. -1.
    9900012    2    1    2    0    0  0.36909622935E+02  0.86136080356E+01 -0.21144928400E+02  0.47787279895E+02  0.20000040354E+02 0.  0.
        -12    1    1    2    0    0 -0.36909622935E+02 -0.86136080356E+01  0.21144928400E+02  0.43400720105E+02  0.00000000000E+00 0.  1.
         11    1    3    3    0    0  0.10245990052E+02  0.23620415949E+01  0.89707822161E+00  0.10552928610E+02  0.51100000000E-03 0.  1.
        -11    1    3    3    0    0  0.56702131225E+01  0.32931775997E+01  0.12862679523E+00  0.65584205927E+01  0.51100000000E-03 0. -1.
         12    1    3    3    0    0  0.20993419761E+02  0.29583888410E+01 -0.22170633416E+02  0.30675930693E+02  0.00000000000E+00 0. -1.
</event>
<event>
 7    1  0.4931104E-009  0.4778727E+02  0.7816164E-02  0.1312668E+00
        -11   -1    0    0    0    0  0.00000000000E+00  0.00000000000E+00  0.45593999997E+02  0.45594000000E+02  0.51100000000E-03 0.  1.
         11   -1    0    0    0    0 -0.00000000000E+00 -0.00000000000E+00 -0.45593999997E+02  0.45594000000E+02  0.51100000000E-03 0. -1.
    9900012    2    1    2    0    0 -0.10790126717E+02 -0.16856013567E+02 -0.38510665652E+02  0.47787269627E+02  0.19999993538E+02 0.  0.
        -12    1    1    2    0    0  0.10790126717E+02  0.16856013567E+02  0.38510665652E+02  0.43400730373E+02  0.00000000000E+00 0.  1.
         11    1    3    3    0    0 -0.15148376671E+01  0.88973515103E+00 -0.14423764808E+02  0.14530359709E+02  0.51100000000E-03 0. -1.
        -11    1    3    3    0    0  0.17622184648E+01 -0.40403406556E+01 -0.92227679834E+01  0.10221996677E+02  0.51100000000E-03 0.  1.
         12    1    3    3    0    0 -0.11037507514E+02 -0.13705408063E+02 -0.14864132861E+02  0.23034913241E+02  0.00000000000E+00 0. -1.
</event>
<event>
 7    1  0.4931104E-009  0.4778728E+02  0.7816164E-02  0.1312668E+00
        -11   -1    0    0    0    0  0.00000000000E+00  0.00000000000E+00  0.45593999997E+02  0.45594000000E+02  0.51100000000E-03 0. -1.
         11   -1    0    0    0    0 -0.00000000000E+00 -0.00000000000E+00 -0.45593999997E+02  0.45594000000E+02  0.51100000000E-03 0.  1.
    9900012    2    1    2    0    0  0.36662228027E+02  0.36710531852E+01  0.22935284461E+02  0.47787275713E+02  0.20000021285E+02 0.  0.
        -12    1    1    2    0    0 -0.36662228027E+02 -0.36710531852E+01 -0.22935284461E+02  0.43400724287E+02  0.00000000000E+00 0.  1.
         11    1    3    3    0    0  0.17779841122E+02  0.66280713835E+01  0.13688669483E+02  0.23397302261E+02  0.51100000000E-03 0. -1.
        -11    1    3    3    0    0 -0.10587212111E+00  0.24682823608E+01  0.25165640193E+01  0.35265736124E+01  0.51100000000E-03 0.  1.
        -12    1    3    3    0    0  0.18988259026E+02 -0.54253005592E+01  0.67300509580E+01  0.20863399840E+02  0.00000000000E+00 0.  1.
</event>
<event>
 7    1  0.4931104E-009  0.4778727E+02  0.7816164E-02  0.1312668E+00
        -11   -1    0    0    0    0  0.00000000000E+00  0.00000000000E+00  0.45593999997E+02  0.45594000000E+02  0.51100000000E-03 0.  1.
         11   -1    0    0    0    0 -0.00000000000E+00 -0.00000000000E+00 -0.45593999997E+02  0.45594000000E+02  0.51100000000E-03 0. -1.
    9900012    2    1    2    0    0 -0.20727818491E+02  0.11850045569E+02 -0.36243028188E+02  0.47787272683E+02  0.20000007472E+02 0.  0.
        -12    1    1    2    0    0  0.20727818491E+02 -0.11850045569E+02  0.36243028188E+02  0.43400727317E+02  0.00000000000E+00 0.  1.
         11    1    3    3    0    0 -0.66355264755E+01  0.51765595618E+01 -0.14834198922E+02  0.17055217338E+02  0.51100000000E-03 0. -1.
        -11    1    3    3    0    0 -0.15543536924E+02  0.64311519114E+01 -0.10729901872E+02  0.19952244221E+02  0.51100000000E-03 0.  1.
        -12    1    3    3    0    0  0.14512449087E+01  0.24233409542E+00 -0.10678927394E+02  0.10779811125E+02  0.00000000000E+00 0.  1.
</event>
<event>
 7    1  0.4931104E-009  0.4778727E+02  0.7816164E-02  0.1312668E+00
        -11   -1    0    0    0    0  0.00000000000E+00  0.00000000000E+00  0.45593999997E+02  0.45594000000E+02  0.51100000000E-03 0.  1.
         11   -1    0    0    0    0 -0.00000000000E+00 -0.00000000000E+00 -0.45593999997E+02  0.45594000000E+02  0.51100000000E-03 0. -1.
    9900012    2    1    2    0    0  0.26118258977E+02  0.26528455982E+02 -0.22309216932E+02  0.47787267415E+02  0.19999983453E+02 0.  0.
        -12    1    1    2    0    0 -0.26118258977E+02 -0.26528455982E+02  0.22309216932E+02  0.43400732585E+02  0.00000000000E+00 0.  1.
         11    1    3    3    0    0 -0.10908977515E+01  0.10225461229E+02 -0.63291568489E+01  0.12075112501E+02  0.51100000000E-03 0. -1.
        -11    1    3    3    0    0  0.13198360432E+02  0.57497683472E+01 -0.71198099338E+01  0.16060767351E+02  0.51100000000E-03 0.  1.
         12    1    3    3    0    0  0.14010796296E+02  0.10553226406E+02 -0.88602501492E+01  0.19651387563E+02  0.00000000000E+00 0. -1.
</event>
<event>
 7    1  0.4931104E-009  0.4778727E+02  0.7816164E-02  0.1312668E+00
        -11   -1    0    0    0    0  0.00000000000E+00  0.00000000000E+00  0.45593999997E+02  0.45594000000E+02  0.51100000000E-03 0. -1.
         11   -1    0    0    0    0 -0.00000000000E+00 -0.00000000000E+00 -0.45593999997E+02  0.45594000000E+02  0.51100000000E-03 0.  1.
    9900012    2    1    2    0    0  0.11375028654E+01 -0.35727646887E+02 -0.24614322410E+02  0.47787268064E+02  0.19999986413E+02 0.  0.
        -12    1    1    2    0    0 -0.11375028654E+01  0.35727646887E+02  0.24614322410E+02  0.43400731936E+02  0.00000000000E+00 0.  1.
         11    1    3    3    0    0 -0.52265495311E+00 -0.44941141245E+01  0.10826252074E+01  0.46521293581E+01  0.51100000000E-03 0. -1.
        -11    1    3    3    0    0  0.56427243413E+01 -0.12906851050E+02 -0.44001602091E+01  0.14757660795E+02  0.51100000000E-03 0.  1.
         12    1    3    3    0    0 -0.39825665228E+01 -0.18326681713E+02 -0.21296787408E+02  0.28377477911E+02  0.00000000000E+00 0. -1.
</event>
<event>
 7    1  0.4931104E-009  0.4778727E+02  0.7816164E-02  0.1312668E+00
        -11   -1    0    0    0    0  0.00000000000E+00  0.00000000000E+00  0.45593999997E+02  0.45594000000E+02  0.51100000000E-03 0.  1.
         11   -1    0    0    0    0 -0.00000000000E+00 -0.00000000000E+00 -0.45593999997E+02  0.45594000000E+02  0.51100000000E-03 0. -1.
    9900012    2    1    2    0    0  0.30862116905E+02 -0.24591615619E+02 -0.18066694407E+02  0.47787271142E+02  0.20000000445E+02 0.  0.
        -12    1    1    2    0    0 -0.30862116905E+02  0.24591615619E+02  0.18066694407E+02  0.43400728858E+02  0.00000000000E+00 0.  1.
         11    1    3    3    0    0  0.41582741500E+01 -0.20958075426E+01 -0.51150304289E+01  0.69171663065E+01  0.51100000000E-03 0. -1.
        -11    1    3    3    0    0  0.16315548669E+01 -0.92494097292E+01  0.66115028936E+00  0.94154485601E+01  0.51100000000E-03 0.  1.
        -12    1    3    3    0    0  0.25072287888E+02 -0.13246398347E+02 -0.13612814267E+02  0.31454656275E+02  0.00000000000E+00 0.  1.
</event>
<event>
 7    1  0.4931104E-009  0.4778727E+02  0.7816164E-02  0.1312668E+00
        -11   -1    0    0    0    0  0.00000000000E+00  0.00000000000E+00  0.45593999997E+02  0.45594000000E+02  0.51100000000E-03 0. -1.
         11   -1    0    0    0    0 -0.00000000000E+00 -0.00000000000E+00 -0.45593999997E+02  0.45594000000E+02  0.51100000000E-03 0.  1.
    9900012    2    1    2    0    0 -0.11079061735E+01  0.61253498739E+01  0.42952022016E+02  0.47787267720E+02  0.19999984843E+02 0.  0.
        -12    1    1    2    0    0  0.11079061735E+01 -0.61253498739E+01 -0.42952022016E+02  0.43400732280E+02  0.00000000000E+00 0.  1.
         11    1    3    3    0    0 -0.22137590873E+01  0.38184847761E+01  0.27048627107E+01  0.51766628079E+01  0.51100000000E-03 0. -1.
        -11    1    3    3    0    0 -0.39226968987E+01  0.59908636133E+01  0.27555065366E+02  0.28470328859E+02  0.51100000000E-03 0.  1.
        -12    1    3    3    0    0  0.50285498125E+01 -0.36839985155E+01  0.12692093940E+02  0.14140276053E+02  0.00000000000E+00 0.  1.
</event>
<event>
 7    1  0.4931104E-009  0.4778727E+02  0.7816164E-02  0.1312668E+00
        -11   -1    0    0    0    0  0.00000000000E+00  0.00000000000E+00  0.45593999997E+02  0.45594000000E+02  0.51100000000E-03 0. -1.
         11   -1    0    0    0    0 -0.00000000000E+00 -0.00000000000E+00 -0.45593999997E+02  0.45594000000E+02  0.51100000000E-03 0.  1.
    9900012    2    1    2    0    0  0.16355066556E+02 -0.17017406713E+02  0.36421737868E+02  0.47787270483E+02  0.19999997441E+02 0.  0.
        -12    1    1    2    0    0 -0.16355066556E+02  0.17017406713E+02 -0.36421737868E+02  0.43400729517E+02  0.00000000000E+00 0.  1.
         11    1    3    3    0    0  0.63505627482E+01 -0.55771842951E+01  0.20220577658E+01  0.86904171217E+01  0.51100000000E-03 0. -1.
        -11    1    3    3    0    0 -0.14358575433E+01  0.72491611690E+00  0.14894991680E+01  0.21922131041E+01  0.51100000000E-03 0.  1.
         12    1    3    3    0    0  0.11440361351E+02 -0.12165138535E+02  0.32910180934E+02  0.36904640257E+02  0.00000000000E+00 0. -1.
</event>
<event>
 7    1  0.4931104E-009  0.4778727E+02  0.7816164E-02  0.1312668E+00
        -11   -1    0    0    0    0  0.00000000000E+00  0.00000000000E+00  0.45593999997E+02  0.45594000000E+02  0.51100000000E-03 0. -1.
         11   -1    0    0    0    0 -0.00000000000E+00 -0.00000000000E+00 -0.45593999997E+02  0.45594000000E+02  0.51100000000E-03 0.  1.
    9900012    2    1    2    0    0  0.13447596885E+02  0.27754312983E+02  0.30536593338E+02  0.47787270930E+02  0.19999999478E+02 0.  0.
        -12    1    1    2    0    0 -0.13447596885E+02 -0.27754312983E+02 -0.30536593338E+02  0.43400729070E+02  0.00000000000E+00 0.  1.
         11    1    3    3    0    0  0.83638712253E+01  0.89899623679E+00  0.91816987650E+01  0.12452555102E+02  0.51100000000E-03 0. -1.
        -11    1    3    3    0    0 -0.25148766333E+00 -0.30613967440E+00  0.39277052461E-01  0.39813376272E+00  0.51100000000E-03 0.  1.
        -12    1    3    3    0    0  0.53352133229E+01  0.27161456420E+02  0.21315617521E+02  0.34936582065E+02  0.00000000000E+00 0.  1.
</event>
<event>
 7    1  0.4931104E-009  0.4778727E+02  0.7816164E-02  0.1312668E+00
        -11   -1    0    0    0    0  0.00000000000E+00  0.00000000000E+00  0.45593999997E+02  0.45594000000E+02  0.51100000000E-03 0. -1.
         11   -1    0    0    0    0 -0.00000000000E+00 -0.00000000000E+00 -0.45593999997E+02  0.45594000000E+02  0.51100000000E-03 0.  1.
    9900012    2    1    2    0    0  0.17691080596E+02 -0.36711217377E+02  0.14931023534E+02  0.47787271000E+02  0.19999999798E+02 0.  0.
        -12    1    1    2    0    0 -0.17691080596E+02  0.36711217377E+02 -0.14931023534E+02  0.43400729000E+02  0.00000000000E+00 0.  1.
         11    1    3    3    0    0  0.76072879666E+00  0.95177657482E+00  0.23246165065E+00  0.12404134918E+01  0.51100000000E-03 0. -1.
        -11    1    3    3    0    0  0.59786873395E+01 -0.10538907502E+02  0.12190690888E+02  0.17187967251E+02  0.51100000000E-03 0.  1.
         12    1    3    3    0    0  0.10951664460E+02 -0.27124086450E+02  0.25078709945E+01  0.29358890257E+02  0.00000000000E+00 0. -1.
</event>
<event>
 7    1  0.4931104E-009  0.4778727E+02  0.7816164E-02  0.1312668E+00
        -11   -1    0    0    0    0  0.00000000000E+00  0.00000000000E+00  0.45593999997E+02  0.45594000000E+02  0.51100000000E-03 0. -1.
         11   -1    0    0    0    0 -0.00000000000E+00 -0.00000000000E+00 -0.45593999997E+02  0.45594000000E+02  0.51100000000E-03 0.  1.
    9900012    2    1    2    0    0  0.35281232412E+02  0.24101844877E+02 -0.76130773145E+01  0.47787271513E+02  0.20000002137E+02 0.  0.
        -12    1    1    2    0    0 -0.35281232412E+02 -0.24101844877E+02  0.76130773145E+01  0.43400728487E+02  0.00000000000E+00 0.  1.
         11    1    3    3    0    0  0.13570449104E+02  0.42290661432E+01 -0.12878874301E+01  0.14272376944E+02  0.51100000000E-03 0. -1.
        -11    1    3    3    0    0  0.10087387351E+02  0.35568733066E+00 -0.73078933819E+00  0.10120076599E+02  0.51100000000E-03 0.  1.
        -12    1    3    3    0    0  0.11623395957E+02  0.19517091403E+02 -0.55944005462E+01  0.23394817970E+02  0.00000000000E+00 0.  1.
</event>
<event>
 7    1  0.4931104E-009  0.4778727E+02  0.7816164E-02  0.1312668E+00
        -11   -1    0    0    0    0  0.00000000000E+00  0.00000000000E+00  0.45593999997E+02  0.45594000000E+02  0.51100000000E-03 0.  1.
         11   -1    0    0    0    0 -0.00000000000E+00 -0.00000000000E+00 -0.45593999997E+02  0.45594000000E+02  0.51100000000E-03 0. -1.
    9900012    2    1    2    0    0  0.25737688069E+02  0.18185171564E+02 -0.29841145999E+02  0.47787273664E+02  0.20000011945E+02 0.  0.
        -12    1    1    2    0    0 -0.25737688069E+02 -0.18185171564E+02  0.29841145999E+02  0.43400726336E+02  0.00000000000E+00 0.  1.
         11    1    3    3    0    0  0.15635883789E+02  0.68786013398E+01 -0.20423559971E+02  0.26625510707E+02  0.51100000000E-03 0. -1.
        -11    1    3    3    0    0  0.81588029875E+00 -0.22994236646E+01 -0.16795354351E+01  0.29620684310E+01  0.51100000000E-03 0.  1.
         12    1    3    3    0    0  0.92859239809E+01  0.13605993889E+02 -0.77380505930E+01  0.18199694527E+02  0.00000000000E+00 0. -1.
</event>
<event>
 7    1  0.4931104E-009  0.4778726E+02  0.7816164E-02  0.1312668E+00
        -11   -1    0    0    0    0  0.00000000000E+00  0.00000000000E+00  0.45593999997E+02  0.45594000000E+02  0.51100000000E-03 0.  1.
         11   -1    0    0    0    0 -0.00000000000E+00 -0.00000000000E+00 -0.45593999997E+02  0.45594000000E+02  0.51100000000E-03 0. -1.
    9900012    2    1    2    0    0 -0.13313670567E+02  0.14444559615E+02 -0.38700452422E+02  0.47787261019E+02  0.19999954291E+02 0.  0.
        -12    1    1    2    0    0  0.13313670567E+02 -0.14444559615E+02  0.38700452422E+02  0.43400738981E+02  0.00000000000E+00 0.  1.
         11    1    3    3    0    0 -0.68985083376E+01  0.43281268242E+01 -0.15199065127E+02  0.17243366263E+02  0.51100000000E-03 0. -1.
        -11    1    3    3    0    0 -0.10206376622E+02  0.55794100751E+01 -0.84624983272E+01  0.14384499252E+02  0.51100000000E-03 0.  1.
         12    1    3    3    0    0  0.37912143921E+01  0.45370227153E+01 -0.15038888967E+02  0.16159395504E+02  0.00000000000E+00 0. -1.
</event>
<event>
 7    1  0.4931104E-009  0.4778727E+02  0.7816164E-02  0.1312668E+00
        -11   -1    0    0    0    0  0.00000000000E+00  0.00000000000E+00  0.45593999997E+02  0.45594000000E+02  0.51100000000E-03 0. -1.
         11   -1    0    0    0    0 -0.00000000000E+00 -0.00000000000E+00 -0.45593999997E+02  0.45594000000E+02  0.51100000000E-03 0.  1.
    9900012    2    1    2    0    0  0.22295642538E+02 -0.51316542671E+01  0.36880806007E+02  0.47787269552E+02  0.19999993197E+02 0.  0.
        -12    1    1    2    0    0 -0.22295642538E+02  0.51316542671E+01 -0.36880806007E+02  0.43400730448E+02  0.00000000000E+00 0.  1.
         11    1    3    3    0    0  0.11174530904E+02 -0.38442372277E+01  0.15649068986E+02  0.19609733837E+02  0.51100000000E-03 0. -1.
        -11    1    3    3    0    0  0.14239807484E+02 -0.26580481810E+01  0.19674176244E+02  0.24431752873E+02  0.51100000000E-03 0.  1.
        -12    1    3    3    0    0 -0.31186958498E+01  0.13706311415E+01  0.15575607774E+01  0.37457828427E+01  0.00000000000E+00 0.  1.
</event>
<event>
 7    1  0.4931104E-009  0.4778727E+02  0.7816164E-02  0.1312668E+00
        -11   -1    0    0    0    0  0.00000000000E+00  0.00000000000E+00  0.45593999997E+02  0.45594000000E+02  0.51100000000E-03 0. -1.
         11   -1    0    0    0    0 -0.00000000000E+00 -0.00000000000E+00 -0.45593999997E+02  0.45594000000E+02  0.51100000000E-03 0.  1.
    9900012    2    1    2    0    0 -0.32130028734E+02 -0.19885518851E+02 -0.21350657945E+02  0.47787271883E+02  0.20000003822E+02 0.  0.
        -12    1    1    2    0    0  0.32130028734E+02  0.19885518851E+02  0.21350657945E+02  0.43400728117E+02  0.00000000000E+00 0.  1.
         11    1    3    3    0    0 -0.16152815937E+02 -0.83205585351E+01 -0.12169816439E+02  0.21868918342E+02  0.51100000000E-03 0. -1.
        -11    1    3    3    0    0 -0.13785949383E+02 -0.15631283459E+01 -0.65723643510E+01  0.15352255341E+02  0.51100000000E-03 0.  1.
        -12    1    3    3    0    0 -0.21912634140E+01 -0.10001831970E+02 -0.26084771551E+01  0.10566098200E+02  0.00000000000E+00 0.  1.
</event>
<event>
 7    1  0.4931104E-009  0.4778727E+02  0.7816164E-02  0.1312668E+00
        -11   -1    0    0    0    0  0.00000000000E+00  0.00000000000E+00  0.45593999997E+02  0.45594000000E+02  0.51100000000E-03 0. -1.
         11   -1    0    0    0    0 -0.00000000000E+00 -0.00000000000E+00 -0.45593999997E+02  0.45594000000E+02  0.51100000000E-03 0.  1.
    9900012    2    1    2    0    0  0.39400573165E+02  0.17657421095E+02  0.44083549867E+01  0.47787270984E+02  0.19999999725E+02 0.  0.
        -12    1    1    2    0    0 -0.39400573165E+02 -0.17657421095E+02 -0.44083549867E+01  0.43400729016E+02  0.00000000000E+00 0.  1.
         11    1    3    3    0    0  0.27113162323E+02  0.50657876407E+01  0.18841768058E+00  0.27582988907E+02  0.51100000000E-03 0. -1.
        -11    1    3    3    0    0  0.88209473411E+01  0.26295642527E+01  0.22185430540E+01  0.94681388719E+01  0.51100000000E-03 0.  1.
        -12    1    3    3    0    0  0.34664635009E+01  0.99620692012E+01  0.20013942521E+01  0.10736143205E+02  0.00000000000E+00 0.  1.
</event>
<event>
 7    1  0.4931104E-009  0.4778727E+02  0.7816164E-02  0.1312668E+00
        -11   -1    0    0    0    0  0.00000000000E+00  0.00000000000E+00  0.45593999997E+02  0.45594000000E+02  0.51100000000E-03 0.  1.
         11   -1    0    0    0    0 -0.00000000000E+00 -0.00000000000E+00 -0.45593999997E+02  0.45594000000E+02  0.51100000000E-03 0. -1.
    9900012    2    1    2    0    0  0.20989009278E+01 -0.42885522398E+02 -0.63284986741E+01  0.47787270606E+02  0.19999998002E+02 0.  0.
        -12    1    1    2    0    0 -0.20989009278E+01  0.42885522398E+02  0.63284986741E+01  0.43400729394E+02  0.00000000000E+00 0.  1.
         11    1    3    3    0    0  0.37586418833E+01 -0.15578350570E+02 -0.88117485420E+01  0.18288228671E+02  0.51100000000E-03 0. -1.
        -11    1    3    3    0    0  0.31976282216E+01 -0.23574622005E+01  0.18071377609E+00  0.39768218467E+01  0.51100000000E-03 0.  1.
         12    1    3    3    0    0 -0.48573691771E+01 -0.24949709627E+02  0.23025360918E+01  0.25522220088E+02  0.00000000000E+00 0. -1.
</event>
<event>
 7    1  0.4931104E-009  0.4778727E+02  0.7816164E-02  0.1312668E+00
        -11   -1    0    0    0    0  0.00000000000E+00  0.00000000000E+00  0.45593999997E+02  0.45594000000E+02  0.51100000000E-03 0.  1.
         11   -1    0    0    0    0 -0.00000000000E+00 -0.00000000000E+00 -0.45593999997E+02  0.45594000000E+02  0.51100000000E-03 0. -1.
    9900012    2    1    2    0    0 -0.29420276493E+02 -0.13591390301E+02 -0.28867710470E+02  0.47787271123E+02  0.20000000360E+02 0.  0.
        -12    1    1    2    0    0  0.29420276493E+02  0.13591390301E+02  0.28867710470E+02  0.43400728877E+02  0.00000000000E+00 0.  1.
         11    1    3    3    0    0  0.45340102789E+00  0.10002468555E+01  0.13476269187E+01  0.17384374700E+01  0.51100000000E-03 0. -1.
        -11    1    3    3    0    0 -0.98869713116E+01 -0.75289745845E+01 -0.57965552179E+01  0.13712684371E+02  0.51100000000E-03 0.  1.
         12    1    3    3    0    0 -0.19986706210E+02 -0.70626625718E+01 -0.24418782170E+02  0.32336149282E+02  0.00000000000E+00 0. -1.
</event>
<event>
 7    1  0.4931104E-009  0.4778727E+02  0.7816164E-02  0.1312668E+00
        -11   -1    0    0    0    0  0.00000000000E+00  0.00000000000E+00  0.45593999997E+02  0.45594000000E+02  0.51100000000E-03 0.  1.
         11   -1    0    0    0    0 -0.00000000000E+00 -0.00000000000E+00 -0.45593999997E+02  0.45594000000E+02  0.51100000000E-03 0. -1.
    9900012    2    1    2    0    0  0.30382183060E+02  0.46627118183E+01 -0.30639930309E+02  0.47787271224E+02  0.20000000818E+02 0.  0.
        -12    1    1    2    0    0 -0.30382183060E+02 -0.46627118183E+01  0.30639930309E+02  0.43400728776E+02  0.00000000000E+00 0.  1.
         11    1    3    3    0    0  0.35346061032E+01 -0.11797363837E+01 -0.36956194077E+01  0.52481255042E+01  0.51100000000E-03 0. -1.
        -11    1    3    3    0    0 -0.59557072788E+00 -0.30959918432E+01 -0.14900476395E+00  0.31562751252E+01  0.51100000000E-03 0.  1.
         12    1    3    3    0    0  0.27443147685E+02  0.89384400452E+01 -0.26795306137E+02  0.39382870594E+02  0.00000000000E+00 0. -1.
</event>
<event>
 7    1  0.4931104E-009  0.4778727E+02  0.7816164E-02  0.1312668E+00
        -11   -1    0    0    0    0  0.00000000000E+00  0.00000000000E+00  0.45593999997E+02  0.45594000000E+02  0.51100000000E-03 0.  1.
         11   -1    0    0    0    0 -0.00000000000E+00 -0.00000000000E+00 -0.45593999997E+02  0.45594000000E+02  0.51100000000E-03 0. -1.
    9900012    2    1    2    0    0  0.22659820311E+02  0.36460018976E+02 -0.63892624965E+01  0.47787272869E+02  0.20000008319E+02 0.  0.
        -12    1    1    2    0    0 -0.22659820311E+02 -0.36460018976E+02  0.63892624965E+01  0.43400727131E+02  0.00000000000E+00 0.  1.
         11    1    3    3    0    0  0.62356435573E+01  0.16041632767E+01 -0.21547344222E+01  0.67896591286E+01  0.51100000000E-03 0. -1.
        -11    1    3    3    0    0  0.11475040299E+02  0.10640493106E+02  0.11867104884E+01  0.15694104799E+02  0.51100000000E-03 0.  1.
         12    1    3    3    0    0  0.49491364543E+01  0.24215362593E+02 -0.54212385627E+01  0.25303508941E+02  0.00000000000E+00 0. -1.
</event>
<event>
 7    1  0.4931104E-009  0.4778722E+02  0.7816164E-02  0.1312668E+00
        -11   -1    0    0    0    0  0.00000000000E+00  0.00000000000E+00  0.45593999997E+02  0.45594000000E+02  0.51100000000E-03 0. -1.
         11   -1    0    0    0    0 -0.00000000000E+00 -0.00000000000E+00 -0.45593999997E+02  0.45594000000E+02  0.51100000000E-03 0.  1.
    9900012    2    1    2    0    0 -0.31972239150E+02  0.86894067223E+01  0.28033876463E+02  0.47787215502E+02  0.19999746760E+02 0.  0.
        -12    1    1    2    0    0  0.31972239150E+02 -0.86894067223E+01 -0.28033876463E+02  0.43400784498E+02  0.00000000000E+00 0.  1.
         11    1    3    3    0    0 -0.47413937618E+01  0.29905306897E+00  0.10932065768E+02  0.11919744534E+02  0.51100000000E-03 0. -1.
        -11    1    3    3    0    0 -0.14989750744E+01  0.51037054603E+01  0.47692109689E+01  0.71442360842E+01  0.51100000000E-03 0.  1.
        -12    1    3    3    0    0 -0.25731870314E+02  0.32866481930E+01  0.12332599726E+02  0.28723234884E+02  0.00000000000E+00 0.  1.
</event>
<event>
 7    1  0.4931104E-009  0.4778727E+02  0.7816164E-02  0.1312668E+00
        -11   -1    0    0    0    0  0.00000000000E+00  0.00000000000E+00  0.45593999997E+02  0.45594000000E+02  0.51100000000E-03 0.  1.
         11   -1    0    0    0    0 -0.00000000000E+00 -0.00000000000E+00 -0.45593999997E+02  0.45594000000E+02  0.51100000000E-03 0. -1.
    9900012    2    1    2    0    0  0.10733604524E+02 -0.90155097238E+01 -0.41074733294E+02  0.47787269628E+02  0.19999993544E+02 0.  0.
        -12    1    1    2    0    0 -0.10733604524E+02  0.90155097238E+01  0.41074733294E+02  0.43400730372E+02  0.00000000000E+00 0.  1.
         11    1    3    3    0    0 -0.17254940111E+01 -0.41179562861E+01 -0.11749867215E+02  0.12569577296E+02  0.51100000000E-03 0. -1.
        -11    1    3    3    0    0 -0.29844762962E+01 -0.70293029647E+00 -0.23906644185E+01  0.38879925909E+01  0.51100000000E-03 0.  1.
        -12    1    3    3    0    0  0.15443574831E+02 -0.41946231413E+01 -0.26934201660E+02  0.31329699742E+02  0.00000000000E+00 0.  1.
</event>
<event>
 7    1  0.4931104E-009  0.4778727E+02  0.7816164E-02  0.1312668E+00
        -11   -1    0    0    0    0  0.00000000000E+00  0.00000000000E+00  0.45593999997E+02  0.45594000000E+02  0.51100000000E-03 0.  1.
         11   -1    0    0    0    0 -0.00000000000E+00 -0.00000000000E+00 -0.45593999997E+02  0.45594000000E+02  0.51100000000E-03 0. -1.
    9900012    2    1    2    0    0 -0.35869396626E+01  0.24173767100E+02 -0.35866228631E+02  0.47787268345E+02  0.19999987693E+02 0.  0.
        -12    1    1    2    0    0  0.35869396626E+01 -0.24173767100E+02  0.35866228631E+02  0.43400731655E+02  0.00000000000E+00 0.  1.
         11    1    3    3    0    0 -0.25979868146E+00  0.36282140761E+01 -0.11739163833E+02  0.12289808806E+02  0.51100000000E-03 0.  1.
        -11    1    3    3    0    0 -0.58721019894E+01  0.17370986764E+02 -0.25315486383E+02  0.31258704612E+02  0.51100000000E-03 0. -1.
        -12    1    3    3    0    0  0.25449610083E+01  0.31745662594E+01  0.11884215846E+01  0.42387549271E+01  0.00000000000E+00 0.  1.
</event>
<event>
 7    1  0.4931104E-009  0.4778727E+02  0.7816164E-02  0.1312668E+00
        -11   -1    0    0    0    0  0.00000000000E+00  0.00000000000E+00  0.45593999997E+02  0.45594000000E+02  0.51100000000E-03 0.  1.
         11   -1    0    0    0    0 -0.00000000000E+00 -0.00000000000E+00 -0.45593999997E+02  0.45594000000E+02  0.51100000000E-03 0. -1.
    9900012    2    1    2    0    0 -0.29692981500E+02 -0.35930491997E+01 -0.31449014310E+02  0.47787266665E+02  0.19999980034E+02 0.  0.
        -12    1    1    2    0    0  0.29692981500E+02  0.35930491997E+01  0.31449014310E+02  0.43400733335E+02  0.00000000000E+00 0.  1.
         11    1    3    3    0    0 -0.88384374347E+01 -0.89111444382E+00 -0.64675408521E+01  0.10988227618E+02  0.51100000000E-03 0. -1.
        -11    1    3    3    0    0 -0.91835427902E+01  0.35577828479E+01 -0.20627416086E+02  0.22857943294E+02  0.51100000000E-03 0.  1.
        -12    1    3    3    0    0 -0.11671001275E+02 -0.62597176037E+01 -0.43540573725E+01  0.13941095754E+02  0.00000000000E+00 0.  1.
</event>
<event>
 7    1  0.4931104E-009  0.4778725E+02  0.7816164E-02  0.1312668E+00
        -11   -1    0    0    0    0  0.00000000000E+00  0.00000000000E+00  0.45593999997E+02  0.45594000000E+02  0.51100000000E-03 0. -1.
         11   -1    0    0    0    0 -0.00000000000E+00 -0.00000000000E+00 -0.45593999997E+02  0.45594000000E+02  0.51100000000E-03 0.  1.
    9900012    2    1    2    0    0  0.60356551074E+01 -0.15782980533E+02  0.39976157631E+02  0.47787253624E+02  0.19999920571E+02 0.  0.
        -12    1    1    2    0    0 -0.60356551074E+01  0.15782980533E+02 -0.39976157631E+02  0.43400746376E+02  0.00000000000E+00 0.  1.
         11    1    3    3    0    0  0.85649889023E+01 -0.13795880943E+02  0.27088327191E+02  0.31582635042E+02  0.51100000000E-03 0. -1.
        -11    1    3    3    0    0  0.14353437070E+00 -0.50266840958E+01  0.10121739618E+02  0.11302113443E+02  0.51100000000E-03 0.  1.
        -12    1    3    3    0    0 -0.26728681656E+01  0.30395845068E+01  0.27660908225E+01  0.49025051395E+01  0.00000000000E+00 0.  1.
</event>
<event>
 7    1  0.4931104E-009  0.4778727E+02  0.7816164E-02  0.1312668E+00
        -11   -1    0    0    0    0  0.00000000000E+00  0.00000000000E+00  0.45593999997E+02  0.45594000000E+02  0.51100000000E-03 0.  1.
         11   -1    0    0    0    0 -0.00000000000E+00 -0.00000000000E+00 -0.45593999997E+02  0.45594000000E+02  0.51100000000E-03 0. -1.
    9900012    2    1    2    0    0 -0.32063536408E+02  0.72514658962E+01 -0.28336707115E+02  0.47787273108E+02  0.20000009409E+02 0.  0.
        -12    1    1    2    0    0  0.32063536408E+02 -0.72514658962E+01  0.28336707115E+02  0.43400726892E+02  0.00000000000E+00 0.  1.
         11    1    3    3    0    0 -0.27489711659E+02  0.66241607897E+01 -0.24025864642E+02  0.37105335537E+02  0.51100000000E-03 0. -1.
        -11    1    3    3    0    0 -0.64668856532E+01  0.22522057777E+01 -0.16690076214E+01  0.70483067199E+01  0.51100000000E-03 0.  1.
        -12    1    3    3    0    0  0.18930609041E+01 -0.16249006712E+01 -0.26418348512E+01  0.36336308507E+01  0.00000000000E+00 0.  1.
</event>
<event>
 7    1  0.4931104E-009  0.4778727E+02  0.7816164E-02  0.1312668E+00
        -11   -1    0    0    0    0  0.00000000000E+00  0.00000000000E+00  0.45593999997E+02  0.45594000000E+02  0.51100000000E-03 0. -1.
         11   -1    0    0    0    0 -0.00000000000E+00 -0.00000000000E+00 -0.45593999997E+02  0.45594000000E+02  0.51100000000E-03 0.  1.
    9900012    2    1    2    0    0 -0.43365114259E+02 -0.12192382763E+00  0.17536743686E+01  0.47787269892E+02  0.19999994744E+02 0.  0.
        -12    1    1    2    0    0  0.43365114259E+02  0.12192382763E+00 -0.17536743686E+01  0.43400730108E+02  0.00000000000E+00 0.  1.
         11    1    3    3    0    0 -0.13409308482E+02  0.70283504149E+01  0.55689493562E+01  0.16131350245E+02  0.51100000000E-03 0. -1.
        -11    1    3    3    0    0 -0.69644725518E+01  0.91104831145E+00 -0.15029447327E+01  0.71828079524E+01  0.51100000000E-03 0.  1.
         12    1    3    3    0    0 -0.22991333226E+02 -0.80613225540E+01 -0.23123302549E+01  0.24473111695E+02  0.00000000000E+00 0. -1.
</event>
<event>
 7    1  0.4931104E-009  0.4778729E+02  0.7816164E-02  0.1312668E+00
        -11   -1    0    0    0    0  0.00000000000E+00  0.00000000000E+00  0.45593999997E+02  0.45594000000E+02  0.51100000000E-03 0.  1.
         11   -1    0    0    0    0 -0.00000000000E+00 -0.00000000000E+00 -0.45593999997E+02  0.45594000000E+02  0.51100000000E-03 0. -1.
    9900012    2    1    2    0    0  0.78464540910E+01 -0.15713042555E+02 -0.39688227714E+02  0.47787286098E+02  0.20000068635E+02 0.  0.
        -12    1    1    2    0    0 -0.78464540910E+01  0.15713042555E+02  0.39688227714E+02  0.43400713902E+02  0.00000000000E+00 0.  1.
         11    1    3    3    0    0 -0.11166494096E+01 -0.19073891031E+01 -0.12155722582E+02  0.12355024518E+02  0.51100000000E-03 0. -1.
        -11    1    3    3    0    0  0.23836799908E+01 -0.91300663119E+01 -0.25381836614E+02  0.27079100268E+02  0.51100000000E-03 0.  1.
        -12    1    3    3    0    0  0.65794235098E+01 -0.46755871400E+01 -0.21506685178E+01  0.83531613117E+01  0.00000000000E+00 0.  1.
</event>
<event>
 7    1  0.4931104E-009  0.4778727E+02  0.7816164E-02  0.1312668E+00
        -11   -1    0    0    0    0  0.00000000000E+00  0.00000000000E+00  0.45593999997E+02  0.45594000000E+02  0.51100000000E-03 0.  1.
         11   -1    0    0    0    0 -0.00000000000E+00 -0.00000000000E+00 -0.45593999997E+02  0.45594000000E+02  0.51100000000E-03 0. -1.
    9900012    2    1    2    0    0  0.42900978014E+02  0.65112103377E+01 -0.85642828187E+00  0.47787271388E+02  0.20000001568E+02 0.  0.
        -12    1    1    2    0    0 -0.42900978014E+02 -0.65112103377E+01  0.85642828187E+00  0.43400728612E+02  0.00000000000E+00 0.  1.
         11    1    3    3    0    0  0.35406185061E+02  0.68081881973E+01 -0.73454776780E+01  0.36795453655E+02  0.51100000000E-03 0. -1.
        -11    1    3    3    0    0  0.16673986481E+01 -0.25186029753E+00 -0.62250027598E+00  0.17975424100E+01  0.51100000000E-03 0.  1.
        -12    1    3    3    0    0  0.58273943051E+01 -0.45117562075E-01  0.71115496721E+01  0.91942753233E+01  0.00000000000E+00 0.  1.
</event>
<event>
 7    1  0.4931104E-009  0.4778727E+02  0.7816164E-02  0.1312668E+00
        -11   -1    0    0    0    0  0.00000000000E+00  0.00000000000E+00  0.45593999997E+02  0.45594000000E+02  0.51100000000E-03 0. -1.
         11   -1    0    0    0    0 -0.00000000000E+00 -0.00000000000E+00 -0.45593999997E+02  0.45594000000E+02  0.51100000000E-03 0.  1.
    9900012    2    1    2    0    0 -0.26946215085E+02 -0.24604272541E+02  0.23497970217E+02  0.47787270294E+02  0.19999996580E+02 0.  0.
        -12    1    1    2    0    0  0.26946215085E+02  0.24604272541E+02 -0.23497970217E+02  0.43400729706E+02  0.00000000000E+00 0.  1.
         11    1    3    3    0    0  0.11853896455E+01 -0.32087852620E+01  0.49284835382E+01  0.59992834336E+01  0.51100000000E-03 0. -1.
        -11    1    3    3    0    0 -0.50281409204E+01 -0.66518458434E+01  0.10110186430E+02  0.13105156396E+02  0.51100000000E-03 0.  1.
        -12    1    3    3    0    0 -0.23103463810E+02 -0.14743641435E+02  0.84593002485E+01  0.28682830465E+02  0.00000000000E+00 0.  1.
</event>
<event>
 7    1  0.4931104E-009  0.4778727E+02  0.7816164E-02  0.1312668E+00
        -11   -1    0    0    0    0  0.00000000000E+00  0.00000000000E+00  0.45593999997E+02  0.45594000000E+02  0.51100000000E-03 0.  1.
         11   -1    0    0    0    0 -0.00000000000E+00 -0.00000000000E+00 -0.45593999997E+02  0.45594000000E+02  0.51100000000E-03 0. -1.
    9900012    2    1    2    0    0  0.24062805475E+02 -0.31586743932E+02  0.17518053441E+02  0.47787271943E+02  0.20000004097E+02 0.  0.
        -12    1    1    2    0    0 -0.24062805475E+02  0.31586743932E+02 -0.17518053441E+02  0.43400728057E+02  0.00000000000E+00 0.  1.
         11    1    3    3    0    0  0.43684661663E+01 -0.76563343039E+01  0.57818705969E+01  0.10541962791E+02  0.51100000000E-03 0. -1.
        -11    1    3    3    0    0  0.57718682165E+01 -0.21948532844E+01  0.95077842886E+01  0.11337098658E+02  0.51100000000E-03 0.  1.
         12    1    3    3    0    0  0.13922471092E+02 -0.21735556344E+02  0.22283985550E+01  0.25908210494E+02  0.00000000000E+00 0. -1.
</event>
<event>
 7    1  0.4931104E-009  0.4778726E+02  0.7816164E-02  0.1312668E+00
        -11   -1    0    0    0    0  0.00000000000E+00  0.00000000000E+00  0.45593999997E+02  0.45594000000E+02  0.51100000000E-03 0.  1.
         11   -1    0    0    0    0 -0.00000000000E+00 -0.00000000000E+00 -0.45593999997E+02  0.45594000000E+02  0.51100000000E-03 0. -1.
    9900012    2    1    2    0    0  0.18099678518E+02  0.33359316022E+02 -0.21051888522E+02  0.47787258782E+02  0.19999944089E+02 0.  0.
        -12    1    1    2    0    0 -0.18099678518E+02 -0.33359316022E+02  0.21051888522E+02  0.43400741218E+02  0.00000000000E+00 0.  1.
         11    1    3    3    0    0  0.12055519023E+02  0.14736614233E+02 -0.11221471497E+02  0.22100333952E+02  0.51100000000E-03 0. -1.
        -11    1    3    3    0    0  0.10227290135E+02  0.11303157645E+02 -0.71791607796E+01  0.16849308176E+02  0.51100000000E-03 0.  1.
        -12    1    3    3    0    0 -0.41831306403E+01  0.73195441445E+01 -0.26512562461E+01  0.88376166538E+01  0.00000000000E+00 0.  1.
</event>
<event>
 7    1  0.4931104E-009  0.4778726E+02  0.7816164E-02  0.1312668E+00
        -11   -1    0    0    0    0  0.00000000000E+00  0.00000000000E+00  0.45593999997E+02  0.45594000000E+02  0.51100000000E-03 0. -1.
         11   -1    0    0    0    0 -0.00000000000E+00 -0.00000000000E+00 -0.45593999997E+02  0.45594000000E+02  0.51100000000E-03 0.  1.
    9900012    2    1    2    0    0 -0.23671650438E+02 -0.56164132039E+01  0.35940690123E+02  0.47787258782E+02  0.19999944092E+02 0.  0.
        -12    1    1    2    0    0  0.23671650438E+02  0.56164132039E+01 -0.35940690123E+02  0.43400741218E+02  0.00000000000E+00 0.  1.
         11    1    3    3    0    0  0.16252622504E+01 -0.48905093068E+01  0.34673905717E+01  0.62113892408E+01  0.51100000000E-03 0. -1.
        -11    1    3    3    0    0 -0.72031635497E+01 -0.13299424562E+01  0.58199524676E+01  0.93555416223E+01  0.51100000000E-03 0.  1.
         12    1    3    3    0    0 -0.18093749138E+02  0.60403855909E+00  0.26653347084E+02  0.32220327919E+02  0.00000000000E+00 0. -1.
</event>
<event>
 7    1  0.5487095E-009  0.4778727E+02  0.7816164E-02  0.1312668E+00
        -11   -1    0    0    0    0  0.00000000000E+00  0.00000000000E+00  0.45593999997E+02  0.45594000000E+02  0.51100000000E-03 0.  1.
         11   -1    0    0    0    0 -0.00000000000E+00 -0.00000000000E+00 -0.45593999997E+02  0.45594000000E+02  0.51100000000E-03 0. -1.
    9900012    2    1    2    0    0  0.21516177118E+02  0.37619696599E+02 -0.23314313654E+01  0.47787273944E+02  0.20000013219E+02 0.  0.
        -12    1    1    2    0    0 -0.21516177118E+02 -0.37619696599E+02  0.23314313654E+01  0.43400726056E+02  0.00000000000E+00 0.  1.
         11    1    3    3    0    0  0.70863143550E+01  0.16605775390E+02  0.39004316523E+01  0.18471085371E+02  0.51100000000E-03 0. -1.
        -11    1    3    3    0    0  0.13821706236E+02  0.22704991966E+02 -0.47835534416E+01  0.27008121135E+02  0.51100000000E-03 0.  1.
        -12    1    3    3    0    0  0.60815652741E+00 -0.16910707573E+01 -0.14483095761E+01  0.23080674375E+01  0.00000000000E+00 0.  1.
</event>
<event>
 7    1  0.4931104E-009  0.4778727E+02  0.7816164E-02  0.1312668E+00
        -11   -1    0    0    0    0  0.00000000000E+00  0.00000000000E+00  0.45593999997E+02  0.45594000000E+02  0.51100000000E-03 0.  1.
         11   -1    0    0    0    0 -0.00000000000E+00 -0.00000000000E+00 -0.45593999997E+02  0.45594000000E+02  0.51100000000E-03 0. -1.
    9900012    2    1    2    0    0  0.22300759290E+02 -0.26050441221E+02 -0.26602147038E+02  0.47787267521E+02  0.19999983933E+02 0.  0.
        -12    1    1    2    0    0 -0.22300759290E+02  0.26050441221E+02  0.26602147038E+02  0.43400732479E+02  0.00000000000E+00 0.  1.
         11    1    3    3    0    0  0.65224288286E+01 -0.38046055360E+01 -0.10346310586E+02  0.12808717504E+02  0.51100000000E-03 0.  1.
        -11    1    3    3    0    0  0.30474450399E+01 -0.11424698411E+02 -0.13664870057E+02  0.18070399248E+02  0.51100000000E-03 0. -1.
         12    1    3    3    0    0  0.12730885422E+02 -0.10821137274E+02 -0.25909663947E+01  0.16908150768E+02  0.00000000000E+00 0. -1.
</event>
<event>
 7    1  0.6710547E-009  0.4778727E+02  0.7816164E-02  0.1312668E+00
        -11   -1    0    0    0    0  0.00000000000E+00  0.00000000000E+00  0.45593999997E+02  0.45594000000E+02  0.51100000000E-03 0.  1.
         11   -1    0    0    0    0 -0.00000000000E+00 -0.00000000000E+00 -0.45593999997E+02  0.45594000000E+02  0.51100000000E-03 0. -1.
    9900012    2    1    2    0    0 -0.48899280944E+01  0.42162119413E+02 -0.90591150481E+01  0.47787271024E+02  0.19999999907E+02 0.  0.
        -12    1    1    2    0    0  0.48899280944E+01 -0.42162119413E+02  0.90591150481E+01  0.43400728976E+02  0.00000000000E+00 0.  1.
         11    1    3    3    0    0 -0.57977804728E+01  0.18596225267E+02 -0.59799343891E+00  0.19488238736E+02  0.51100000000E-03 0. -1.
        -11    1    3    3    0    0  0.17928025058E+01  0.29655521445E+01  0.31087698151E+01  0.46554366466E+01  0.51100000000E-03 0.  1.
        -12    1    3    3    0    0 -0.88495012742E+00  0.20600342001E+02 -0.11569891424E+02  0.23643595642E+02  0.00000000000E+00 0.  1.
</event>
<event>
 7    1  0.4931104E-009  0.4778728E+02  0.7816164E-02  0.1312668E+00
        -11   -1    0    0    0    0  0.00000000000E+00  0.00000000000E+00  0.45593999997E+02  0.45594000000E+02  0.51100000000E-03 0.  1.
         11   -1    0    0    0    0 -0.00000000000E+00 -0.00000000000E+00 -0.45593999997E+02  0.45594000000E+02  0.51100000000E-03 0. -1.
    9900012    2    1    2    0    0  0.74906249893E+01 -0.32036960159E+02 -0.28304530182E+02  0.47787277566E+02  0.20000029734E+02 0.  0.
        -12    1    1    2    0    0 -0.74906249893E+01  0.32036960159E+02  0.28304530182E+02  0.43400722434E+02  0.00000000000E+00 0.  1.
         11    1    3    3    0    0 -0.45137465365E+01 -0.43089459313E+01 -0.48578624142E+01  0.79082077825E+01  0.51100000000E-03 0.  1.
        -11    1    3    3    0    0  0.18531513345E+01 -0.74467685630E+01 -0.12566851175E+02  0.14724614787E+02  0.51100000000E-03 0. -1.
         12    1    3    3    0    0  0.10151220191E+02 -0.20281245665E+02 -0.10879816593E+02  0.25154454997E+02  0.00000000000E+00 0. -1.
</event>
<event>
 7    1  0.4931104E-009  0.4778727E+02  0.7816164E-02  0.1312668E+00
        -11   -1    0    0    0    0  0.00000000000E+00  0.00000000000E+00  0.45593999997E+02  0.45594000000E+02  0.51100000000E-03 0.  1.
         11   -1    0    0    0    0 -0.00000000000E+00 -0.00000000000E+00 -0.45593999997E+02  0.45594000000E+02  0.51100000000E-03 0. -1.
    9900012    2    1    2    0    0  0.20654535671E+02 -0.30608880932E+01 -0.38047926701E+02  0.47787267219E+02  0.19999982557E+02 0.  0.
        -12    1    1    2    0    0 -0.20654535671E+02  0.30608880932E+01  0.38047926701E+02  0.43400732781E+02  0.00000000000E+00 0.  1.
         11    1    3    3    0    0 -0.38364587084E+00  0.39810797612E+00  0.67459978643E-01  0.55697865731E+00  0.51100000000E-03 0. -1.
        -11    1    3    3    0    0  0.72816022607E+00  0.55997826880E+01 -0.73435150845E+01  0.92636384604E+01  0.51100000000E-03 0.  1.
         12    1    3    3    0    0  0.20310021315E+02 -0.90587787573E+01 -0.30771871595E+02  0.37966650101E+02  0.00000000000E+00 0. -1.
</event>
<event>
 7    1  0.4931104E-009  0.4778727E+02  0.7816164E-02  0.1312668E+00
        -11   -1    0    0    0    0  0.00000000000E+00  0.00000000000E+00  0.45593999997E+02  0.45594000000E+02  0.51100000000E-03 0.  1.
         11   -1    0    0    0    0 -0.00000000000E+00 -0.00000000000E+00 -0.45593999997E+02  0.45594000000E+02  0.51100000000E-03 0. -1.
    9900012    2    1    2    0    0  0.36483551450E+02  0.23403474442E+02  0.22025393210E+01  0.47787270492E+02  0.19999997482E+02 0.  0.
        -12    1    1    2    0    0 -0.36483551450E+02 -0.23403474442E+02 -0.22025393210E+01  0.43400729508E+02  0.00000000000E+00 0.  1.
         11    1    3    3    0    0  0.36252591169E+00  0.51074371349E+00  0.76907578467E+00  0.99184777119E+00  0.51100000000E-03 0. -1.
        -11    1    3    3    0    0  0.13973608039E+02  0.11923293969E+02  0.96508035299E+01  0.20750052283E+02  0.51100000000E-03 0.  1.
         12    1    3    3    0    0  0.22147417499E+02  0.10969436759E+02 -0.82173399935E+01  0.26045370438E+02  0.00000000000E+00 0. -1.
</event>
<event>
 7    1  0.4931104E-009  0.4778727E+02  0.7816164E-02  0.1312668E+00
        -11   -1    0    0    0    0  0.00000000000E+00  0.00000000000E+00  0.45593999997E+02  0.45594000000E+02  0.51100000000E-03 0.  1.
         11   -1    0    0    0    0 -0.00000000000E+00 -0.00000000000E+00 -0.45593999997E+02  0.45594000000E+02  0.51100000000E-03 0. -1.
    9900012    2    1    2    0    0  0.14834655898E+02  0.29344160021E+02 -0.28328013352E+02  0.47787273239E+02  0.20000010004E+02 0.  0.
        -12    1    1    2    0    0 -0.14834655898E+02 -0.29344160021E+02  0.28328013352E+02  0.43400726761E+02  0.00000000000E+00 0.  1.
         11    1    3    3    0    0 -0.62719185546E+00  0.47627564222E+01 -0.28556589971E+01  0.55885603628E+01  0.51100000000E-03 0. -1.
        -11    1    3    3    0    0  0.16192886615E+02  0.26320774063E+02 -0.21051170342E+02  0.37391770448E+02  0.51100000000E-03 0.  1.
        -12    1    3    3    0    0 -0.73103886136E+00 -0.17393704643E+01 -0.44211840125E+01  0.48069424275E+01  0.00000000000E+00 0.  1.
</event>
<event>
 7    1  0.4931104E-009  0.4778727E+02  0.7816164E-02  0.1312668E+00
        -11   -1    0    0    0    0  0.00000000000E+00  0.00000000000E+00  0.45593999997E+02  0.45594000000E+02  0.51100000000E-03 0.  1.
         11   -1    0    0    0    0 -0.00000000000E+00 -0.00000000000E+00 -0.45593999997E+02  0.45594000000E+02  0.51100000000E-03 0. -1.
    9900012    2    1    2    0    0  0.34155534697E+02  0.14888357504E+02 -0.22256682900E+02  0.47787266443E+02  0.19999979020E+02 0.  0.
        -12    1    1    2    0    0 -0.34155534697E+02 -0.14888357504E+02  0.22256682900E+02  0.43400733557E+02  0.00000000000E+00 0.  1.
         11    1    3    3    0    0  0.86821585868E+01  0.62780235315E+01 -0.48215953995E+00  0.10725014465E+02  0.51100000000E-03 0. -1.
        -11    1    3    3    0    0 -0.72050585755E+00  0.15152177049E+01 -0.47227662605E+01  0.50119392251E+01  0.51100000000E-03 0.  1.
         12    1    3    3    0    0  0.26193881968E+02  0.70951162678E+01 -0.17051757099E+02  0.32050312753E+02  0.00000000000E+00 0. -1.
</event>
<event>
 7    1  0.4931104E-009  0.4778728E+02  0.7816164E-02  0.1312668E+00
        -11   -1    0    0    0    0  0.00000000000E+00  0.00000000000E+00  0.45593999997E+02  0.45594000000E+02  0.51100000000E-03 0. -1.
         11   -1    0    0    0    0 -0.00000000000E+00 -0.00000000000E+00 -0.45593999997E+02  0.45594000000E+02  0.51100000000E-03 0.  1.
    9900012    2    1    2    0    0  0.42498272163E+02 -0.77966395834E+01  0.40904689259E+01  0.47787278098E+02  0.20000032159E+02 0.  0.
        -12    1    1    2    0    0 -0.42498272163E+02  0.77966395834E+01 -0.40904689259E+01  0.43400721902E+02  0.00000000000E+00 0.  1.
         11    1    3    3    0    0  0.39114583178E+01 -0.22355751207E+01 -0.57307738436E+00  0.45415548264E+01  0.51100000000E-03 0. -1.
        -11    1    3    3    0    0  0.36665010370E+02 -0.79461135406E+01 -0.17804904672E+00  0.37516601759E+02  0.51100000000E-03 0.  1.
        -12    1    3    3    0    0  0.19218034750E+01  0.23850490779E+01  0.48415953570E+01  0.57291215122E+01  0.00000000000E+00 0.  1.
</event>
<event>
 7    1  0.4931104E-009  0.4778727E+02  0.7816164E-02  0.1312668E+00
        -11   -1    0    0    0    0  0.00000000000E+00  0.00000000000E+00  0.45593999997E+02  0.45594000000E+02  0.51100000000E-03 0. -1.
         11   -1    0    0    0    0 -0.00000000000E+00 -0.00000000000E+00 -0.45593999997E+02  0.45594000000E+02  0.51100000000E-03 0.  1.
    9900012    2    1    2    0    0  0.20176714449E+02  0.33427434199E+01  0.38279887115E+02  0.47787268473E+02  0.19999988278E+02 0.  0.
        -12    1    1    2    0    0 -0.20176714449E+02 -0.33427434199E+01 -0.38279887115E+02  0.43400731527E+02  0.00000000000E+00 0.  1.
         11    1    3    3    0    0 -0.15023598911E+01 -0.32763493557E+01  0.39078215942E+01  0.53162599839E+01  0.51100000000E-03 0. -1.
        -11    1    3    3    0    0  0.10267307749E+02  0.26724309180E+00  0.79178808715E+01  0.12968495095E+02  0.51100000000E-03 0.  1.
         12    1    3    3    0    0  0.11411766592E+02  0.63518496839E+01  0.26454184649E+02  0.29502513394E+02  0.00000000000E+00 0. -1.
</event>
<event>
 7    1  0.4931104E-009  0.4778727E+02  0.7816164E-02  0.1312668E+00
        -11   -1    0    0    0    0  0.00000000000E+00  0.00000000000E+00  0.45593999997E+02  0.45594000000E+02  0.51100000000E-03 0.  1.
         11   -1    0    0    0    0 -0.00000000000E+00 -0.00000000000E+00 -0.45593999997E+02  0.45594000000E+02  0.51100000000E-03 0. -1.
    9900012    2    1    2    0    0  0.23790196913E+02 -0.36115172885E+02 -0.36529442772E+01  0.47787272085E+02  0.20000004743E+02 0.  0.
        -12    1    1    2    0    0 -0.23790196913E+02  0.36115172885E+02  0.36529442772E+01  0.43400727915E+02  0.00000000000E+00 0.  1.
         11    1    3    3    0    0 -0.47636125962E+00  0.99702194926E+00  0.62518903577E-01  0.11067437334E+01  0.51100000000E-03 0. -1.
        -11    1    3    3    0    0 -0.27243682174E-01 -0.77932097657E+00  0.24226171833E+01  0.25450260668E+01  0.51100000000E-03 0.  1.
         12    1    3    3    0    0  0.24293801855E+02 -0.36332873858E+02 -0.61380803641E+01  0.44135502284E+02  0.00000000000E+00 0. -1.
</event>
<event>
 7    1  0.4931104E-009  0.4778727E+02  0.7816164E-02  0.1312668E+00
        -11   -1    0    0    0    0  0.00000000000E+00  0.00000000000E+00  0.45593999997E+02  0.45594000000E+02  0.51100000000E-03 0. -1.
         11   -1    0    0    0    0 -0.00000000000E+00 -0.00000000000E+00 -0.45593999997E+02  0.45594000000E+02  0.51100000000E-03 0.  1.
    9900012    2    1    2    0    0  0.30471158462E+02  0.30735954187E+02  0.32300738079E+01  0.47787265506E+02  0.19999974747E+02 0.  0.
        -12    1    1    2    0    0 -0.30471158462E+02 -0.30735954187E+02 -0.32300738079E+01  0.43400734494E+02  0.00000000000E+00 0.  1.
         11    1    3    3    0    0  0.13006502289E+00  0.11816120076E+01 -0.30769247092E+01  0.32985739000E+01  0.51100000000E-03 0. -1.
        -11    1    3    3    0    0  0.35103031527E+01  0.23090797160E+01  0.45737867902E+01  0.62107651076E+01  0.51100000000E-03 0.  1.
         12    1    3    3    0    0  0.26830790287E+02  0.27245262463E+02  0.17332117269E+01  0.38277926498E+02  0.00000000000E+00 0. -1.
</event>
<event>
 7    1  0.4931104E-009  0.4778727E+02  0.7816164E-02  0.1312668E+00
        -11   -1    0    0    0    0  0.00000000000E+00  0.00000000000E+00  0.45593999997E+02  0.45594000000E+02  0.51100000000E-03 0.  1.
         11   -1    0    0    0    0 -0.00000000000E+00 -0.00000000000E+00 -0.45593999997E+02  0.45594000000E+02  0.51100000000E-03 0. -1.
    9900012    2    1    2    0    0 -0.42254369856E+02  0.98546094965E+01  0.10384120222E+01  0.47787269594E+02  0.19999993386E+02 0.  0.
        -12    1    1    2    0    0  0.42254369856E+02 -0.98546094965E+01 -0.10384120222E+01  0.43400730406E+02  0.00000000000E+00 0.  1.
         11    1    3    3    0    0 -0.10557078490E+01  0.23444159500E+01  0.30483352043E+01  0.39878757488E+01  0.51100000000E-03 0. -1.
        -11    1    3    3    0    0 -0.23498887965E+02  0.16510947529E+01  0.46309022331E+01  0.24007688461E+02  0.51100000000E-03 0.  1.
         12    1    3    3    0    0 -0.17699774042E+02  0.58590987936E+01 -0.66408254152E+01  0.19791705384E+02  0.00000000000E+00 0. -1.
</event>
<event>
 7    1  0.4931104E-009  0.4778727E+02  0.7816164E-02  0.1312668E+00
        -11   -1    0    0    0    0  0.00000000000E+00  0.00000000000E+00  0.45593999997E+02  0.45594000000E+02  0.51100000000E-03 0. -1.
         11   -1    0    0    0    0 -0.00000000000E+00 -0.00000000000E+00 -0.45593999997E+02  0.45594000000E+02  0.51100000000E-03 0.  1.
    9900012    2    1    2    0    0 -0.14287866727E+02  0.28520222349E+02 -0.29429186232E+02  0.47787271656E+02  0.20000002789E+02 0.  0.
        -12    1    1    2    0    0  0.14287866727E+02 -0.28520222349E+02  0.29429186232E+02  0.43400728344E+02  0.00000000000E+00 0.  1.
         11    1    3    3    0    0 -0.41422403394E+01  0.32871507207E+01  0.12435505112E+01  0.54323045777E+01  0.51100000000E-03 0.  1.
        -11    1    3    3    0    0 -0.59004512138E+01  0.38792948575E+01 -0.10634824513E+02  0.12765725432E+02  0.51100000000E-03 0. -1.
        -12    1    3    3    0    0 -0.42451751741E+01  0.21353776771E+02 -0.20037912230E+02  0.29589241646E+02  0.00000000000E+00 0.  1.
</event>
<event>
 7    1  0.4931104E-009  0.4778727E+02  0.7816164E-02  0.1312668E+00
        -11   -1    0    0    0    0  0.00000000000E+00  0.00000000000E+00  0.45593999997E+02  0.45594000000E+02  0.51100000000E-03 0.  1.
         11   -1    0    0    0    0 -0.00000000000E+00 -0.00000000000E+00 -0.45593999997E+02  0.45594000000E+02  0.51100000000E-03 0. -1.
    9900012    2    1    2    0    0  0.22138029498E+02  0.11884837792E+02 -0.35387592683E+02  0.47787269185E+02  0.19999991522E+02 0.  0.
        -12    1    1    2    0    0 -0.22138029498E+02 -0.11884837792E+02  0.35387592683E+02  0.43400730815E+02  0.00000000000E+00 0.  1.
         11    1    3    3    0    0  0.60685555705E+01  0.84602016497E+00 -0.14838358101E+02  0.16053659652E+02  0.51100000000E-03 0. -1.
        -11    1    3    3    0    0  0.12748659353E+02  0.11221403712E+00 -0.10332157807E+02  0.16410191726E+02  0.51100000000E-03 0.  1.
         12    1    3    3    0    0  0.33208145743E+01  0.10926603590E+02 -0.10217076775E+02  0.15323417806E+02  0.00000000000E+00 0. -1.
</event>
<event>
 7    1  0.5254458E-009  0.4778726E+02  0.7816164E-02  0.1312668E+00
        -11   -1    0    0    0    0  0.00000000000E+00  0.00000000000E+00  0.45593999997E+02  0.45594000000E+02  0.51100000000E-03 0. -1.
         11   -1    0    0    0    0 -0.00000000000E+00 -0.00000000000E+00 -0.45593999997E+02  0.45594000000E+02  0.51100000000E-03 0.  1.
    9900012    2    1    2    0    0 -0.26609751571E+02 -0.29660079753E+01  0.34157691509E+02  0.47787263010E+02  0.19999963369E+02 0.  0.
        -12    1    1    2    0    0  0.26609751571E+02  0.29660079753E+01 -0.34157691509E+02  0.43400736990E+02  0.00000000000E+00 0.  1.
         11    1    3    3    0    0 -0.13541073731E+02  0.32418232882E+01  0.14174578761E+02  0.19869292372E+02  0.51100000000E-03 0. -1.
        -11    1    3    3    0    0 -0.74295307838E+01 -0.13455149069E+01  0.11130568274E+01  0.76319875390E+01  0.51100000000E-03 0.  1.
        -12    1    3    3    0    0 -0.56391470561E+01 -0.48623163566E+01  0.18870055921E+02  0.20285983100E+02  0.00000000000E+00 0.  1.
</event>
<event>
 7    1  0.4931104E-009  0.4778727E+02  0.7816164E-02  0.1312668E+00
        -11   -1    0    0    0    0  0.00000000000E+00  0.00000000000E+00  0.45593999997E+02  0.45594000000E+02  0.51100000000E-03 0.  1.
         11   -1    0    0    0    0 -0.00000000000E+00 -0.00000000000E+00 -0.45593999997E+02  0.45594000000E+02  0.51100000000E-03 0. -1.
    9900012    2    1    2    0    0 -0.88235995816E+01 -0.42485047158E+02 -0.88771519807E+00  0.47787272128E+02  0.20000004939E+02 0.  0.
        -12    1    1    2    0    0  0.88235995816E+01  0.42485047158E+02  0.88771519807E+00  0.43400727872E+02  0.00000000000E+00 0.  1.
         11    1    3    3    0    0 -0.79318367924E+01 -0.13027030636E+02 -0.34485021117E+01  0.15636806873E+02  0.51100000000E-03 0. -1.
        -11    1    3    3    0    0 -0.98493733985E+00  0.97790686054E+00  0.93004308979E+00  0.16707434876E+01  0.51100000000E-03 0.  1.
        -12    1    3    3    0    0  0.93174550565E-01 -0.30435923382E+02  0.16307438238E+01  0.30479721767E+02  0.00000000000E+00 0.  1.
</event>
<event>
 7    1  0.4931104E-009  0.4778727E+02  0.7816164E-02  0.1312668E+00
        -11   -1    0    0    0    0  0.00000000000E+00  0.00000000000E+00  0.45593999997E+02  0.45594000000E+02  0.51100000000E-03 0.  1.
         11   -1    0    0    0    0 -0.00000000000E+00 -0.00000000000E+00 -0.45593999997E+02  0.45594000000E+02  0.51100000000E-03 0. -1.
    9900012    2    1    2    0    0 -0.16207657811E+02  0.35002032989E+02 -0.19894538850E+02  0.47787272343E+02  0.20000005922E+02 0.  0.
        -12    1    1    2    0    0  0.16207657811E+02 -0.35002032989E+02  0.19894538850E+02  0.43400727657E+02  0.00000000000E+00 0.  1.
         11    1    3    3    0    0  0.35933033741E+01  0.52138956247E+01 -0.34060642623E+01  0.71901189658E+01  0.51100000000E-03 0. -1.
        -11    1    3    3    0    0 -0.11217978723E+02  0.83561780467E+01 -0.55294252354E+01  0.15041386302E+02  0.51100000000E-03 0.  1.
        -12    1    3    3    0    0 -0.85829824622E+01  0.21431959317E+02 -0.10959049353E+02  0.25555767076E+02  0.00000000000E+00 0.  1.
</event>
<event>
 7    1  0.4931104E-009  0.4778727E+02  0.7816164E-02  0.1312668E+00
        -11   -1    0    0    0    0  0.00000000000E+00  0.00000000000E+00  0.45593999997E+02  0.45594000000E+02  0.51100000000E-03 0.  1.
         11   -1    0    0    0    0 -0.00000000000E+00 -0.00000000000E+00 -0.45593999997E+02  0.45594000000E+02  0.51100000000E-03 0. -1.
    9900012    2    1    2    0    0 -0.29673280357E+02  0.26666944240E+02 -0.17087827737E+02  0.47787270294E+02  0.19999996577E+02 0.  0.
        -12    1    1    2    0    0  0.29673280357E+02 -0.26666944240E+02  0.17087827737E+02  0.43400729706E+02  0.00000000000E+00 0.  1.
         11    1    3    3    0    0 -0.11611224514E+02  0.59831281863E+00 -0.15583438851E+01  0.11730598829E+02  0.51100000000E-03 0. -1.
        -11    1    3    3    0    0 -0.50313285844E+01  0.67630921218E+01 -0.73004095327E+00  0.84608889856E+01  0.51100000000E-03 0.  1.
        -12    1    3    3    0    0 -0.13030727258E+02  0.19305539300E+02 -0.14799442899E+02  0.27595782479E+02  0.00000000000E+00 0.  1.
</event>
<event>
 7    1  0.4931104E-009  0.4778727E+02  0.7816164E-02  0.1312668E+00
        -11   -1    0    0    0    0  0.00000000000E+00  0.00000000000E+00  0.45593999997E+02  0.45594000000E+02  0.51100000000E-03 0. -1.
         11   -1    0    0    0    0 -0.00000000000E+00 -0.00000000000E+00 -0.45593999997E+02  0.45594000000E+02  0.51100000000E-03 0.  1.
    9900012    2    1    2    0    0  0.40369462047E+02  0.15849785515E+02  0.16474179091E+01  0.47787272441E+02  0.20000006368E+02 0.  0.
        -12    1    1    2    0    0 -0.40369462047E+02 -0.15849785515E+02 -0.16474179091E+01  0.43400727559E+02  0.00000000000E+00 0.  1.
         11    1    3    3    0    0  0.10356581664E+02 -0.32731233371E+01 -0.12620751002E+01  0.10934576076E+02  0.51100000000E-03 0. -1.
        -11    1    3    3    0    0  0.18303311806E+01  0.42253532741E+01 -0.10701306445E+01  0.47274625731E+01  0.51100000000E-03 0.  1.
        -12    1    3    3    0    0  0.28182549203E+02  0.14897555578E+02  0.39796236539E+01  0.32125233792E+02  0.00000000000E+00 0.  1.
</event>
<event>
 7    1  0.4931104E-009  0.4778726E+02  0.7816164E-02  0.1312668E+00
        -11   -1    0    0    0    0  0.00000000000E+00  0.00000000000E+00  0.45593999997E+02  0.45594000000E+02  0.51100000000E-03 0. -1.
         11   -1    0    0    0    0 -0.00000000000E+00 -0.00000000000E+00 -0.45593999997E+02  0.45594000000E+02  0.51100000000E-03 0.  1.
    9900012    2    1    2    0    0  0.43030430939E+02 -0.57402635010E+00  0.56282304701E+01  0.47787257250E+02  0.19999937104E+02 0.  0.
        -12    1    1    2    0    0 -0.43030430939E+02  0.57402635010E+00 -0.56282304701E+01  0.43400742750E+02  0.00000000000E+00 0.  1.
         11    1    3    3    0    0  0.38963264236E+01  0.39440233812E+00  0.20184534528E+01  0.44057992925E+01  0.51100000000E-03 0. -1.
        -11    1    3    3    0    0  0.11767122305E+02  0.81493944773E+01  0.24322265597E-01  0.14313573611E+02  0.51100000000E-03 0.  1.
        -12    1    3    3    0    0  0.27366982211E+02 -0.91178231655E+01  0.35854547517E+01  0.29067884346E+02  0.00000000000E+00 0.  1.
</event>
<event>
 7    1  0.4931104E-009  0.4778727E+02  0.7816164E-02  0.1312668E+00
        -11   -1    0    0    0    0  0.00000000000E+00  0.00000000000E+00  0.45593999997E+02  0.45594000000E+02  0.51100000000E-03 0.  1.
         11   -1    0    0    0    0 -0.00000000000E+00 -0.00000000000E+00 -0.45593999997E+02  0.45594000000E+02  0.51100000000E-03 0. -1.
    9900012    2    1    2    0    0 -0.39514722056E+02  0.62510978758E+01 -0.16826578848E+02  0.47787271440E+02  0.20000001805E+02 0.  0.
        -12    1    1    2    0    0  0.39514722056E+02 -0.62510978758E+01  0.16826578848E+02  0.43400728560E+02  0.00000000000E+00 0.  1.
         11    1    3    3    0    0 -0.74573507716E+01  0.19308993104E+01  0.25710130053E+01  0.81209950629E+01  0.51100000000E-03 0.  1.
        -11    1    3    3    0    0 -0.63805627252E+00 -0.48018168432E+00 -0.44891117084E+01  0.45595848987E+01  0.51100000000E-03 0. -1.
         12    1    3    3    0    0 -0.31419315012E+02  0.48003802497E+01 -0.14908480145E+02  0.35106691479E+02  0.00000000000E+00 0. -1.
</event>
<event>
 7    1  0.4931104E-009  0.4778726E+02  0.7816164E-02  0.1312668E+00
        -11   -1    0    0    0    0  0.00000000000E+00  0.00000000000E+00  0.45593999997E+02  0.45594000000E+02  0.51100000000E-03 0.  1.
         11   -1    0    0    0    0 -0.00000000000E+00 -0.00000000000E+00 -0.45593999997E+02  0.45594000000E+02  0.51100000000E-03 0. -1.
    9900012    2    1    2    0    0  0.37247217741E+02  0.19382426771E+02 -0.10981390181E+02  0.47787255452E+02  0.19999928908E+02 0.  0.
        -12    1    1    2    0    0 -0.37247217741E+02 -0.19382426771E+02  0.10981390181E+02  0.43400744548E+02  0.00000000000E+00 0.  1.
         11    1    3    3    0    0  0.12574687344E+02  0.23160441997E+01 -0.24965429439E+01  0.13027645584E+02  0.51100000000E-03 0.  1.
        -11    1    3    3    0    0 -0.98610555043E+00 -0.12190932467E+01 -0.20848069063E+01  0.26086419069E+01  0.51100000000E-03 0. -1.
         12    1    3    3    0    0  0.25658635948E+02  0.18285475818E+02 -0.64000403308E+01  0.32150967961E+02  0.00000000000E+00 0. -1.
</event>
<event>
 7    1  0.4931104E-009  0.4778727E+02  0.7816164E-02  0.1312668E+00
        -11   -1    0    0    0    0  0.00000000000E+00  0.00000000000E+00  0.45593999997E+02  0.45594000000E+02  0.51100000000E-03 0.  1.
         11   -1    0    0    0    0 -0.00000000000E+00 -0.00000000000E+00 -0.45593999997E+02  0.45594000000E+02  0.51100000000E-03 0. -1.
    9900012    2    1    2    0    0  0.12763093846E+02  0.37024948952E+02 -0.18705075137E+02  0.47787271373E+02  0.20000001500E+02 0.  0.
        -12    1    1    2    0    0 -0.12763093846E+02 -0.37024948952E+02  0.18705075137E+02  0.43400728627E+02  0.00000000000E+00 0.  1.
         11    1    3    3    0    0  0.36478711177E+01  0.20591667258E+02 -0.76976995275E+01  0.22284036942E+02  0.51100000000E-03 0.  1.
        -11    1    3    3    0    0 -0.13557536299E+01  0.78620960767E+01  0.12756193606E+00  0.79791537730E+01  0.51100000000E-03 0. -1.
         12    1    3    3    0    0  0.10470976358E+02  0.85711856172E+01 -0.11134937545E+02  0.17524080658E+02  0.00000000000E+00 0. -1.
</event>
<event>
 7    1  0.4931104E-009  0.4778727E+02  0.7816164E-02  0.1312668E+00
        -11   -1    0    0    0    0  0.00000000000E+00  0.00000000000E+00  0.45593999997E+02  0.45594000000E+02  0.51100000000E-03 0.  1.
         11   -1    0    0    0    0 -0.00000000000E+00 -0.00000000000E+00 -0.45593999997E+02  0.45594000000E+02  0.51100000000E-03 0. -1.
    9900012    2    1    2    0    0  0.38146118937E+02 -0.61490659433E+00  0.20691037096E+02  0.47787268253E+02  0.19999987274E+02 0.  0.
        -12    1    1    2    0    0 -0.38146118937E+02  0.61490659433E+00 -0.20691037096E+02  0.43400731747E+02  0.00000000000E+00 0.  1.
         11    1    3    3    0    0  0.31816366741E+01  0.15008130913E+01  0.22124407209E+00  0.35247980171E+01  0.51100000000E-03 0. -1.
        -11    1    3    3    0    0  0.44370092039E+01  0.11525123325E+00 -0.32811156569E+01  0.55196063028E+01  0.51100000000E-03 0.  1.
         12    1    3    3    0    0  0.30527473059E+02 -0.22309709189E+01  0.23750908681E+02  0.38742863933E+02  0.00000000000E+00 0. -1.
</event>
<event>
 7    1  0.4931104E-009  0.4778727E+02  0.7816164E-02  0.1312668E+00
        -11   -1    0    0    0    0  0.00000000000E+00  0.00000000000E+00  0.45593999997E+02  0.45594000000E+02  0.51100000000E-03 0.  1.
         11   -1    0    0    0    0 -0.00000000000E+00 -0.00000000000E+00 -0.45593999997E+02  0.45594000000E+02  0.51100000000E-03 0. -1.
    9900012    2    1    2    0    0  0.37092888094E+02 -0.19828702384E+02 -0.10703430143E+02  0.47787271870E+02  0.20000003764E+02 0.  0.
        -12    1    1    2    0    0 -0.37092888094E+02  0.19828702384E+02  0.10703430143E+02  0.43400728130E+02  0.00000000000E+00 0.  1.
         11    1    3    3    0    0  0.16451359161E+02 -0.77625515921E+01  0.19573191946E+01  0.18295778861E+02  0.51100000000E-03 0. -1.
        -11    1    3    3    0    0  0.16204786826E+01 -0.11818648477E+01  0.22276161305E+01  0.29975038891E+01  0.51100000000E-03 0.  1.
        -12    1    3    3    0    0  0.19021050251E+02 -0.10884285944E+02 -0.14888365468E+02  0.26493989120E+02  0.00000000000E+00 0.  1.
</event>
<event>
 7    1  0.4931104E-009  0.4778729E+02  0.7816164E-02  0.1312668E+00
        -11   -1    0    0    0    0  0.00000000000E+00  0.00000000000E+00  0.45593999997E+02  0.45594000000E+02  0.51100000000E-03 0.  1.
         11   -1    0    0    0    0 -0.00000000000E+00 -0.00000000000E+00 -0.45593999997E+02  0.45594000000E+02  0.51100000000E-03 0. -1.
    9900012    2    1    2    0    0  0.86428320730E+01 -0.42520278538E+02 -0.97416346688E+00  0.47787290010E+02  0.20000086471E+02 0.  0.
        -12    1    1    2    0    0 -0.86428320730E+01  0.42520278538E+02  0.97416346688E+00  0.43400709990E+02  0.00000000000E+00 0.  1.
         11    1    3    3    0    0 -0.37524681801E+01 -0.88735713325E+01 -0.37591868099E+01  0.10341797299E+02  0.51100000000E-03 0. -1.
        -11    1    3    3    0    0  0.30173430268E+01 -0.11022275276E+02  0.57196623558E+01  0.12779258544E+02  0.51100000000E-03 0.  1.
        -12    1    3    3    0    0  0.93779572263E+01 -0.22624431929E+02 -0.29346390129E+01  0.24666234167E+02  0.00000000000E+00 0.  1.
</event>
<event>
 7    1  0.4931104E-009  0.4778728E+02  0.7816164E-02  0.1312668E+00
        -11   -1    0    0    0    0  0.00000000000E+00  0.00000000000E+00  0.45593999997E+02  0.45594000000E+02  0.51100000000E-03 0. -1.
         11   -1    0    0    0    0 -0.00000000000E+00 -0.00000000000E+00 -0.45593999997E+02  0.45594000000E+02  0.51100000000E-03 0.  1.
    9900012    2    1    2    0    0  0.19388435455E+02  0.33982649998E+02  0.18785371824E+02  0.47787284282E+02  0.20000060354E+02 0.  0.
        -12    1    1    2    0    0 -0.19388435455E+02 -0.33982649998E+02 -0.18785371824E+02  0.43400715718E+02  0.00000000000E+00 0.  1.
         11    1    3    3    0    0  0.15504084873E+02  0.17665288349E+02  0.82476549164E+01  0.24909092157E+02  0.51100000000E-03 0. -1.
        -11    1    3    3    0    0  0.63306666521E+01  0.16034612934E+02  0.10889820493E+02  0.20390545427E+02  0.51100000000E-03 0.  1.
        -12    1    3    3    0    0 -0.24463160707E+01  0.28274871556E+00 -0.35210358583E+00  0.24876466970E+01  0.00000000000E+00 0.  1.
</event>
<event>
 7    1  0.4931104E-009  0.4778729E+02  0.7816164E-02  0.1312668E+00
        -11   -1    0    0    0    0  0.00000000000E+00  0.00000000000E+00  0.45593999997E+02  0.45594000000E+02  0.51100000000E-03 0.  1.
         11   -1    0    0    0    0 -0.00000000000E+00 -0.00000000000E+00 -0.45593999997E+02  0.45594000000E+02  0.51100000000E-03 0. -1.
    9900012    2    1    2    0    0  0.20744709161E+02  0.45145201591E+01 -0.37853635579E+02  0.47787290594E+02  0.20000089132E+02 0.  0.
        -12    1    1    2    0    0 -0.20744709161E+02 -0.45145201591E+01  0.37853635579E+02  0.43400709406E+02  0.00000000000E+00 0.  1.
         11    1    3    3    0    0 -0.67645592298E+00 -0.18982511193E+01 -0.77282916669E+01  0.79867040935E+01  0.51100000000E-03 0. -1.
        -11    1    3    3    0    0  0.18606148841E+01 -0.35332607889E+01 -0.57776799367E+01  0.70233471551E+01  0.51100000000E-03 0.  1.
        -12    1    3    3    0    0  0.19560550200E+02  0.99460320674E+01 -0.24347663975E+02  0.32777239345E+02  0.00000000000E+00 0.  1.
</event>
<event>
 7    1  0.4931104E-009  0.4778727E+02  0.7816164E-02  0.1312668E+00
        -11   -1    0    0    0    0  0.00000000000E+00  0.00000000000E+00  0.45593999997E+02  0.45594000000E+02  0.51100000000E-03 0.  1.
         11   -1    0    0    0    0 -0.00000000000E+00 -0.00000000000E+00 -0.45593999997E+02  0.45594000000E+02  0.51100000000E-03 0. -1.
    9900012    2    1    2    0    0 -0.25831351933E+02 -0.16699159930E+02 -0.30618660427E+02  0.47787273607E+02  0.20000011685E+02 0.  0.
        -12    1    1    2    0    0  0.25831351933E+02  0.16699159930E+02  0.30618660427E+02  0.43400726393E+02  0.00000000000E+00 0.  1.
         11    1    3    3    0    0  0.97284970590E+00  0.35394044155E+00 -0.43232930125E+01  0.44455115700E+01  0.51100000000E-03 0. -1.
        -11    1    3    3    0    0  0.19959154308E+00  0.24630287965E+00  0.11118133093E+01  0.11561275831E+01  0.51100000000E-03 0.  1.
         12    1    3    3    0    0 -0.27003793182E+02 -0.17299403251E+02 -0.27407180724E+02  0.42185634454E+02  0.00000000000E+00 0. -1.
</event>
<event>
 7    1  0.4931104E-009  0.4778727E+02  0.7816164E-02  0.1312668E+00
        -11   -1    0    0    0    0  0.00000000000E+00  0.00000000000E+00  0.45593999997E+02  0.45594000000E+02  0.51100000000E-03 0.  1.
         11   -1    0    0    0    0 -0.00000000000E+00 -0.00000000000E+00 -0.45593999997E+02  0.45594000000E+02  0.51100000000E-03 0. -1.
    9900012    2    1    2    0    0  0.23839731965E+02  0.31626481211E+02 -0.17749818117E+02  0.47787272159E+02  0.20000005080E+02 0.  0.
        -12    1    1    2    0    0 -0.23839731965E+02 -0.31626481211E+02  0.17749818117E+02  0.43400727841E+02  0.00000000000E+00 0.  1.
         11    1    3    3    0    0  0.24336739610E+01  0.47567106994E+01 -0.72682718761E+01  0.90209113704E+01  0.51100000000E-03 0. -1.
        -11    1    3    3    0    0  0.31306736047E+01  0.15445988474E+02 -0.39771585492E+01  0.16254152317E+02  0.51100000000E-03 0.  1.
         12    1    3    3    0    0  0.18275384400E+02  0.11423782037E+02 -0.65043876917E+01  0.22512208471E+02  0.00000000000E+00 0. -1.
</event>
<event>
 7    1  0.4931104E-009  0.4778727E+02  0.7816164E-02  0.1312668E+00
        -11   -1    0    0    0    0  0.00000000000E+00  0.00000000000E+00  0.45593999997E+02  0.45594000000E+02  0.51100000000E-03 0.  1.
         11   -1    0    0    0    0 -0.00000000000E+00 -0.00000000000E+00 -0.45593999997E+02  0.45594000000E+02  0.51100000000E-03 0. -1.
    9900012    2    1    2    0    0 -0.26159450610E+02  0.47529490918E+01 -0.34303296215E+02  0.47787268295E+02  0.19999987466E+02 0.  0.
        -12    1    1    2    0    0  0.26159450610E+02 -0.47529490918E+01  0.34303296215E+02  0.43400731705E+02  0.00000000000E+00 0.  1.
         11    1    3    3    0    0 -0.18121178671E+02  0.30456450747E+01 -0.29378540461E+02  0.34651864455E+02  0.51100000000E-03 0. -1.
        -11    1    3    3    0    0 -0.58397844085E+01  0.25809518415E+01 -0.73578601629E+01  0.97417914565E+01  0.51100000000E-03 0.  1.
        -12    1    3    3    0    0 -0.21984875307E+01 -0.87364782438E+00  0.24331044092E+01  0.33936123835E+01  0.00000000000E+00 0.  1.
</event>
<event>
 7    1  0.4931104E-009  0.4778727E+02  0.7816164E-02  0.1312668E+00
        -11   -1    0    0    0    0  0.00000000000E+00  0.00000000000E+00  0.45593999997E+02  0.45594000000E+02  0.51100000000E-03 0.  1.
         11   -1    0    0    0    0 -0.00000000000E+00 -0.00000000000E+00 -0.45593999997E+02  0.45594000000E+02  0.51100000000E-03 0. -1.
    9900012    2    1    2    0    0 -0.35812956247E+01  0.10957121540E+02 -0.41841831774E+02  0.47787273312E+02  0.20000010339E+02 0.  0.
        -12    1    1    2    0    0  0.35812956247E+01 -0.10957121540E+02  0.41841831774E+02  0.43400726688E+02  0.00000000000E+00 0.  1.
         11    1    3    3    0    0 -0.59969018546E+01  0.19407388920E+01 -0.58105996618E+01  0.85727689804E+01  0.51100000000E-03 0. -1.
        -11    1    3    3    0    0  0.96977970946E+00 -0.22467211892E+01 -0.15144754216E+01  0.28778229359E+01  0.51100000000E-03 0.  1.
         12    1    3    3    0    0  0.14458265205E+01  0.11263103838E+02 -0.34516756691E+02  0.36336681396E+02  0.00000000000E+00 0. -1.
</event>
<event>
 7    1  0.4931104E-009  0.4778727E+02  0.7816164E-02  0.1312668E+00
        -11   -1    0    0    0    0  0.00000000000E+00  0.00000000000E+00  0.45593999997E+02  0.45594000000E+02  0.51100000000E-03 0. -1.
         11   -1    0    0    0    0 -0.00000000000E+00 -0.00000000000E+00 -0.45593999997E+02  0.45594000000E+02  0.51100000000E-03 0.  1.
    9900012    2    1    2    0    0 -0.68516910420E+01  0.40152971938E+01  0.42667966558E+02  0.47787266689E+02  0.19999980142E+02 0.  0.
        -12    1    1    2    0    0  0.68516910420E+01 -0.40152971938E+01 -0.42667966558E+02  0.43400733311E+02  0.00000000000E+00 0.  1.
         11    1    3    3    0    0 -0.46176061443E+01  0.13229193427E+01  0.27542868852E+01  0.55370117029E+01  0.51100000000E-03 0. -1.
        -11    1    3    3    0    0 -0.64485443691E+01 -0.23699901145E+01  0.15324418745E+02  0.16793998563E+02  0.51100000000E-03 0.  1.
         12    1    3    3    0    0  0.42144594713E+01  0.50623679656E+01  0.24589260929E+02  0.25456256423E+02  0.00000000000E+00 0. -1.
</event>
<event>
 7    1  0.4931104E-009  0.4778727E+02  0.7816164E-02  0.1312668E+00
        -11   -1    0    0    0    0  0.00000000000E+00  0.00000000000E+00  0.45593999997E+02  0.45594000000E+02  0.51100000000E-03 0.  1.
         11   -1    0    0    0    0 -0.00000000000E+00 -0.00000000000E+00 -0.45593999997E+02  0.45594000000E+02  0.51100000000E-03 0. -1.
    9900012    2    1    2    0    0  0.37891023172E+02 -0.48129645328E+01 -0.20608951894E+02  0.47787272324E+02  0.20000005835E+02 0.  0.
        -12    1    1    2    0    0 -0.37891023172E+02  0.48129645328E+01  0.20608951894E+02  0.43400727676E+02  0.00000000000E+00 0.  1.
         11    1    3    3    0    0  0.23100523815E+02  0.32878660329E+00 -0.79350846877E+01  0.24427604680E+02  0.51100000000E-03 0. -1.
        -11    1    3    3    0    0  0.35876431684E+01  0.38454382253E+01 -0.35141285105E+01  0.63251622981E+01  0.51100000000E-03 0.  1.
        -12    1    3    3    0    0  0.11202856188E+02 -0.89871893613E+01 -0.91597386963E+01  0.17034505346E+02  0.00000000000E+00 0.  1.
</event>
<event>
 7    1  0.4931104E-009  0.4778727E+02  0.7816164E-02  0.1312668E+00
        -11   -1    0    0    0    0  0.00000000000E+00  0.00000000000E+00  0.45593999997E+02  0.45594000000E+02  0.51100000000E-03 0.  1.
         11   -1    0    0    0    0 -0.00000000000E+00 -0.00000000000E+00 -0.45593999997E+02  0.45594000000E+02  0.51100000000E-03 0. -1.
    9900012    2    1    2    0    0 -0.35661685824E+02  0.12871951759E+02 -0.21122979906E+02  0.47787271227E+02  0.20000000832E+02 0.  0.
        -12    1    1    2    0    0  0.35661685824E+02 -0.12871951759E+02  0.21122979906E+02  0.43400728773E+02  0.00000000000E+00 0.  1.
         11    1    3    3    0    0 -0.19414023016E+02  0.21326852530E+01 -0.11635045102E+02  0.22733827457E+02  0.51100000000E-03 0. -1.
        -11    1    3    3    0    0 -0.12242427354E+02  0.68713560862E+00 -0.38490464192E+01  0.12851627969E+02  0.51100000000E-03 0.  1.
        -12    1    3    3    0    0 -0.40052354544E+01  0.10052130897E+02 -0.56388883853E+01  0.12201815801E+02  0.00000000000E+00 0.  1.
</event>
<event>
 7    1  0.4931104E-009  0.4778727E+02  0.7816164E-02  0.1312668E+00
        -11   -1    0    0    0    0  0.00000000000E+00  0.00000000000E+00  0.45593999997E+02  0.45594000000E+02  0.51100000000E-03 0.  1.
         11   -1    0    0    0    0 -0.00000000000E+00 -0.00000000000E+00 -0.45593999997E+02  0.45594000000E+02  0.51100000000E-03 0. -1.
    9900012    2    1    2    0    0 -0.14030263228E+02 -0.32478662218E+02 -0.25137854643E+02  0.47787268189E+02  0.19999986981E+02 0.  0.
        -12    1    1    2    0    0  0.14030263228E+02  0.32478662218E+02  0.25137854643E+02  0.43400731811E+02  0.00000000000E+00 0.  1.
         11    1    3    3    0    0 -0.91271165014E+01 -0.64070929559E+01 -0.77383270791E+01  0.13573385798E+02  0.51100000000E-03 0. -1.
        -11    1    3    3    0    0 -0.70116088435E+01 -0.21069830399E+02 -0.18220291430E+02  0.28724195927E+02  0.51100000000E-03 0.  1.
        -12    1    3    3    0    0  0.21084621168E+01 -0.50017388624E+01  0.82076386601E+00  0.54896864637E+01  0.00000000000E+00 0.  1.
</event>
<event>
 7    1  0.4931104E-009  0.4778727E+02  0.7816164E-02  0.1312668E+00
        -11   -1    0    0    0    0  0.00000000000E+00  0.00000000000E+00  0.45593999997E+02  0.45594000000E+02  0.51100000000E-03 0. -1.
         11   -1    0    0    0    0 -0.00000000000E+00 -0.00000000000E+00 -0.45593999997E+02  0.45594000000E+02  0.51100000000E-03 0.  1.
    9900012    2    1    2    0    0 -0.10194585292E+02 -0.10992932347E+02  0.40728969343E+02  0.47787273340E+02  0.20000010467E+02 0.  0.
        -12    1    1    2    0    0  0.10194585292E+02  0.10992932347E+02 -0.40728969343E+02  0.43400726660E+02  0.00000000000E+00 0.  1.
         11    1    3    3    0    0 -0.12591964589E+02 -0.16953310186E+01  0.18834336933E+02  0.22719242228E+02  0.51100000000E-03 0. -1.
        -11    1    3    3    0    0 -0.54281026917E+00 -0.35912385865E+01  0.19637923965E+01  0.41289367168E+01  0.51100000000E-03 0.  1.
        -12    1    3    3    0    0  0.29401895663E+01 -0.57063627423E+01  0.19930840014E+02  0.20939094395E+02  0.00000000000E+00 0.  1.
</event>
<event>
 7    1  0.4931104E-009  0.4778727E+02  0.7816164E-02  0.1312668E+00
        -11   -1    0    0    0    0  0.00000000000E+00  0.00000000000E+00  0.45593999997E+02  0.45594000000E+02  0.51100000000E-03 0.  1.
         11   -1    0    0    0    0 -0.00000000000E+00 -0.00000000000E+00 -0.45593999997E+02  0.45594000000E+02  0.51100000000E-03 0. -1.
    9900012    2    1    2    0    0 -0.21536967175E+02  0.36904103838E+02 -0.76071911075E+01  0.47787271991E+02  0.20000004316E+02 0.  0.
        -12    1    1    2    0    0  0.21536967175E+02 -0.36904103838E+02  0.76071911075E+01  0.43400728009E+02  0.00000000000E+00 0.  1.
         11    1    3    3    0    0 -0.96543148561E+01  0.92582446182E+01  0.92361535926E+00  0.13407980994E+02  0.51100000000E-03 0. -1.
        -11    1    3    3    0    0 -0.14668333680E+01 -0.15214038336E+01  0.38965519681E+00  0.21489767770E+01  0.51100000000E-03 0.  1.
         12    1    3    3    0    0 -0.10415818951E+02  0.29167263053E+02 -0.89204616636E+01  0.32230314220E+02  0.00000000000E+00 0. -1.
</event>
<event>
 7    1  0.4931104E-009  0.4778727E+02  0.7816164E-02  0.1312668E+00
        -11   -1    0    0    0    0  0.00000000000E+00  0.00000000000E+00  0.45593999997E+02  0.45594000000E+02  0.51100000000E-03 0.  1.
         11   -1    0    0    0    0 -0.00000000000E+00 -0.00000000000E+00 -0.45593999997E+02  0.45594000000E+02  0.51100000000E-03 0. -1.
    9900012    2    1    2    0    0 -0.32670741910E+02  0.48458445664E+01 -0.28156058919E+02  0.47787271430E+02  0.20000001759E+02 0.  0.
        -12    1    1    2    0    0  0.32670741910E+02 -0.48458445664E+01  0.28156058919E+02  0.43400728570E+02  0.00000000000E+00 0.  1.
         11    1    3    3    0    0 -0.22092968975E+02  0.68515775680E+01 -0.15550433332E+02  0.27872197085E+02  0.51100000000E-03 0. -1.
        -11    1    3    3    0    0 -0.92261643774E+01  0.31880161689E+01 -0.99069157803E+01  0.13908002615E+02  0.51100000000E-03 0.  1.
        -12    1    3    3    0    0 -0.13516085582E+01 -0.51937491705E+01 -0.26987098070E+01  0.60070717295E+01  0.00000000000E+00 0.  1.
</event>
<event>
 7    1  0.4931104E-009  0.4778727E+02  0.7816164E-02  0.1312668E+00
        -11   -1    0    0    0    0  0.00000000000E+00  0.00000000000E+00  0.45593999997E+02  0.45594000000E+02  0.51100000000E-03 0.  1.
         11   -1    0    0    0    0 -0.00000000000E+00 -0.00000000000E+00 -0.45593999997E+02  0.45594000000E+02  0.51100000000E-03 0. -1.
    9900012    2    1    2    0    0 -0.24103749347E+02 -0.68978100089E+01 -0.35426724571E+02  0.47787270406E+02  0.19999997087E+02 0.  0.
        -12    1    1    2    0    0  0.24103749347E+02  0.68978100089E+01  0.35426724571E+02  0.43400729594E+02  0.00000000000E+00 0.  1.
         11    1    3    3    0    0 -0.15878553648E+01  0.89076475596E+00  0.10963867479E+00  0.18239428198E+01  0.51100000000E-03 0.  1.
        -11    1    3    3    0    0 -0.14184616901E+02  0.38290466629E+01 -0.15583426021E+02  0.21417472348E+02  0.51100000000E-03 0. -1.
         12    1    3    3    0    0 -0.83312770812E+01 -0.11617621428E+02 -0.19952937225E+02  0.24545855238E+02  0.00000000000E+00 0. -1.
</event>
<event>
 7    1  0.4931104E-009  0.4778727E+02  0.7816164E-02  0.1312668E+00
        -11   -1    0    0    0    0  0.00000000000E+00  0.00000000000E+00  0.45593999997E+02  0.45594000000E+02  0.51100000000E-03 0. -1.
         11   -1    0    0    0    0 -0.00000000000E+00 -0.00000000000E+00 -0.45593999997E+02  0.45594000000E+02  0.51100000000E-03 0.  1.
    9900012    2    1    2    0    0  0.18317543939E+02 -0.38210405461E+02  0.93838209727E+01  0.47787267316E+02  0.19999983002E+02 0.  0.
        -12    1    1    2    0    0 -0.18317543939E+02  0.38210405461E+02 -0.93838209727E+01  0.43400732684E+02  0.00000000000E+00 0.  1.
         11    1    3    3    0    0  0.80323972645E+01 -0.27218203251E+02  0.79047982021E+01  0.29459053429E+02  0.51100000000E-03 0. -1.
        -11    1    3    3    0    0  0.71287394979E+00 -0.77696779990E+01 -0.11622799474E+01  0.78884079771E+01  0.51100000000E-03 0.  1.
        -12    1    3    3    0    0  0.95722727244E+01 -0.32225242109E+01  0.26413027180E+01  0.10439805910E+02  0.00000000000E+00 0.  1.
</event>
<event>
 7    1  0.4931104E-009  0.4778728E+02  0.7816164E-02  0.1312668E+00
        -11   -1    0    0    0    0  0.00000000000E+00  0.00000000000E+00  0.45593999997E+02  0.45594000000E+02  0.51100000000E-03 0.  1.
         11   -1    0    0    0    0 -0.00000000000E+00 -0.00000000000E+00 -0.45593999997E+02  0.45594000000E+02  0.51100000000E-03 0. -1.
    9900012    2    1    2    0    0  0.42530241930E+02  0.35229265218E+01 -0.78987410651E+01  0.47787278804E+02  0.20000035378E+02 0.  0.
        -12    1    1    2    0    0 -0.42530241930E+02 -0.35229265218E+01  0.78987410651E+01  0.43400721196E+02  0.00000000000E+00 0.  1.
         11    1    3    3    0    0  0.23660942815E+02 -0.57790288329E+01 -0.12784452813E+00  0.24356800563E+02  0.51100000000E-03 0. -1.
        -11    1    3    3    0    0  0.12543358687E+02  0.29243012879E+01 -0.28622388801E+01  0.13193930303E+02  0.51100000000E-03 0.  1.
         12    1    3    3    0    0  0.63259404278E+01  0.63776540668E+01 -0.49086576569E+01  0.10236547938E+02  0.00000000000E+00 0. -1.
</event>
<event>
 7    1  0.4931104E-009  0.4778727E+02  0.7816164E-02  0.1312668E+00
        -11   -1    0    0    0    0  0.00000000000E+00  0.00000000000E+00  0.45593999997E+02  0.45594000000E+02  0.51100000000E-03 0.  1.
         11   -1    0    0    0    0 -0.00000000000E+00 -0.00000000000E+00 -0.45593999997E+02  0.45594000000E+02  0.51100000000E-03 0. -1.
    9900012    2    1    2    0    0  0.58731343399E+01 -0.30492875786E+02 -0.30320193807E+02  0.47787270361E+02  0.19999996886E+02 0.  0.
        -12    1    1    2    0    0 -0.58731343399E+01  0.30492875786E+02  0.30320193807E+02  0.43400729639E+02  0.00000000000E+00 0.  1.
         11    1    3    3    0    0  0.10277522738E+01 -0.34701890458E+01 -0.96131569889E+01  0.10271868102E+02  0.51100000000E-03 0. -1.
        -11    1    3    3    0    0 -0.49825768174E+00 -0.11105207676E+02 -0.17013895000E+02  0.20323545989E+02  0.51100000000E-03 0.  1.
        -12    1    3    3    0    0  0.53436397478E+01 -0.15917479065E+02 -0.36931418178E+01  0.17191856270E+02  0.00000000000E+00 0.  1.
</event>
<event>
 7    1  0.4931104E-009  0.4778727E+02  0.7816164E-02  0.1312668E+00
        -11   -1    0    0    0    0  0.00000000000E+00  0.00000000000E+00  0.45593999997E+02  0.45594000000E+02  0.51100000000E-03 0. -1.
         11   -1    0    0    0    0 -0.00000000000E+00 -0.00000000000E+00 -0.45593999997E+02  0.45594000000E+02  0.51100000000E-03 0.  1.
    9900012    2    1    2    0    0 -0.91369075518E+01  0.18297624352E+02  0.38279721277E+02  0.47787271923E+02  0.20000004007E+02 0.  0.
        -12    1    1    2    0    0  0.91369075518E+01 -0.18297624352E+02 -0.38279721277E+02  0.43400728077E+02  0.00000000000E+00 0.  1.
         11    1    3    3    0    0 -0.33183477134E+01 -0.11854890523E+01  0.17160638344E+02  0.17518685010E+02  0.51100000000E-03 0. -1.
        -11    1    3    3    0    0  0.10607251202E+00  0.22469286889E+01 -0.15500607649E+00  0.22547654103E+01  0.51100000000E-03 0.  1.
        -12    1    3    3    0    0 -0.59246323504E+01  0.17236184715E+02  0.21274089010E+02  0.28013821503E+02  0.00000000000E+00 0.  1.
</event>
<event>
 7    1  0.4931104E-009  0.4778728E+02  0.7816164E-02  0.1312668E+00
        -11   -1    0    0    0    0  0.00000000000E+00  0.00000000000E+00  0.45593999997E+02  0.45594000000E+02  0.51100000000E-03 0. -1.
         11   -1    0    0    0    0 -0.00000000000E+00 -0.00000000000E+00 -0.45593999997E+02  0.45594000000E+02  0.51100000000E-03 0.  1.
    9900012    2    1    2    0    0 -0.16353690458E+02 -0.33869262115E+01  0.40058804202E+02  0.47787282784E+02  0.20000053526E+02 0.  0.
        -12    1    1    2    0    0  0.16353690458E+02  0.33869262115E+01 -0.40058804202E+02  0.43400717216E+02  0.00000000000E+00 0.  1.
         11    1    3    3    0    0  0.23677340382E+01  0.68880508955E-01  0.15093324648E+01  0.28087352582E+01  0.51100000000E-03 0. -1.
        -11    1    3    3    0    0 -0.14159102491E+02  0.12851491392E+00  0.14608787256E+02  0.20344860894E+02  0.51100000000E-03 0.  1.
         12    1    3    3    0    0 -0.45623220048E+01 -0.35843216344E+01  0.23940684481E+02  0.24633686632E+02  0.00000000000E+00 0. -1.
</event>
<event>
 7    1  0.4931104E-009  0.4778727E+02  0.7816164E-02  0.1312668E+00
        -11   -1    0    0    0    0  0.00000000000E+00  0.00000000000E+00  0.45593999997E+02  0.45594000000E+02  0.51100000000E-03 0. -1.
         11   -1    0    0    0    0 -0.00000000000E+00 -0.00000000000E+00 -0.45593999997E+02  0.45594000000E+02  0.51100000000E-03 0.  1.
    9900012    2    1    2    0    0 -0.29084294989E+02 -0.32209375665E+02 -0.53239633358E+00  0.47787267960E+02  0.19999985939E+02 0.  0.
        -12    1    1    2    0    0  0.29084294989E+02  0.32209375665E+02  0.53239633358E+00  0.43400732040E+02  0.00000000000E+00 0.  1.
         11    1    3    3    0    0 -0.60817428442E+01 -0.52968336960E+01 -0.40998928013E+01  0.90472738695E+01  0.51100000000E-03 0. -1.
        -11    1    3    3    0    0 -0.14220810915E+01  0.19231715549E+01 -0.64587911028E+00  0.24775115634E+01  0.51100000000E-03 0.  1.
        -12    1    3    3    0    0 -0.21580471053E+02 -0.28835713524E+02  0.42133755780E+01  0.36262482528E+02  0.00000000000E+00 0.  1.
</event>
<event>
 7    1  0.4931104E-009  0.4778727E+02  0.7816164E-02  0.1312668E+00
        -11   -1    0    0    0    0  0.00000000000E+00  0.00000000000E+00  0.45593999997E+02  0.45594000000E+02  0.51100000000E-03 0.  1.
         11   -1    0    0    0    0 -0.00000000000E+00 -0.00000000000E+00 -0.45593999997E+02  0.45594000000E+02  0.51100000000E-03 0. -1.
    9900012    2    1    2    0    0 -0.73179535993E+01  0.10163710264E+02 -0.41554421599E+02  0.47787269527E+02  0.19999993080E+02 0.  0.
        -12    1    1    2    0    0  0.73179535993E+01 -0.10163710264E+02  0.41554421599E+02  0.43400730473E+02  0.00000000000E+00 0.  1.
         11    1    3    3    0    0  0.30044265879E-01  0.10976715053E+02 -0.20502866108E+02  0.23256325912E+02  0.51100000000E-03 0. -1.
        -11    1    3    3    0    0 -0.60460928815E+00  0.32870668121E+01 -0.12302182092E+02  0.12748099666E+02  0.51100000000E-03 0.  1.
        -12    1    3    3    0    0 -0.67433885770E+01 -0.41000716019E+01 -0.87493733987E+01  0.11782843948E+02  0.00000000000E+00 0.  1.
</event>
<event>
 7    1  0.4931104E-009  0.4778728E+02  0.7816164E-02  0.1312668E+00
        -11   -1    0    0    0    0  0.00000000000E+00  0.00000000000E+00  0.45593999997E+02  0.45594000000E+02  0.51100000000E-03 0.  1.
         11   -1    0    0    0    0 -0.00000000000E+00 -0.00000000000E+00 -0.45593999997E+02  0.45594000000E+02  0.51100000000E-03 0. -1.
    9900012    2    1    2    0    0 -0.51028896789E+01 -0.10629050990E+02 -0.41768489272E+02  0.47787275304E+02  0.20000019422E+02 0.  0.
        -12    1    1    2    0    0  0.51028896789E+01  0.10629050990E+02  0.41768489272E+02  0.43400724696E+02  0.00000000000E+00 0.  1.
         11    1    3    3    0    0 -0.22315652455E+01 -0.99930117830E+01 -0.39364156349E+02  0.40674033157E+02  0.51100000000E-03 0. -1.
        -11    1    3    3    0    0 -0.77772012145E+00  0.23700277996E+01 -0.23832629862E+01  0.34499018944E+01  0.51100000000E-03 0.  1.
        -12    1    3    3    0    0 -0.20936043119E+01 -0.30060670069E+01 -0.21069936964E-01  0.36633402527E+01  0.00000000000E+00 0.  1.
</event>
<event>
 7    1  0.4931104E-009  0.4778728E+02  0.7816164E-02  0.1312668E+00
        -11   -1    0    0    0    0  0.00000000000E+00  0.00000000000E+00  0.45593999997E+02  0.45594000000E+02  0.51100000000E-03 0.  1.
         11   -1    0    0    0    0 -0.00000000000E+00 -0.00000000000E+00 -0.45593999997E+02  0.45594000000E+02  0.51100000000E-03 0. -1.
    9900012    2    1    2    0    0 -0.36501623449E+02 -0.15737158037E+02 -0.17423992773E+02  0.47787283627E+02  0.20000057369E+02 0.  0.
        -12    1    1    2    0    0  0.36501623449E+02  0.15737158037E+02  0.17423992773E+02  0.43400716373E+02  0.00000000000E+00 0.  1.
         11    1    3    3    0    0 -0.32929340434E+02 -0.16398529285E+02 -0.16755048341E+02  0.40422578707E+02  0.51100000000E-03 0. -1.
        -11    1    3    3    0    0 -0.53942241634E+01  0.91907374743E+00 -0.25073383211E+00  0.54777019446E+01  0.51100000000E-03 0.  1.
        -12    1    3    3    0    0  0.18219411478E+01 -0.25770249949E+00 -0.41821059940E+00  0.18870029755E+01  0.00000000000E+00 0.  1.
</event>
<event>
 7    1  0.4931104E-009  0.4778726E+02  0.7816164E-02  0.1312668E+00
        -11   -1    0    0    0    0  0.00000000000E+00  0.00000000000E+00  0.45593999997E+02  0.45594000000E+02  0.51100000000E-03 0.  1.
         11   -1    0    0    0    0 -0.00000000000E+00 -0.00000000000E+00 -0.45593999997E+02  0.45594000000E+02  0.51100000000E-03 0. -1.
    9900012    2    1    2    0    0 -0.21493792610E+02  0.20790418259E+02 -0.31454717623E+02  0.47787264143E+02  0.19999968534E+02 0.  0.
        -12    1    1    2    0    0  0.21493792610E+02 -0.20790418259E+02  0.31454717623E+02  0.43400735857E+02  0.00000000000E+00 0.  1.
         11    1    3    3    0    0 -0.14494203212E+02  0.59687735636E+01 -0.15087199907E+02  0.21756189600E+02  0.51100000000E-03 0.  1.
        -11    1    3    3    0    0 -0.66475188036E+01  0.37384272545E+01 -0.20045642840E+01  0.78856593137E+01  0.51100000000E-03 0. -1.
         12    1    3    3    0    0 -0.35207059426E+00  0.11083217441E+02 -0.14362953432E+02  0.18145415229E+02  0.00000000000E+00 0. -1.
</event>
<event>
 7    1  0.4931104E-009  0.4778727E+02  0.7816164E-02  0.1312668E+00
        -11   -1    0    0    0    0  0.00000000000E+00  0.00000000000E+00  0.45593999997E+02  0.45594000000E+02  0.51100000000E-03 0. -1.
         11   -1    0    0    0    0 -0.00000000000E+00 -0.00000000000E+00 -0.45593999997E+02  0.45594000000E+02  0.51100000000E-03 0.  1.
    9900012    2    1    2    0    0 -0.27950049745E+02  0.31348493524E+02 -0.10940284541E+02  0.47787272439E+02  0.20000006359E+02 0.  0.
        -12    1    1    2    0    0  0.27950049745E+02 -0.31348493524E+02  0.10940284541E+02  0.43400727561E+02  0.00000000000E+00 0.  1.
         11    1    3    3    0    0 -0.35136937197E+01  0.19080196041E+01 -0.31762914566E+01  0.51064087227E+01  0.51100000000E-03 0. -1.
        -11    1    3    3    0    0 -0.13553673662E+02  0.40509327483E+01 -0.46074826790E+01  0.14877534163E+02  0.51100000000E-03 0.  1.
         12    1    3    3    0    0 -0.10882682364E+02  0.25389541172E+02 -0.31565104050E+01  0.27803329554E+02  0.00000000000E+00 0. -1.
</event>
<event>
 7    1  0.4931104E-009  0.4778727E+02  0.7816164E-02  0.1312668E+00
        -11   -1    0    0    0    0  0.00000000000E+00  0.00000000000E+00  0.45593999997E+02  0.45594000000E+02  0.51100000000E-03 0.  1.
         11   -1    0    0    0    0 -0.00000000000E+00 -0.00000000000E+00 -0.45593999997E+02  0.45594000000E+02  0.51100000000E-03 0. -1.
    9900012    2    1    2    0    0 -0.20082851825E+02 -0.21018620983E+01 -0.38417238322E+02  0.47787274637E+02  0.20000016380E+02 0.  0.
        -12    1    1    2    0    0  0.20082851825E+02  0.21018620983E+01  0.38417238322E+02  0.43400725363E+02  0.00000000000E+00 0.  1.
         11    1    3    3    0    0 -0.32391221310E+00 -0.61677151140E+01 -0.12536663136E+02  0.13975462486E+02  0.51100000000E-03 0. -1.
        -11    1    3    3    0    0  0.41371963017E+00 -0.16964235925E+00  0.26375753489E+00  0.51914425815E+00  0.51100000000E-03 0.  1.
        -12    1    3    3    0    0 -0.20172659243E+02  0.42354953749E+01 -0.26144332721E+02  0.33292667893E+02  0.00000000000E+00 0.  1.
</event>
<event>
 7    1  0.4931104E-009  0.4778727E+02  0.7816164E-02  0.1312668E+00
        -11   -1    0    0    0    0  0.00000000000E+00  0.00000000000E+00  0.45593999997E+02  0.45594000000E+02  0.51100000000E-03 0.  1.
         11   -1    0    0    0    0 -0.00000000000E+00 -0.00000000000E+00 -0.45593999997E+02  0.45594000000E+02  0.51100000000E-03 0. -1.
    9900012    2    1    2    0    0  0.18354386827E+02 -0.10105228656E+02 -0.38008213544E+02  0.47787268914E+02  0.19999990285E+02 0.  0.
        -12    1    1    2    0    0 -0.18354386827E+02  0.10105228656E+02  0.38008213544E+02  0.43400731086E+02  0.00000000000E+00 0.  1.
         11    1    3    3    0    0  0.86573598824E+01 -0.99942714896E+01 -0.63628505472E+01  0.14673827384E+02  0.51100000000E-03 0. -1.
        -11    1    3    3    0    0  0.16988088544E+01  0.14431471606E+00 -0.44600116419E+01  0.47747756354E+01  0.51100000000E-03 0.  1.
         12    1    3    3    0    0  0.79982180907E+01 -0.25527188202E+00 -0.27185351355E+02  0.28338665894E+02  0.00000000000E+00 0. -1.
</event>
<event>
 7    1  0.4931104E-009  0.4778728E+02  0.7816164E-02  0.1312668E+00
        -11   -1    0    0    0    0  0.00000000000E+00  0.00000000000E+00  0.45593999997E+02  0.45594000000E+02  0.51100000000E-03 0. -1.
         11   -1    0    0    0    0 -0.00000000000E+00 -0.00000000000E+00 -0.45593999997E+02  0.45594000000E+02  0.51100000000E-03 0.  1.
    9900012    2    1    2    0    0 -0.12610928721E+02 -0.19791772894E+01  0.41480962166E+02  0.47787275488E+02  0.20000020259E+02 0.  0.
        -12    1    1    2    0    0  0.12610928721E+02  0.19791772894E+01 -0.41480962166E+02  0.43400724512E+02  0.00000000000E+00 0.  1.
         11    1    3    3    0    0 -0.36204651155E+01 -0.18022885206E+00  0.10267715442E+02  0.10888812182E+02  0.51100000000E-03 0. -1.
        -11    1    3    3    0    0  0.34815168145E+01 -0.48072010214E+01  0.51901803811E+01  0.78846758741E+01  0.51100000000E-03 0.  1.
        -12    1    3    3    0    0 -0.12471980420E+02  0.30082525841E+01  0.26023066343E+02  0.29013787431E+02  0.00000000000E+00 0.  1.
</event>
<event>
 7    1  0.4931104E-009  0.4778727E+02  0.7816164E-02  0.1312668E+00
        -11   -1    0    0    0    0  0.00000000000E+00  0.00000000000E+00  0.45593999997E+02  0.45594000000E+02  0.51100000000E-03 0. -1.
         11   -1    0    0    0    0 -0.00000000000E+00 -0.00000000000E+00 -0.45593999997E+02  0.45594000000E+02  0.51100000000E-03 0.  1.
    9900012    2    1    2    0    0  0.70281770321E+01  0.42711063714E+02  0.31611737643E+01  0.47787271256E+02  0.20000000963E+02 0.  0.
        -12    1    1    2    0    0 -0.70281770321E+01 -0.42711063714E+02 -0.31611737643E+01  0.43400728744E+02  0.00000000000E+00 0.  1.
         11    1    3    3    0    0  0.46390627882E+01  0.31169880492E+02  0.71898325966E+01  0.32322995629E+02  0.51100000000E-03 0. -1.
        -11    1    3    3    0    0  0.57695141977E+01  0.90438389399E+01 -0.28900375382E+01  0.11109934027E+02  0.51100000000E-03 0.  1.
        -12    1    3    3    0    0 -0.33803999538E+01  0.24973442823E+01 -0.11386212941E+01  0.43543415993E+01  0.00000000000E+00 0.  1.
</event>
<event>
 7    1  0.4931104E-009  0.4778727E+02  0.7816164E-02  0.1312668E+00
        -11   -1    0    0    0    0  0.00000000000E+00  0.00000000000E+00  0.45593999997E+02  0.45594000000E+02  0.51100000000E-03 0.  1.
         11   -1    0    0    0    0 -0.00000000000E+00 -0.00000000000E+00 -0.45593999997E+02  0.45594000000E+02  0.51100000000E-03 0. -1.
    9900012    2    1    2    0    0 -0.15568380104E+02  0.36824201488E+02 -0.16888659750E+02  0.47787273019E+02  0.20000009004E+02 0.  0.
        -12    1    1    2    0    0  0.15568380104E+02 -0.36824201488E+02  0.16888659750E+02  0.43400726981E+02  0.00000000000E+00 0.  1.
         11    1    3    3    0    0 -0.39049504696E+01  0.14247893744E+02 -0.91556025259E+01  0.17380338667E+02  0.51100000000E-03 0. -1.
        -11    1    3    3    0    0 -0.70247723638E+01  0.22240169929E+02 -0.25800466207E+01  0.23465490109E+02  0.51100000000E-03 0.  1.
         12    1    3    3    0    0 -0.46386572702E+01  0.33613781561E+00 -0.51530106037E+01  0.69414442433E+01  0.00000000000E+00 0. -1.
</event>
<event>
 7    1  0.4931104E-009  0.4778727E+02  0.7816164E-02  0.1312668E+00
        -11   -1    0    0    0    0  0.00000000000E+00  0.00000000000E+00  0.45593999997E+02  0.45594000000E+02  0.51100000000E-03 0.  1.
         11   -1    0    0    0    0 -0.00000000000E+00 -0.00000000000E+00 -0.45593999997E+02  0.45594000000E+02  0.51100000000E-03 0. -1.
    9900012    2    1    2    0    0 -0.30021334496E+02 -0.13280871994E+02 -0.28389451579E+02  0.47787273660E+02  0.20000011927E+02 0.  0.
        -12    1    1    2    0    0  0.30021334496E+02  0.13280871994E+02  0.28389451579E+02  0.43400726340E+02  0.00000000000E+00 0.  1.
         11    1    3    3    0    0 -0.27295749825E+01 -0.44386567381E+01 -0.62235110312E+00  0.52478161535E+01  0.51100000000E-03 0. -1.
        -11    1    3    3    0    0  0.25305411286E+00 -0.57852782737E+00 -0.70943604407E+01  0.71224069776E+01  0.51100000000E-03 0.  1.
        -12    1    3    3    0    0 -0.27544813627E+02 -0.82636874282E+01 -0.20672740035E+02  0.35417050529E+02  0.00000000000E+00 0.  1.
</event>
<event>
 7    1  0.4931104E-009  0.4778727E+02  0.7816164E-02  0.1312668E+00
        -11   -1    0    0    0    0  0.00000000000E+00  0.00000000000E+00  0.45593999997E+02  0.45594000000E+02  0.51100000000E-03 0.  1.
         11   -1    0    0    0    0 -0.00000000000E+00 -0.00000000000E+00 -0.45593999997E+02  0.45594000000E+02  0.51100000000E-03 0. -1.
    9900012    2    1    2    0    0 -0.13668196133E+02 -0.19609636260E+02 -0.36225212623E+02  0.47787269023E+02  0.19999990784E+02 0.  0.
        -12    1    1    2    0    0  0.13668196133E+02  0.19609636260E+02  0.36225212623E+02  0.43400730977E+02  0.00000000000E+00 0.  1.
         11    1    3    3    0    0 -0.80169374366E+01 -0.11511508374E+02 -0.53243547146E+01  0.15004494803E+02  0.51100000000E-03 0. -1.
        -11    1    3    3    0    0  0.85631019821E+00 -0.91943515276E+00 -0.33631366373E+01  0.35901694191E+01  0.51100000000E-03 0.  1.
        -12    1    3    3    0    0 -0.65075688943E+01 -0.71786927329E+01 -0.27537721271E+02  0.29192604801E+02  0.00000000000E+00 0.  1.
</event>
<event>
 7    1  0.4931104E-009  0.4778729E+02  0.7816164E-02  0.1312668E+00
        -11   -1    0    0    0    0  0.00000000000E+00  0.00000000000E+00  0.45593999997E+02  0.45594000000E+02  0.51100000000E-03 0.  1.
         11   -1    0    0    0    0 -0.00000000000E+00 -0.00000000000E+00 -0.45593999997E+02  0.45594000000E+02  0.51100000000E-03 0. -1.
    9900012    2    1    2    0    0 -0.79173845329E+01 -0.98343458975E+01 -0.41523757093E+02  0.47787288713E+02  0.20000080558E+02 0.  0.
        -12    1    1    2    0    0  0.79173845329E+01  0.98343458975E+01  0.41523757093E+02  0.43400711287E+02  0.00000000000E+00 0.  1.
         11    1    3    3    0    0 -0.31476940057E+01 -0.62162552277E+00 -0.11034892020E+02  0.11491877045E+02  0.51100000000E-03 0. -1.
        -11    1    3    3    0    0 -0.74081969794E+01 -0.42319540697E+01 -0.43901960628E+01  0.95950320200E+01  0.51100000000E-03 0.  1.
        -12    1    3    3    0    0  0.26385064522E+01 -0.49807663050E+01 -0.26098669010E+02  0.26700379648E+02  0.00000000000E+00 0.  1.
</event>
<event>
 7    1  0.4931104E-009  0.4778727E+02  0.7816164E-02  0.1312668E+00
        -11   -1    0    0    0    0  0.00000000000E+00  0.00000000000E+00  0.45593999997E+02  0.45594000000E+02  0.51100000000E-03 0.  1.
         11   -1    0    0    0    0 -0.00000000000E+00 -0.00000000000E+00 -0.45593999997E+02  0.45594000000E+02  0.51100000000E-03 0. -1.
    9900012    2    1    2    0    0 -0.25947517557E+02 -0.31910265477E+02 -0.13859452557E+02  0.47787272640E+02  0.20000007275E+02 0.  0.
        -12    1    1    2    0    0  0.25947517557E+02  0.31910265477E+02  0.13859452557E+02  0.43400727360E+02  0.00000000000E+00 0.  1.
         11    1    3    3    0    0 -0.59841181601E+01 -0.12442471244E+02  0.19588649016E+01  0.13944960121E+02  0.51100000000E-03 0. -1.
        -11    1    3    3    0    0 -0.17289015911E+01 -0.84237898763E+01 -0.44752522497E+01  0.96941848317E+01  0.51100000000E-03 0.  1.
        -12    1    3    3    0    0 -0.18234497806E+02 -0.11044004356E+02 -0.11343065208E+02  0.24148127687E+02  0.00000000000E+00 0.  1.
</event>
<event>
 7    1  0.4931104E-009  0.4778727E+02  0.7816164E-02  0.1312668E+00
        -11   -1    0    0    0    0  0.00000000000E+00  0.00000000000E+00  0.45593999997E+02  0.45594000000E+02  0.51100000000E-03 0. -1.
         11   -1    0    0    0    0 -0.00000000000E+00 -0.00000000000E+00 -0.45593999997E+02  0.45594000000E+02  0.51100000000E-03 0.  1.
    9900012    2    1    2    0    0 -0.37485772394E+02 -0.17483054229E+02  0.13144693552E+02  0.47787270908E+02  0.19999999378E+02 0.  0.
        -12    1    1    2    0    0  0.37485772394E+02  0.17483054229E+02 -0.13144693552E+02  0.43400729092E+02  0.00000000000E+00 0.  1.
         11    1    3    3    0    0 -0.18373568520E+02 -0.36392293691E+01  0.33115704441E+01  0.19021001804E+02  0.51100000000E-03 0. -1.
        -11    1    3    3    0    0 -0.13172922493E+02 -0.23280621745E+01  0.17411815651E+01  0.13489902668E+02  0.51100000000E-03 0.  1.
        -12    1    3    3    0    0 -0.59392813811E+01 -0.11515762686E+02  0.80919415426E+01  0.15276366436E+02  0.00000000000E+00 0.  1.
</event>
<event>
 7    1  0.4931104E-009  0.4778727E+02  0.7816164E-02  0.1312668E+00
        -11   -1    0    0    0    0  0.00000000000E+00  0.00000000000E+00  0.45593999997E+02  0.45594000000E+02  0.51100000000E-03 0.  1.
         11   -1    0    0    0    0 -0.00000000000E+00 -0.00000000000E+00 -0.45593999997E+02  0.45594000000E+02  0.51100000000E-03 0. -1.
    9900012    2    1    2    0    0 -0.31049607268E+02 -0.18437995913E+02 -0.24074577336E+02  0.47787273293E+02  0.20000010254E+02 0.  0.
        -12    1    1    2    0    0  0.31049607268E+02  0.18437995913E+02  0.24074577336E+02  0.43400726707E+02  0.00000000000E+00 0.  1.
         11    1    3    3    0    0 -0.28426594517E+02 -0.11865090487E+02 -0.16814984916E+02  0.35094093037E+02  0.51100000000E-03 0. -1.
        -11    1    3    3    0    0 -0.42926834364E+01 -0.55702604047E+01 -0.79618057746E+01  0.10622866069E+02  0.51100000000E-03 0.  1.
         12    1    3    3    0    0  0.16696706861E+01 -0.10026450209E+01  0.70221335480E+00  0.20703141872E+01  0.00000000000E+00 0. -1.
</event>
<event>
 7    1  0.4931104E-009  0.4778727E+02  0.7816164E-02  0.1312668E+00
        -11   -1    0    0    0    0  0.00000000000E+00  0.00000000000E+00  0.45593999997E+02  0.45594000000E+02  0.51100000000E-03 0.  1.
         11   -1    0    0    0    0 -0.00000000000E+00 -0.00000000000E+00 -0.45593999997E+02  0.45594000000E+02  0.51100000000E-03 0. -1.
    9900012    2    1    2    0    0  0.14007260524E+02  0.33277334384E+02 -0.24084001307E+02  0.47787269015E+02  0.19999990747E+02 0.  0.
        -12    1    1    2    0    0 -0.14007260524E+02 -0.33277334384E+02  0.24084001307E+02  0.43400730985E+02  0.00000000000E+00 0.  1.
         11    1    3    3    0    0  0.65605693419E+01  0.18478869290E+02 -0.14584491009E+02  0.24438024850E+02  0.51100000000E-03 0. -1.
        -11    1    3    3    0    0  0.49757502201E+01  0.11915470081E+02 -0.12899877382E+02  0.18252215050E+02  0.51100000000E-03 0.  1.
        -12    1    3    3    0    0  0.24709409623E+01  0.28829950129E+01  0.34003670845E+01  0.50970291143E+01  0.00000000000E+00 0.  1.
</event>
<event>
 7    1  0.4931104E-009  0.4778727E+02  0.7816164E-02  0.1312668E+00
        -11   -1    0    0    0    0  0.00000000000E+00  0.00000000000E+00  0.45593999997E+02  0.45594000000E+02  0.51100000000E-03 0.  1.
         11   -1    0    0    0    0 -0.00000000000E+00 -0.00000000000E+00 -0.45593999997E+02  0.45594000000E+02  0.51100000000E-03 0. -1.
    9900012    2    1    2    0    0 -0.42846583821E+02  0.65023232522E+01  0.23479854926E+01  0.47787274330E+02  0.20000014978E+02 0.  0.
        -12    1    1    2    0    0  0.42846583821E+02 -0.65023232522E+01 -0.23479854926E+01  0.43400725670E+02  0.00000000000E+00 0.  1.
         11    1    3    3    0    0 -0.98431869013E+01  0.16245582645E+01 -0.29644489339E+01  0.10407472108E+02  0.51100000000E-03 0. -1.
        -11    1    3    3    0    0 -0.26363077068E+02  0.83790945220E+01  0.89008449317E+01  0.29059354746E+02  0.51100000000E-03 0.  1.
        -12    1    3    3    0    0 -0.66403198525E+01 -0.35013295343E+01 -0.35884105051E+01  0.83204474762E+01  0.00000000000E+00 0.  1.
</event>
<event>
 7    1  0.4931104E-009  0.4778727E+02  0.7816164E-02  0.1312668E+00
        -11   -1    0    0    0    0  0.00000000000E+00  0.00000000000E+00  0.45593999997E+02  0.45594000000E+02  0.51100000000E-03 0. -1.
         11   -1    0    0    0    0 -0.00000000000E+00 -0.00000000000E+00 -0.45593999997E+02  0.45594000000E+02  0.51100000000E-03 0.  1.
    9900012    2    1    2    0    0 -0.26361547199E+02  0.31478790695E+02  0.14063361651E+02  0.47787267572E+02  0.19999984169E+02 0.  0.
        -12    1    1    2    0    0  0.26361547199E+02 -0.31478790695E+02 -0.14063361651E+02  0.43400732428E+02  0.00000000000E+00 0.  1.
         11    1    3    3    0    0 -0.33327334360E+01  0.47854031332E+00  0.24496011645E+01  0.41637313930E+01  0.51100000000E-03 0. -1.
        -11    1    3    3    0    0 -0.79552416787E+01  0.15247763019E+01 -0.10708579605E+01  0.81705293568E+01  0.51100000000E-03 0.  1.
         12    1    3    3    0    0 -0.15073572084E+02  0.29475474080E+02  0.12684618447E+02  0.35453006822E+02  0.00000000000E+00 0. -1.
</event>
<event>
 7    1  0.4931104E-009  0.4778728E+02  0.7816164E-02  0.1312668E+00
        -11   -1    0    0    0    0  0.00000000000E+00  0.00000000000E+00  0.45593999997E+02  0.45594000000E+02  0.51100000000E-03 0. -1.
         11   -1    0    0    0    0 -0.00000000000E+00 -0.00000000000E+00 -0.45593999997E+02  0.45594000000E+02  0.51100000000E-03 0.  1.
    9900012    2    1    2    0    0  0.28461325723E+02 -0.32580090351E+02 -0.34804004231E+01  0.47787279542E+02  0.20000038743E+02 0.  0.
        -12    1    1    2    0    0 -0.28461325723E+02  0.32580090351E+02  0.34804004231E+01  0.43400720458E+02  0.00000000000E+00 0.  1.
         11    1    3    3    0    0  0.96854297929E+01 -0.14991961000E+02 -0.99006164827E+01  0.20410503470E+02  0.51100000000E-03 0. -1.
        -11    1    3    3    0    0  0.49412306750E+01 -0.12694576469E+01  0.23651273003E+00  0.51071735660E+01  0.51100000000E-03 0.  1.
         12    1    3    3    0    0  0.13834665255E+02 -0.16318671703E+02  0.61837033295E+01  0.22269602506E+02  0.00000000000E+00 0. -1.
</event>
<event>
 7    1  0.4931104E-009  0.4778727E+02  0.7816164E-02  0.1312668E+00
        -11   -1    0    0    0    0  0.00000000000E+00  0.00000000000E+00  0.45593999997E+02  0.45594000000E+02  0.51100000000E-03 0.  1.
         11   -1    0    0    0    0 -0.00000000000E+00 -0.00000000000E+00 -0.45593999997E+02  0.45594000000E+02  0.51100000000E-03 0. -1.
    9900012    2    1    2    0    0  0.32681564547E+02  0.28306054575E+02  0.37823119120E+01  0.47787271086E+02  0.20000000189E+02 0.  0.
        -12    1    1    2    0    0 -0.32681564547E+02 -0.28306054575E+02 -0.37823119120E+01  0.43400728914E+02  0.00000000000E+00 0.  1.
         11    1    3    3    0    0  0.40744160851E+01  0.54486674527E+00  0.31307765276E+01  0.51671566776E+01  0.51100000000E-03 0. -1.
        -11    1    3    3    0    0  0.31609170282E+01  0.12501274325E+02  0.11397661446E+01  0.12944972898E+02  0.51100000000E-03 0.  1.
        -12    1    3    3    0    0  0.25446231434E+02  0.15259913505E+02 -0.48823076025E+00  0.29675141510E+02  0.00000000000E+00 0.  1.
</event>
<event>
 7    1  0.4931104E-009  0.4778728E+02  0.7816164E-02  0.1312668E+00
        -11   -1    0    0    0    0  0.00000000000E+00  0.00000000000E+00  0.45593999997E+02  0.45594000000E+02  0.51100000000E-03 0. -1.
         11   -1    0    0    0    0 -0.00000000000E+00 -0.00000000000E+00 -0.45593999997E+02  0.45594000000E+02  0.51100000000E-03 0.  1.
    9900012    2    1    2    0    0  0.19696377032E+01  0.15644103022E+02  0.40435196961E+02  0.47787278977E+02  0.20000036169E+02 0.  0.
        -12    1    1    2    0    0 -0.19696377032E+01 -0.15644103022E+02 -0.40435196961E+02  0.43400721023E+02  0.00000000000E+00 0.  1.
         11    1    3    3    0    0 -0.33660486598E+01  0.90515551125E+01  0.12918684820E+02  0.16129270017E+02  0.51100000000E-03 0. -1.
        -11    1    3    3    0    0 -0.37559496252E+01  0.55565468874E+00  0.30580150877E+01  0.48751785873E+01  0.51100000000E-03 0.  1.
         12    1    3    3    0    0  0.90916359883E+01  0.60368932204E+01  0.24458497053E+02  0.26782830373E+02  0.00000000000E+00 0. -1.
</event>
<event>
 7    1  0.4931104E-009  0.4778726E+02  0.7816164E-02  0.1312668E+00
        -11   -1    0    0    0    0  0.00000000000E+00  0.00000000000E+00  0.45593999997E+02  0.45594000000E+02  0.51100000000E-03 0.  1.
         11   -1    0    0    0    0 -0.00000000000E+00 -0.00000000000E+00 -0.45593999997E+02  0.45594000000E+02  0.51100000000E-03 0. -1.
    9900012    2    1    2    0    0  0.84621972627E+01  0.14101125701E+02 -0.40164330587E+02  0.47787262909E+02  0.19999962908E+02 0.  0.
        -12    1    1    2    0    0 -0.84621972627E+01 -0.14101125701E+02  0.40164330587E+02  0.43400737091E+02  0.00000000000E+00 0.  1.
         11    1    3    3    0    0  0.49520157008E+01  0.57370676167E+01 -0.19310877874E+02  0.20744792331E+02  0.51100000000E-03 0. -1.
        -11    1    3    3    0    0 -0.97439827567E+00  0.18374262442E+01 -0.18728269520E+02  0.18843398491E+02  0.51100000000E-03 0.  1.
        -12    1    3    3    0    0  0.44845798376E+01  0.65266318401E+01 -0.21251831931E+01  0.81990720878E+01  0.00000000000E+00 0.  1.
</event>
<event>
 7    1  0.4931104E-009  0.4778727E+02  0.7816164E-02  0.1312668E+00
        -11   -1    0    0    0    0  0.00000000000E+00  0.00000000000E+00  0.45593999997E+02  0.45594000000E+02  0.51100000000E-03 0. -1.
         11   -1    0    0    0    0 -0.00000000000E+00 -0.00000000000E+00 -0.45593999997E+02  0.45594000000E+02  0.51100000000E-03 0.  1.
    9900012    2    1    2    0    0  0.38603328689E+01  0.34918668367E+02  0.25483480824E+02  0.47787269991E+02  0.19999995197E+02 0.  0.
        -12    1    1    2    0    0 -0.38603328689E+01 -0.34918668367E+02 -0.25483480824E+02  0.43400730009E+02  0.00000000000E+00 0.  1.
         11    1    3    3    0    0 -0.21404682420E+01  0.45431797100E+01  0.29801233917E+01  0.58397963889E+01  0.51100000000E-03 0.  1.
        -11    1    3    3    0    0  0.19533114077E+01  0.26824803342E+02  0.24324276379E+02  0.36263699775E+02  0.51100000000E-03 0. -1.
        -12    1    3    3    0    0  0.40474897031E+01  0.35506853151E+01 -0.18209189461E+01  0.56837738266E+01  0.00000000000E+00 0.  1.
</event>
<event>
 7    1  0.4931104E-009  0.4778728E+02  0.7816164E-02  0.1312668E+00
        -11   -1    0    0    0    0  0.00000000000E+00  0.00000000000E+00  0.45593999997E+02  0.45594000000E+02  0.51100000000E-03 0. -1.
         11   -1    0    0    0    0 -0.00000000000E+00 -0.00000000000E+00 -0.45593999997E+02  0.45594000000E+02  0.51100000000E-03 0.  1.
    9900012    2    1    2    0    0  0.62747566227E+01 -0.33041891505E+02  0.27431434195E+02  0.47787277115E+02  0.20000027680E+02 0.  0.
        -12    1    1    2    0    0 -0.62747566227E+01  0.33041891505E+02 -0.27431434195E+02  0.43400722885E+02  0.00000000000E+00 0.  1.
         11    1    3    3    0    0  0.51879134377E+01 -0.98800293176E+01  0.13112076825E+01  0.11236044277E+02  0.51100000000E-03 0. -1.
        -11    1    3    3    0    0 -0.20717643099E+01 -0.10320239729E+02  0.50501914925E+01  0.11674929969E+02  0.51100000000E-03 0.  1.
        -12    1    3    3    0    0  0.31586074949E+01 -0.12841622459E+02  0.21070035020E+02  0.24876302869E+02  0.00000000000E+00 0.  1.
</event>
<event>
 7    1  0.4931104E-009  0.4778725E+02  0.7816164E-02  0.1312668E+00
        -11   -1    0    0    0    0  0.00000000000E+00  0.00000000000E+00  0.45593999997E+02  0.45594000000E+02  0.51100000000E-03 0. -1.
         11   -1    0    0    0    0 -0.00000000000E+00 -0.00000000000E+00 -0.45593999997E+02  0.45594000000E+02  0.51100000000E-03 0.  1.
    9900012    2    1    2    0    0 -0.12495928414E+02 -0.22809337847E+02  0.34744946390E+02  0.47787246324E+02  0.19999887290E+02 0.  0.
        -12    1    1    2    0    0  0.12495928414E+02  0.22809337847E+02 -0.34744946390E+02  0.43400753676E+02  0.00000000000E+00 0.  1.
         11    1    3    3    0    0  0.25844586525E+00 -0.61387753948E+01  0.19874066109E+02  0.20802160022E+02  0.51100000000E-03 0. -1.
        -11    1    3    3    0    0 -0.23906178358E+00 -0.38625956503E+01  0.26960511640E+00  0.38793662980E+01  0.51100000000E-03 0.  1.
         12    1    3    3    0    0 -0.12515312496E+02 -0.12807966802E+02  0.14601275165E+02  0.23105720005E+02  0.00000000000E+00 0. -1.
</event>
<event>
 7    1  0.4931104E-009  0.4778727E+02  0.7816164E-02  0.1312668E+00
        -11   -1    0    0    0    0  0.00000000000E+00  0.00000000000E+00  0.45593999997E+02  0.45594000000E+02  0.51100000000E-03 0. -1.
         11   -1    0    0    0    0 -0.00000000000E+00 -0.00000000000E+00 -0.45593999997E+02  0.45594000000E+02  0.51100000000E-03 0.  1.
    9900012    2    1    2    0    0 -0.52134732650E+01  0.18094619764E+02  0.39102783886E+02  0.47787271025E+02  0.19999999913E+02 0.  0.
        -12    1    1    2    0    0  0.52134732650E+01 -0.18094619764E+02 -0.39102783886E+02  0.43400728975E+02  0.00000000000E+00 0.  1.
         11    1    3    3    0    0 -0.58881256175E+01  0.17644783156E+01  0.47932354468E+01  0.77947747449E+01  0.51100000000E-03 0. -1.
        -11    1    3    3    0    0 -0.23005569826E+01 -0.89736015902E+00  0.82524334529E+01  0.86139698073E+01  0.51100000000E-03 0.  1.
         12    1    3    3    0    0  0.29752093351E+01  0.17227501607E+02  0.26057114986E+02  0.31378526473E+02  0.00000000000E+00 0. -1.
</event>
<event>
 7    1  0.5295643E-009  0.4778728E+02  0.7816164E-02  0.1312668E+00
        -11   -1    0    0    0    0  0.00000000000E+00  0.00000000000E+00  0.45593999997E+02  0.45594000000E+02  0.51100000000E-03 0.  1.
         11   -1    0    0    0    0 -0.00000000000E+00 -0.00000000000E+00 -0.45593999997E+02  0.45594000000E+02  0.51100000000E-03 0. -1.
    9900012    2    1    2    0    0  0.20853144269E+02 -0.25762208251E+02 -0.28019240120E+02  0.47787276311E+02  0.20000024010E+02 0.  0.
        -12    1    1    2    0    0 -0.20853144269E+02  0.25762208251E+02  0.28019240120E+02  0.43400723689E+02  0.00000000000E+00 0.  1.
         11    1    3    3    0    0  0.11782816878E+02 -0.17970543996E+02 -0.19171073099E+02  0.28797660827E+02  0.51100000000E-03 0. -1.
        -11    1    3    3    0    0  0.71747031173E+01 -0.34386186805E+01 -0.11162483136E+02  0.13707716559E+02  0.51100000000E-03 0.  1.
        -12    1    3    3    0    0  0.18956242734E+01 -0.43530455749E+01  0.23143161151E+01  0.52818989240E+01  0.00000000000E+00 0.  1.
</event>
<event>
 7    1  0.4931104E-009  0.4778727E+02  0.7816164E-02  0.1312668E+00
        -11   -1    0    0    0    0  0.00000000000E+00  0.00000000000E+00  0.45593999997E+02  0.45594000000E+02  0.51100000000E-03 0.  1.
         11   -1    0    0    0    0 -0.00000000000E+00 -0.00000000000E+00 -0.45593999997E+02  0.45594000000E+02  0.51100000000E-03 0. -1.
    9900012    2    1    2    0    0  0.17799682201E+02 -0.25819984818E+02 -0.30002047798E+02  0.47787272189E+02  0.20000005217E+02 0.  0.
        -12    1    1    2    0    0 -0.17799682201E+02  0.25819984818E+02  0.30002047798E+02  0.43400727811E+02  0.00000000000E+00 0.  1.
         11    1    3    3    0    0  0.89856101517E+01 -0.15582399887E+02 -0.17122078824E+02  0.24833806787E+02  0.51100000000E-03 0. -1.
        -11    1    3    3    0    0  0.11651689285E+02 -0.10731242162E+02 -0.12200045964E+02  0.19994062702E+02  0.51100000000E-03 0.  1.
        -12    1    3    3    0    0 -0.28376172361E+01  0.49365723023E+00 -0.67992301012E+00  0.29594026997E+01  0.00000000000E+00 0.  1.
</event>
<event>
 7    1  0.4931104E-009  0.4778727E+02  0.7816164E-02  0.1312668E+00
        -11   -1    0    0    0    0  0.00000000000E+00  0.00000000000E+00  0.45593999997E+02  0.45594000000E+02  0.51100000000E-03 0.  1.
         11   -1    0    0    0    0 -0.00000000000E+00 -0.00000000000E+00 -0.45593999997E+02  0.45594000000E+02  0.51100000000E-03 0. -1.
    9900012    2    1    2    0    0  0.83946186937E+00 -0.96227931231E+00 -0.43381937373E+02  0.47787272265E+02  0.20000005563E+02 0.  0.
        -12    1    1    2    0    0 -0.83946186937E+00  0.96227931231E+00  0.43381937373E+02  0.43400727735E+02  0.00000000000E+00 0.  1.
         11    1    3    3    0    0 -0.16812741709E+01  0.16918374389E+01 -0.36972298699E+02  0.37049154756E+02  0.51100000000E-03 0. -1.
        -11    1    3    3    0    0  0.28033830624E+01 -0.25593808546E+01 -0.81403564974E+01  0.89819146689E+01  0.51100000000E-03 0.  1.
         12    1    3    3    0    0 -0.28264702213E+00 -0.94735896580E-01  0.17307178235E+01  0.17562028396E+01  0.00000000000E+00 0. -1.
</event>
<event>
 7    1  0.4931104E-009  0.4778728E+02  0.7816164E-02  0.1312668E+00
        -11   -1    0    0    0    0  0.00000000000E+00  0.00000000000E+00  0.45593999997E+02  0.45594000000E+02  0.51100000000E-03 0.  1.
         11   -1    0    0    0    0 -0.00000000000E+00 -0.00000000000E+00 -0.45593999997E+02  0.45594000000E+02  0.51100000000E-03 0. -1.
    9900012    2    1    2    0    0 -0.54966843415E+01 -0.36529088758E+02 -0.22782338136E+02  0.47787276559E+02  0.20000025145E+02 0.  0.
        -12    1    1    2    0    0  0.54966843415E+01  0.36529088758E+02  0.22782338136E+02  0.43400723441E+02  0.00000000000E+00 0.  1.
         11    1    3    3    0    0  0.16022600110E+01 -0.21524153435E+02 -0.11040929279E+02  0.24243731929E+02  0.51100000000E-03 0. -1.
        -11    1    3    3    0    0  0.33396856563E+01 -0.40016445610E+01 -0.24758998226E+01  0.57703327173E+01  0.51100000000E-03 0.  1.
        -12    1    3    3    0    0 -0.10438630009E+02 -0.11003290762E+02 -0.92655090340E+01  0.17773211914E+02  0.00000000000E+00 0.  1.
</event>
<event>
 7    1  0.4931104E-009  0.4778727E+02  0.7816164E-02  0.1312668E+00
        -11   -1    0    0    0    0  0.00000000000E+00  0.00000000000E+00  0.45593999997E+02  0.45594000000E+02  0.51100000000E-03 0. -1.
         11   -1    0    0    0    0 -0.00000000000E+00 -0.00000000000E+00 -0.45593999997E+02  0.45594000000E+02  0.51100000000E-03 0.  1.
    9900012    2    1    2    0    0 -0.36707398316E+02  0.19596563935E+02  0.12335509623E+02  0.47787271817E+02  0.20000003521E+02 0.  0.
        -12    1    1    2    0    0  0.36707398316E+02 -0.19596563935E+02 -0.12335509623E+02  0.43400728183E+02  0.00000000000E+00 0.  1.
         11    1    3    3    0    0 -0.11898220695E+02  0.77288705200E-01  0.72026703129E+01  0.13908705517E+02  0.51100000000E-03 0.  1.
        -11    1    3    3    0    0 -0.16085405291E+02  0.71947980944E+01 -0.83860577646E+00  0.17641106624E+02  0.51100000000E-03 0. -1.
        -12    1    3    3    0    0 -0.87237723302E+01  0.12324477135E+02  0.59714450864E+01  0.16237459676E+02  0.00000000000E+00 0.  1.
</event>
<event>
 7    1  0.4931104E-009  0.4778727E+02  0.7816164E-02  0.1312668E+00
        -11   -1    0    0    0    0  0.00000000000E+00  0.00000000000E+00  0.45593999997E+02  0.45594000000E+02  0.51100000000E-03 0. -1.
         11   -1    0    0    0    0 -0.00000000000E+00 -0.00000000000E+00 -0.45593999997E+02  0.45594000000E+02  0.51100000000E-03 0.  1.
    9900012    2    1    2    0    0  0.98443046104E+01  0.22543309070E+02  0.35756286575E+02  0.47787272509E+02  0.20000006679E+02 0.  0.
        -12    1    1    2    0    0 -0.98443046104E+01 -0.22543309070E+02 -0.35756286575E+02  0.43400727491E+02  0.00000000000E+00 0.  1.
         11    1    3    3    0    0  0.55850699005E+01  0.25750760943E+01  0.13358140614E+02  0.14705915259E+02  0.51100000000E-03 0. -1.
        -11    1    3    3    0    0 -0.29609504463E+01 -0.14238658805E+00  0.31000030052E+01  0.42892330759E+01  0.51100000000E-03 0.  1.
        -12    1    3    3    0    0  0.72201851562E+01  0.20110619563E+02  0.19298142956E+02  0.28792124174E+02  0.00000000000E+00 0.  1.
</event>
<event>
 7    1  0.4931104E-009  0.4778727E+02  0.7816164E-02  0.1312668E+00
        -11   -1    0    0    0    0  0.00000000000E+00  0.00000000000E+00  0.45593999997E+02  0.45594000000E+02  0.51100000000E-03 0. -1.
         11   -1    0    0    0    0 -0.00000000000E+00 -0.00000000000E+00 -0.45593999997E+02  0.45594000000E+02  0.51100000000E-03 0.  1.
    9900012    2    1    2    0    0 -0.35906508174E+02 -0.91040539604E+00  0.24362205643E+02  0.47787271539E+02  0.20000002253E+02 0.  0.
        -12    1    1    2    0    0  0.35906508174E+02  0.91040539604E+00 -0.24362205643E+02  0.43400728461E+02  0.00000000000E+00 0.  1.
         11    1    3    3    0    0 -0.30207761735E+02 -0.70087400940E+01  0.24308124577E+02  0.39401982532E+02  0.51100000000E-03 0. -1.
        -11    1    3    3    0    0 -0.11461586102E+01  0.16731652412E+01  0.17149499576E+00  0.20353309998E+01  0.51100000000E-03 0.  1.
         12    1    3    3    0    0 -0.45525878289E+01  0.44251694567E+01 -0.11741393020E+00  0.63499580070E+01  0.00000000000E+00 0. -1.
</event>
<event>
 7    1  0.4931104E-009  0.4778727E+02  0.7816164E-02  0.1312668E+00
        -11   -1    0    0    0    0  0.00000000000E+00  0.00000000000E+00  0.45593999997E+02  0.45594000000E+02  0.51100000000E-03 0.  1.
         11   -1    0    0    0    0 -0.00000000000E+00 -0.00000000000E+00 -0.45593999997E+02  0.45594000000E+02  0.51100000000E-03 0. -1.
    9900012    2    1    2    0    0 -0.57542495942E+01  0.41619323205E+02 -0.10878596414E+02  0.47787270601E+02  0.19999997976E+02 0.  0.
        -12    1    1    2    0    0  0.57542495942E+01 -0.41619323205E+02  0.10878596414E+02  0.43400729399E+02  0.00000000000E+00 0.  1.
         11    1    3    3    0    0  0.26457973590E+01  0.15699037922E+02 -0.62400719952E+01  0.17099664737E+02  0.51100000000E-03 0. -1.
        -11    1    3    3    0    0  0.30161895051E+01  0.92401415074E+01 -0.38643917223E+01  0.10459977909E+02  0.51100000000E-03 0.  1.
        -12    1    3    3    0    0 -0.11416236458E+02  0.16680143776E+02 -0.77413269635E+00  0.20227627955E+02  0.00000000000E+00 0.  1.
</event>
<event>
 7    1  0.4931104E-009  0.4778727E+02  0.7816164E-02  0.1312668E+00
        -11   -1    0    0    0    0  0.00000000000E+00  0.00000000000E+00  0.45593999997E+02  0.45594000000E+02  0.51100000000E-03 0.  1.
         11   -1    0    0    0    0 -0.00000000000E+00 -0.00000000000E+00 -0.45593999997E+02  0.45594000000E+02  0.51100000000E-03 0. -1.
    9900012    2    1    2    0    0  0.60270669446E+01 -0.22139198395E+02 -0.36839564690E+02  0.47787272264E+02  0.20000005558E+02 0.  0.
        -12    1    1    2    0    0 -0.60270669446E+01  0.22139198395E+02  0.36839564690E+02  0.43400727736E+02  0.00000000000E+00 0.  1.
         11    1    3    3    0    0  0.68840181013E+01 -0.75263655374E+01 -0.20935956965E+02  0.23288412950E+02  0.51100000000E-03 0. -1.
        -11    1    3    3    0    0  0.45099320959E+01 -0.11106422994E+02 -0.84420643447E+01  0.14661533682E+02  0.51100000000E-03 0.  1.
        -12    1    3    3    0    0 -0.53668832526E+01 -0.35064098629E+01 -0.74615433798E+01  0.98373256316E+01  0.00000000000E+00 0.  1.
</event>
<event>
 7    1  0.4931104E-009  0.4778727E+02  0.7816164E-02  0.1312668E+00
        -11   -1    0    0    0    0  0.00000000000E+00  0.00000000000E+00  0.45593999997E+02  0.45594000000E+02  0.51100000000E-03 0.  1.
         11   -1    0    0    0    0 -0.00000000000E+00 -0.00000000000E+00 -0.45593999997E+02  0.45594000000E+02  0.51100000000E-03 0. -1.
    9900012    2    1    2    0    0  0.90800963935E+01 -0.89001510550E+01 -0.41496536217E+02  0.47787270083E+02  0.19999995617E+02 0.  0.
        -12    1    1    2    0    0 -0.90800963935E+01  0.89001510550E+01  0.41496536217E+02  0.43400729917E+02  0.00000000000E+00 0.  1.
         11    1    3    3    0    0  0.54020416855E+00 -0.65281488652E+01 -0.77199356807E+01  0.10124522474E+02  0.51100000000E-03 0. -1.
        -11    1    3    3    0    0 -0.47040035216E+00 -0.48463538513E+01 -0.35526833671E+01  0.60274357326E+01  0.51100000000E-03 0.  1.
        -12    1    3    3    0    0  0.90102925771E+01  0.24743516615E+01 -0.30223917169E+02  0.31635311877E+02  0.00000000000E+00 0.  1.
</event>
<event>
 7    1  0.4931104E-009  0.4778727E+02  0.7816164E-02  0.1312668E+00
        -11   -1    0    0    0    0  0.00000000000E+00  0.00000000000E+00  0.45593999997E+02  0.45594000000E+02  0.51100000000E-03 0.  1.
         11   -1    0    0    0    0 -0.00000000000E+00 -0.00000000000E+00 -0.45593999997E+02  0.45594000000E+02  0.51100000000E-03 0. -1.
    9900012    2    1    2    0    0  0.31548255180E+02 -0.14798120715E+02 -0.25871736337E+02  0.47787268178E+02  0.19999986929E+02 0.  0.
        -12    1    1    2    0    0 -0.31548255180E+02  0.14798120715E+02  0.25871736337E+02  0.43400731822E+02  0.00000000000E+00 0.  1.
         11    1    3    3    0    0  0.13311434992E+02 -0.80727097919E+01 -0.15540986783E+01  0.15645388071E+02  0.51100000000E-03 0. -1.
        -11    1    3    3    0    0  0.27239085771E+01  0.18473860317E+01 -0.36283609102E+01  0.48987259815E+01  0.51100000000E-03 0.  1.
        -12    1    3    3    0    0  0.15512911611E+02 -0.85727969549E+01 -0.20689276749E+02  0.27243154125E+02  0.00000000000E+00 0.  1.
</event>
<event>
 7    1  0.4931104E-009  0.4778727E+02  0.7816164E-02  0.1312668E+00
        -11   -1    0    0    0    0  0.00000000000E+00  0.00000000000E+00  0.45593999997E+02  0.45594000000E+02  0.51100000000E-03 0.  1.
         11   -1    0    0    0    0 -0.00000000000E+00 -0.00000000000E+00 -0.45593999997E+02  0.45594000000E+02  0.51100000000E-03 0. -1.
    9900012    2    1    2    0    0  0.38562518173E+02 -0.19836649395E+02 -0.17501137993E+01  0.47787269990E+02  0.19999995194E+02 0.  0.
        -12    1    1    2    0    0 -0.38562518173E+02  0.19836649395E+02  0.17501137993E+01  0.43400730010E+02  0.00000000000E+00 0.  1.
         11    1    3    3    0    0  0.68406314427E+01 -0.10840529889E+02  0.35605576774E+00  0.12823342107E+02  0.51100000000E-03 0. -1.
        -11    1    3    3    0    0  0.11223798131E+01 -0.33122898919E+01  0.11249001010E+01  0.36737448566E+01  0.51100000000E-03 0.  1.
         12    1    3    3    0    0  0.30599506917E+02 -0.56838296138E+01 -0.32310696680E+01  0.31290183027E+02  0.00000000000E+00 0. -1.
</event>
<event>
 7    1  0.4931104E-009  0.4778727E+02  0.7816164E-02  0.1312668E+00
        -11   -1    0    0    0    0  0.00000000000E+00  0.00000000000E+00  0.45593999997E+02  0.45594000000E+02  0.51100000000E-03 0. -1.
         11   -1    0    0    0    0 -0.00000000000E+00 -0.00000000000E+00 -0.45593999997E+02  0.45594000000E+02  0.51100000000E-03 0.  1.
    9900012    2    1    2    0    0 -0.27801152382E+02 -0.26610283076E+02  0.20065194663E+02  0.47787271020E+02  0.19999999887E+02 0.  0.
        -12    1    1    2    0    0  0.27801152382E+02  0.26610283076E+02 -0.20065194663E+02  0.43400728980E+02  0.00000000000E+00 0.  1.
         11    1    3    3    0    0 -0.45904802863E+01 -0.70465488228E+01  0.11931644568E+02  0.14597619735E+02  0.51100000000E-03 0. -1.
        -11    1    3    3    0    0  0.80550373016E+00 -0.24744665641E+01  0.13984015247E+01  0.29542085440E+01  0.51100000000E-03 0.  1.
        -12    1    3    3    0    0 -0.24016175826E+02 -0.17089267689E+02  0.67351485706E+01  0.30235442741E+02  0.00000000000E+00 0.  1.
</event>
<event>
 7    1  0.4931104E-009  0.4778727E+02  0.7816164E-02  0.1312668E+00
        -11   -1    0    0    0    0  0.00000000000E+00  0.00000000000E+00  0.45593999997E+02  0.45594000000E+02  0.51100000000E-03 0.  1.
         11   -1    0    0    0    0 -0.00000000000E+00 -0.00000000000E+00 -0.45593999997E+02  0.45594000000E+02  0.51100000000E-03 0. -1.
    9900012    2    1    2    0    0 -0.17728419380E+02 -0.35714403637E+02 -0.17140813268E+02  0.47787274657E+02  0.20000016470E+02 0.  0.
        -12    1    1    2    0    0  0.17728419380E+02  0.35714403637E+02  0.17140813268E+02  0.43400725343E+02  0.00000000000E+00 0.  1.
         11    1    3    3    0    0 -0.16985502272E+02 -0.32507358350E+02 -0.88427245327E+01  0.37728363491E+02  0.51100000000E-03 0. -1.
        -11    1    3    3    0    0 -0.10262474677E+01 -0.72891096796E+00  0.13377871969E+00  0.12658562600E+01  0.51100000000E-03 0.  1.
         12    1    3    3    0    0  0.28333035964E+00 -0.24781343190E+01 -0.84318674546E+01  0.87930549053E+01  0.00000000000E+00 0. -1.
</event>
<event>
 7    1  0.4931104E-009  0.4778727E+02  0.7816164E-02  0.1312668E+00
        -11   -1    0    0    0    0  0.00000000000E+00  0.00000000000E+00  0.45593999997E+02  0.45594000000E+02  0.51100000000E-03 0.  1.
         11   -1    0    0    0    0 -0.00000000000E+00 -0.00000000000E+00 -0.45593999997E+02  0.45594000000E+02  0.51100000000E-03 0. -1.
    9900012    2    1    2    0    0  0.12168746864E+02  0.41170441093E+02  0.63670568303E+01  0.47787273823E+02  0.20000012667E+02 0.  0.
        -12    1    1    2    0    0 -0.12168746864E+02 -0.41170441093E+02 -0.63670568303E+01  0.43400726177E+02  0.00000000000E+00 0.  1.
         11    1    3    3    0    0  0.11008022545E+01  0.19577332201E+02  0.47073963692E+01  0.20165398150E+02  0.51100000000E-03 0. -1.
        -11    1    3    3    0    0 -0.24181757578E+01  0.62027899746E+01 -0.17332805746E+01  0.68794214347E+01  0.51100000000E-03 0.  1.
         12    1    3    3    0    0  0.13486120367E+02  0.15390318918E+02  0.33929410358E+01  0.20742454238E+02  0.00000000000E+00 0. -1.
</event>
<event>
 7    1  0.4931104E-009  0.4778727E+02  0.7816164E-02  0.1312668E+00
        -11   -1    0    0    0    0  0.00000000000E+00  0.00000000000E+00  0.45593999997E+02  0.45594000000E+02  0.51100000000E-03 0.  1.
         11   -1    0    0    0    0 -0.00000000000E+00 -0.00000000000E+00 -0.45593999997E+02  0.45594000000E+02  0.51100000000E-03 0. -1.
    9900012    2    1    2    0    0 -0.62165447356E+01 -0.42680392409E+02 -0.48333925291E+01  0.47787274107E+02  0.20000013965E+02 0.  0.
        -12    1    1    2    0    0  0.62165447356E+01  0.42680392409E+02  0.48333925291E+01  0.43400725893E+02  0.00000000000E+00 0.  1.
         11    1    3    3    0    0  0.18517429654E+01 -0.18923295536E+02  0.18943711349E+01  0.19107817987E+02  0.51100000000E-03 0. -1.
        -11    1    3    3    0    0  0.20851695639E+01 -0.12669239088E+02 -0.33721371623E+01  0.13275121863E+02  0.51100000000E-03 0.  1.
         12    1    3    3    0    0 -0.10153457265E+02 -0.11087857785E+02 -0.33556265016E+01  0.15404334257E+02  0.00000000000E+00 0. -1.
</event>
<event>
 7    1  0.4931104E-009  0.4778727E+02  0.7816164E-02  0.1312668E+00
        -11   -1    0    0    0    0  0.00000000000E+00  0.00000000000E+00  0.45593999997E+02  0.45594000000E+02  0.51100000000E-03 0.  1.
         11   -1    0    0    0    0 -0.00000000000E+00 -0.00000000000E+00 -0.45593999997E+02  0.45594000000E+02  0.51100000000E-03 0. -1.
    9900012    2    1    2    0    0  0.15647162245E+02  0.32270190082E+02  0.24442265677E+02  0.47787271830E+02  0.20000003584E+02 0.  0.
        -12    1    1    2    0    0 -0.15647162245E+02 -0.32270190082E+02 -0.24442265677E+02  0.43400728170E+02  0.00000000000E+00 0.  1.
         11    1    3    3    0    0  0.39944826090E+01  0.48441167024E+01 -0.18263346239E+01  0.65388727132E+01  0.51100000000E-03 0. -1.
        -11    1    3    3    0    0  0.10031055775E+02  0.96368847963E+01  0.10625042950E+02  0.17503804343E+02  0.51100000000E-03 0.  1.
         12    1    3    3    0    0  0.16216238611E+01  0.17789188583E+02  0.15643557351E+02  0.23744594774E+02  0.00000000000E+00 0. -1.
</event>
<event>
 7    1  0.4931104E-009  0.4778727E+02  0.7816164E-02  0.1312668E+00
        -11   -1    0    0    0    0  0.00000000000E+00  0.00000000000E+00  0.45593999997E+02  0.45594000000E+02  0.51100000000E-03 0.  1.
         11   -1    0    0    0    0 -0.00000000000E+00 -0.00000000000E+00 -0.45593999997E+02  0.45594000000E+02  0.51100000000E-03 0. -1.
    9900012    2    1    2    0    0  0.28618721378E+02 -0.22195569434E+02  0.23915450866E+02  0.47787270676E+02  0.19999998319E+02 0.  0.
        -12    1    1    2    0    0 -0.28618721378E+02  0.22195569434E+02 -0.23915450866E+02  0.43400729324E+02  0.00000000000E+00 0.  1.
         11    1    3    3    0    0  0.17675801840E+02 -0.81727565436E+01  0.65246655269E+01  0.20537750138E+02  0.51100000000E-03 0. -1.
        -11    1    3    3    0    0  0.82074933493E+01 -0.27867781430E+01  0.11105453468E+02  0.14087589449E+02  0.51100000000E-03 0.  1.
        -12    1    3    3    0    0  0.27354261881E+01 -0.11236034747E+02  0.62853318711E+01  0.13161931089E+02  0.00000000000E+00 0.  1.
</event>
<event>
 7    1  0.4931104E-009  0.4778727E+02  0.7816164E-02  0.1312668E+00
        -11   -1    0    0    0    0  0.00000000000E+00  0.00000000000E+00  0.45593999997E+02  0.45594000000E+02  0.51100000000E-03 0. -1.
         11   -1    0    0    0    0 -0.00000000000E+00 -0.00000000000E+00 -0.45593999997E+02  0.45594000000E+02  0.51100000000E-03 0.  1.
    9900012    2    1    2    0    0  0.87823483831E+01 -0.41754473732E+02  0.79408773798E+01  0.47787271281E+02  0.20000001078E+02 0.  0.
        -12    1    1    2    0    0 -0.87823483831E+01  0.41754473732E+02 -0.79408773798E+01  0.43400728719E+02  0.00000000000E+00 0.  1.
         11    1    3    3    0    0  0.64296235717E+01 -0.20042451943E+02  0.36821849933E+01  0.21368163836E+02  0.51100000000E-03 0. -1.
        -11    1    3    3    0    0  0.80014533635E+00 -0.23495333420E+02  0.28869783630E+01  0.23685556135E+02  0.51100000000E-03 0.  1.
        -12    1    3    3    0    0  0.15525794750E+01  0.17833116309E+01  0.13717140235E+01  0.27335513095E+01  0.00000000000E+00 0.  1.
</event>
<event>
 7    1  0.4931104E-009  0.4778727E+02  0.7816164E-02  0.1312668E+00
        -11   -1    0    0    0    0  0.00000000000E+00  0.00000000000E+00  0.45593999997E+02  0.45594000000E+02  0.51100000000E-03 0. -1.
         11   -1    0    0    0    0 -0.00000000000E+00 -0.00000000000E+00 -0.45593999997E+02  0.45594000000E+02  0.51100000000E-03 0.  1.
    9900012    2    1    2    0    0 -0.28773011608E+02 -0.31942233701E+02  0.59523919027E+01  0.47787268898E+02  0.19999990215E+02 0.  0.
        -12    1    1    2    0    0  0.28773011608E+02  0.31942233701E+02 -0.59523919027E+01  0.43400731102E+02  0.00000000000E+00 0.  1.
         11    1    3    3    0    0 -0.25818531838E+01 -0.34943073096E+01  0.40668692044E+01  0.59510986232E+01  0.51100000000E-03 0. -1.
        -11    1    3    3    0    0 -0.73079197407E+01 -0.18752694604E+02  0.39465257022E+01  0.20509615092E+02  0.51100000000E-03 0.  1.
        -12    1    3    3    0    0 -0.18883238684E+02 -0.96952317877E+01 -0.20610030039E+01  0.21326555183E+02  0.00000000000E+00 0.  1.
</event>
<event>
 7    1  0.4931104E-009  0.4778727E+02  0.7816164E-02  0.1312668E+00
        -11   -1    0    0    0    0  0.00000000000E+00  0.00000000000E+00  0.45593999997E+02  0.45594000000E+02  0.51100000000E-03 0.  1.
         11   -1    0    0    0    0 -0.00000000000E+00 -0.00000000000E+00 -0.45593999997E+02  0.45594000000E+02  0.51100000000E-03 0. -1.
    9900012    2    1    2    0    0  0.10751776424E+02 -0.26356849001E+02 -0.32761858292E+02  0.47787267929E+02  0.19999985795E+02 0.  0.
        -12    1    1    2    0    0 -0.10751776424E+02  0.26356849001E+02  0.32761858292E+02  0.43400732071E+02  0.00000000000E+00 0.  1.
         11    1    3    3    0    0  0.11616844204E+02 -0.11888369359E+02 -0.12165007242E+02  0.20597859033E+02  0.51100000000E-03 0. -1.
        -11    1    3    3    0    0  0.43203604651E+01 -0.54858703890E+01 -0.55780530993E+01  0.89372795141E+01  0.51100000000E-03 0.  1.
        -12    1    3    3    0    0 -0.51854282453E+01 -0.89826092535E+01 -0.15018797950E+02  0.18252129382E+02  0.00000000000E+00 0.  1.
</event>
<event>
 7    1  0.4931104E-009  0.4778728E+02  0.7816164E-02  0.1312668E+00
        -11   -1    0    0    0    0  0.00000000000E+00  0.00000000000E+00  0.45593999997E+02  0.45594000000E+02  0.51100000000E-03 0.  1.
         11   -1    0    0    0    0 -0.00000000000E+00 -0.00000000000E+00 -0.45593999997E+02  0.45594000000E+02  0.51100000000E-03 0. -1.
    9900012    2    1    2    0    0  0.18800649379E+02 -0.36453371080E+02 -0.14188366222E+02  0.47787280925E+02  0.20000045048E+02 0.  0.
        -12    1    1    2    0    0 -0.18800649379E+02  0.36453371080E+02  0.14188366222E+02  0.43400719075E+02  0.00000000000E+00 0.  1.
         11    1    3    3    0    0  0.82197438331E+01 -0.14939321541E+02 -0.10063550403E+02  0.19799559686E+02  0.51100000000E-03 0. -1.
        -11    1    3    3    0    0  0.40146166669E+01 -0.14801833204E+02 -0.86028913975E+01  0.17584685208E+02  0.51100000000E-03 0.  1.
        -12    1    3    3    0    0  0.65662888794E+01 -0.67122163352E+01  0.44780755788E+01  0.10403036031E+02  0.00000000000E+00 0.  1.
</event>
<event>
 7    1  0.4931104E-009  0.4778727E+02  0.7816164E-02  0.1312668E+00
        -11   -1    0    0    0    0  0.00000000000E+00  0.00000000000E+00  0.45593999997E+02  0.45594000000E+02  0.51100000000E-03 0. -1.
         11   -1    0    0    0    0 -0.00000000000E+00 -0.00000000000E+00 -0.45593999997E+02  0.45594000000E+02  0.51100000000E-03 0.  1.
    9900012    2    1    2    0    0  0.40540875238E+02 -0.81048080532E+01  0.13205030037E+02  0.47787270779E+02  0.19999998790E+02 0.  0.
        -12    1    1    2    0    0 -0.40540875238E+02  0.81048080532E+01 -0.13205030037E+02  0.43400729221E+02  0.00000000000E+00 0.  1.
         11    1    3    3    0    0  0.17640836309E+02 -0.16786472382E+01  0.13516480101E+02  0.22287041006E+02  0.51100000000E-03 0. -1.
        -11    1    3    3    0    0  0.61315517954E+00 -0.28383448289E+01  0.29102723275E+00  0.29183655962E+01  0.51100000000E-03 0.  1.
        -12    1    3    3    0    0  0.22286883750E+02 -0.35878159861E+01 -0.60247729687E+00  0.22581864177E+02  0.00000000000E+00 0.  1.
</event>
<event>
 7    1  0.4931104E-009  0.4778728E+02  0.7816164E-02  0.1312668E+00
        -11   -1    0    0    0    0  0.00000000000E+00  0.00000000000E+00  0.45593999997E+02  0.45594000000E+02  0.51100000000E-03 0.  1.
         11   -1    0    0    0    0 -0.00000000000E+00 -0.00000000000E+00 -0.45593999997E+02  0.45594000000E+02  0.51100000000E-03 0. -1.
    9900012    2    1    2    0    0 -0.12616891699E+02  0.38586519256E+02 -0.15346576227E+02  0.47787276200E+02  0.20000023506E+02 0.  0.
        -12    1    1    2    0    0  0.12616891699E+02 -0.38586519256E+02  0.15346576227E+02  0.43400723800E+02  0.00000000000E+00 0.  1.
         11    1    3    3    0    0 -0.43114738537E+01  0.88938182082E+01 -0.75245103321E+01  0.12422039491E+02  0.51100000000E-03 0. -1.
        -11    1    3    3    0    0  0.19957202066E+01 -0.64730616634E+00  0.69730440828E+00  0.22109134119E+01  0.51100000000E-03 0.  1.
         12    1    3    3    0    0 -0.10301138052E+02  0.30340007214E+02 -0.85193703036E+01  0.33154323297E+02  0.00000000000E+00 0. -1.
</event>
<event>
 7    1  0.4931104E-009  0.4778727E+02  0.7816164E-02  0.1312668E+00
        -11   -1    0    0    0    0  0.00000000000E+00  0.00000000000E+00  0.45593999997E+02  0.45594000000E+02  0.51100000000E-03 0.  1.
         11   -1    0    0    0    0 -0.00000000000E+00 -0.00000000000E+00 -0.45593999997E+02  0.45594000000E+02  0.51100000000E-03 0. -1.
    9900012    2    1    2    0    0 -0.20528470181E+02 -0.22790835238E+02 -0.30704773231E+02  0.47787270075E+02  0.19999995581E+02 0.  0.
        -12    1    1    2    0    0  0.20528470181E+02  0.22790835238E+02  0.30704773231E+02  0.43400729925E+02  0.00000000000E+00 0.  1.
         11    1    3    3    0    0 -0.18643423003E+01 -0.31747515641E+01  0.16458944826E-01  0.36817238985E+01  0.51100000000E-03 0. -1.
        -11    1    3    3    0    0 -0.87648330950E+01 -0.38114070256E+01 -0.18500532622E+01  0.97350819222E+01  0.51100000000E-03 0.  1.
         12    1    3    3    0    0 -0.98992947862E+01 -0.15804676648E+02 -0.28871178914E+02  0.34370464255E+02  0.00000000000E+00 0. -1.
</event>
<event>
 7    1  0.4931104E-009  0.4778730E+02  0.7816164E-02  0.1312668E+00
        -11   -1    0    0    0    0  0.00000000000E+00  0.00000000000E+00  0.45593999997E+02  0.45594000000E+02  0.51100000000E-03 0. -1.
         11   -1    0    0    0    0 -0.00000000000E+00 -0.00000000000E+00 -0.45593999997E+02  0.45594000000E+02  0.51100000000E-03 0.  1.
    9900012    2    1    2    0    0 -0.14296309839E+02  0.17676694552E+01  0.40940346477E+02  0.47787296089E+02  0.20000114186E+02 0.  0.
        -12    1    1    2    0    0  0.14296309839E+02 -0.17676694552E+01 -0.40940346477E+02  0.43400703911E+02  0.00000000000E+00 0.  1.
         11    1    3    3    0    0 -0.16882937996E+02 -0.31986416640E+01  0.33242513731E+02  0.37420978385E+02  0.51100000000E-03 0. -1.
        -11    1    3    3    0    0 -0.35096421651E+00  0.15952774207E+01  0.47185832684E+01  0.49933069455E+01  0.51100000000E-03 0.  1.
         12    1    3    3    0    0  0.29375923737E+01  0.33710336985E+01  0.29792494777E+01  0.53730107575E+01  0.00000000000E+00 0. -1.
</event>
<event>
 7    1  0.4931104E-009  0.4778727E+02  0.7816164E-02  0.1312668E+00
        -11   -1    0    0    0    0  0.00000000000E+00  0.00000000000E+00  0.45593999997E+02  0.45594000000E+02  0.51100000000E-03 0.  1.
         11   -1    0    0    0    0 -0.00000000000E+00 -0.00000000000E+00 -0.45593999997E+02  0.45594000000E+02  0.51100000000E-03 0. -1.
    9900012    2    1    2    0    0  0.26761661362E+01  0.21793015130E+02 -0.37436960989E+02  0.47787269342E+02  0.19999992236E+02 0.  0.
        -12    1    1    2    0    0 -0.26761661362E+01 -0.21793015130E+02  0.37436960989E+02  0.43400730658E+02  0.00000000000E+00 0.  1.
         11    1    3    3    0    0  0.55530469106E+01  0.83026004100E+01 -0.55476821947E+01  0.11425685168E+02  0.51100000000E-03 0. -1.
        -11    1    3    3    0    0  0.13540140049E+01  0.69126775703E+01 -0.57979880910E+01  0.91233289583E+01  0.51100000000E-03 0.  1.
        -12    1    3    3    0    0 -0.42308947793E+01  0.65777371492E+01 -0.26091290703E+02  0.27238255216E+02  0.00000000000E+00 0.  1.
</event>
<event>
 7    1  0.4931104E-009  0.4778727E+02  0.7816164E-02  0.1312668E+00
        -11   -1    0    0    0    0  0.00000000000E+00  0.00000000000E+00  0.45593999997E+02  0.45594000000E+02  0.51100000000E-03 0.  1.
         11   -1    0    0    0    0 -0.00000000000E+00 -0.00000000000E+00 -0.45593999997E+02  0.45594000000E+02  0.51100000000E-03 0. -1.
    9900012    2    1    2    0    0 -0.24241248491E+02  0.87073531872E+01 -0.34930890380E+02  0.47787271542E+02  0.20000002270E+02 0.  0.
        -12    1    1    2    0    0  0.24241248491E+02 -0.87073531872E+01  0.34930890380E+02  0.43400728458E+02  0.00000000000E+00 0.  1.
         11    1    3    3    0    0 -0.14383627750E+02  0.40890818601E+01 -0.83024120739E+01  0.17103782746E+02  0.51100000000E-03 0. -1.
        -11    1    3    3    0    0 -0.95172503789E+01  0.16983238804E+01 -0.10433779445E+02  0.14224138376E+02  0.51100000000E-03 0.  1.
        -12    1    3    3    0    0 -0.34037036246E+00  0.29199474467E+01 -0.16194698861E+02  0.16459350421E+02  0.00000000000E+00 0.  1.
</event>
<event>
 7    1  0.4931104E-009  0.4778727E+02  0.7816164E-02  0.1312668E+00
        -11   -1    0    0    0    0  0.00000000000E+00  0.00000000000E+00  0.45593999997E+02  0.45594000000E+02  0.51100000000E-03 0.  1.
         11   -1    0    0    0    0 -0.00000000000E+00 -0.00000000000E+00 -0.45593999997E+02  0.45594000000E+02  0.51100000000E-03 0. -1.
    9900012    2    1    2    0    0 -0.11637759228E+02  0.14162296770E+02 -0.39339737835E+02  0.47787273478E+02  0.20000011097E+02 0.  0.
        -12    1    1    2    0    0  0.11637759228E+02 -0.14162296770E+02  0.39339737835E+02  0.43400726522E+02  0.00000000000E+00 0.  1.
         11    1    3    3    0    0 -0.10254618684E+02  0.31002816414E+01 -0.26986057854E+02  0.29034742454E+02  0.51100000000E-03 0. -1.
        -11    1    3    3    0    0 -0.48376843259E+01  0.61037815090E+01 -0.87602657809E+01  0.11721842652E+02  0.51100000000E-03 0.  1.
        -12    1    3    3    0    0  0.34545437825E+01  0.49582336197E+01 -0.35934142010E+01  0.70306883726E+01  0.00000000000E+00 0.  1.
</event>
<event>
 7    1  0.4931104E-009  0.4778727E+02  0.7816164E-02  0.1312668E+00
        -11   -1    0    0    0    0  0.00000000000E+00  0.00000000000E+00  0.45593999997E+02  0.45594000000E+02  0.51100000000E-03 0.  1.
         11   -1    0    0    0    0 -0.00000000000E+00 -0.00000000000E+00 -0.45593999997E+02  0.45594000000E+02  0.51100000000E-03 0. -1.
    9900012    2    1    2    0    0 -0.52936991589E+01  0.40200322108E+02 -0.15476891706E+02  0.47787270453E+02  0.19999997304E+02 0.  0.
        -12    1    1    2    0    0  0.52936991589E+01 -0.40200322108E+02  0.15476891706E+02  0.43400729547E+02  0.00000000000E+00 0.  1.
         11    1    3    3    0    0 -0.31836855218E+01  0.33008355433E+02 -0.45317841974E+01  0.33469754259E+02  0.51100000000E-03 0.  1.
        -11    1    3    3    0    0  0.90440800258E+00  0.17936123965E+01 -0.33379797750E+00  0.20362761637E+01  0.51100000000E-03 0. -1.
        -12    1    3    3    0    0 -0.30144216396E+01  0.53983542784E+01 -0.10611309531E+02  0.12281240031E+02  0.00000000000E+00 0.  1.
</event>
<event>
 7    1  0.4931104E-009  0.4778727E+02  0.7816164E-02  0.1312668E+00
        -11   -1    0    0    0    0  0.00000000000E+00  0.00000000000E+00  0.45593999997E+02  0.45594000000E+02  0.51100000000E-03 0. -1.
         11   -1    0    0    0    0 -0.00000000000E+00 -0.00000000000E+00 -0.45593999997E+02  0.45594000000E+02  0.51100000000E-03 0.  1.
    9900012    2    1    2    0    0  0.33998870509E+02 -0.22020788579E+02  0.15581559392E+02  0.47787270529E+02  0.19999997650E+02 0.  0.
        -12    1    1    2    0    0 -0.33998870509E+02  0.22020788579E+02 -0.15581559392E+02  0.43400729471E+02  0.00000000000E+00 0.  1.
         11    1    3    3    0    0  0.83984096477E+01 -0.56408939810E+01  0.83480282440E+01  0.13116498974E+02  0.51100000000E-03 0. -1.
        -11    1    3    3    0    0  0.26828004907E+02 -0.12179087816E+02  0.55476600835E+01  0.29980803192E+02  0.51100000000E-03 0.  1.
        -12    1    3    3    0    0 -0.12275440464E+01 -0.42008067815E+01  0.16858710648E+01  0.46899683633E+01  0.00000000000E+00 0.  1.
</event>
<event>
 7    1  0.4931104E-009  0.4778728E+02  0.7816164E-02  0.1312668E+00
        -11   -1    0    0    0    0  0.00000000000E+00  0.00000000000E+00  0.45593999997E+02  0.45594000000E+02  0.51100000000E-03 0. -1.
         11   -1    0    0    0    0 -0.00000000000E+00 -0.00000000000E+00 -0.45593999997E+02  0.45594000000E+02  0.51100000000E-03 0.  1.
    9900012    2    1    2    0    0 -0.41176014589E+02  0.13561621631E+02  0.20592592391E+01  0.47787282180E+02  0.20000050772E+02 0.  0.
        -12    1    1    2    0    0  0.41176014589E+02 -0.13561621631E+02 -0.20592592391E+01  0.43400717820E+02  0.00000000000E+00 0.  1.
         11    1    3    3    0    0 -0.42529661103E+02  0.12562615307E+02  0.38218430551E+01  0.44510648855E+02  0.51100000000E-03 0. -1.
        -11    1    3    3    0    0  0.23430125136E-02 -0.63863308617E+00 -0.43006962087E+00  0.76994665294E+00  0.51100000000E-03 0.  1.
         12    1    3    3    0    0  0.13513035022E+01  0.16376394095E+01 -0.13325141951E+01  0.25066866719E+01  0.00000000000E+00 0. -1.
</event>
<event>
 7    1  0.4931104E-009  0.4778727E+02  0.7816164E-02  0.1312668E+00
        -11   -1    0    0    0    0  0.00000000000E+00  0.00000000000E+00  0.45593999997E+02  0.45594000000E+02  0.51100000000E-03 0.  1.
         11   -1    0    0    0    0 -0.00000000000E+00 -0.00000000000E+00 -0.45593999997E+02  0.45594000000E+02  0.51100000000E-03 0. -1.
    9900012    2    1    2    0    0 -0.29854931179E+02 -0.28540033271E+02 -0.13333147967E+02  0.47787271325E+02  0.20000001278E+02 0.  0.
        -12    1    1    2    0    0  0.29854931179E+02  0.28540033271E+02  0.13333147967E+02  0.43400728675E+02  0.00000000000E+00 0.  1.
         11    1    3    3    0    0 -0.13639340555E+01 -0.37767824913E+01 -0.46094269359E+01  0.61132003920E+01  0.51100000000E-03 0. -1.
        -11    1    3    3    0    0 -0.79720888241E+01 -0.17060120934E+02 -0.37930246990E+01  0.19209085432E+02  0.51100000000E-03 0.  1.
         12    1    3    3    0    0 -0.20518908300E+02 -0.77031298454E+01 -0.49306963320E+01  0.22464985501E+02  0.00000000000E+00 0. -1.
</event>
<event>
 7    1  0.4931104E-009  0.4778727E+02  0.7816164E-02  0.1312668E+00
        -11   -1    0    0    0    0  0.00000000000E+00  0.00000000000E+00  0.45593999997E+02  0.45594000000E+02  0.51100000000E-03 0. -1.
         11   -1    0    0    0    0 -0.00000000000E+00 -0.00000000000E+00 -0.45593999997E+02  0.45594000000E+02  0.51100000000E-03 0.  1.
    9900012    2    1    2    0    0  0.14163143191E+02 -0.27747855956E+02  0.30217295353E+02  0.47787273351E+02  0.20000010519E+02 0.  0.
        -12    1    1    2    0    0 -0.14163143191E+02  0.27747855956E+02 -0.30217295353E+02  0.43400726649E+02  0.00000000000E+00 0.  1.
         11    1    3    3    0    0  0.14403601263E+02 -0.12404903207E+02  0.16974796260E+02  0.25485075264E+02  0.51100000000E-03 0. -1.
        -11    1    3    3    0    0  0.25361547734E+01 -0.37920135926E+01  0.68116743480E-01  0.45624651530E+01  0.51100000000E-03 0.  1.
        -12    1    3    3    0    0 -0.27766128454E+01 -0.11550939156E+02  0.13174382350E+02  0.17739732934E+02  0.00000000000E+00 0.  1.
</event>
<event>
 7    1  0.4931104E-009  0.4778727E+02  0.7816164E-02  0.1312668E+00
        -11   -1    0    0    0    0  0.00000000000E+00  0.00000000000E+00  0.45593999997E+02  0.45594000000E+02  0.51100000000E-03 0.  1.
         11   -1    0    0    0    0 -0.00000000000E+00 -0.00000000000E+00 -0.45593999997E+02  0.45594000000E+02  0.51100000000E-03 0. -1.
    9900012    2    1    2    0    0 -0.66660402053E+01  0.40362508650E+02 -0.14493281464E+02  0.47787269544E+02  0.19999993157E+02 0.  0.
        -12    1    1    2    0    0  0.66660402053E+01 -0.40362508650E+02  0.14493281464E+02  0.43400730456E+02  0.00000000000E+00 0.  1.
         11    1    3    3    0    0 -0.15584201155E+01  0.65946489704E+01 -0.16949512117E+01  0.69850503341E+01  0.51100000000E-03 0. -1.
        -11    1    3    3    0    0 -0.36337677850E+01  0.54196977489E+00 -0.57207936222E+01  0.67989322309E+01  0.51100000000E-03 0.  1.
        -12    1    3    3    0    0 -0.14738523048E+01  0.33225889905E+02 -0.70775366298E+01  0.34003286979E+02  0.00000000000E+00 0.  1.
</event>
<event>
 7    1  0.4931104E-009  0.4778727E+02  0.7816164E-02  0.1312668E+00
        -11   -1    0    0    0    0  0.00000000000E+00  0.00000000000E+00  0.45593999997E+02  0.45594000000E+02  0.51100000000E-03 0.  1.
         11   -1    0    0    0    0 -0.00000000000E+00 -0.00000000000E+00 -0.45593999997E+02  0.45594000000E+02  0.51100000000E-03 0. -1.
    9900012    2    1    2    0    0  0.41786748649E+02  0.48185555745E+01 -0.10689832853E+02  0.47787269973E+02  0.19999995114E+02 0.  0.
        -12    1    1    2    0    0 -0.41786748649E+02 -0.48185555745E+01  0.10689832853E+02  0.43400730027E+02  0.00000000000E+00 0.  1.
         11    1    3    3    0    0  0.23723665921E+02 -0.10909841321E+01 -0.86717787153E+01  0.25282450781E+02  0.51100000000E-03 0. -1.
        -11    1    3    3    0    0  0.16171756831E+02  0.78399951166E+00  0.10754715931E+01  0.16226429480E+02  0.51100000000E-03 0.  1.
        -12    1    3    3    0    0  0.18913258959E+01  0.51255401949E+01 -0.30935257312E+01  0.62783897126E+01  0.00000000000E+00 0.  1.
</event>
<event>
 7    1  0.4931104E-009  0.4778730E+02  0.7816164E-02  0.1312668E+00
        -11   -1    0    0    0    0  0.00000000000E+00  0.00000000000E+00  0.45593999997E+02  0.45594000000E+02  0.51100000000E-03 0.  1.
         11   -1    0    0    0    0 -0.00000000000E+00 -0.00000000000E+00 -0.45593999997E+02  0.45594000000E+02  0.51100000000E-03 0. -1.
    9900012    2    1    2    0    0  0.30747950487E+01 -0.32614634863E+02 -0.28468445961E+02  0.47787295084E+02  0.20000109604E+02 0.  0.
        -12    1    1    2    0    0 -0.30747950487E+01  0.32614634863E+02  0.28468445961E+02  0.43400704916E+02  0.00000000000E+00 0.  1.
         11    1    3    3    0    0  0.24299951264E+01 -0.26681925092E+01 -0.70880429838E+01  0.79538972322E+01  0.51100000000E-03 0. -1.
        -11    1    3    3    0    0  0.75603111080E+01 -0.10346455629E+02 -0.76694072977E+01  0.14934097117E+02  0.51100000000E-03 0.  1.
        -12    1    3    3    0    0 -0.69155111857E+01 -0.19599986724E+02 -0.13710995679E+02  0.24899300734E+02  0.00000000000E+00 0.  1.
</event>
<event>
 7    1  0.4931104E-009  0.4778727E+02  0.7816164E-02  0.1312668E+00
        -11   -1    0    0    0    0  0.00000000000E+00  0.00000000000E+00  0.45593999997E+02  0.45594000000E+02  0.51100000000E-03 0.  1.
         11   -1    0    0    0    0 -0.00000000000E+00 -0.00000000000E+00 -0.45593999997E+02  0.45594000000E+02  0.51100000000E-03 0. -1.
    9900012    2    1    2    0    0 -0.25329402426E+02 -0.31502635419E+02 -0.15799655017E+02  0.47787265395E+02  0.19999974243E+02 0.  0.
        -12    1    1    2    0    0  0.25329402426E+02  0.31502635419E+02  0.15799655017E+02  0.43400734605E+02  0.00000000000E+00 0.  1.
         11    1    3    3    0    0 -0.15968828023E+02 -0.10951661846E+02 -0.47582125780E+01  0.19939482260E+02  0.51100000000E-03 0. -1.
        -11    1    3    3    0    0 -0.11835710057E+02 -0.19571502122E+02 -0.10302438427E+02  0.25085214085E+02  0.51100000000E-03 0.  1.
        -12    1    3    3    0    0  0.24751356536E+01 -0.97947145039E+00 -0.73900401197E+00  0.27625690499E+01  0.00000000000E+00 0.  1.
</event>
<event>
 7    1  0.4931104E-009  0.4778727E+02  0.7816164E-02  0.1312668E+00
        -11   -1    0    0    0    0  0.00000000000E+00  0.00000000000E+00  0.45593999997E+02  0.45594000000E+02  0.51100000000E-03 0.  1.
         11   -1    0    0    0    0 -0.00000000000E+00 -0.00000000000E+00 -0.45593999997E+02  0.45594000000E+02  0.51100000000E-03 0. -1.
    9900012    2    1    2    0    0 -0.14398400797E+02  0.22211972976E+02 -0.34393857880E+02  0.47787272484E+02  0.20000006564E+02 0.  0.
        -12    1    1    2    0    0  0.14398400797E+02 -0.22211972976E+02  0.34393857880E+02  0.43400727516E+02  0.00000000000E+00 0.  1.
         11    1    3    3    0    0 -0.20642544069E+01  0.15051335815E+02 -0.17534352164E+02  0.23200374181E+02  0.51100000000E-03 0. -1.
        -11    1    3    3    0    0  0.83713543891E+00  0.11961048670E+01  0.87743545615E+00  0.17033366774E+01  0.51100000000E-03 0.  1.
         12    1    3    3    0    0 -0.13171281829E+02  0.59645322942E+01 -0.17736941173E+02  0.22883561625E+02  0.00000000000E+00 0. -1.
</event>
<event>
 7    1  0.4931104E-009  0.4778727E+02  0.7816164E-02  0.1312668E+00
        -11   -1    0    0    0    0  0.00000000000E+00  0.00000000000E+00  0.45593999997E+02  0.45594000000E+02  0.51100000000E-03 0.  1.
         11   -1    0    0    0    0 -0.00000000000E+00 -0.00000000000E+00 -0.45593999997E+02  0.45594000000E+02  0.51100000000E-03 0. -1.
    9900012    2    1    2    0    0 -0.25806424818E+02 -0.26550444369E+02 -0.22643438249E+02  0.47787274732E+02  0.20000016813E+02 0.  0.
        -12    1    1    2    0    0  0.25806424818E+02  0.26550444369E+02  0.22643438249E+02  0.43400725268E+02  0.00000000000E+00 0.  1.
         11    1    3    3    0    0  0.38726815194E-01 -0.42091601565E+01 -0.39371465661E+01  0.57636492201E+01  0.51100000000E-03 0. -1.
        -11    1    3    3    0    0 -0.77205723792E+00 -0.42916572085E+01 -0.83848270614E+01  0.94509110187E+01  0.51100000000E-03 0.  1.
         12    1    3    3    0    0 -0.25073094395E+02 -0.18049627004E+02 -0.10321464621E+02  0.32572714493E+02  0.00000000000E+00 0. -1.
</event>
<event>
 7    1  0.4931104E-009  0.4778727E+02  0.7816164E-02  0.1312668E+00
        -11   -1    0    0    0    0  0.00000000000E+00  0.00000000000E+00  0.45593999997E+02  0.45594000000E+02  0.51100000000E-03 0.  1.
         11   -1    0    0    0    0 -0.00000000000E+00 -0.00000000000E+00 -0.45593999997E+02  0.45594000000E+02  0.51100000000E-03 0. -1.
    9900012    2    1    2    0    0 -0.63318443915E+01 -0.32971053226E+02 -0.27503472208E+02  0.47787267429E+02  0.19999983516E+02 0.  0.
        -12    1    1    2    0    0  0.63318443915E+01  0.32971053226E+02  0.27503472208E+02  0.43400732571E+02  0.00000000000E+00 0.  1.
         11    1    3    3    0    0  0.43505791858E+00 -0.50019293262E+00  0.16876869893E+01  0.18132170299E+01  0.51100000000E-03 0. -1.
        -11    1    3    3    0    0  0.28858175837E+01 -0.26257616172E+01 -0.51091638532E+01  0.64285397048E+01  0.51100000000E-03 0.  1.
         12    1    3    3    0    0 -0.96527198938E+01 -0.29845098676E+02 -0.24081995344E+02  0.39545510694E+02  0.00000000000E+00 0. -1.
</event>
<event>
 7    1  0.4931104E-009  0.4778727E+02  0.7816164E-02  0.1312668E+00
        -11   -1    0    0    0    0  0.00000000000E+00  0.00000000000E+00  0.45593999997E+02  0.45594000000E+02  0.51100000000E-03 0.  1.
         11   -1    0    0    0    0 -0.00000000000E+00 -0.00000000000E+00 -0.45593999997E+02  0.45594000000E+02  0.51100000000E-03 0. -1.
    9900012    2    1    2    0    0 -0.15746327237E+02 -0.39665746999E+02  0.78933391473E+01  0.47787272940E+02  0.20000008643E+02 0.  0.
        -12    1    1    2    0    0  0.15746327237E+02  0.39665746999E+02 -0.78933391473E+01  0.43400727060E+02  0.00000000000E+00 0.  1.
         11    1    3    3    0    0 -0.70919268980E+01 -0.96113865014E+01  0.42251426098E+01  0.12669885869E+02  0.51100000000E-03 0. -1.
        -11    1    3    3    0    0 -0.57271672535E+01 -0.17082708776E+02  0.97596788152E+01  0.20490747051E+02  0.51100000000E-03 0.  1.
        -12    1    3    3    0    0 -0.29272330855E+01 -0.12971651722E+02 -0.60914822778E+01  0.14626640020E+02  0.00000000000E+00 0.  1.
</event>
<event>
 7    1  0.4931104E-009  0.4778727E+02  0.7816164E-02  0.1312668E+00
        -11   -1    0    0    0    0  0.00000000000E+00  0.00000000000E+00  0.45593999997E+02  0.45594000000E+02  0.51100000000E-03 0. -1.
         11   -1    0    0    0    0 -0.00000000000E+00 -0.00000000000E+00 -0.45593999997E+02  0.45594000000E+02  0.51100000000E-03 0.  1.
    9900012    2    1    2    0    0  0.14016660018E+02 -0.56937182675E+01  0.40678467955E+02  0.47787274880E+02  0.20000017489E+02 0.  0.
        -12    1    1    2    0    0 -0.14016660018E+02  0.56937182675E+01 -0.40678467955E+02  0.43400725120E+02  0.00000000000E+00 0.  1.
         11    1    3    3    0    0  0.17215649469E+01 -0.20842678388E+01  0.13944054508E+02  0.14203683137E+02  0.51100000000E-03 0. -1.
        -11    1    3    3    0    0  0.15529498675E+02 -0.25519019153E+01  0.25496604569E+02  0.29962549580E+02  0.51100000000E-03 0.  1.
         12    1    3    3    0    0 -0.32344036037E+01 -0.10575485134E+01  0.12378088775E+01  0.36210421631E+01  0.00000000000E+00 0. -1.
</event>
<event>
 7    1  0.4931104E-009  0.4778727E+02  0.7816164E-02  0.1312668E+00
        -11   -1    0    0    0    0  0.00000000000E+00  0.00000000000E+00  0.45593999997E+02  0.45594000000E+02  0.51100000000E-03 0.  1.
         11   -1    0    0    0    0 -0.00000000000E+00 -0.00000000000E+00 -0.45593999997E+02  0.45594000000E+02  0.51100000000E-03 0. -1.
    9900012    2    1    2    0    0  0.14809584713E+02 -0.40579810189E+02 -0.41926536924E+01  0.47787272595E+02  0.20000007069E+02 0.  0.
        -12    1    1    2    0    0 -0.14809584713E+02  0.40579810189E+02  0.41926536924E+01  0.43400727405E+02  0.00000000000E+00 0.  1.
         11    1    3    3    0    0  0.10088778490E+02 -0.10488970344E+02 -0.54156979883E+01  0.15528417024E+02  0.51100000000E-03 0. -1.
        -11    1    3    3    0    0  0.35614483853E+01 -0.43056562319E+01  0.30809914581E+01  0.63808384100E+01  0.51100000000E-03 0.  1.
         12    1    3    3    0    0  0.11593578374E+01 -0.25785183612E+02 -0.18579471622E+01  0.25878017161E+02  0.00000000000E+00 0. -1.
</event>
<event>
 7    1  0.4931104E-009  0.4778727E+02  0.7816164E-02  0.1312668E+00
        -11   -1    0    0    0    0  0.00000000000E+00  0.00000000000E+00  0.45593999997E+02  0.45594000000E+02  0.51100000000E-03 0. -1.
         11   -1    0    0    0    0 -0.00000000000E+00 -0.00000000000E+00 -0.45593999997E+02  0.45594000000E+02  0.51100000000E-03 0.  1.
    9900012    2    1    2    0    0 -0.30423041427E+02 -0.10903685786E+02  0.28968458528E+02  0.47787269558E+02  0.19999993225E+02 0.  0.
        -12    1    1    2    0    0  0.30423041427E+02  0.10903685786E+02 -0.28968458528E+02  0.43400730442E+02  0.00000000000E+00 0.  1.
         11    1    3    3    0    0 -0.19098934660E+01  0.12536130307E+00 -0.18725974035E+01  0.26776911331E+01  0.51100000000E-03 0.  1.
        -11    1    3    3    0    0 -0.47897664380E+00  0.12562391851E+01  0.46014042173E+01  0.47937956306E+01  0.51100000000E-03 0. -1.
        -12    1    3    3    0    0 -0.28034171317E+02 -0.12285286275E+02  0.26239651714E+02  0.40315782795E+02  0.00000000000E+00 0.  1.
</event>
<event>
 7    1  0.4931104E-009  0.4778726E+02  0.7816164E-02  0.1312668E+00
        -11   -1    0    0    0    0  0.00000000000E+00  0.00000000000E+00  0.45593999997E+02  0.45594000000E+02  0.51100000000E-03 0.  1.
         11   -1    0    0    0    0 -0.00000000000E+00 -0.00000000000E+00 -0.45593999997E+02  0.45594000000E+02  0.51100000000E-03 0. -1.
    9900012    2    1    2    0    0  0.21447814744E+02  0.24909746039E+02 -0.28339365819E+02  0.47787264291E+02  0.19999969209E+02 0.  0.
        -12    1    1    2    0    0 -0.21447814744E+02 -0.24909746039E+02  0.28339365819E+02  0.43400735709E+02  0.00000000000E+00 0.  1.
         11    1    3    3    0    0  0.51159750203E+01  0.12159331962E+02 -0.11159343895E+02  0.17278701068E+02  0.51100000000E-03 0.  1.
        -11    1    3    3    0    0  0.17656297388E+02  0.14605255075E+02 -0.15948321764E+02  0.27917866691E+02  0.51100000000E-03 0. -1.
        -12    1    3    3    0    0 -0.13244576642E+01 -0.18548409982E+01 -0.12317001605E+01  0.25906965314E+01  0.00000000000E+00 0.  1.
</event>
<event>
 7    1  0.4931104E-009  0.4778727E+02  0.7816164E-02  0.1312668E+00
        -11   -1    0    0    0    0  0.00000000000E+00  0.00000000000E+00  0.45593999997E+02  0.45594000000E+02  0.51100000000E-03 0.  1.
         11   -1    0    0    0    0 -0.00000000000E+00 -0.00000000000E+00 -0.45593999997E+02  0.45594000000E+02  0.51100000000E-03 0. -1.
    9900012    2    1    2    0    0  0.41749216547E+02 -0.11240808824E+02 -0.37776516949E+01  0.47787268237E+02  0.19999987198E+02 0.  0.
        -12    1    1    2    0    0 -0.41749216547E+02  0.11240808824E+02  0.37776516949E+01  0.43400731763E+02  0.00000000000E+00 0.  1.
         11    1    3    3    0    0  0.87576173423E+01  0.16425100622E+01 -0.37217004488E+01  0.96563323944E+01  0.51100000000E-03 0. -1.
        -11    1    3    3    0    0  0.29658364399E+02 -0.92332173368E+01 -0.46187896856E+01  0.31403886696E+02  0.51100000000E-03 0.  1.
        -12    1    3    3    0    0  0.33332348055E+01 -0.36501015495E+01  0.45628384395E+01  0.67270491462E+01  0.00000000000E+00 0.  1.
</event>
<event>
 7    1  0.4931104E-009  0.4778727E+02  0.7816164E-02  0.1312668E+00
        -11   -1    0    0    0    0  0.00000000000E+00  0.00000000000E+00  0.45593999997E+02  0.45594000000E+02  0.51100000000E-03 0. -1.
         11   -1    0    0    0    0 -0.00000000000E+00 -0.00000000000E+00 -0.45593999997E+02  0.45594000000E+02  0.51100000000E-03 0.  1.
    9900012    2    1    2    0    0 -0.25620732655E+02  0.28751941726E+02  0.20013175053E+02  0.47787271083E+02  0.20000000178E+02 0.  0.
        -12    1    1    2    0    0  0.25620732655E+02 -0.28751941726E+02 -0.20013175053E+02  0.43400728917E+02  0.00000000000E+00 0.  1.
         11    1    3    3    0    0 -0.19326612080E+02  0.16829682589E+02  0.13592658070E+02  0.29008903878E+02  0.51100000000E-03 0. -1.
        -11    1    3    3    0    0 -0.95781886110E+01  0.78713885846E+01  0.39807582277E+01  0.13021017305E+02  0.51100000000E-03 0.  1.
        -12    1    3    3    0    0  0.32840680359E+01  0.40508705521E+01  0.24397587548E+01  0.57573499004E+01  0.00000000000E+00 0.  1.
</event>
<event>
 7    1  0.4931104E-009  0.4778727E+02  0.7816164E-02  0.1312668E+00
        -11   -1    0    0    0    0  0.00000000000E+00  0.00000000000E+00  0.45593999997E+02  0.45594000000E+02  0.51100000000E-03 0.  1.
         11   -1    0    0    0    0 -0.00000000000E+00 -0.00000000000E+00 -0.45593999997E+02  0.45594000000E+02  0.51100000000E-03 0. -1.
    9900012    2    1    2    0    0  0.19126729336E+01  0.26710968907E+02 -0.34153902870E+02  0.47787271216E+02  0.20000000784E+02 0.  0.
        -12    1    1    2    0    0 -0.19126729336E+01 -0.26710968907E+02  0.34153902870E+02  0.43400728784E+02  0.00000000000E+00 0.  1.
         11    1    3    3    0    0  0.42226849471E+01  0.49720112026E+01 -0.95042078997E+01  0.11527442545E+02  0.51100000000E-03 0. -1.
        -11    1    3    3    0    0 -0.13806391263E+01  0.23909317533E+02 -0.20684988945E+02  0.31645385085E+02  0.51100000000E-03 0.  1.
        -12    1    3    3    0    0 -0.92937288714E+00 -0.21703598279E+01 -0.39647060253E+01  0.46144435865E+01  0.00000000000E+00 0.  1.
</event>
<event>
 7    1  0.4931104E-009  0.4778727E+02  0.7816164E-02  0.1312668E+00
        -11   -1    0    0    0    0  0.00000000000E+00  0.00000000000E+00  0.45593999997E+02  0.45594000000E+02  0.51100000000E-03 0.  1.
         11   -1    0    0    0    0 -0.00000000000E+00 -0.00000000000E+00 -0.45593999997E+02  0.45594000000E+02  0.51100000000E-03 0. -1.
    9900012    2    1    2    0    0 -0.60927429176E+01  0.42022713986E+02 -0.89773718127E+01  0.47787271761E+02  0.20000003268E+02 0.  0.
        -12    1    1    2    0    0  0.60927429176E+01 -0.42022713986E+02  0.89773718127E+01  0.43400728239E+02  0.00000000000E+00 0.  1.
         11    1    3    3    0    0  0.16366348998E+01  0.11029082489E+01  0.18976745718E+01  0.27379096848E+01  0.51100000000E-03 0.  1.
        -11    1    3    3    0    0 -0.19143813634E+01  0.26937304560E+02 -0.11051745492E+01  0.27027849415E+02  0.51100000000E-03 0. -1.
         12    1    3    3    0    0 -0.58149964540E+01  0.13982501177E+02 -0.97698718352E+01  0.18021512662E+02  0.00000000000E+00 0. -1.
</event>
<event>
 7    1  0.4931104E-009  0.4778727E+02  0.7816164E-02  0.1312668E+00
        -11   -1    0    0    0    0  0.00000000000E+00  0.00000000000E+00  0.45593999997E+02  0.45594000000E+02  0.51100000000E-03 0. -1.
         11   -1    0    0    0    0 -0.00000000000E+00 -0.00000000000E+00 -0.45593999997E+02  0.45594000000E+02  0.51100000000E-03 0.  1.
    9900012    2    1    2    0    0 -0.29593960328E+02  0.77085105499E+01  0.30796098237E+02  0.47787270866E+02  0.19999999185E+02 0.  0.
        -12    1    1    2    0    0  0.29593960328E+02 -0.77085105499E+01 -0.30796098237E+02  0.43400729134E+02  0.00000000000E+00 0.  1.
         11    1    3    3    0    0 -0.84916157254E+01  0.79714105023E+01  0.11201376883E+02  0.16159262587E+02  0.51100000000E-03 0. -1.
        -11    1    3    3    0    0 -0.68938948163E+01  0.59717884150E+01  0.54058482078E+01  0.10602416598E+02  0.51100000000E-03 0.  1.
         12    1    3    3    0    0 -0.14208449786E+02 -0.62346883674E+01  0.14188873146E+02  0.21025591681E+02  0.00000000000E+00 0. -1.
</event>
<event>
 7    1  0.4931104E-009  0.4778727E+02  0.7816164E-02  0.1312668E+00
        -11   -1    0    0    0    0  0.00000000000E+00  0.00000000000E+00  0.45593999997E+02  0.45594000000E+02  0.51100000000E-03 0.  1.
         11   -1    0    0    0    0 -0.00000000000E+00 -0.00000000000E+00 -0.45593999997E+02  0.45594000000E+02  0.51100000000E-03 0. -1.
    9900012    2    1    2    0    0 -0.25830204812E+02 -0.17562202759E+02 -0.30132921856E+02  0.47787269293E+02  0.19999992013E+02 0.  0.
        -12    1    1    2    0    0  0.25830204812E+02  0.17562202759E+02  0.30132921856E+02  0.43400730707E+02  0.00000000000E+00 0.  1.
         11    1    3    3    0    0 -0.18292873048E+02 -0.67103827882E+01 -0.21035308034E+02  0.28673029590E+02  0.51100000000E-03 0. -1.
        -11    1    3    3    0    0 -0.82137017346E+01 -0.27362827088E+01 -0.50033789100E+01  0.99992969766E+01  0.51100000000E-03 0.  1.
         12    1    3    3    0    0  0.67636997064E+00 -0.81155372624E+01 -0.40942349114E+01  0.91149427264E+01  0.00000000000E+00 0. -1.
</event>
<event>
 7    1  0.4931104E-009  0.4778727E+02  0.7816164E-02  0.1312668E+00
        -11   -1    0    0    0    0  0.00000000000E+00  0.00000000000E+00  0.45593999997E+02  0.45594000000E+02  0.51100000000E-03 0.  1.
         11   -1    0    0    0    0 -0.00000000000E+00 -0.00000000000E+00 -0.45593999997E+02  0.45594000000E+02  0.51100000000E-03 0. -1.
    9900012    2    1    2    0    0 -0.25582259349E+02  0.92352177933E+01 -0.33821328089E+02  0.47787268729E+02  0.19999989444E+02 0.  0.
        -12    1    1    2    0    0  0.25582259349E+02 -0.92352177933E+01  0.33821328089E+02  0.43400731271E+02  0.00000000000E+00 0.  1.
         11    1    3    3    0    0 -0.92298192642E+01 -0.86554816890E+00 -0.49026314432E+01  0.10486874301E+02  0.51100000000E-03 0.  1.
        -11    1    3    3    0    0 -0.11157414283E+02  0.65673771623E+01 -0.74629545212E+01  0.14943695217E+02  0.51100000000E-03 0. -1.
        -12    1    3    3    0    0 -0.51950258016E+01  0.35333887999E+01 -0.21455742125E+02  0.22356699211E+02  0.00000000000E+00 0.  1.
</event>
<event>
 7    1  0.4931104E-009  0.4778728E+02  0.7816164E-02  0.1312668E+00
        -11   -1    0    0    0    0  0.00000000000E+00  0.00000000000E+00  0.45593999997E+02  0.45594000000E+02  0.51100000000E-03 0.  1.
         11   -1    0    0    0    0 -0.00000000000E+00 -0.00000000000E+00 -0.45593999997E+02  0.45594000000E+02  0.51100000000E-03 0. -1.
    9900012    2    1    2    0    0  0.25797039975E+02 -0.17308618116E+02 -0.30307545864E+02  0.47787275710E+02  0.20000021273E+02 0.  0.
        -12    1    1    2    0    0 -0.25797039975E+02  0.17308618116E+02  0.30307545864E+02  0.43400724290E+02  0.00000000000E+00 0.  1.
         11    1    3    3    0    0  0.65572808616E+01  0.22947846137E-02 -0.31326445993E+01  0.72671452449E+01  0.51100000000E-03 0. -1.
        -11    1    3    3    0    0  0.87805914278E+01 -0.47955233142E+01 -0.15202524776E+01  0.10119634259E+02  0.51100000000E-03 0.  1.
         12    1    3    3    0    0  0.10459167686E+02 -0.12515389587E+02 -0.25654648787E+02  0.30400496206E+02  0.00000000000E+00 0. -1.
</event>
<event>
 7    1  0.4931104E-009  0.4778727E+02  0.7816164E-02  0.1312668E+00
        -11   -1    0    0    0    0  0.00000000000E+00  0.00000000000E+00  0.45593999997E+02  0.45594000000E+02  0.51100000000E-03 0.  1.
         11   -1    0    0    0    0 -0.00000000000E+00 -0.00000000000E+00 -0.45593999997E+02  0.45594000000E+02  0.51100000000E-03 0. -1.
    9900012    2    1    2    0    0  0.78092082958E+01  0.16572589363E+02 -0.39344492393E+02  0.47787268047E+02  0.19999986333E+02 0.  0.
        -12    1    1    2    0    0 -0.78092082958E+01 -0.16572589363E+02  0.39344492393E+02  0.43400731953E+02  0.00000000000E+00 0.  1.
         11    1    3    3    0    0 -0.87597010788E-01 -0.37143356608E-01  0.13152255220E+01  0.13186626938E+01  0.51100000000E-03 0. -1.
        -11    1    3    3    0    0  0.51208327188E+01  0.31357429961E+00 -0.15819157684E+02  0.16630303865E+02  0.51100000000E-03 0.  1.
         12    1    3    3    0    0  0.27759725877E+01  0.16296158420E+02 -0.24840560232E+02  0.29838301488E+02  0.00000000000E+00 0. -1.
</event>
<event>
 7    1  0.4931104E-009  0.4778727E+02  0.7816164E-02  0.1312668E+00
        -11   -1    0    0    0    0  0.00000000000E+00  0.00000000000E+00  0.45593999997E+02  0.45594000000E+02  0.51100000000E-03 0.  1.
         11   -1    0    0    0    0 -0.00000000000E+00 -0.00000000000E+00 -0.45593999997E+02  0.45594000000E+02  0.51100000000E-03 0. -1.
    9900012    2    1    2    0    0  0.37093543394E+02  0.19227049601E+02 -0.11747878361E+02  0.47787273694E+02  0.20000012081E+02 0.  0.
        -12    1    1    2    0    0 -0.37093543394E+02 -0.19227049601E+02  0.11747878361E+02  0.43400726306E+02  0.00000000000E+00 0.  1.
         11    1    3    3    0    0  0.27476621199E+02  0.13193422939E+02 -0.12827586644E+02  0.33069292414E+02  0.51100000000E-03 0. -1.
        -11    1    3    3    0    0  0.77049386783E+01 -0.56736918856E+00 -0.19585603091E+00  0.77282823240E+01  0.51100000000E-03 0.  1.
         12    1    3    3    0    0  0.19119835169E+01  0.66009958503E+01  0.12755643142E+01  0.69896989566E+01  0.00000000000E+00 0. -1.
</event>
<event>
 7    1  0.4931104E-009  0.4778728E+02  0.7816164E-02  0.1312668E+00
        -11   -1    0    0    0    0  0.00000000000E+00  0.00000000000E+00  0.45593999997E+02  0.45594000000E+02  0.51100000000E-03 0.  1.
         11   -1    0    0    0    0 -0.00000000000E+00 -0.00000000000E+00 -0.45593999997E+02  0.45594000000E+02  0.51100000000E-03 0. -1.
    9900012    2    1    2    0    0 -0.25449044353E+02  0.15304253259E+02 -0.31650417122E+02  0.47787275002E+02  0.20000018045E+02 0.  0.
        -12    1    1    2    0    0  0.25449044353E+02 -0.15304253259E+02  0.31650417122E+02  0.43400724998E+02  0.00000000000E+00 0.  1.
         11    1    3    3    0    0 -0.51896884651E+01 -0.86407992647E-01 -0.16203905742E+02  0.17014902123E+02  0.51100000000E-03 0. -1.
        -11    1    3    3    0    0 -0.36062451221E+01  0.65670718055E+01 -0.64628760166E+01  0.98944531252E+01  0.51100000000E-03 0.  1.
         12    1    3    3    0    0 -0.16653110766E+02  0.88235894464E+01 -0.89836353637E+01  0.20877919754E+02  0.00000000000E+00 0. -1.
</event>
<event>
 7    1  0.4931104E-009  0.4778727E+02  0.7816164E-02  0.1312668E+00
        -11   -1    0    0    0    0  0.00000000000E+00  0.00000000000E+00  0.45593999997E+02  0.45594000000E+02  0.51100000000E-03 0. -1.
         11   -1    0    0    0    0 -0.00000000000E+00 -0.00000000000E+00 -0.45593999997E+02  0.45594000000E+02  0.51100000000E-03 0.  1.
    9900012    2    1    2    0    0 -0.15399443092E+01 -0.87873134531E+01  0.42473934614E+02  0.47787269271E+02  0.19999991915E+02 0.  0.
        -12    1    1    2    0    0  0.15399443092E+01  0.87873134531E+01 -0.42473934614E+02  0.43400730729E+02  0.00000000000E+00 0.  1.
         11    1    3    3    0    0 -0.91615630786E-01  0.53328959327E+00  0.72841099790E+01  0.73041802867E+01  0.51100000000E-03 0. -1.
        -11    1    3    3    0    0  0.38648595465E+01  0.36270601490E+01  0.53847412628E+01  0.75556696174E+01  0.51100000000E-03 0.  1.
         12    1    3    3    0    0 -0.53131882249E+01 -0.12947663195E+02  0.29805083372E+02  0.32927419367E+02  0.00000000000E+00 0. -1.
</event>
<event>
 7    1  0.4931104E-009  0.4778727E+02  0.7816164E-02  0.1312668E+00
        -11   -1    0    0    0    0  0.00000000000E+00  0.00000000000E+00  0.45593999997E+02  0.45594000000E+02  0.51100000000E-03 0.  1.
         11   -1    0    0    0    0 -0.00000000000E+00 -0.00000000000E+00 -0.45593999997E+02  0.45594000000E+02  0.51100000000E-03 0. -1.
    9900012    2    1    2    0    0 -0.16606672455E+02  0.82774565498E+01 -0.39234234637E+02  0.47787273917E+02  0.20000013099E+02 0.  0.
        -12    1    1    2    0    0  0.16606672455E+02 -0.82774565498E+01  0.39234234637E+02  0.43400726083E+02  0.00000000000E+00 0.  1.
         11    1    3    3    0    0 -0.26725389959E+01  0.81739052554E+00 -0.42987505752E+01  0.51273627456E+01  0.51100000000E-03 0. -1.
        -11    1    3    3    0    0 -0.18355475073E+02  0.61536794588E+01 -0.31235773762E+02  0.36748670708E+02  0.51100000000E-03 0.  1.
         12    1    3    3    0    0  0.44213416134E+01  0.13063865655E+01 -0.36997102991E+01  0.59112404636E+01  0.00000000000E+00 0. -1.
</event>
<event>
 7    1  0.4931104E-009  0.4778727E+02  0.7816164E-02  0.1312668E+00
        -11   -1    0    0    0    0  0.00000000000E+00  0.00000000000E+00  0.45593999997E+02  0.45594000000E+02  0.51100000000E-03 0. -1.
         11   -1    0    0    0    0 -0.00000000000E+00 -0.00000000000E+00 -0.45593999997E+02  0.45594000000E+02  0.51100000000E-03 0.  1.
    9900012    2    1    2    0    0  0.17808315856E+02  0.33400192974E+02  0.21234740675E+02  0.47787271713E+02  0.20000003047E+02 0.  0.
        -12    1    1    2    0    0 -0.17808315856E+02 -0.33400192974E+02 -0.21234740675E+02  0.43400728287E+02  0.00000000000E+00 0.  1.
         11    1    3    3    0    0  0.12148172293E+02  0.83441475579E+01  0.74196883079E+01  0.16500141314E+02  0.51100000000E-03 0. -1.
        -11    1    3    3    0    0  0.48457487941E+00  0.41991022270E+01  0.79625236194E+01  0.90149351066E+01  0.51100000000E-03 0.  1.
        -12    1    3    3    0    0  0.51755686841E+01  0.20856943189E+02  0.58525287476E+01  0.22272195292E+02  0.00000000000E+00 0.  1.
</event>
<event>
 7    1  0.4931104E-009  0.4778727E+02  0.7816164E-02  0.1312668E+00
        -11   -1    0    0    0    0  0.00000000000E+00  0.00000000000E+00  0.45593999997E+02  0.45594000000E+02  0.51100000000E-03 0.  1.
         11   -1    0    0    0    0 -0.00000000000E+00 -0.00000000000E+00 -0.45593999997E+02  0.45594000000E+02  0.51100000000E-03 0. -1.
    9900012    2    1    2    0    0 -0.36296751616E+02 -0.10124993493E+02 -0.21532617853E+02  0.47787270712E+02  0.19999998484E+02 0.  0.
        -12    1    1    2    0    0  0.36296751616E+02  0.10124993493E+02  0.21532617853E+02  0.43400729288E+02  0.00000000000E+00 0.  1.
         11    1    3    3    0    0 -0.49320581247E+01  0.18645278071E+01 -0.21841694113E+00  0.52772499951E+01  0.51100000000E-03 0. -1.
        -11    1    3    3    0    0 -0.31766021850E+02 -0.82682764612E+01 -0.17635362502E+02  0.37261918236E+02  0.51100000000E-03 0.  1.
        -12    1    3    3    0    0  0.40132835838E+00 -0.37212448384E+01 -0.36788384104E+01  0.52481024808E+01  0.00000000000E+00 0.  1.
</event>
<event>
 7    1  0.4931104E-009  0.4778727E+02  0.7816164E-02  0.1312668E+00
        -11   -1    0    0    0    0  0.00000000000E+00  0.00000000000E+00  0.45593999997E+02  0.45594000000E+02  0.51100000000E-03 0.  1.
         11   -1    0    0    0    0 -0.00000000000E+00 -0.00000000000E+00 -0.45593999997E+02  0.45594000000E+02  0.51100000000E-03 0. -1.
    9900012    2    1    2    0    0 -0.17858421128E+02 -0.35771422455E+02 -0.16885071695E+02  0.47787268257E+02  0.19999987292E+02 0.  0.
        -12    1    1    2    0    0  0.17858421128E+02  0.35771422455E+02  0.16885071695E+02  0.43400731743E+02  0.00000000000E+00 0.  1.
         11    1    3    3    0    0 -0.71040265342E+00 -0.46647785628E+01  0.82242811657E+00  0.47896992847E+01  0.51100000000E-03 0.  1.
        -11    1    3    3    0    0  0.18899881689E+01 -0.10165078614E+02 -0.80147926675E+01  0.13081963930E+02  0.51100000000E-03 0. -1.
         12    1    3    3    0    0 -0.19038006643E+02 -0.20941565279E+02 -0.96927071445E+01  0.29915605043E+02  0.00000000000E+00 0. -1.
</event>
<event>
 7    1  0.4931104E-009  0.4778727E+02  0.7816164E-02  0.1312668E+00
        -11   -1    0    0    0    0  0.00000000000E+00  0.00000000000E+00  0.45593999997E+02  0.45594000000E+02  0.51100000000E-03 0.  1.
         11   -1    0    0    0    0 -0.00000000000E+00 -0.00000000000E+00 -0.45593999997E+02  0.45594000000E+02  0.51100000000E-03 0. -1.
    9900012    2    1    2    0    0 -0.69775854858E+00 -0.42359141370E+01 -0.43187881775E+02  0.47787274571E+02  0.20000016078E+02 0.  0.
        -12    1    1    2    0    0  0.69775854858E+00  0.42359141370E+01  0.43187881775E+02  0.43400725429E+02  0.00000000000E+00 0.  1.
         11    1    3    3    0    0 -0.59882036647E+01 -0.53410040723E+01 -0.26399368904E+02  0.27591875370E+02  0.51100000000E-03 0. -1.
        -11    1    3    3    0    0 -0.19547309434E+01  0.31353842184E+01 -0.52245286192E+01  0.63990082679E+01  0.51100000000E-03 0.  1.
        -12    1    3    3    0    0  0.72451760595E+01 -0.20302942831E+01 -0.11563984252E+02  0.13796390933E+02  0.00000000000E+00 0.  1.
</event>
<event>
 7    1  0.4931104E-009  0.4778726E+02  0.7816164E-02  0.1312668E+00
        -11   -1    0    0    0    0  0.00000000000E+00  0.00000000000E+00  0.45593999997E+02  0.45594000000E+02  0.51100000000E-03 0.  1.
         11   -1    0    0    0    0 -0.00000000000E+00 -0.00000000000E+00 -0.45593999997E+02  0.45594000000E+02  0.51100000000E-03 0. -1.
    9900012    2    1    2    0    0 -0.28862151232E+02 -0.16461022132E+02 -0.27921941844E+02  0.47787264296E+02  0.19999969230E+02 0.  0.
        -12    1    1    2    0    0  0.28862151232E+02  0.16461022132E+02  0.27921941844E+02  0.43400735704E+02  0.00000000000E+00 0.  1.
         11    1    3    3    0    0 -0.87357680973E+01 -0.10007170720E+02 -0.11443984016E+02  0.17533450330E+02  0.51100000000E-03 0. -1.
        -11    1    3    3    0    0  0.10327900642E+01 -0.59535663830E+00  0.14724465076E+01  0.18945194172E+01  0.51100000000E-03 0.  1.
        -12    1    3    3    0    0 -0.21159173199E+02 -0.58584947733E+01 -0.17950404335E+02  0.28359294548E+02  0.00000000000E+00 0.  1.
</event>
<event>
 7    1  0.4931104E-009  0.4778726E+02  0.7816164E-02  0.1312668E+00
        -11   -1    0    0    0    0  0.00000000000E+00  0.00000000000E+00  0.45593999997E+02  0.45594000000E+02  0.51100000000E-03 0. -1.
         11   -1    0    0    0    0 -0.00000000000E+00 -0.00000000000E+00 -0.45593999997E+02  0.45594000000E+02  0.51100000000E-03 0.  1.
    9900012    2    1    2    0    0  0.24938563167E+02  0.30325876364E+02  0.18494158328E+02  0.47787255740E+02  0.19999930221E+02 0.  0.
        -12    1    1    2    0    0 -0.24938563167E+02 -0.30325876364E+02 -0.18494158328E+02  0.43400744260E+02  0.00000000000E+00 0.  1.
         11    1    3    3    0    0  0.18929391822E+02  0.28656986751E+02  0.18362863191E+02  0.38945340020E+02  0.51100000000E-03 0. -1.
        -11    1    3    3    0    0  0.55281259634E+01  0.22654974193E+01  0.24067295640E+01  0.64408852403E+01  0.51100000000E-03 0.  1.
        -12    1    3    3    0    0  0.48104538197E+00 -0.59660780687E+00 -0.22754344271E+01  0.24010304802E+01  0.00000000000E+00 0.  1.
</event>
<event>
 7    1  0.4931104E-009  0.4778728E+02  0.7816164E-02  0.1312668E+00
        -11   -1    0    0    0    0  0.00000000000E+00  0.00000000000E+00  0.45593999997E+02  0.45594000000E+02  0.51100000000E-03 0.  1.
         11   -1    0    0    0    0 -0.00000000000E+00 -0.00000000000E+00 -0.45593999997E+02  0.45594000000E+02  0.51100000000E-03 0. -1.
    9900012    2    1    2    0    0 -0.30029243502E+02 -0.20750829120E+02 -0.23479150257E+02  0.47787275682E+02  0.20000021146E+02 0.  0.
        -12    1    1    2    0    0  0.30029243502E+02  0.20750829120E+02  0.23479150257E+02  0.43400724318E+02  0.00000000000E+00 0.  1.
         11    1    3    3    0    0 -0.92266895423E+01 -0.21187602567E+01 -0.16430100521E+02  0.18962308624E+02  0.51100000000E-03 0. -1.
        -11    1    3    3    0    0 -0.45205315887E+01 -0.43838310304E+01 -0.11750864335E+01  0.64057793230E+01  0.51100000000E-03 0.  1.
         12    1    3    3    0    0 -0.16282022371E+02 -0.14248237833E+02 -0.58739633019E+01  0.22419187736E+02  0.00000000000E+00 0. -1.
</event>
<event>
 7    1  0.4931104E-009  0.4778727E+02  0.7816164E-02  0.1312668E+00
        -11   -1    0    0    0    0  0.00000000000E+00  0.00000000000E+00  0.45593999997E+02  0.45594000000E+02  0.51100000000E-03 0.  1.
         11   -1    0    0    0    0 -0.00000000000E+00 -0.00000000000E+00 -0.45593999997E+02  0.45594000000E+02  0.51100000000E-03 0. -1.
    9900012    2    1    2    0    0  0.38805933641E+02 -0.18018868495E+02  0.72830740675E+01  0.47787271026E+02  0.19999999915E+02 0.  0.
        -12    1    1    2    0    0 -0.38805933641E+02  0.18018868495E+02 -0.72830740675E+01  0.43400728974E+02  0.00000000000E+00 0.  1.
         11    1    3    3    0    0  0.16401243580E+02 -0.13546510604E+02  0.65155619024E+01  0.22247725450E+02  0.51100000000E-03 0. -1.
        -11    1    3    3    0    0 -0.31040264580E+00 -0.14764470425E+01 -0.19517945992E+01  0.24669309051E+01  0.51100000000E-03 0.  1.
         12    1    3    3    0    0  0.22715092707E+02 -0.29959108490E+01  0.27193067644E+01  0.23072614671E+02  0.00000000000E+00 0. -1.
</event>
<event>
 7    1  0.4931104E-009  0.4778727E+02  0.7816164E-02  0.1312668E+00
        -11   -1    0    0    0    0  0.00000000000E+00  0.00000000000E+00  0.45593999997E+02  0.45594000000E+02  0.51100000000E-03 0. -1.
         11   -1    0    0    0    0 -0.00000000000E+00 -0.00000000000E+00 -0.45593999997E+02  0.45594000000E+02  0.51100000000E-03 0.  1.
    9900012    2    1    2    0    0 -0.32981621595E+02 -0.28175435510E+02  0.14074335948E+01  0.47787269609E+02  0.19999993454E+02 0.  0.
        -12    1    1    2    0    0  0.32981621595E+02  0.28175435510E+02 -0.14074335948E+01  0.43400730391E+02  0.00000000000E+00 0.  1.
         11    1    3    3    0    0 -0.83015107717E+01 -0.34596331068E+01 -0.30031876961E+01  0.94817339620E+01  0.51100000000E-03 0. -1.
        -11    1    3    3    0    0  0.11226031452E+01  0.10833397238E+01  0.91365495414E-01  0.15627574008E+01  0.51100000000E-03 0.  1.
         12    1    3    3    0    0 -0.25802713968E+02 -0.25799142127E+02  0.43192557955E+01  0.36742778246E+02  0.00000000000E+00 0. -1.
</event>
<event>
 7    1  0.4931104E-009  0.4778726E+02  0.7816164E-02  0.1312668E+00
        -11   -1    0    0    0    0  0.00000000000E+00  0.00000000000E+00  0.45593999997E+02  0.45594000000E+02  0.51100000000E-03 0.  1.
         11   -1    0    0    0    0 -0.00000000000E+00 -0.00000000000E+00 -0.45593999997E+02  0.45594000000E+02  0.51100000000E-03 0. -1.
    9900012    2    1    2    0    0 -0.35899728597E+02  0.26233819901E+01 -0.24247715689E+02  0.47787258503E+02  0.19999942818E+02 0.  0.
        -12    1    1    2    0    0  0.35899728597E+02 -0.26233819901E+01  0.24247715689E+02  0.43400741497E+02  0.00000000000E+00 0.  1.
         11    1    3    3    0    0 -0.62380361745E+01  0.33320560165E+01 -0.46225188704E+01  0.84488681834E+01  0.51100000000E-03 0. -1.
        -11    1    3    3    0    0 -0.25969933546E+02 -0.44230409001E+01 -0.96198541176E+01  0.28045362053E+02  0.51100000000E-03 0.  1.
         12    1    3    3    0    0 -0.36917588765E+01  0.37143668737E+01 -0.10005342701E+02  0.11293028267E+02  0.00000000000E+00 0. -1.
</event>
<event>
 7    1  0.4931104E-009  0.4778727E+02  0.7816164E-02  0.1312668E+00
        -11   -1    0    0    0    0  0.00000000000E+00  0.00000000000E+00  0.45593999997E+02  0.45594000000E+02  0.51100000000E-03 0.  1.
         11   -1    0    0    0    0 -0.00000000000E+00 -0.00000000000E+00 -0.45593999997E+02  0.45594000000E+02  0.51100000000E-03 0. -1.
    9900012    2    1    2    0    0  0.40290596040E+02 -0.11838243479E+02 -0.10961163442E+02  0.47787271412E+02  0.20000001678E+02 0.  0.
        -12    1    1    2    0    0 -0.40290596040E+02  0.11838243479E+02  0.10961163442E+02  0.43400728588E+02  0.00000000000E+00 0.  1.
         11    1    3    3    0    0  0.66146687339E+01  0.10797815937E+01 -0.95361351782E+00  0.67697230189E+01  0.51100000000E-03 0. -1.
        -11    1    3    3    0    0  0.12288928369E+01 -0.63477602936E+01 -0.11909397531E+00  0.64667164764E+01  0.51100000000E-03 0.  1.
         12    1    3    3    0    0  0.32447034469E+02 -0.65702647786E+01 -0.98884559486E+01  0.34550831917E+02  0.00000000000E+00 0. -1.
</event>
<event>
 7    1  0.4931104E-009  0.4778727E+02  0.7816164E-02  0.1312668E+00
        -11   -1    0    0    0    0  0.00000000000E+00  0.00000000000E+00  0.45593999997E+02  0.45594000000E+02  0.51100000000E-03 0.  1.
         11   -1    0    0    0    0 -0.00000000000E+00 -0.00000000000E+00 -0.45593999997E+02  0.45594000000E+02  0.51100000000E-03 0. -1.
    9900012    2    1    2    0    0 -0.32634278805E+02 -0.19521182415E+02 -0.20917708266E+02  0.47787271490E+02  0.20000002034E+02 0.  0.
        -12    1    1    2    0    0  0.32634278805E+02  0.19521182415E+02  0.20917708266E+02  0.43400728510E+02  0.00000000000E+00 0.  1.
         11    1    3    3    0    0 -0.12948076830E+02 -0.13128568596E+02 -0.15371951183E+02  0.24006434355E+02  0.51100000000E-03 0. -1.
        -11    1    3    3    0    0 -0.13747416275E+02 -0.65525711349E+01 -0.81743939544E+01  0.17284338561E+02  0.51100000000E-03 0.  1.
        -12    1    3    3    0    0 -0.59387856997E+01  0.15995731563E+00  0.26286368709E+01  0.64964985745E+01  0.00000000000E+00 0.  1.
</event>
<event>
 7    1  0.4931104E-009  0.4778723E+02  0.7816164E-02  0.1312668E+00
        -11   -1    0    0    0    0  0.00000000000E+00  0.00000000000E+00  0.45593999997E+02  0.45594000000E+02  0.51100000000E-03 0.  1.
         11   -1    0    0    0    0 -0.00000000000E+00 -0.00000000000E+00 -0.45593999997E+02  0.45594000000E+02  0.51100000000E-03 0. -1.
    9900012    2    1    2    0    0  0.46587749270E+01 -0.43149983025E+02 -0.41934796506E-01  0.47787228378E+02  0.19999805464E+02 0.  0.
        -12    1    1    2    0    0 -0.46587749270E+01  0.43149983025E+02  0.41934796506E-01  0.43400771622E+02  0.00000000000E+00 0.  1.
         11    1    3    3    0    0  0.11053209271E+01 -0.13516007499E+01  0.85670457710E+00  0.19448655307E+01  0.51100000000E-03 0. -1.
        -11    1    3    3    0    0 -0.42080381398E+01 -0.12144223202E+02  0.63621873341E+01  0.14341100728E+02  0.51100000000E-03 0.  1.
         12    1    3    3    0    0  0.77614921397E+01 -0.29654159073E+02 -0.72608267077E+01  0.31501262118E+02  0.00000000000E+00 0. -1.
</event>
<event>
 7    1  0.4931104E-009  0.4778727E+02  0.7816164E-02  0.1312668E+00
        -11   -1    0    0    0    0  0.00000000000E+00  0.00000000000E+00  0.45593999997E+02  0.45594000000E+02  0.51100000000E-03 0.  1.
         11   -1    0    0    0    0 -0.00000000000E+00 -0.00000000000E+00 -0.45593999997E+02  0.45594000000E+02  0.51100000000E-03 0. -1.
    9900012    2    1    2    0    0  0.48151708715E+01  0.12345766251E+02 -0.41328191007E+02  0.47787272049E+02  0.20000004578E+02 0.  0.
        -12    1    1    2    0    0 -0.48151708715E+01 -0.12345766251E+02  0.41328191007E+02  0.43400727951E+02  0.00000000000E+00 0.  1.
         11    1    3    3    0    0  0.37749302355E+01  0.18840749601E+01 -0.39927313669E+01  0.58087641343E+01  0.51100000000E-03 0. -1.
        -11    1    3    3    0    0 -0.15886541403E+01  0.97096914905E+01 -0.84658473379E+01  0.12979695768E+02  0.51100000000E-03 0.  1.
         12    1    3    3    0    0  0.26288947763E+01  0.75199980030E+00 -0.28869612302E+02  0.28998812146E+02  0.00000000000E+00 0. -1.
</event>
<event>
 7    1  0.4931104E-009  0.4778727E+02  0.7816164E-02  0.1312668E+00
        -11   -1    0    0    0    0  0.00000000000E+00  0.00000000000E+00  0.45593999997E+02  0.45594000000E+02  0.51100000000E-03 0.  1.
         11   -1    0    0    0    0 -0.00000000000E+00 -0.00000000000E+00 -0.45593999997E+02  0.45594000000E+02  0.51100000000E-03 0. -1.
    9900012    2    1    2    0    0 -0.34296440704E+02  0.26356571544E+02  0.35648707817E+01  0.47787274059E+02  0.20000013746E+02 0.  0.
        -12    1    1    2    0    0  0.34296440704E+02 -0.26356571544E+02 -0.35648707817E+01  0.43400725941E+02  0.00000000000E+00 0.  1.
         11    1    3    3    0    0  0.11261978787E+01  0.70999981417E+00  0.80039105601E+00  0.15533986937E+01  0.51100000000E-03 0. -1.
        -11    1    3    3    0    0 -0.21282248994E+02  0.10461015987E+02  0.76483053864E+01  0.24917133729E+02  0.51100000000E-03 0.  1.
         12    1    3    3    0    0 -0.14140389588E+02  0.15185555742E+02 -0.48838256607E+01  0.21316741636E+02  0.00000000000E+00 0. -1.
</event>
<event>
 7    1  0.4931104E-009  0.4778727E+02  0.7816164E-02  0.1312668E+00
        -11   -1    0    0    0    0  0.00000000000E+00  0.00000000000E+00  0.45593999997E+02  0.45594000000E+02  0.51100000000E-03 0. -1.
         11   -1    0    0    0    0 -0.00000000000E+00 -0.00000000000E+00 -0.45593999997E+02  0.45594000000E+02  0.51100000000E-03 0.  1.
    9900012    2    1    2    0    0  0.30293107924E+02  0.31075186235E+02  0.53242256387E+00  0.47787273497E+02  0.20000011182E+02 0.  0.
        -12    1    1    2    0    0 -0.30293107924E+02 -0.31075186235E+02 -0.53242256387E+00  0.43400726503E+02  0.00000000000E+00 0.  1.
         11    1    3    3    0    0  0.14792593523E+02  0.13818101910E+02  0.68123489439E+01  0.21358109980E+02  0.51100000000E-03 0. -1.
        -11    1    3    3    0    0  0.54875607826E+01  0.13152258873E+02 -0.73621670250E+00  0.14270152490E+02  0.51100000000E-03 0.  1.
        -12    1    3    3    0    0  0.10012953618E+02  0.41048254516E+01 -0.55437096775E+01  0.12159011026E+02  0.00000000000E+00 0.  1.
</event>
<event>
 7    1  0.4931104E-009  0.4778727E+02  0.7816164E-02  0.1312668E+00
        -11   -1    0    0    0    0  0.00000000000E+00  0.00000000000E+00  0.45593999997E+02  0.45594000000E+02  0.51100000000E-03 0. -1.
         11   -1    0    0    0    0 -0.00000000000E+00 -0.00000000000E+00 -0.45593999997E+02  0.45594000000E+02  0.51100000000E-03 0.  1.
    9900012    2    1    2    0    0  0.29564099176E+02 -0.26873365533E+02  0.16953154414E+02  0.47787272129E+02  0.20000004945E+02 0.  0.
        -12    1    1    2    0    0 -0.29564099176E+02  0.26873365533E+02 -0.16953154414E+02  0.43400727871E+02  0.00000000000E+00 0.  1.
         11    1    3    3    0    0  0.11796972837E+02 -0.10510297347E+02  0.33385359305E+01  0.16148707096E+02  0.51100000000E-03 0. -1.
        -11    1    3    3    0    0 -0.79027873982E+00 -0.16745429482E+01 -0.24229782095E+01  0.30495013096E+01  0.51100000000E-03 0.  1.
         12    1    3    3    0    0  0.18557405078E+02 -0.14688525238E+02  0.16037596693E+02  0.28589063723E+02  0.00000000000E+00 0. -1.
</event>
<event>
 7    1  0.4931104E-009  0.4778727E+02  0.7816164E-02  0.1312668E+00
        -11   -1    0    0    0    0  0.00000000000E+00  0.00000000000E+00  0.45593999997E+02  0.45594000000E+02  0.51100000000E-03 0.  1.
         11   -1    0    0    0    0 -0.00000000000E+00 -0.00000000000E+00 -0.45593999997E+02  0.45594000000E+02  0.51100000000E-03 0. -1.
    9900012    2    1    2    0    0  0.61682240137E+01 -0.11474392858E+02 -0.41399449303E+02  0.47787273261E+02  0.20000010105E+02 0.  0.
        -12    1    1    2    0    0 -0.61682240137E+01  0.11474392858E+02  0.41399449303E+02  0.43400726739E+02  0.00000000000E+00 0.  1.
         11    1    3    3    0    0  0.25832276307E+01 -0.99110508077E+01 -0.25564358294E+02  0.27539760500E+02  0.51100000000E-03 0.  1.
        -11    1    3    3    0    0  0.73263348587E+01 -0.23048443566E+01 -0.14102616674E+02  0.16058371252E+02  0.51100000000E-03 0. -1.
        -12    1    3    3    0    0 -0.37413384756E+01  0.74150230682E+00 -0.17324743344E+01  0.41891415087E+01  0.00000000000E+00 0.  1.
</event>
<event>
 7    1  0.4931104E-009  0.4778728E+02  0.7816164E-02  0.1312668E+00
        -11   -1    0    0    0    0  0.00000000000E+00  0.00000000000E+00  0.45593999997E+02  0.45594000000E+02  0.51100000000E-03 0.  1.
         11   -1    0    0    0    0 -0.00000000000E+00 -0.00000000000E+00 -0.45593999997E+02  0.45594000000E+02  0.51100000000E-03 0. -1.
    9900012    2    1    2    0    0  0.60510595593E+01 -0.42944083825E+02 -0.16771504798E+01  0.47787280062E+02  0.20000041116E+02 0.  0.
        -12    1    1    2    0    0 -0.60510595593E+01  0.42944083825E+02  0.16771504798E+01  0.43400719938E+02  0.00000000000E+00 0.  1.
         11    1    3    3    0    0  0.35061990561E+01 -0.18450589463E+02  0.27083651994E+01  0.18975060623E+02  0.51100000000E-03 0. -1.
        -11    1    3    3    0    0  0.27138157641E+01 -0.16189516545E+02  0.41195096660E+01  0.16924408471E+02  0.51100000000E-03 0.  1.
         12    1    3    3    0    0 -0.16895526086E+00 -0.83039778179E+01 -0.85050253452E+01  0.11887810968E+02  0.00000000000E+00 0. -1.
</event>
<event>
 7    1  0.4931104E-009  0.4778727E+02  0.7816164E-02  0.1312668E+00
        -11   -1    0    0    0    0  0.00000000000E+00  0.00000000000E+00  0.45593999997E+02  0.45594000000E+02  0.51100000000E-03 0.  1.
         11   -1    0    0    0    0 -0.00000000000E+00 -0.00000000000E+00 -0.45593999997E+02  0.45594000000E+02  0.51100000000E-03 0. -1.
    9900012    2    1    2    0    0 -0.14229246621E+02 -0.20607020457E+02 -0.35447179240E+02  0.47787271117E+02  0.20000000332E+02 0.  0.
        -12    1    1    2    0    0  0.14229246621E+02  0.20607020457E+02  0.35447179240E+02  0.43400728883E+02  0.00000000000E+00 0.  1.
         11    1    3    3    0    0 -0.19031665400E+01 -0.13410886063E+01 -0.17046357460E+00  0.23344420362E+01  0.51100000000E-03 0. -1.
        -11    1    3    3    0    0 -0.44936961435E+01 -0.53420632181E+01 -0.28481277689E+00  0.69865630345E+01  0.51100000000E-03 0.  1.
         12    1    3    3    0    0 -0.78323839370E+01 -0.13923868632E+02 -0.34991902888E+02  0.38466266047E+02  0.00000000000E+00 0. -1.
</event>
<event>
 7    1  0.4931104E-009  0.4778727E+02  0.7816164E-02  0.1312668E+00
        -11   -1    0    0    0    0  0.00000000000E+00  0.00000000000E+00  0.45593999997E+02  0.45594000000E+02  0.51100000000E-03 0.  1.
         11   -1    0    0    0    0 -0.00000000000E+00 -0.00000000000E+00 -0.45593999997E+02  0.45594000000E+02  0.51100000000E-03 0. -1.
    9900012    2    1    2    0    0 -0.21042490220E+02 -0.99475923817E+01 -0.36631714065E+02  0.47787268852E+02  0.19999990004E+02 0.  0.
        -12    1    1    2    0    0  0.21042490220E+02  0.99475923817E+01  0.36631714065E+02  0.43400731148E+02  0.00000000000E+00 0.  1.
         11    1    3    3    0    0 -0.60265969070E+01 -0.41227547042E+01 -0.53477328248E+01  0.90507029150E+01  0.51100000000E-03 0. -1.
        -11    1    3    3    0    0  0.14381977562E+01  0.26639712750E+01 -0.90429361163E+00  0.31595732207E+01  0.51100000000E-03 0.  1.
        -12    1    3    3    0    0 -0.16454091069E+02 -0.84888089525E+01 -0.30379687628E+02  0.35576992716E+02  0.00000000000E+00 0.  1.
</event>
<event>
 7    1  0.4931104E-009  0.4778727E+02  0.7816164E-02  0.1312668E+00
        -11   -1    0    0    0    0  0.00000000000E+00  0.00000000000E+00  0.45593999997E+02  0.45594000000E+02  0.51100000000E-03 0.  1.
         11   -1    0    0    0    0 -0.00000000000E+00 -0.00000000000E+00 -0.45593999997E+02  0.45594000000E+02  0.51100000000E-03 0. -1.
    9900012    2    1    2    0    0  0.31521377720E+02  0.28406478015E+02 -0.91158310959E+01  0.47787267020E+02  0.19999981650E+02 0.  0.
        -12    1    1    2    0    0 -0.31521377720E+02 -0.28406478015E+02  0.91158310959E+01  0.43400732980E+02  0.00000000000E+00 0.  1.
         11    1    3    3    0    0  0.17398875457E+01  0.51519948578E+01 -0.18789857593E+01  0.57533335929E+01  0.51100000000E-03 0. -1.
        -11    1    3    3    0    0  0.94172539747E+01  0.18094041718E+02 -0.34786675165E+01  0.20692514252E+02  0.51100000000E-03 0.  1.
         12    1    3    3    0    0  0.20364236200E+02  0.51604414393E+01 -0.37581778202E+01  0.21341419175E+02  0.00000000000E+00 0. -1.
</event>
<event>
 7    1  0.4931104E-009  0.4778727E+02  0.7816164E-02  0.1312668E+00
        -11   -1    0    0    0    0  0.00000000000E+00  0.00000000000E+00  0.45593999997E+02  0.45594000000E+02  0.51100000000E-03 0.  1.
         11   -1    0    0    0    0 -0.00000000000E+00 -0.00000000000E+00 -0.45593999997E+02  0.45594000000E+02  0.51100000000E-03 0. -1.
    9900012    2    1    2    0    0 -0.14093010814E+02 -0.10422837115E+02 -0.39703585707E+02  0.47787271834E+02  0.20000003600E+02 0.  0.
        -12    1    1    2    0    0  0.14093010814E+02  0.10422837115E+02  0.39703585707E+02  0.43400728166E+02  0.00000000000E+00 0.  1.
         11    1    3    3    0    0 -0.58011866887E-01 -0.31926139770E+01  0.12824175238E+00  0.31957151924E+01  0.51100000000E-03 0. -1.
        -11    1    3    3    0    0 -0.44316558828E+00  0.75891563370E+00 -0.15955065218E+02  0.15979250766E+02  0.51100000000E-03 0.  1.
         12    1    3    3    0    0 -0.13591833359E+02 -0.79891387720E+01 -0.23876762241E+02  0.28612305875E+02  0.00000000000E+00 0. -1.
</event>
<event>
 7    1  0.4931104E-009  0.4778732E+02  0.7816164E-02  0.1312668E+00
        -11   -1    0    0    0    0  0.00000000000E+00  0.00000000000E+00  0.45593999997E+02  0.45594000000E+02  0.51100000000E-03 0. -1.
         11   -1    0    0    0    0 -0.00000000000E+00 -0.00000000000E+00 -0.45593999997E+02  0.45594000000E+02  0.51100000000E-03 0.  1.
    9900012    2    1    2    0    0  0.42355673670E+02  0.89267435443E+01 -0.31511059789E+01  0.47787316697E+02  0.20000208146E+02 0.  0.
        -12    1    1    2    0    0 -0.42355673670E+02 -0.89267435443E+01  0.31511059789E+01  0.43400683303E+02  0.00000000000E+00 0.  1.
         11    1    3    3    0    0  0.31216437174E+02  0.11920797582E+02 -0.70768378355E+01  0.34156302476E+02  0.51100000000E-03 0. -1.
        -11    1    3    3    0    0  0.66297822444E+00 -0.11050096378E+01 -0.12490889235E+01  0.17946614794E+01  0.51100000000E-03 0.  1.
         12    1    3    3    0    0  0.10476258271E+02 -0.18890443996E+01  0.51748207801E+01  0.11836352741E+02  0.00000000000E+00 0. -1.
</event>
<event>
 7    1  0.4931104E-009  0.4778728E+02  0.7816164E-02  0.1312668E+00
        -11   -1    0    0    0    0  0.00000000000E+00  0.00000000000E+00  0.45593999997E+02  0.45594000000E+02  0.51100000000E-03 0. -1.
         11   -1    0    0    0    0 -0.00000000000E+00 -0.00000000000E+00 -0.45593999997E+02  0.45594000000E+02  0.51100000000E-03 0.  1.
    9900012    2    1    2    0    0 -0.50708968022E+00  0.31499050101E+02  0.29852557896E+02  0.47787279843E+02  0.20000040118E+02 0.  0.
        -12    1    1    2    0    0  0.50708968022E+00 -0.31499050101E+02 -0.29852557896E+02  0.43400720157E+02  0.00000000000E+00 0.  1.
         11    1    3    3    0    0  0.27693107771E+01  0.13924293673E+02  0.70630451604E+01  0.15856911542E+02  0.51100000000E-03 0. -1.
        -11    1    3    3    0    0  0.44909484804E+01  0.11913441980E+02  0.13675764001E+02  0.18684893346E+02  0.51100000000E-03 0.  1.
         12    1    3    3    0    0 -0.77673489378E+01  0.56613144483E+01  0.91137487343E+01  0.13245474955E+02  0.00000000000E+00 0. -1.
</event>
<event>
 7    1  0.4931104E-009  0.4778728E+02  0.7816164E-02  0.1312668E+00
        -11   -1    0    0    0    0  0.00000000000E+00  0.00000000000E+00  0.45593999997E+02  0.45594000000E+02  0.51100000000E-03 0.  1.
         11   -1    0    0    0    0 -0.00000000000E+00 -0.00000000000E+00 -0.45593999997E+02  0.45594000000E+02  0.51100000000E-03 0. -1.
    9900012    2    1    2    0    0 -0.38108031848E+02  0.17374878200E+01 -0.20697387049E+02  0.47787276666E+02  0.20000025632E+02 0.  0.
        -12    1    1    2    0    0  0.38108031848E+02 -0.17374878200E+01  0.20697387049E+02  0.43400723334E+02  0.00000000000E+00 0.  1.
         11    1    3    3    0    0 -0.63424038804E+01  0.24873416807E+01  0.18449263961E+01  0.70580953017E+01  0.51100000000E-03 0. -1.
        -11    1    3    3    0    0 -0.32098792379E+01  0.30179358713E+01 -0.44933424684E+00  0.44286751034E+01  0.51100000000E-03 0.  1.
         12    1    3    3    0    0 -0.28555748730E+02 -0.37677897320E+01 -0.22092979198E+02  0.36300506261E+02  0.00000000000E+00 0. -1.
</event>
<event>
 7    1  0.4931104E-009  0.4778726E+02  0.7816164E-02  0.1312668E+00
        -11   -1    0    0    0    0  0.00000000000E+00  0.00000000000E+00  0.45593999997E+02  0.45594000000E+02  0.51100000000E-03 0.  1.
         11   -1    0    0    0    0 -0.00000000000E+00 -0.00000000000E+00 -0.45593999997E+02  0.45594000000E+02  0.51100000000E-03 0. -1.
    9900012    2    1    2    0    0 -0.17334336432E+02 -0.25675358779E+02 -0.30396062382E+02  0.47787264104E+02  0.19999968355E+02 0.  0.
        -12    1    1    2    0    0  0.17334336432E+02  0.25675358779E+02  0.30396062382E+02  0.43400735896E+02  0.00000000000E+00 0.  1.
         11    1    3    3    0    0 -0.66901722300E+01 -0.14572059243E+02 -0.17639472171E+02  0.23838084943E+02  0.51100000000E-03 0. -1.
        -11    1    3    3    0    0  0.16376912784E+01  0.98208202271E-01 -0.56281070119E+01  0.58623601368E+01  0.51100000000E-03 0.  1.
        -12    1    3    3    0    0 -0.12281855481E+02 -0.11201507739E+02 -0.71284831997E+01  0.18086819024E+02  0.00000000000E+00 0.  1.
</event>
<event>
 7    1  0.4931104E-009  0.4778727E+02  0.7816164E-02  0.1312668E+00
        -11   -1    0    0    0    0  0.00000000000E+00  0.00000000000E+00  0.45593999997E+02  0.45594000000E+02  0.51100000000E-03 0. -1.
         11   -1    0    0    0    0 -0.00000000000E+00 -0.00000000000E+00 -0.45593999997E+02  0.45594000000E+02  0.51100000000E-03 0.  1.
    9900012    2    1    2    0    0 -0.33553321973E+02 -0.18661360575E+02  0.20237380049E+02  0.47787270223E+02  0.19999996256E+02 0.  0.
        -12    1    1    2    0    0  0.33553321973E+02  0.18661360575E+02 -0.20237380049E+02  0.43400729777E+02  0.00000000000E+00 0.  1.
         11    1    3    3    0    0 -0.18581010623E+02 -0.73848838160E+01  0.74531966783E+01  0.21338711436E+02  0.51100000000E-03 0. -1.
        -11    1    3    3    0    0 -0.30642470622E+01  0.20012136900E+01 -0.11271104315E+01  0.38294705217E+01  0.51100000000E-03 0.  1.
         12    1    3    3    0    0 -0.11908064288E+02 -0.13277690448E+02  0.13911293802E+02  0.22619088266E+02  0.00000000000E+00 0. -1.
</event>
<event>
 7    1  0.4931104E-009  0.4778727E+02  0.7816164E-02  0.1312668E+00
        -11   -1    0    0    0    0  0.00000000000E+00  0.00000000000E+00  0.45593999997E+02  0.45594000000E+02  0.51100000000E-03 0.  1.
         11   -1    0    0    0    0 -0.00000000000E+00 -0.00000000000E+00 -0.45593999997E+02  0.45594000000E+02  0.51100000000E-03 0. -1.
    9900012    2    1    2    0    0 -0.43295991398E+02  0.27550986289E+01 -0.12205292890E+01  0.47787272687E+02  0.20000007488E+02 0.  0.
        -12    1    1    2    0    0  0.43295991398E+02 -0.27550986289E+01  0.12205292890E+01  0.43400727313E+02  0.00000000000E+00 0.  1.
         11    1    3    3    0    0 -0.20853192315E+02  0.17735235519E+01  0.35595579396E+01  0.21229024201E+02  0.51100000000E-03 0. -1.
        -11    1    3    3    0    0 -0.10897797352E+02 -0.53627354043E+01  0.97029469588E+00  0.12184514361E+02  0.51100000000E-03 0.  1.
        -12    1    3    3    0    0 -0.11545001730E+02  0.63443104812E+01 -0.57503819245E+01  0.14373734126E+02  0.00000000000E+00 0.  1.
</event>
<event>
 7    1  0.4931104E-009  0.4778727E+02  0.7816164E-02  0.1312668E+00
        -11   -1    0    0    0    0  0.00000000000E+00  0.00000000000E+00  0.45593999997E+02  0.45594000000E+02  0.51100000000E-03 0. -1.
         11   -1    0    0    0    0 -0.00000000000E+00 -0.00000000000E+00 -0.45593999997E+02  0.45594000000E+02  0.51100000000E-03 0.  1.
    9900012    2    1    2    0    0  0.18742969392E+02 -0.93930470357E+01  0.38001251328E+02  0.47787270320E+02  0.19999996699E+02 0.  0.
        -12    1    1    2    0    0 -0.18742969392E+02  0.93930470357E+01 -0.38001251328E+02  0.43400729680E+02  0.00000000000E+00 0.  1.
         11    1    3    3    0    0  0.72419945358E+01  0.57786940487E+00  0.88175456709E+01  0.11424952071E+02  0.51100000000E-03 0. -1.
        -11    1    3    3    0    0 -0.20768322443E+01 -0.17883264760E+01 -0.42824459825E+00  0.27739389778E+01  0.51100000000E-03 0.  1.
         12    1    3    3    0    0  0.13577807100E+02 -0.81825899646E+01  0.29611950255E+02  0.33588379272E+02  0.00000000000E+00 0. -1.
</event>
<event>
 7    1  0.6530192E-009  0.4778727E+02  0.7816164E-02  0.1312668E+00
        -11   -1    0    0    0    0  0.00000000000E+00  0.00000000000E+00  0.45593999997E+02  0.45594000000E+02  0.51100000000E-03 0. -1.
         11   -1    0    0    0    0 -0.00000000000E+00 -0.00000000000E+00 -0.45593999997E+02  0.45594000000E+02  0.51100000000E-03 0.  1.
    9900012    2    1    2    0    0 -0.37231707939E+02 -0.17265140540E+02  0.14118709040E+02  0.47787273061E+02  0.20000009194E+02 0.  0.
        -12    1    1    2    0    0  0.37231707939E+02  0.17265140540E+02 -0.14118709040E+02  0.43400726939E+02  0.00000000000E+00 0.  1.
         11    1    3    3    0    0 -0.19389542295E+02 -0.14731099345E+02  0.88538302642E+01  0.25910421628E+02  0.51100000000E-03 0. -1.
        -11    1    3    3    0    0 -0.17252675803E+02 -0.55279921028E+01  0.38880374279E+01  0.18529175760E+02  0.51100000000E-03 0.  1.
        -12    1    3    3    0    0 -0.58948984024E+00  0.29939509082E+01  0.13768413476E+01  0.33476756726E+01  0.00000000000E+00 0.  1.
</event>
<event>
 7    1  0.4931104E-009  0.4778729E+02  0.7816164E-02  0.1312668E+00
        -11   -1    0    0    0    0  0.00000000000E+00  0.00000000000E+00  0.45593999997E+02  0.45594000000E+02  0.51100000000E-03 0.  1.
         11   -1    0    0    0    0 -0.00000000000E+00 -0.00000000000E+00 -0.45593999997E+02  0.45594000000E+02  0.51100000000E-03 0. -1.
    9900012    2    1    2    0    0 -0.15589088845E+02  0.30453032282E+02 -0.26706075145E+02  0.47787293602E+02  0.20000102848E+02 0.  0.
        -12    1    1    2    0    0  0.15589088845E+02 -0.30453032282E+02  0.26706075145E+02  0.43400706398E+02  0.00000000000E+00 0.  1.
         11    1    3    3    0    0 -0.99948193017E+01  0.25250588988E+02 -0.10936211158E+02  0.29276088739E+02  0.51100000000E-03 0. -1.
        -11    1    3    3    0    0 -0.21151403126E+01  0.15017100556E+01 -0.81770455505E+00  0.27198515830E+01  0.51100000000E-03 0.  1.
        -12    1    3    3    0    0 -0.34791292303E+01  0.37007332385E+01 -0.14952159433E+02  0.15791353280E+02  0.00000000000E+00 0.  1.
</event>
<event>
 7    1  0.4931104E-009  0.4778726E+02  0.7816164E-02  0.1312668E+00
        -11   -1    0    0    0    0  0.00000000000E+00  0.00000000000E+00  0.45593999997E+02  0.45594000000E+02  0.51100000000E-03 0.  1.
         11   -1    0    0    0    0 -0.00000000000E+00 -0.00000000000E+00 -0.45593999997E+02  0.45594000000E+02  0.51100000000E-03 0. -1.
    9900012    2    1    2    0    0 -0.17590726366E+01  0.15923578623E+02 -0.40335708076E+02  0.47787262233E+02  0.19999959826E+02 0.  0.
        -12    1    1    2    0    0  0.17590726366E+01 -0.15923578623E+02  0.40335708076E+02  0.43400737767E+02  0.00000000000E+00 0.  1.
         11    1    3    3    0    0  0.14972756815E+01 -0.26588759131E+01 -0.31759334573E+01  0.44043171064E+01  0.51100000000E-03 0. -1.
        -11    1    3    3    0    0  0.40150405295E+01  0.26650138557E+01 -0.66812044417E+01  0.82377996065E+01  0.51100000000E-03 0.  1.
         12    1    3    3    0    0 -0.72713888476E+01  0.15917440680E+02 -0.30478570177E+02  0.35145145520E+02  0.00000000000E+00 0. -1.
</event>
<event>
 7    1  0.4931104E-009  0.4778727E+02  0.7816164E-02  0.1312668E+00
        -11   -1    0    0    0    0  0.00000000000E+00  0.00000000000E+00  0.45593999997E+02  0.45594000000E+02  0.51100000000E-03 0.  1.
         11   -1    0    0    0    0 -0.00000000000E+00 -0.00000000000E+00 -0.45593999997E+02  0.45594000000E+02  0.51100000000E-03 0. -1.
    9900012    2    1    2    0    0  0.33343062737E+02  0.26953424180E+02 -0.67361941269E+01  0.47787271676E+02  0.20000002881E+02 0.  0.
        -12    1    1    2    0    0 -0.33343062737E+02 -0.26953424180E+02  0.67361941269E+01  0.43400728324E+02  0.00000000000E+00 0.  1.
         11    1    3    3    0    0  0.20825102669E+02  0.19249468816E+02  0.33141932271E+01  0.28551897098E+02  0.51100000000E-03 0. -1.
        -11    1    3    3    0    0 -0.47900854235E+00 -0.55552868218E+00 -0.13801928216E+01  0.15630079291E+01  0.51100000000E-03 0.  1.
         12    1    3    3    0    0  0.12996968611E+02  0.82594840459E+01 -0.86701945325E+01  0.17672366650E+02  0.00000000000E+00 0. -1.
</event>
<event>
 7    1  0.4931104E-009  0.4778725E+02  0.7816164E-02  0.1312668E+00
        -11   -1    0    0    0    0  0.00000000000E+00  0.00000000000E+00  0.45593999997E+02  0.45594000000E+02  0.51100000000E-03 0. -1.
         11   -1    0    0    0    0 -0.00000000000E+00 -0.00000000000E+00 -0.45593999997E+02  0.45594000000E+02  0.51100000000E-03 0.  1.
    9900012    2    1    2    0    0 -0.18617565215E+02 -0.39173863469E+02  0.15554970283E+01  0.47787252487E+02  0.19999915391E+02 0.  0.
        -12    1    1    2    0    0  0.18617565215E+02  0.39173863469E+02 -0.15554970283E+01  0.43400747513E+02  0.00000000000E+00 0.  1.
         11    1    3    3    0    0 -0.14972407971E+02 -0.30603897908E+02  0.62181468454E+01  0.34632887810E+02  0.51100000000E-03 0. -1.
        -11    1    3    3    0    0 -0.18777167672E+01 -0.17218724979E+01  0.21505393770E+01  0.33339893566E+01  0.51100000000E-03 0.  1.
        -12    1    3    3    0    0 -0.17674404768E+01 -0.68480930635E+01 -0.68131891941E+01  0.98203753207E+01  0.00000000000E+00 0.  1.
</event>
<event>
 7    1  0.4931104E-009  0.4778727E+02  0.7816164E-02  0.1312668E+00
        -11   -1    0    0    0    0  0.00000000000E+00  0.00000000000E+00  0.45593999997E+02  0.45594000000E+02  0.51100000000E-03 0.  1.
         11   -1    0    0    0    0 -0.00000000000E+00 -0.00000000000E+00 -0.45593999997E+02  0.45594000000E+02  0.51100000000E-03 0. -1.
    9900012    2    1    2    0    0 -0.21465295187E+02 -0.36776948644E+02  0.83857277528E+01  0.47787270986E+02  0.19999999731E+02 0.  0.
        -12    1    1    2    0    0  0.21465295187E+02  0.36776948644E+02 -0.83857277528E+01  0.43400729014E+02  0.00000000000E+00 0.  1.
         11    1    3    3    0    0 -0.93317192610E+01 -0.13043423766E+02 -0.83398746371E+00  0.16059496358E+02  0.51100000000E-03 0. -1.
        -11    1    3    3    0    0 -0.14720062417E+02 -0.14642275732E+02  0.48856473063E+01  0.21329463801E+02  0.51100000000E-03 0.  1.
         12    1    3    3    0    0  0.25864864911E+01 -0.90912491465E+01  0.43340679102E+01  0.10398310827E+02  0.00000000000E+00 0. -1.
</event>
<event>
 7    1  0.4931104E-009  0.4778727E+02  0.7816164E-02  0.1312668E+00
        -11   -1    0    0    0    0  0.00000000000E+00  0.00000000000E+00  0.45593999997E+02  0.45594000000E+02  0.51100000000E-03 0.  1.
         11   -1    0    0    0    0 -0.00000000000E+00 -0.00000000000E+00 -0.45593999997E+02  0.45594000000E+02  0.51100000000E-03 0. -1.
    9900012    2    1    2    0    0 -0.12094873037E+02  0.64114068797E+01 -0.41185330359E+02  0.47787268108E+02  0.19999986613E+02 0.  0.
        -12    1    1    2    0    0  0.12094873037E+02 -0.64114068797E+01  0.41185330359E+02  0.43400731892E+02  0.00000000000E+00 0.  1.
         11    1    3    3    0    0  0.90522610159E+00  0.35860748058E+01 -0.96420321464E+01  0.10327059164E+02  0.51100000000E-03 0. -1.
        -11    1    3    3    0    0 -0.90772541627E+00 -0.40988476662E+01 -0.17099483821E+01  0.45330388651E+01  0.51100000000E-03 0.  1.
        -12    1    3    3    0    0 -0.12092373722E+02  0.69241797401E+01 -0.29833349830E+02  0.32927170079E+02  0.00000000000E+00 0.  1.
</event>
<event>
 7    1  0.4931104E-009  0.4778727E+02  0.7816164E-02  0.1312668E+00
        -11   -1    0    0    0    0  0.00000000000E+00  0.00000000000E+00  0.45593999997E+02  0.45594000000E+02  0.51100000000E-03 0.  1.
         11   -1    0    0    0    0 -0.00000000000E+00 -0.00000000000E+00 -0.45593999997E+02  0.45594000000E+02  0.51100000000E-03 0. -1.
    9900012    2    1    2    0    0 -0.22236109715E+02  0.24133421583E+02 -0.28403460971E+02  0.47787271807E+02  0.20000003478E+02 0.  0.
        -12    1    1    2    0    0  0.22236109715E+02 -0.24133421583E+02  0.28403460971E+02  0.43400728193E+02  0.00000000000E+00 0.  1.
         11    1    3    3    0    0  0.54910415365E+00  0.74948099259E+00 -0.29635917804E+01  0.31058193173E+01  0.51100000000E-03 0. -1.
        -11    1    3    3    0    0 -0.15641771488E+02  0.20245826028E+02 -0.10165915764E+02  0.27530062303E+02  0.51100000000E-03 0.  1.
         12    1    3    3    0    0 -0.71434423805E+01  0.31381145618E+01 -0.15273953427E+02  0.17151390186E+02  0.00000000000E+00 0. -1.
</event>
<event>
 7    1  0.4931104E-009  0.4778727E+02  0.7816164E-02  0.1312668E+00
        -11   -1    0    0    0    0  0.00000000000E+00  0.00000000000E+00  0.45593999997E+02  0.45594000000E+02  0.51100000000E-03 0.  1.
         11   -1    0    0    0    0 -0.00000000000E+00 -0.00000000000E+00 -0.45593999997E+02  0.45594000000E+02  0.51100000000E-03 0. -1.
    9900012    2    1    2    0    0 -0.66071672788E+01 -0.24370222421E+02 -0.35299592688E+02  0.47787266778E+02  0.19999980547E+02 0.  0.
        -12    1    1    2    0    0  0.66071672788E+01  0.24370222421E+02  0.35299592688E+02  0.43400733222E+02  0.00000000000E+00 0.  1.
         11    1    3    3    0    0 -0.44374740114E+01 -0.85537567150E+00 -0.86790818900E+01  0.97851574262E+01  0.51100000000E-03 0. -1.
        -11    1    3    3    0    0  0.76564353732E+00 -0.65827547108E+00 -0.88352351139E+01  0.88927451555E+01  0.51100000000E-03 0.  1.
         12    1    3    3    0    0 -0.29353368047E+01 -0.22856571278E+02 -0.17785275684E+02  0.29109364196E+02  0.00000000000E+00 0. -1.
</event>
<event>
 7    1  0.4931104E-009  0.4778727E+02  0.7816164E-02  0.1312668E+00
        -11   -1    0    0    0    0  0.00000000000E+00  0.00000000000E+00  0.45593999997E+02  0.45594000000E+02  0.51100000000E-03 0.  1.
         11   -1    0    0    0    0 -0.00000000000E+00 -0.00000000000E+00 -0.45593999997E+02  0.45594000000E+02  0.51100000000E-03 0. -1.
    9900012    2    1    2    0    0  0.82567771454E+01  0.30393462995E+02 -0.29861117018E+02  0.47787271074E+02  0.20000000137E+02 0.  0.
        -12    1    1    2    0    0 -0.82567771454E+01 -0.30393462995E+02  0.29861117018E+02  0.43400728926E+02  0.00000000000E+00 0.  1.
         11    1    3    3    0    0  0.14283589900E+01  0.16891421833E+01 -0.39304489738E+01  0.45101929134E+01  0.51100000000E-03 0. -1.
        -11    1    3    3    0    0 -0.31358528135E+01 -0.79771533701E+00 -0.99828915447E+00  0.33862226926E+01  0.51100000000E-03 0.  1.
         12    1    3    3    0    0  0.99642709689E+01  0.29502036149E+02 -0.24932378890E+02  0.39890855468E+02  0.00000000000E+00 0. -1.
</event>
<event>
 7    1  0.4931104E-009  0.4778727E+02  0.7816164E-02  0.1312668E+00
        -11   -1    0    0    0    0  0.00000000000E+00  0.00000000000E+00  0.45593999997E+02  0.45594000000E+02  0.51100000000E-03 0.  1.
         11   -1    0    0    0    0 -0.00000000000E+00 -0.00000000000E+00 -0.45593999997E+02  0.45594000000E+02  0.51100000000E-03 0. -1.
    9900012    2    1    2    0    0 -0.20070760580E+02  0.22611238572E+01 -0.38414524016E+02  0.47787265366E+02  0.19999974111E+02 0.  0.
        -12    1    1    2    0    0  0.20070760580E+02 -0.22611238572E+01  0.38414524016E+02  0.43400734634E+02  0.00000000000E+00 0.  1.
         11    1    3    3    0    0 -0.33928638208E-03 -0.25000040003E+01 -0.12723620741E+02  0.12966901909E+02  0.51100000000E-03 0. -1.
        -11    1    3    3    0    0 -0.51204234256E+01 -0.25607299273E+01 -0.24369065807E+01  0.62221047694E+01  0.51100000000E-03 0.  1.
         12    1    3    3    0    0 -0.14949997868E+02  0.73218577848E+01 -0.23253996695E+02  0.28598258687E+02  0.00000000000E+00 0. -1.
</event>
<event>
 7    1  0.4931104E-009  0.4778726E+02  0.7816164E-02  0.1312668E+00
        -11   -1    0    0    0    0  0.00000000000E+00  0.00000000000E+00  0.45593999997E+02  0.45594000000E+02  0.51100000000E-03 0. -1.
         11   -1    0    0    0    0 -0.00000000000E+00 -0.00000000000E+00 -0.45593999997E+02  0.45594000000E+02  0.51100000000E-03 0.  1.
    9900012    2    1    2    0    0 -0.16753997640E+02  0.37327857397E+02 -0.14476140038E+02  0.47787262620E+02  0.19999961588E+02 0.  0.
        -12    1    1    2    0    0  0.16753997640E+02 -0.37327857397E+02  0.14476140038E+02  0.43400737380E+02  0.00000000000E+00 0.  1.
         11    1    3    3    0    0 -0.16106717082E+02  0.37252043111E+02 -0.14687684824E+02  0.43160967747E+02  0.51100000000E-03 0. -1.
        -11    1    3    3    0    0  0.12043216637E+01  0.12702899590E+01 -0.10948918725E+01  0.20646587426E+01  0.51100000000E-03 0.  1.
        -12    1    3    3    0    0 -0.18516022214E+01 -0.11944756733E+01  0.13064366584E+01  0.25616361301E+01  0.00000000000E+00 0.  1.
</event>
<event>
 7    1  0.4931104E-009  0.4778727E+02  0.7816164E-02  0.1312668E+00
        -11   -1    0    0    0    0  0.00000000000E+00  0.00000000000E+00  0.45593999997E+02  0.45594000000E+02  0.51100000000E-03 0.  1.
         11   -1    0    0    0    0 -0.00000000000E+00 -0.00000000000E+00 -0.45593999997E+02  0.45594000000E+02  0.51100000000E-03 0. -1.
    9900012    2    1    2    0    0 -0.23633230831E+02 -0.34918350257E+02 -0.10286021214E+02  0.47787274008E+02  0.20000013513E+02 0.  0.
        -12    1    1    2    0    0  0.23633230831E+02  0.34918350257E+02  0.10286021214E+02  0.43400725992E+02  0.00000000000E+00 0.  1.
         11    1    3    3    0    0 -0.12321046224E+02 -0.16360215869E+02 -0.12839997703E+02  0.24172926687E+02  0.51100000000E-03 0. -1.
        -11    1    3    3    0    0 -0.49593903569E+01 -0.13679560580E+01  0.36365480715E+00  0.51574316834E+01  0.51100000000E-03 0.  1.
         12    1    3    3    0    0 -0.63527942493E+01 -0.17190178330E+02  0.21903216811E+01  0.18456915638E+02  0.00000000000E+00 0. -1.
</event>
<event>
 7    1  0.4931104E-009  0.4778727E+02  0.7816164E-02  0.1312668E+00
        -11   -1    0    0    0    0  0.00000000000E+00  0.00000000000E+00  0.45593999997E+02  0.45594000000E+02  0.51100000000E-03 0. -1.
         11   -1    0    0    0    0 -0.00000000000E+00 -0.00000000000E+00 -0.45593999997E+02  0.45594000000E+02  0.51100000000E-03 0.  1.
    9900012    2    1    2    0    0  0.34388002175E+02  0.12075651357E+02  0.23564114575E+02  0.47787267921E+02  0.19999985759E+02 0.  0.
        -12    1    1    2    0    0 -0.34388002175E+02 -0.12075651357E+02 -0.23564114575E+02  0.43400732079E+02  0.00000000000E+00 0.  1.
         11    1    3    3    0    0  0.69428747726E+01  0.13343270115E+01 -0.59404014782E-01  0.70701815945E+01  0.51100000000E-03 0. -1.
        -11    1    3    3    0    0  0.27341618152E+02  0.13390995596E+02  0.20985396026E+02  0.36976610078E+02  0.51100000000E-03 0.  1.
        -12    1    3    3    0    0  0.10350925039E+00 -0.26496712508E+01  0.26381225637E+01  0.37404762482E+01  0.00000000000E+00 0.  1.
</event>
<event>
 7    1  0.4931104E-009  0.4778727E+02  0.7816164E-02  0.1312668E+00
        -11   -1    0    0    0    0  0.00000000000E+00  0.00000000000E+00  0.45593999997E+02  0.45594000000E+02  0.51100000000E-03 0.  1.
         11   -1    0    0    0    0 -0.00000000000E+00 -0.00000000000E+00 -0.45593999997E+02  0.45594000000E+02  0.51100000000E-03 0. -1.
    9900012    2    1    2    0    0 -0.26239179075E+01 -0.30047274509E+02 -0.31207369375E+02  0.47787267818E+02  0.19999985290E+02 0.  0.
        -12    1    1    2    0    0  0.26239179075E+01  0.30047274509E+02  0.31207369375E+02  0.43400732182E+02  0.00000000000E+00 0.  1.
         11    1    3    3    0    0 -0.30544313064E+01 -0.68825918531E+01 -0.16213014645E+02  0.17876282202E+02  0.51100000000E-03 0. -1.
        -11    1    3    3    0    0  0.53439314842E+01 -0.72035555349E+01 -0.70973498615E+01  0.11437709184E+02  0.51100000000E-03 0.  1.
         12    1    3    3    0    0 -0.49134180853E+01 -0.15961127121E+02 -0.78970048686E+01  0.18473276433E+02  0.00000000000E+00 0. -1.
</event>
<event>
 7    1  0.4931104E-009  0.4778727E+02  0.7816164E-02  0.1312668E+00
        -11   -1    0    0    0    0  0.00000000000E+00  0.00000000000E+00  0.45593999997E+02  0.45594000000E+02  0.51100000000E-03 0. -1.
         11   -1    0    0    0    0 -0.00000000000E+00 -0.00000000000E+00 -0.45593999997E+02  0.45594000000E+02  0.51100000000E-03 0.  1.
    9900012    2    1    2    0    0 -0.31974514562E+02 -0.17783928691E+02  0.23344926138E+02  0.47787271002E+02  0.19999999806E+02 0.  0.
        -12    1    1    2    0    0  0.31974514562E+02  0.17783928691E+02 -0.23344926138E+02  0.43400728998E+02  0.00000000000E+00 0.  1.
         11    1    3    3    0    0 -0.13083786598E+02 -0.94614687129E+01  0.88058832336E+01  0.18391531794E+02  0.51100000000E-03 0. -1.
        -11    1    3    3    0    0 -0.18268535656E+01 -0.80053821911E+01  0.27755677351E+01  0.86676014265E+01  0.51100000000E-03 0.  1.
         12    1    3    3    0    0 -0.17063874398E+02 -0.31707778711E+00  0.11763475170E+02  0.20728137781E+02  0.00000000000E+00 0. -1.
</event>
<event>
 7    1  0.4931104E-009  0.4778728E+02  0.7816164E-02  0.1312668E+00
        -11   -1    0    0    0    0  0.00000000000E+00  0.00000000000E+00  0.45593999997E+02  0.45594000000E+02  0.51100000000E-03 0.  1.
         11   -1    0    0    0    0 -0.00000000000E+00 -0.00000000000E+00 -0.45593999997E+02  0.45594000000E+02  0.51100000000E-03 0. -1.
    9900012    2    1    2    0    0  0.19224186118E+02 -0.34133323320E+02 -0.18680733577E+02  0.47787275354E+02  0.20000019651E+02 0.  0.
        -12    1    1    2    0    0 -0.19224186118E+02  0.34133323320E+02  0.18680733577E+02  0.43400724646E+02  0.00000000000E+00 0.  1.
         11    1    3    3    0    0  0.85805685375E+01 -0.10544052725E+02 -0.33112102979E+01  0.13991687468E+02  0.51100000000E-03 0. -1.
        -11    1    3    3    0    0 -0.15883292847E+01 -0.62403387778E+01  0.15812804756E+01  0.66306158222E+01  0.51100000000E-03 0.  1.
        -12    1    3    3    0    0  0.12231946866E+02 -0.17348931817E+02 -0.16950803755E+02  0.27164972064E+02  0.00000000000E+00 0.  1.
</event>
<event>
 7    1  0.4931104E-009  0.4778726E+02  0.7816164E-02  0.1312668E+00
        -11   -1    0    0    0    0  0.00000000000E+00  0.00000000000E+00  0.45593999997E+02  0.45594000000E+02  0.51100000000E-03 0. -1.
         11   -1    0    0    0    0 -0.00000000000E+00 -0.00000000000E+00 -0.45593999997E+02  0.45594000000E+02  0.51100000000E-03 0.  1.
    9900012    2    1    2    0    0  0.18688778966E+02  0.31658210312E+02 -0.23067549505E+02  0.47787256002E+02  0.19999931415E+02 0.  0.
        -12    1    1    2    0    0 -0.18688778966E+02 -0.31658210312E+02  0.23067549505E+02  0.43400743998E+02  0.00000000000E+00 0.  1.
         11    1    3    3    0    0  0.69089089295E+01  0.12576512376E+02 -0.97888893380E+01  0.17370205551E+02  0.51100000000E-03 0. -1.
        -11    1    3    3    0    0 -0.13893651995E+01  0.12069062091E+02 -0.81966894199E+01  0.14655316889E+02  0.51100000000E-03 0.  1.
         12    1    3    3    0    0  0.13169235236E+02  0.70126358448E+01 -0.50819707467E+01  0.15761733562E+02  0.00000000000E+00 0. -1.
</event>
<event>
 7    1  0.4931104E-009  0.4778727E+02  0.7816164E-02  0.1312668E+00
        -11   -1    0    0    0    0  0.00000000000E+00  0.00000000000E+00  0.45593999997E+02  0.45594000000E+02  0.51100000000E-03 0. -1.
         11   -1    0    0    0    0 -0.00000000000E+00 -0.00000000000E+00 -0.45593999997E+02  0.45594000000E+02  0.51100000000E-03 0.  1.
    9900012    2    1    2    0    0  0.24592713011E+02 -0.99022875491E+01  0.34362282703E+02  0.47787270691E+02  0.19999998389E+02 0.  0.
        -12    1    1    2    0    0 -0.24592713011E+02  0.99022875491E+01 -0.34362282703E+02  0.43400729309E+02  0.00000000000E+00 0.  1.
         11    1    3    3    0    0  0.21928959759E+02 -0.57659217391E+01  0.18867811039E+02  0.29497786752E+02  0.51100000000E-03 0. -1.
        -11    1    3    3    0    0  0.46747603587E+01 -0.10686783704E+01  0.40670856361E+01  0.62878170857E+01  0.51100000000E-03 0.  1.
        -12    1    3    3    0    0 -0.20110071068E+01 -0.30676874396E+01  0.11427386028E+02  0.12001666853E+02  0.00000000000E+00 0.  1.
</event>
<event>
 7    1  0.4931104E-009  0.4778727E+02  0.7816164E-02  0.1312668E+00
        -11   -1    0    0    0    0  0.00000000000E+00  0.00000000000E+00  0.45593999997E+02  0.45594000000E+02  0.51100000000E-03 0. -1.
         11   -1    0    0    0    0 -0.00000000000E+00 -0.00000000000E+00 -0.45593999997E+02  0.45594000000E+02  0.51100000000E-03 0.  1.
    9900012    2    1    2    0    0  0.21135426380E+02  0.37557841119E+02  0.51308516158E+01  0.47787270558E+02  0.19999997782E+02 0.  0.
        -12    1    1    2    0    0 -0.21135426380E+02 -0.37557841119E+02 -0.51308516158E+01  0.43400729442E+02  0.00000000000E+00 0.  1.
         11    1    3    3    0    0  0.96753872185E+01  0.11678912670E+02 -0.12097241408E+01  0.15214254886E+02  0.51100000000E-03 0. -1.
        -11    1    3    3    0    0  0.74368686053E+01  0.58529523528E+01 -0.32514981900E+01  0.10006813011E+02  0.51100000000E-03 0.  1.
         12    1    3    3    0    0  0.40231705561E+01  0.20025976096E+02  0.95920739466E+01  0.22566202661E+02  0.00000000000E+00 0. -1.
</event>
<event>
 7    1  0.4931104E-009  0.4778728E+02  0.7816164E-02  0.1312668E+00
        -11   -1    0    0    0    0  0.00000000000E+00  0.00000000000E+00  0.45593999997E+02  0.45594000000E+02  0.51100000000E-03 0.  1.
         11   -1    0    0    0    0 -0.00000000000E+00 -0.00000000000E+00 -0.45593999997E+02  0.45594000000E+02  0.51100000000E-03 0. -1.
    9900012    2    1    2    0    0  0.35718526029E+02  0.16449202778E+01 -0.24598856102E+02  0.47787278970E+02  0.20000036134E+02 0.  0.
        -12    1    1    2    0    0 -0.35718526029E+02 -0.16449202778E+01  0.24598856102E+02  0.43400721030E+02  0.00000000000E+00 0.  1.
         11    1    3    3    0    0 -0.73398382155E+00 -0.40547747253E+00 -0.40187175597E+01  0.41052692137E+01  0.51100000000E-03 0.  1.
        -11    1    3    3    0    0  0.12918389607E+02  0.10647595814E+00 -0.14249396964E+02  0.19233861840E+02  0.51100000000E-03 0. -1.
         12    1    3    3    0    0  0.23534120244E+02  0.19439217922E+01 -0.63307415782E+01  0.24448147916E+02  0.00000000000E+00 0. -1.
</event>
<event>
 7    1  0.4931104E-009  0.4778729E+02  0.7816164E-02  0.1312668E+00
        -11   -1    0    0    0    0  0.00000000000E+00  0.00000000000E+00  0.45593999997E+02  0.45594000000E+02  0.51100000000E-03 0. -1.
         11   -1    0    0    0    0 -0.00000000000E+00 -0.00000000000E+00 -0.45593999997E+02  0.45594000000E+02  0.51100000000E-03 0.  1.
    9900012    2    1    2    0    0 -0.10879557007E+02  0.37506746526E+02  0.18934128392E+02  0.47787285564E+02  0.20000066198E+02 0.  0.
        -12    1    1    2    0    0  0.10879557007E+02 -0.37506746526E+02 -0.18934128392E+02  0.43400714436E+02  0.00000000000E+00 0.  1.
         11    1    3    3    0    0 -0.65083872379E+01  0.12270632120E+02  0.10177855507E+01  0.13927074523E+02  0.51100000000E-03 0. -1.
        -11    1    3    3    0    0  0.11342371319E+01  0.25086976893E+01 -0.17862099227E+01  0.32818598564E+01  0.51100000000E-03 0.  1.
         12    1    3    3    0    0 -0.55054069007E+01  0.22727416716E+02  0.19702552764E+02  0.30578351184E+02  0.00000000000E+00 0. -1.
</event>
<event>
 7    1  0.4931104E-009  0.4778727E+02  0.7816164E-02  0.1312668E+00
        -11   -1    0    0    0    0  0.00000000000E+00  0.00000000000E+00  0.45593999997E+02  0.45594000000E+02  0.51100000000E-03 0. -1.
         11   -1    0    0    0    0 -0.00000000000E+00 -0.00000000000E+00 -0.45593999997E+02  0.45594000000E+02  0.51100000000E-03 0.  1.
    9900012    2    1    2    0    0 -0.26933586762E+02  0.23386015679E+00  0.34031611722E+02  0.47787269789E+02  0.19999994278E+02 0.  0.
        -12    1    1    2    0    0  0.26933586762E+02 -0.23386015679E+00 -0.34031611722E+02  0.43400730211E+02  0.00000000000E+00 0.  1.
         11    1    3    3    0    0 -0.20755777998E+02  0.13943466583E+01  0.17926965549E+02  0.27461293068E+02  0.51100000000E-03 0. -1.
        -11    1    3    3    0    0 -0.17766130817E+01 -0.36869981999E+01  0.75837912066E+00  0.41623850038E+01  0.51100000000E-03 0.  1.
         12    1    3    3    0    0 -0.44011956822E+01  0.25265116983E+01  0.15346267052E+02  0.16163591718E+02  0.00000000000E+00 0. -1.
</event>
<event>
 7    1  0.4931104E-009  0.4778727E+02  0.7816164E-02  0.1312668E+00
        -11   -1    0    0    0    0  0.00000000000E+00  0.00000000000E+00  0.45593999997E+02  0.45594000000E+02  0.51100000000E-03 0. -1.
         11   -1    0    0    0    0 -0.00000000000E+00 -0.00000000000E+00 -0.45593999997E+02  0.45594000000E+02  0.51100000000E-03 0.  1.
    9900012    2    1    2    0    0 -0.32540512121E+02  0.28677940866E+02 -0.15212781305E+01  0.47787268340E+02  0.19999987671E+02 0.  0.
        -12    1    1    2    0    0  0.32540512121E+02 -0.28677940866E+02  0.15212781305E+01  0.43400731660E+02  0.00000000000E+00 0.  1.
         11    1    3    3    0    0 -0.10656824541E+00  0.55488192608E+01 -0.76422645882E+00  0.56022133413E+01  0.51100000000E-03 0. -1.
        -11    1    3    3    0    0  0.57236397819E+00  0.18237105353E+01  0.20458997393E+01  0.27998618974E+01  0.51100000000E-03 0.  1.
         12    1    3    3    0    0 -0.33006307854E+02  0.21305411070E+02 -0.28029514110E+01  0.39385193102E+02  0.00000000000E+00 0. -1.
</event>
<event>
 7    1  0.4931104E-009  0.4778727E+02  0.7816164E-02  0.1312668E+00
        -11   -1    0    0    0    0  0.00000000000E+00  0.00000000000E+00  0.45593999997E+02  0.45594000000E+02  0.51100000000E-03 0.  1.
         11   -1    0    0    0    0 -0.00000000000E+00 -0.00000000000E+00 -0.45593999997E+02  0.45594000000E+02  0.51100000000E-03 0. -1.
    9900012    2    1    2    0    0  0.26040774014E+02 -0.13475845792E+02 -0.31998483609E+02  0.47787270924E+02  0.19999999451E+02 0.  0.
        -12    1    1    2    0    0 -0.26040774014E+02  0.13475845792E+02  0.31998483609E+02  0.43400729076E+02  0.00000000000E+00 0.  1.
         11    1    3    3    0    0  0.29977932708E+01 -0.73787947151E+01 -0.63172193884E+01  0.10165659694E+02  0.51100000000E-03 0. -1.
        -11    1    3    3    0    0  0.65708752454E+01 -0.36204699093E+01 -0.17548694454E+02  0.19085095786E+02  0.51100000000E-03 0.  1.
         12    1    3    3    0    0  0.16472105498E+02 -0.24765811678E+01 -0.81325697660E+01  0.18536515444E+02  0.00000000000E+00 0. -1.
</event>
<event>
 7    1  0.4931104E-009  0.4778727E+02  0.7816164E-02  0.1312668E+00
        -11   -1    0    0    0    0  0.00000000000E+00  0.00000000000E+00  0.45593999997E+02  0.45594000000E+02  0.51100000000E-03 0. -1.
         11   -1    0    0    0    0 -0.00000000000E+00 -0.00000000000E+00 -0.45593999997E+02  0.45594000000E+02  0.51100000000E-03 0.  1.
    9900012    2    1    2    0    0  0.36392148054E+02  0.23647270399E+02  0.20347696308E+00  0.47787271433E+02  0.20000001770E+02 0.  0.
        -12    1    1    2    0    0 -0.36392148054E+02 -0.23647270399E+02 -0.20347696308E+00  0.43400728567E+02  0.00000000000E+00 0.  1.
         11    1    3    3    0    0  0.29289034024E+01 -0.88978567758E+00  0.20170981371E+00  0.30677158934E+01  0.51100000000E-03 0. -1.
        -11    1    3    3    0    0  0.70371477980E+01  0.14883512308E+02  0.15947248228E+01  0.16540360797E+02  0.51100000000E-03 0.  1.
         12    1    3    3    0    0  0.26426096853E+02  0.96535437683E+01 -0.15929576734E+01  0.28179194743E+02  0.00000000000E+00 0. -1.
</event>
<event>
 7    1  0.4931104E-009  0.4778727E+02  0.7816164E-02  0.1312668E+00
        -11   -1    0    0    0    0  0.00000000000E+00  0.00000000000E+00  0.45593999997E+02  0.45594000000E+02  0.51100000000E-03 0.  1.
         11   -1    0    0    0    0 -0.00000000000E+00 -0.00000000000E+00 -0.45593999997E+02  0.45594000000E+02  0.51100000000E-03 0. -1.
    9900012    2    1    2    0    0  0.27492178691E+02 -0.32461543870E+01 -0.33425526896E+02  0.47787271253E+02  0.20000000951E+02 0.  0.
        -12    1    1    2    0    0 -0.27492178691E+02  0.32461543870E+01  0.33425526896E+02  0.43400728747E+02  0.00000000000E+00 0.  1.
         11    1    3    3    0    0  0.59850139002E+01 -0.65571625208E+01 -0.69034985037E+01  0.11246113265E+02  0.51100000000E-03 0. -1.
        -11    1    3    3    0    0  0.29167778419E+01  0.53467448465E+01 -0.93059704705E+01  0.11121886535E+02  0.51100000000E-03 0.  1.
         12    1    3    3    0    0  0.18590386948E+02 -0.20357367127E+01 -0.17216057922E+02  0.25419271454E+02  0.00000000000E+00 0. -1.
</event>
<event>
 7    1  0.4931104E-009  0.4778727E+02  0.7816164E-02  0.1312668E+00
        -11   -1    0    0    0    0  0.00000000000E+00  0.00000000000E+00  0.45593999997E+02  0.45594000000E+02  0.51100000000E-03 0.  1.
         11   -1    0    0    0    0 -0.00000000000E+00 -0.00000000000E+00 -0.45593999997E+02  0.45594000000E+02  0.51100000000E-03 0. -1.
    9900012    2    1    2    0    0  0.26474695485E+02 -0.15065271139E+02 -0.30915234553E+02  0.47787267023E+02  0.19999981663E+02 0.  0.
        -12    1    1    2    0    0 -0.26474695485E+02  0.15065271139E+02  0.30915234553E+02  0.43400732977E+02  0.00000000000E+00 0.  1.
         11    1    3    3    0    0  0.26479806840E+02 -0.99545069488E+01 -0.22786358050E+02  0.36324791704E+02  0.51100000000E-03 0. -1.
        -11    1    3    3    0    0  0.94346792382E+00  0.12933119294E+01 -0.14305309791E+01  0.21469062889E+01  0.51100000000E-03 0.  1.
         12    1    3    3    0    0 -0.94857927901E+00 -0.64040761198E+01 -0.66983455235E+01  0.93155690298E+01  0.00000000000E+00 0. -1.
</event>
<event>
 7    1  0.4931104E-009  0.4778728E+02  0.7816164E-02  0.1312668E+00
        -11   -1    0    0    0    0  0.00000000000E+00  0.00000000000E+00  0.45593999997E+02  0.45594000000E+02  0.51100000000E-03 0. -1.
         11   -1    0    0    0    0 -0.00000000000E+00 -0.00000000000E+00 -0.45593999997E+02  0.45594000000E+02  0.51100000000E-03 0.  1.
    9900012    2    1    2    0    0 -0.67473064075E+01  0.18079075107E+02  0.38874709695E+02  0.47787283942E+02  0.20000058807E+02 0.  0.
        -12    1    1    2    0    0  0.67473064075E+01 -0.18079075107E+02 -0.38874709695E+02  0.43400716058E+02  0.00000000000E+00 0.  1.
         11    1    3    3    0    0 -0.67252534077E+01  0.10900988155E+02  0.10738921714E+02  0.16714814267E+02  0.51100000000E-03 0. -1.
        -11    1    3    3    0    0 -0.44930007345E+01  0.19245935831E+01  0.52656959315E+01  0.71846134179E+01  0.51100000000E-03 0.  1.
        -12    1    3    3    0    0  0.44709477347E+01  0.52534933686E+01  0.22870092049E+02  0.23887856257E+02  0.00000000000E+00 0.  1.
</event>
<event>
 7    1  0.4931104E-009  0.4778727E+02  0.7816164E-02  0.1312668E+00
        -11   -1    0    0    0    0  0.00000000000E+00  0.00000000000E+00  0.45593999997E+02  0.45594000000E+02  0.51100000000E-03 0.  1.
         11   -1    0    0    0    0 -0.00000000000E+00 -0.00000000000E+00 -0.45593999997E+02  0.45594000000E+02  0.51100000000E-03 0. -1.
    9900012    2    1    2    0    0 -0.38929831481E+02  0.83375667964E+00 -0.19167588203E+02  0.47787269973E+02  0.19999995113E+02 0.  0.
        -12    1    1    2    0    0  0.38929831481E+02 -0.83375667964E+00  0.19167588203E+02  0.43400730027E+02  0.00000000000E+00 0.  1.
         11    1    3    3    0    0 -0.19526686648E+02  0.58754944292E+01 -0.82155266089E+01  0.21984262643E+02  0.51100000000E-03 0.  1.
        -11    1    3    3    0    0 -0.12149630615E+02 -0.64021287315E+01 -0.15055423698E+01  0.13815478076E+02  0.51100000000E-03 0. -1.
         12    1    3    3    0    0 -0.72535142180E+01  0.13603909819E+01 -0.94465192247E+01  0.11987529253E+02  0.00000000000E+00 0. -1.
</event>
<event>
 7    1  0.4931104E-009  0.4778727E+02  0.7816164E-02  0.1312668E+00
        -11   -1    0    0    0    0  0.00000000000E+00  0.00000000000E+00  0.45593999997E+02  0.45594000000E+02  0.51100000000E-03 0.  1.
         11   -1    0    0    0    0 -0.00000000000E+00 -0.00000000000E+00 -0.45593999997E+02  0.45594000000E+02  0.51100000000E-03 0. -1.
    9900012    2    1    2    0    0  0.27256146829E+02 -0.28153696831E+02 -0.18657316865E+02  0.47787266621E+02  0.19999979831E+02 0.  0.
        -12    1    1    2    0    0 -0.27256146829E+02  0.28153696831E+02  0.18657316865E+02  0.43400733379E+02  0.00000000000E+00 0.  1.
         11    1    3    3    0    0  0.24243914293E+01 -0.86026864041E+01  0.90289962695E+00  0.89832686238E+01  0.51100000000E-03 0. -1.
        -11    1    3    3    0    0  0.95337584092E+01 -0.14594484642E+02 -0.10181548107E+02  0.20188002712E+02  0.51100000000E-03 0.  1.
        -12    1    3    3    0    0  0.15297996991E+02 -0.49565257848E+01 -0.93786683849E+01  0.18615995285E+02  0.00000000000E+00 0.  1.
</event>
<event>
 7    1  0.4931104E-009  0.4778727E+02  0.7816164E-02  0.1312668E+00
        -11   -1    0    0    0    0  0.00000000000E+00  0.00000000000E+00  0.45593999997E+02  0.45594000000E+02  0.51100000000E-03 0. -1.
         11   -1    0    0    0    0 -0.00000000000E+00 -0.00000000000E+00 -0.45593999997E+02  0.45594000000E+02  0.51100000000E-03 0.  1.
    9900012    2    1    2    0    0 -0.60273255056E+01 -0.22661695731E+02  0.36520438161E+02  0.47787268328E+02  0.19999987614E+02 0.  0.
        -12    1    1    2    0    0  0.60273255056E+01  0.22661695731E+02 -0.36520438161E+02  0.43400731672E+02  0.00000000000E+00 0.  1.
         11    1    3    3    0    0  0.69689335034E+00  0.51615065572E+00  0.77497786434E+01  0.77981498526E+01  0.51100000000E-03 0. -1.
        -11    1    3    3    0    0 -0.31322988531E+01 -0.10421327125E+01 -0.25355116047E+00  0.33108345093E+01  0.51100000000E-03 0.  1.
         12    1    3    3    0    0 -0.35919200028E+01 -0.22135713674E+02  0.29024210679E+02  0.36678283966E+02  0.00000000000E+00 0. -1.
</event>
<event>
 7    1  0.4931104E-009  0.4778727E+02  0.7816164E-02  0.1312668E+00
        -11   -1    0    0    0    0  0.00000000000E+00  0.00000000000E+00  0.45593999997E+02  0.45594000000E+02  0.51100000000E-03 0.  1.
         11   -1    0    0    0    0 -0.00000000000E+00 -0.00000000000E+00 -0.45593999997E+02  0.45594000000E+02  0.51100000000E-03 0. -1.
    9900012    2    1    2    0    0 -0.93065381364E+01 -0.16114333014E+02 -0.39208924336E+02  0.47787272723E+02  0.20000007653E+02 0.  0.
        -12    1    1    2    0    0  0.93065381364E+01  0.16114333014E+02  0.39208924336E+02  0.43400727277E+02  0.00000000000E+00 0.  1.
         11    1    3    3    0    0 -0.12445922917E+00 -0.10794080636E+01 -0.94782237931E+01  0.95403007500E+01  0.51100000000E-03 0. -1.
        -11    1    3    3    0    0 -0.23227555829E+01  0.35530201808E+01 -0.50333132522E+01  0.65843290059E+01  0.51100000000E-03 0.  1.
         12    1    3    3    0    0 -0.68593233243E+01 -0.18587945131E+02 -0.24697387291E+02  0.31662642967E+02  0.00000000000E+00 0. -1.
</event>
<event>
 7    1  0.4931104E-009  0.4778727E+02  0.7816164E-02  0.1312668E+00
        -11   -1    0    0    0    0  0.00000000000E+00  0.00000000000E+00  0.45593999997E+02  0.45594000000E+02  0.51100000000E-03 0. -1.
         11   -1    0    0    0    0 -0.00000000000E+00 -0.00000000000E+00 -0.45593999997E+02  0.45594000000E+02  0.51100000000E-03 0.  1.
    9900012    2    1    2    0    0  0.15998015932E+02  0.20719877422E+02  0.34617532895E+02  0.47787269385E+02  0.19999992436E+02 0.  0.
        -12    1    1    2    0    0 -0.15998015932E+02 -0.20719877422E+02 -0.34617532895E+02  0.43400730615E+02  0.00000000000E+00 0.  1.
         11    1    3    3    0    0  0.28557060046E+01  0.78250793655E+01  0.21392636926E+02  0.22957174016E+02  0.51100000000E-03 0. -1.
        -11    1    3    3    0    0 -0.16911342761E+01  0.11130711335E+01  0.17958580385E+01  0.27062832157E+01  0.51100000000E-03 0.  1.
        -12    1    3    3    0    0  0.14833444203E+02  0.11781726923E+02  0.11429037930E+02  0.22123812154E+02  0.00000000000E+00 0.  1.
</event>
<event>
 7    1  0.4931104E-009  0.4778727E+02  0.7816164E-02  0.1312668E+00
        -11   -1    0    0    0    0  0.00000000000E+00  0.00000000000E+00  0.45593999997E+02  0.45594000000E+02  0.51100000000E-03 0. -1.
         11   -1    0    0    0    0 -0.00000000000E+00 -0.00000000000E+00 -0.45593999997E+02  0.45594000000E+02  0.51100000000E-03 0.  1.
    9900012    2    1    2    0    0 -0.13002906723E+01 -0.38767740112E+02  0.19467794984E+02  0.47787268777E+02  0.19999989660E+02 0.  0.
        -12    1    1    2    0    0  0.13002906723E+01  0.38767740112E+02 -0.19467794984E+02  0.43400731223E+02  0.00000000000E+00 0.  1.
         11    1    3    3    0    0  0.79542661825E+00 -0.13937397047E+01  0.76563002518E+00  0.17780335953E+01  0.51100000000E-03 0. -1.
        -11    1    3    3    0    0 -0.15296159419E+01 -0.57380389767E+01 -0.39177405793E+01  0.71143170955E+01  0.51100000000E-03 0.  1.
         12    1    3    3    0    0 -0.56610134861E+00 -0.31635961430E+02  0.22619905538E+02  0.38894918086E+02  0.00000000000E+00 0. -1.
</event>
<event>
 7    1  0.6315569E-009  0.4778727E+02  0.7816164E-02  0.1312668E+00
        -11   -1    0    0    0    0  0.00000000000E+00  0.00000000000E+00  0.45593999997E+02  0.45594000000E+02  0.51100000000E-03 0. -1.
         11   -1    0    0    0    0 -0.00000000000E+00 -0.00000000000E+00 -0.45593999997E+02  0.45594000000E+02  0.51100000000E-03 0.  1.
    9900012    2    1    2    0    0  0.31364474377E+02  0.29158258544E+02  0.70490490356E+01  0.47787269747E+02  0.19999994083E+02 0.  0.
        -12    1    1    2    0    0 -0.31364474377E+02 -0.29158258544E+02 -0.70490490356E+01  0.43400730253E+02  0.00000000000E+00 0.  1.
         11    1    3    3    0    0  0.12487366283E+02  0.10230142803E+02  0.30715029479E+01  0.16432415193E+02  0.51100000000E-03 0. -1.
        -11    1    3    3    0    0  0.63663886854E+01 -0.13466627505E+01  0.37891405655E+01  0.75300725058E+01  0.51100000000E-03 0.  1.
        -12    1    3    3    0    0  0.12510719408E+02  0.20274778491E+02  0.18840552224E+00  0.23824782048E+02  0.00000000000E+00 0.  1.
</event>
<event>
 7    1  0.4931104E-009  0.4778727E+02  0.7816164E-02  0.1312668E+00
        -11   -1    0    0    0    0  0.00000000000E+00  0.00000000000E+00  0.45593999997E+02  0.45594000000E+02  0.51100000000E-03 0. -1.
         11   -1    0    0    0    0 -0.00000000000E+00 -0.00000000000E+00 -0.45593999997E+02  0.45594000000E+02  0.51100000000E-03 0.  1.
    9900012    2    1    2    0    0  0.41903335081E+02  0.78523648976E+01 -0.81285888116E+01  0.47787273261E+02  0.20000010108E+02 0.  0.
        -12    1    1    2    0    0 -0.41903335081E+02 -0.78523648976E+01  0.81285888116E+01  0.43400726739E+02  0.00000000000E+00 0.  1.
         11    1    3    3    0    0  0.22345070819E+02  0.28948997654E+01  0.35255055171E+01  0.22805960273E+02  0.51100000000E-03 0. -1.
        -11    1    3    3    0    0  0.48500133326E+01  0.44694924335E+01 -0.69341420726E+00  0.66317279395E+01  0.51100000000E-03 0.  1.
        -12    1    3    3    0    0  0.14708250929E+02  0.48797269862E+00 -0.10960680121E+02  0.18349585049E+02  0.00000000000E+00 0.  1.
</event>
<event>
 7    1  0.4931104E-009  0.4778727E+02  0.7816164E-02  0.1312668E+00
        -11   -1    0    0    0    0  0.00000000000E+00  0.00000000000E+00  0.45593999997E+02  0.45594000000E+02  0.51100000000E-03 0. -1.
         11   -1    0    0    0    0 -0.00000000000E+00 -0.00000000000E+00 -0.45593999997E+02  0.45594000000E+02  0.51100000000E-03 0.  1.
    9900012    2    1    2    0    0  0.18224217851E+02  0.16417004991E+02  0.35804794235E+02  0.47787268907E+02  0.19999990257E+02 0.  0.
        -12    1    1    2    0    0 -0.18224217851E+02 -0.16417004991E+02 -0.35804794235E+02  0.43400731093E+02  0.00000000000E+00 0.  1.
         11    1    3    3    0    0  0.11202168115E+02  0.37819680492E+01  0.19704744766E+02  0.22979748026E+02  0.51100000000E-03 0. -1.
        -11    1    3    3    0    0 -0.93834601714E+00 -0.52428083182E+00  0.66934780924E+01  0.67792339444E+01  0.51100000000E-03 0.  1.
         12    1    3    3    0    0  0.79603957532E+01  0.13159317773E+02  0.94065713766E+01  0.18028286937E+02  0.00000000000E+00 0. -1.
</event>
<event>
 7    1  0.4931104E-009  0.4778728E+02  0.7816164E-02  0.1312668E+00
        -11   -1    0    0    0    0  0.00000000000E+00  0.00000000000E+00  0.45593999997E+02  0.45594000000E+02  0.51100000000E-03 0.  1.
         11   -1    0    0    0    0 -0.00000000000E+00 -0.00000000000E+00 -0.45593999997E+02  0.45594000000E+02  0.51100000000E-03 0. -1.
    9900012    2    1    2    0    0  0.36834999069E+02  0.18195456070E+02 -0.13990386497E+02  0.47787277744E+02  0.20000030547E+02 0.  0.
        -12    1    1    2    0    0 -0.36834999069E+02 -0.18195456070E+02  0.13990386497E+02  0.43400722256E+02  0.00000000000E+00 0.  1.
         11    1    3    3    0    0  0.97040485002E+01  0.94827663484E+01 -0.80938962862E+01  0.15798815534E+02  0.51100000000E-03 0. -1.
        -11    1    3    3    0    0  0.63514954017E+01  0.59585675548E+01  0.30087468668E+01  0.92140424957E+01  0.51100000000E-03 0.  1.
        -12    1    3    3    0    0  0.20779455167E+02  0.27541221671E+01 -0.89052370774E+01  0.22774419715E+02  0.00000000000E+00 0.  1.
</event>
<event>
 7    1  0.4931104E-009  0.4778727E+02  0.7816164E-02  0.1312668E+00
        -11   -1    0    0    0    0  0.00000000000E+00  0.00000000000E+00  0.45593999997E+02  0.45594000000E+02  0.51100000000E-03 0.  1.
         11   -1    0    0    0    0 -0.00000000000E+00 -0.00000000000E+00 -0.45593999997E+02  0.45594000000E+02  0.51100000000E-03 0. -1.
    9900012    2    1    2    0    0 -0.23884345945E+02 -0.17578803960E+02 -0.31688276056E+02  0.47787272250E+02  0.20000005496E+02 0.  0.
        -12    1    1    2    0    0  0.23884345945E+02  0.17578803960E+02  0.31688276056E+02  0.43400727750E+02  0.00000000000E+00 0.  1.
         11    1    3    3    0    0 -0.12919003258E+01 -0.18802848899E+01 -0.56563469542E+01  0.60990768847E+01  0.51100000000E-03 0. -1.
        -11    1    3    3    0    0 -0.45795335031E+01 -0.45836133988E+01  0.17976245620E+01  0.67240682048E+01  0.51100000000E-03 0.  1.
        -12    1    3    3    0    0 -0.18012912116E+02 -0.11114905671E+02 -0.27829553664E+02  0.34964127160E+02  0.00000000000E+00 0.  1.
</event>
<event>
 7    1  0.4931104E-009  0.4778727E+02  0.7816164E-02  0.1312668E+00
        -11   -1    0    0    0    0  0.00000000000E+00  0.00000000000E+00  0.45593999997E+02  0.45594000000E+02  0.51100000000E-03 0.  1.
         11   -1    0    0    0    0 -0.00000000000E+00 -0.00000000000E+00 -0.45593999997E+02  0.45594000000E+02  0.51100000000E-03 0. -1.
    9900012    2    1    2    0    0 -0.15560696552E+01 -0.43032817212E+02 -0.54202268974E+01  0.47787267638E+02  0.19999984468E+02 0.  0.
        -12    1    1    2    0    0  0.15560696552E+01  0.43032817212E+02  0.54202268974E+01  0.43400732362E+02  0.00000000000E+00 0.  1.
         11    1    3    3    0    0 -0.27607881090E+01 -0.19702504005E+02 -0.25019950091E+01  0.20051698041E+02  0.51100000000E-03 0.  1.
        -11    1    3    3    0    0  0.58861709201E+01 -0.19772362791E+02 -0.54437961818E+01  0.21336078730E+02  0.51100000000E-03 0. -1.
        -12    1    3    3    0    0 -0.46814524663E+01 -0.35579504165E+01  0.25255642936E+01  0.63994908674E+01  0.00000000000E+00 0.  1.
</event>
<event>
 7    1  0.4931104E-009  0.4778727E+02  0.7816164E-02  0.1312668E+00
        -11   -1    0    0    0    0  0.00000000000E+00  0.00000000000E+00  0.45593999997E+02  0.45594000000E+02  0.51100000000E-03 0. -1.
         11   -1    0    0    0    0 -0.00000000000E+00 -0.00000000000E+00 -0.45593999997E+02  0.45594000000E+02  0.51100000000E-03 0.  1.
    9900012    2    1    2    0    0 -0.20576499498E+02 -0.38133249006E+02  0.24670435987E+01  0.47787270565E+02  0.19999997814E+02 0.  0.
        -12    1    1    2    0    0  0.20576499498E+02  0.38133249006E+02 -0.24670435987E+01  0.43400729435E+02  0.00000000000E+00 0.  1.
         11    1    3    3    0    0  0.98266753396E+00 -0.91615989675E+00  0.33899729387E-01  0.13439248087E+01  0.51100000000E-03 0. -1.
        -11    1    3    3    0    0  0.29232013796E+01 -0.27836867220E+01  0.10499940565E+01  0.41709118729E+01  0.51100000000E-03 0.  1.
         12    1    3    3    0    0 -0.24482368411E+02 -0.34433402388E+02  0.13831498128E+01  0.42272433883E+02  0.00000000000E+00 0. -1.
</event>
<event>
 7    1  0.4931104E-009  0.4778727E+02  0.7816164E-02  0.1312668E+00
        -11   -1    0    0    0    0  0.00000000000E+00  0.00000000000E+00  0.45593999997E+02  0.45594000000E+02  0.51100000000E-03 0.  1.
         11   -1    0    0    0    0 -0.00000000000E+00 -0.00000000000E+00 -0.45593999997E+02  0.45594000000E+02  0.51100000000E-03 0. -1.
    9900012    2    1    2    0    0  0.20568683572E+02 -0.27791742504E+02 -0.26233026891E+02  0.47787269647E+02  0.19999993628E+02 0.  0.
        -12    1    1    2    0    0 -0.20568683572E+02  0.27791742504E+02  0.26233026891E+02  0.43400730353E+02  0.00000000000E+00 0.  1.
         11    1    3    3    0    0  0.54476125068E+01 -0.14588068471E+02 -0.13953725333E+02  0.20909200718E+02  0.51100000000E-03 0. -1.
        -11    1    3    3    0    0  0.29050115242E+01 -0.98486592065E+01 -0.93233318221E+01  0.13869379822E+02  0.51100000000E-03 0.  1.
        -12    1    3    3    0    0  0.12216059541E+02 -0.33550148266E+01 -0.29559697358E+01  0.13008689107E+02  0.00000000000E+00 0.  1.
</event>
<event>
 7    1  0.4931104E-009  0.4778726E+02  0.7816164E-02  0.1312668E+00
        -11   -1    0    0    0    0  0.00000000000E+00  0.00000000000E+00  0.45593999997E+02  0.45594000000E+02  0.51100000000E-03 0.  1.
         11   -1    0    0    0    0 -0.00000000000E+00 -0.00000000000E+00 -0.45593999997E+02  0.45594000000E+02  0.51100000000E-03 0. -1.
    9900012    2    1    2    0    0 -0.17978396987E+02 -0.39485946269E+02  0.11232701843E+01  0.47787257531E+02  0.19999938386E+02 0.  0.
        -12    1    1    2    0    0  0.17978396987E+02  0.39485946269E+02 -0.11232701843E+01  0.43400742469E+02  0.00000000000E+00 0.  1.
         11    1    3    3    0    0 -0.88536931117E+01 -0.86539251912E+01 -0.36857049986E+01  0.12917535544E+02  0.51100000000E-03 0. -1.
        -11    1    3    3    0    0 -0.80862955654E+01 -0.21770313508E+02  0.89035151232E+01  0.24871817546E+02  0.51100000000E-03 0.  1.
         12    1    3    3    0    0 -0.10384083099E+01 -0.90617075695E+01 -0.40945399403E+01  0.99979044412E+01  0.00000000000E+00 0. -1.
</event>
<event>
 7    1  0.4931104E-009  0.4778727E+02  0.7816164E-02  0.1312668E+00
        -11   -1    0    0    0    0  0.00000000000E+00  0.00000000000E+00  0.45593999997E+02  0.45594000000E+02  0.51100000000E-03 0. -1.
         11   -1    0    0    0    0 -0.00000000000E+00 -0.00000000000E+00 -0.45593999997E+02  0.45594000000E+02  0.51100000000E-03 0.  1.
    9900012    2    1    2    0    0  0.41966378021E+02  0.89593854063E+01  0.64942710108E+01  0.47787273888E+02  0.20000012967E+02 0.  0.
        -12    1    1    2    0    0 -0.41966378021E+02 -0.89593854063E+01 -0.64942710108E+01  0.43400726112E+02  0.00000000000E+00 0.  1.
         11    1    3    3    0    0  0.24213508898E+02  0.45643036410E+01  0.29038001414E+01  0.24810460222E+02  0.51100000000E-03 0. -1.
        -11    1    3    3    0    0  0.16091404156E+02 -0.85934862530E+00  0.56756854605E+01  0.17084647303E+02  0.51100000000E-03 0.  1.
        -12    1    3    3    0    0  0.16614649671E+01  0.52544303906E+01 -0.20852145911E+01  0.58921663637E+01  0.00000000000E+00 0.  1.
</event>
<event>
 7    1  0.4931104E-009  0.4778727E+02  0.7816164E-02  0.1312668E+00
        -11   -1    0    0    0    0  0.00000000000E+00  0.00000000000E+00  0.45593999997E+02  0.45594000000E+02  0.51100000000E-03 0.  1.
         11   -1    0    0    0    0 -0.00000000000E+00 -0.00000000000E+00 -0.45593999997E+02  0.45594000000E+02  0.51100000000E-03 0. -1.
    9900012    2    1    2    0    0  0.14309980747E+02 -0.30376817382E+02 -0.27497207179E+02  0.47787274362E+02  0.20000015128E+02 0.  0.
        -12    1    1    2    0    0 -0.14309980747E+02  0.30376817382E+02  0.27497207179E+02  0.43400725638E+02  0.00000000000E+00 0.  1.
         11    1    3    3    0    0  0.49432754258E+01 -0.12704180265E+02 -0.10296469164E+02  0.17083601658E+02  0.51100000000E-03 0. -1.
        -11    1    3    3    0    0  0.16189334839E+01 -0.16806725707E+02 -0.15045212614E+02  0.22615158577E+02  0.51100000000E-03 0.  1.
         12    1    3    3    0    0  0.77477718375E+01 -0.86591140956E+00 -0.21555254020E+01  0.80885141265E+01  0.00000000000E+00 0. -1.
</event>
<event>
 7    1  0.4931104E-009  0.4778727E+02  0.7816164E-02  0.1312668E+00
        -11   -1    0    0    0    0  0.00000000000E+00  0.00000000000E+00  0.45593999997E+02  0.45594000000E+02  0.51100000000E-03 0.  1.
         11   -1    0    0    0    0 -0.00000000000E+00 -0.00000000000E+00 -0.45593999997E+02  0.45594000000E+02  0.51100000000E-03 0. -1.
    9900012    2    1    2    0    0 -0.22802917213E+02 -0.66542440912E+01 -0.36323152156E+02  0.47787269817E+02  0.19999994405E+02 0.  0.
        -12    1    1    2    0    0  0.22802917213E+02  0.66542440912E+01  0.36323152156E+02  0.43400730183E+02  0.00000000000E+00 0.  1.
         11    1    3    3    0    0 -0.76177790652E+01 -0.45400591605E+01 -0.25964071836E+02  0.27436758584E+02  0.51100000000E-03 0. -1.
        -11    1    3    3    0    0 -0.74616162297E+01 -0.35701206389E+01 -0.92567061779E+01  0.12414027858E+02  0.51100000000E-03 0.  1.
        -12    1    3    3    0    0 -0.77235219184E+01  0.14559357083E+01 -0.11023741423E+01  0.79364833749E+01  0.00000000000E+00 0.  1.
</event>
<event>
 7    1  0.4931104E-009  0.4778727E+02  0.7816164E-02  0.1312668E+00
        -11   -1    0    0    0    0  0.00000000000E+00  0.00000000000E+00  0.45593999997E+02  0.45594000000E+02  0.51100000000E-03 0.  1.
         11   -1    0    0    0    0 -0.00000000000E+00 -0.00000000000E+00 -0.45593999997E+02  0.45594000000E+02  0.51100000000E-03 0. -1.
    9900012    2    1    2    0    0 -0.53952174254E+01  0.26718439337E+02 -0.33773359075E+02  0.47787272415E+02  0.20000006250E+02 0.  0.
        -12    1    1    2    0    0  0.53952174254E+01 -0.26718439337E+02  0.33773359075E+02  0.43400727585E+02  0.00000000000E+00 0.  1.
         11    1    3    3    0    0 -0.73120791783E+01  0.11779817459E+02 -0.93712650055E+01  0.16734730633E+02  0.51100000000E-03 0.  1.
        -11    1    3    3    0    0  0.10360269016E+00  0.13328005488E+02 -0.10574079337E+02  0.17013454026E+02  0.51100000000E-03 0. -1.
        -12    1    3    3    0    0  0.18132590627E+01  0.16106163889E+01 -0.13828014733E+02  0.14039087757E+02  0.00000000000E+00 0.  1.
</event>
<event>
 7    1  0.4931104E-009  0.4778727E+02  0.7816164E-02  0.1312668E+00
        -11   -1    0    0    0    0  0.00000000000E+00  0.00000000000E+00  0.45593999997E+02  0.45594000000E+02  0.51100000000E-03 0.  1.
         11   -1    0    0    0    0 -0.00000000000E+00 -0.00000000000E+00 -0.45593999997E+02  0.45594000000E+02  0.51100000000E-03 0. -1.
    9900012    2    1    2    0    0  0.39211816401E+02  0.97074211979E+01 -0.15868916642E+02  0.47787273195E+02  0.20000009805E+02 0.  0.
        -12    1    1    2    0    0 -0.39211816401E+02 -0.97074211979E+01  0.15868916642E+02  0.43400726805E+02  0.00000000000E+00 0.  1.
         11    1    3    3    0    0  0.79091230090E+01  0.40322879265E+00 -0.88335843170E+00  0.79685094347E+01  0.51100000000E-03 0. -1.
        -11    1    3    3    0    0 -0.17768128770E+01  0.25601608977E+01 -0.15874178228E+01  0.34973394784E+01  0.51100000000E-03 0.  1.
        -12    1    3    3    0    0  0.33079506269E+02  0.67440315075E+01 -0.13398140388E+02  0.36321424282E+02  0.00000000000E+00 0.  1.
</event>
<event>
 7    1  0.6263653E-009  0.4778727E+02  0.7816164E-02  0.1312668E+00
        -11   -1    0    0    0    0  0.00000000000E+00  0.00000000000E+00  0.45593999997E+02  0.45594000000E+02  0.51100000000E-03 0.  1.
         11   -1    0    0    0    0 -0.00000000000E+00 -0.00000000000E+00 -0.45593999997E+02  0.45594000000E+02  0.51100000000E-03 0. -1.
    9900012    2    1    2    0    0 -0.22248696857E+02 -0.32608617435E+02 -0.18035995843E+02  0.47787267415E+02  0.19999983450E+02 0.  0.
        -12    1    1    2    0    0  0.22248696857E+02  0.32608617435E+02  0.18035995843E+02  0.43400732585E+02  0.00000000000E+00 0.  1.
         11    1    3    3    0    0 -0.85512901225E+01 -0.13861780399E+02 -0.31024998079E+01  0.16580079129E+02  0.51100000000E-03 0. -1.
        -11    1    3    3    0    0 -0.14981314673E+02 -0.18232329331E+02 -0.16739672251E+02  0.28932235474E+02  0.51100000000E-03 0.  1.
        -12    1    3    3    0    0  0.12839079386E+01 -0.51450770497E+00  0.18061762159E+01  0.22749528119E+01  0.00000000000E+00 0.  1.
</event>
<event>
 7    1  0.4931104E-009  0.4778727E+02  0.7816164E-02  0.1312668E+00
        -11   -1    0    0    0    0  0.00000000000E+00  0.00000000000E+00  0.45593999997E+02  0.45594000000E+02  0.51100000000E-03 0.  1.
         11   -1    0    0    0    0 -0.00000000000E+00 -0.00000000000E+00 -0.45593999997E+02  0.45594000000E+02  0.51100000000E-03 0. -1.
    9900012    2    1    2    0    0  0.98800784783E+01  0.27805830183E+02 -0.31825202281E+02  0.47787266790E+02  0.19999980602E+02 0.  0.
        -12    1    1    2    0    0 -0.98800784783E+01 -0.27805830183E+02  0.31825202281E+02  0.43400733210E+02  0.00000000000E+00 0.  1.
         11    1    3    3    0    0  0.26846956232E+01  0.80340306437E+01 -0.13826106409E+02  0.16214637143E+02  0.51100000000E-03 0.  1.
        -11    1    3    3    0    0  0.60870355233E+01  0.21476494389E+02 -0.18993225166E+02  0.29309288889E+02  0.51100000000E-03 0. -1.
        -12    1    3    3    0    0  0.11083473318E+01 -0.17046948493E+01  0.99412929337E+00  0.22633407585E+01  0.00000000000E+00 0.  1.
</event>
<event>
 7    1  0.4931104E-009  0.4778727E+02  0.7816164E-02  0.1312668E+00
        -11   -1    0    0    0    0  0.00000000000E+00  0.00000000000E+00  0.45593999997E+02  0.45594000000E+02  0.51100000000E-03 0. -1.
         11   -1    0    0    0    0 -0.00000000000E+00 -0.00000000000E+00 -0.45593999997E+02  0.45594000000E+02  0.51100000000E-03 0.  1.
    9900012    2    1    2    0    0  0.38896515477E+02 -0.18900549498E+02 -0.36679171388E+01  0.47787270701E+02  0.19999998433E+02 0.  0.
        -12    1    1    2    0    0 -0.38896515477E+02  0.18900549498E+02  0.36679171388E+01  0.43400729299E+02  0.00000000000E+00 0.  1.
         11    1    3    3    0    0  0.69825540317E+01  0.14487204288E+01 -0.16703417581E+01  0.73242674403E+01  0.51100000000E-03 0. -1.
        -11    1    3    3    0    0  0.11824751649E+02 -0.58413832701E+00  0.19730636350E+01  0.12002455979E+02  0.51100000000E-03 0.  1.
         12    1    3    3    0    0  0.20089209796E+02 -0.19765131600E+02 -0.39706390157E+01  0.28460547282E+02  0.00000000000E+00 0. -1.
</event>
<event>
 7    1  0.4931104E-009  0.4778727E+02  0.7816164E-02  0.1312668E+00
        -11   -1    0    0    0    0  0.00000000000E+00  0.00000000000E+00  0.45593999997E+02  0.45594000000E+02  0.51100000000E-03 0. -1.
         11   -1    0    0    0    0 -0.00000000000E+00 -0.00000000000E+00 -0.45593999997E+02  0.45594000000E+02  0.51100000000E-03 0.  1.
    9900012    2    1    2    0    0  0.12932260675E+02 -0.16778592364E+02  0.37879530838E+02  0.47787269771E+02  0.19999994195E+02 0.  0.
        -12    1    1    2    0    0 -0.12932260675E+02  0.16778592364E+02 -0.37879530838E+02  0.43400730229E+02  0.00000000000E+00 0.  1.
         11    1    3    3    0    0  0.48229957623E+01 -0.55952419647E+01  0.98101514790E+01  0.12280353947E+02  0.51100000000E-03 0.  1.
        -11    1    3    3    0    0  0.12326461805E+02 -0.76954355559E+01  0.25741144387E+02  0.29559565349E+02  0.51100000000E-03 0. -1.
        -12    1    3    3    0    0 -0.42171968926E+01 -0.34879148430E+01  0.23282349725E+01  0.59473504749E+01  0.00000000000E+00 0.  1.
</event>
<event>
 7    1  0.4931104E-009  0.4778727E+02  0.7816164E-02  0.1312668E+00
        -11   -1    0    0    0    0  0.00000000000E+00  0.00000000000E+00  0.45593999997E+02  0.45594000000E+02  0.51100000000E-03 0.  1.
         11   -1    0    0    0    0 -0.00000000000E+00 -0.00000000000E+00 -0.45593999997E+02  0.45594000000E+02  0.51100000000E-03 0. -1.
    9900012    2    1    2    0    0  0.82858288777E+01  0.58611859570E+01 -0.42197332086E+02  0.47787270787E+02  0.19999998827E+02 0.  0.
        -12    1    1    2    0    0 -0.82858288777E+01 -0.58611859570E+01  0.42197332086E+02  0.43400729213E+02  0.00000000000E+00 0.  1.
         11    1    3    3    0    0  0.31844717516E+01  0.66439063888E+01 -0.57152735121E+01  0.93245216510E+01  0.51100000000E-03 0.  1.
        -11    1    3    3    0    0  0.11798035698E+01  0.46831852870E+01 -0.95304598591E+01  0.10684279399E+02  0.51100000000E-03 0. -1.
        -12    1    3    3    0    0  0.39215535563E+01 -0.54659057188E+01 -0.26951598715E+02  0.27778469737E+02  0.00000000000E+00 0.  1.
</event>
<event>
 7    1  0.4931104E-009  0.4778727E+02  0.7816164E-02  0.1312668E+00
        -11   -1    0    0    0    0  0.00000000000E+00  0.00000000000E+00  0.45593999997E+02  0.45594000000E+02  0.51100000000E-03 0.  1.
         11   -1    0    0    0    0 -0.00000000000E+00 -0.00000000000E+00 -0.45593999997E+02  0.45594000000E+02  0.51100000000E-03 0. -1.
    9900012    2    1    2    0    0  0.30648726024E+02  0.82032378935E+01 -0.29613941276E+02  0.47787273777E+02  0.20000012459E+02 0.  0.
        -12    1    1    2    0    0 -0.30648726024E+02 -0.82032378935E+01  0.29613941276E+02  0.43400726223E+02  0.00000000000E+00 0.  1.
         11    1    3    3    0    0  0.18023009012E+02  0.88799750073E+01 -0.14291845079E+02  0.24656432143E+02  0.51100000000E-03 0. -1.
        -11    1    3    3    0    0 -0.16775311432E+01  0.84609189894E+00  0.29168522005E+00  0.19013318402E+01  0.51100000000E-03 0.  1.
         12    1    3    3    0    0  0.14303248154E+02 -0.15228290128E+01 -0.15613781416E+02  0.21229509794E+02  0.00000000000E+00 0. -1.
</event>
<event>
 7    1  0.4931104E-009  0.4778726E+02  0.7816164E-02  0.1312668E+00
        -11   -1    0    0    0    0  0.00000000000E+00  0.00000000000E+00  0.45593999997E+02  0.45594000000E+02  0.51100000000E-03 0.  1.
         11   -1    0    0    0    0 -0.00000000000E+00 -0.00000000000E+00 -0.45593999997E+02  0.45594000000E+02  0.51100000000E-03 0. -1.
    9900012    2    1    2    0    0 -0.29649608883E+02  0.25753057823E+02 -0.18474431385E+02  0.47787263726E+02  0.19999966633E+02 0.  0.
        -12    1    1    2    0    0  0.29649608883E+02 -0.25753057823E+02  0.18474431385E+02  0.43400736274E+02  0.00000000000E+00 0.  1.
         11    1    3    3    0    0 -0.11491375009E+02  0.14622431515E+02 -0.12196879339E+02  0.22240302805E+02  0.51100000000E-03 0. -1.
        -11    1    3    3    0    0  0.87239112455E+00  0.84781713554E+00 -0.35402641265E+01  0.37434383280E+01  0.51100000000E-03 0.  1.
        -12    1    3    3    0    0 -0.19030624999E+02  0.10282809172E+02 -0.27372879196E+01  0.21803522593E+02  0.00000000000E+00 0.  1.
</event>
<event>
 7    1  0.4931104E-009  0.4778727E+02  0.7816164E-02  0.1312668E+00
        -11   -1    0    0    0    0  0.00000000000E+00  0.00000000000E+00  0.45593999997E+02  0.45594000000E+02  0.51100000000E-03 0.  1.
         11   -1    0    0    0    0 -0.00000000000E+00 -0.00000000000E+00 -0.45593999997E+02  0.45594000000E+02  0.51100000000E-03 0. -1.
    9900012    2    1    2    0    0 -0.18663595875E+02  0.37727000050E+02 -0.10581441172E+02  0.47787271423E+02  0.20000001726E+02 0.  0.
        -12    1    1    2    0    0  0.18663595875E+02 -0.37727000050E+02  0.10581441172E+02  0.43400728577E+02  0.00000000000E+00 0.  1.
         11    1    3    3    0    0 -0.49093919742E+01  0.22057071774E+00 -0.27496043828E+01  0.56312614502E+01  0.51100000000E-03 0. -1.
        -11    1    3    3    0    0 -0.44021125618E+01  0.24855311597E+01  0.73548114716E-01  0.50558747749E+01  0.51100000000E-03 0.  1.
         12    1    3    3    0    0 -0.93520913386E+01  0.35020898173E+02 -0.79053849037E+01  0.37100135198E+02  0.00000000000E+00 0. -1.
</event>
<event>
 7    1  0.4931104E-009  0.4778727E+02  0.7816164E-02  0.1312668E+00
        -11   -1    0    0    0    0  0.00000000000E+00  0.00000000000E+00  0.45593999997E+02  0.45594000000E+02  0.51100000000E-03 0. -1.
         11   -1    0    0    0    0 -0.00000000000E+00 -0.00000000000E+00 -0.45593999997E+02  0.45594000000E+02  0.51100000000E-03 0.  1.
    9900012    2    1    2    0    0  0.96251760121E+01  0.41934200125E+02  0.57010455915E+01  0.47787273344E+02  0.20000010486E+02 0.  0.
        -12    1    1    2    0    0 -0.96251760121E+01 -0.41934200125E+02 -0.57010455915E+01  0.43400726656E+02  0.00000000000E+00 0.  1.
         11    1    3    3    0    0 -0.18667296217E+01  0.21123009090E+02  0.12090041692E+01  0.21239771276E+02  0.51100000000E-03 0. -1.
        -11    1    3    3    0    0 -0.83593153844E+00  0.90803229776E+01  0.97651110174E+00  0.91708571632E+01  0.51100000000E-03 0.  1.
        -12    1    3    3    0    0  0.12327837172E+02  0.11730868057E+02  0.35155303205E+01  0.17376644905E+02  0.00000000000E+00 0.  1.
</event>
<event>
 7    1  0.4931104E-009  0.4778727E+02  0.7816164E-02  0.1312668E+00
        -11   -1    0    0    0    0  0.00000000000E+00  0.00000000000E+00  0.45593999997E+02  0.45594000000E+02  0.51100000000E-03 0. -1.
         11   -1    0    0    0    0 -0.00000000000E+00 -0.00000000000E+00 -0.45593999997E+02  0.45594000000E+02  0.51100000000E-03 0.  1.
    9900012    2    1    2    0    0  0.24113554890E+01 -0.30889661340E+02  0.30391406408E+02  0.47787269632E+02  0.19999993562E+02 0.  0.
        -12    1    1    2    0    0 -0.24113554890E+01  0.30889661340E+02 -0.30391406408E+02  0.43400730368E+02  0.00000000000E+00 0.  1.
         11    1    3    3    0    0 -0.23256697173E+01 -0.21436221149E+01 -0.18422814002E+01  0.36603082417E+01  0.51100000000E-03 0. -1.
        -11    1    3    3    0    0  0.35547290450E+01 -0.46224037258E+01  0.46095102210E+01  0.74330545220E+01  0.51100000000E-03 0.  1.
         12    1    3    3    0    0  0.11822961613E+01 -0.24123635499E+02  0.27624177587E+02  0.36693906869E+02  0.00000000000E+00 0. -1.
</event>
<event>
 7    1  0.4931104E-009  0.4778727E+02  0.7816164E-02  0.1312668E+00
        -11   -1    0    0    0    0  0.00000000000E+00  0.00000000000E+00  0.45593999997E+02  0.45594000000E+02  0.51100000000E-03 0.  1.
         11   -1    0    0    0    0 -0.00000000000E+00 -0.00000000000E+00 -0.45593999997E+02  0.45594000000E+02  0.51100000000E-03 0. -1.
    9900012    2    1    2    0    0 -0.12246157381E+02  0.17466832456E+02 -0.37796355410E+02  0.47787273175E+02  0.20000009712E+02 0.  0.
        -12    1    1    2    0    0  0.12246157381E+02 -0.17466832456E+02  0.37796355410E+02  0.43400726825E+02  0.00000000000E+00 0.  1.
         11    1    3    3    0    0 -0.12976945173E+02  0.18491821207E+02 -0.23274946159E+02  0.32435654403E+02  0.51100000000E-03 0. -1.
        -11    1    3    3    0    0 -0.94587522738E+00 -0.68426261943E+00 -0.57627166283E+00  0.13019157302E+01  0.51100000000E-03 0.  1.
         12    1    3    3    0    0  0.16766630193E+01 -0.34072613184E+00 -0.13945137589E+02  0.14049703042E+02  0.00000000000E+00 0. -1.
</event>
<event>
 7    1  0.4931104E-009  0.4778728E+02  0.7816164E-02  0.1312668E+00
        -11   -1    0    0    0    0  0.00000000000E+00  0.00000000000E+00  0.45593999997E+02  0.45594000000E+02  0.51100000000E-03 0.  1.
         11   -1    0    0    0    0 -0.00000000000E+00 -0.00000000000E+00 -0.45593999997E+02  0.45594000000E+02  0.51100000000E-03 0. -1.
    9900012    2    1    2    0    0 -0.17200674692E+02 -0.29936955976E+02 -0.26297102607E+02  0.47787284010E+02  0.20000059115E+02 0.  0.
        -12    1    1    2    0    0  0.17200674692E+02  0.29936955976E+02  0.26297102607E+02  0.43400715990E+02  0.00000000000E+00 0.  1.
         11    1    3    3    0    0 -0.77060172539E+01 -0.24906951669E+02 -0.23322574486E+02  0.34981158133E+02  0.51100000000E-03 0. -1.
        -11    1    3    3    0    0  0.38958357735E+00 -0.20998986949E+01 -0.31144297861E+00  0.21583203846E+01  0.51100000000E-03 0.  1.
        -12    1    3    3    0    0 -0.98842410151E+01 -0.29301056114E+01 -0.26630851421E+01  0.10647805493E+02  0.00000000000E+00 0.  1.
</event>
<event>
 7    1  0.4931104E-009  0.4778728E+02  0.7816164E-02  0.1312668E+00
        -11   -1    0    0    0    0  0.00000000000E+00  0.00000000000E+00  0.45593999997E+02  0.45594000000E+02  0.51100000000E-03 0. -1.
         11   -1    0    0    0    0 -0.00000000000E+00 -0.00000000000E+00 -0.45593999997E+02  0.45594000000E+02  0.51100000000E-03 0.  1.
    9900012    2    1    2    0    0  0.21007821022E+01 -0.17861256224E+02  0.39499179157E+02  0.47787275197E+02  0.20000018934E+02 0.  0.
        -12    1    1    2    0    0 -0.21007821022E+01  0.17861256224E+02 -0.39499179157E+02  0.43400724803E+02  0.00000000000E+00 0.  1.
         11    1    3    3    0    0 -0.24911690469E+01 -0.67060746112E+01  0.22555282340E+02  0.23662589072E+02  0.51100000000E-03 0.  1.
        -11    1    3    3    0    0 -0.37072910668E+01 -0.38680216808E+01  0.91635780731E+01  0.10614931094E+02  0.51100000000E-03 0. -1.
        -12    1    3    3    0    0  0.82992422159E+01 -0.72871599316E+01  0.77803187440E+01  0.13509755031E+02  0.00000000000E+00 0.  1.
</event>
<event>
 7    1  0.4931104E-009  0.4778727E+02  0.7816164E-02  0.1312668E+00
        -11   -1    0    0    0    0  0.00000000000E+00  0.00000000000E+00  0.45593999997E+02  0.45594000000E+02  0.51100000000E-03 0.  1.
         11   -1    0    0    0    0 -0.00000000000E+00 -0.00000000000E+00 -0.45593999997E+02  0.45594000000E+02  0.51100000000E-03 0. -1.
    9900012    2    1    2    0    0 -0.21757787495E+02 -0.35940374407E+02 -0.10886293774E+02  0.47787271650E+02  0.20000002763E+02 0.  0.
        -12    1    1    2    0    0  0.21757787495E+02  0.35940374407E+02  0.10886293774E+02  0.43400728350E+02  0.00000000000E+00 0.  1.
         11    1    3    3    0    0 -0.58239912161E+01 -0.81215440356E+01 -0.64477241540E+01  0.11893338397E+02  0.51100000000E-03 0. -1.
        -11    1    3    3    0    0 -0.48289245214E+01 -0.81590753070E+01 -0.87558862322E+01  0.12905602112E+02  0.51100000000E-03 0.  1.
        -12    1    3    3    0    0 -0.11104871757E+02 -0.19659755064E+02  0.43173166123E+01  0.22988331141E+02  0.00000000000E+00 0.  1.
</event>
<event>
 7    1  0.4931104E-009  0.4778726E+02  0.7816164E-02  0.1312668E+00
        -11   -1    0    0    0    0  0.00000000000E+00  0.00000000000E+00  0.45593999997E+02  0.45594000000E+02  0.51100000000E-03 0.  1.
         11   -1    0    0    0    0 -0.00000000000E+00 -0.00000000000E+00 -0.45593999997E+02  0.45594000000E+02  0.51100000000E-03 0. -1.
    9900012    2    1    2    0    0 -0.20307945758E+02 -0.35398918665E+02 -0.14769154077E+02  0.47787262498E+02  0.19999961036E+02 0.  0.
        -12    1    1    2    0    0  0.20307945758E+02  0.35398918665E+02  0.14769154077E+02  0.43400737502E+02  0.00000000000E+00 0.  1.
         11    1    3    3    0    0 -0.12052098032E+02 -0.23724848273E+02 -0.17511387555E+02  0.31855457726E+02  0.51100000000E-03 0. -1.
        -11    1    3    3    0    0 -0.23150775585E-01 -0.51234687644E+00 -0.13722294573E+01  0.14649400072E+01  0.51100000000E-03 0.  1.
        -12    1    3    3    0    0 -0.82326969505E+01 -0.11161723515E+02  0.41144629351E+01  0.14466864766E+02  0.00000000000E+00 0.  1.
</event>
<event>
 7    1  0.4931104E-009  0.4778727E+02  0.7816164E-02  0.1312668E+00
        -11   -1    0    0    0    0  0.00000000000E+00  0.00000000000E+00  0.45593999997E+02  0.45594000000E+02  0.51100000000E-03 0. -1.
         11   -1    0    0    0    0 -0.00000000000E+00 -0.00000000000E+00 -0.45593999997E+02  0.45594000000E+02  0.51100000000E-03 0.  1.
    9900012    2    1    2    0    0 -0.30325966641E+02  0.11138103981E+02  0.28981051009E+02  0.47787274999E+02  0.20000018031E+02 0.  0.
        -12    1    1    2    0    0  0.30325966641E+02 -0.11138103981E+02 -0.28981051009E+02  0.43400725001E+02  0.00000000000E+00 0.  1.
         11    1    3    3    0    0 -0.17735171936E+02 -0.37268724941E+01  0.12085026858E+02  0.21782418980E+02  0.51100000000E-03 0. -1.
        -11    1    3    3    0    0 -0.21233223330E+01  0.33686742943E+01  0.51972559132E+01  0.65473608056E+01  0.51100000000E-03 0.  1.
         12    1    3    3    0    0 -0.10467472372E+02  0.11496302181E+02  0.11698768238E+02  0.19457495213E+02  0.00000000000E+00 0. -1.
</event>
<event>
 7    1  0.4931104E-009  0.4778727E+02  0.7816164E-02  0.1312668E+00
        -11   -1    0    0    0    0  0.00000000000E+00  0.00000000000E+00  0.45593999997E+02  0.45594000000E+02  0.51100000000E-03 0.  1.
         11   -1    0    0    0    0 -0.00000000000E+00 -0.00000000000E+00 -0.45593999997E+02  0.45594000000E+02  0.51100000000E-03 0. -1.
    9900012    2    1    2    0    0  0.27091952548E+02  0.19907125261E+02 -0.27447323513E+02  0.47787273082E+02  0.20000009288E+02 0.  0.
        -12    1    1    2    0    0 -0.27091952548E+02 -0.19907125261E+02  0.27447323513E+02  0.43400726918E+02  0.00000000000E+00 0.  1.
         11    1    3    3    0    0  0.76116967097E+01  0.11524753457E+02 -0.17326573172E+02  0.22157797887E+02  0.51100000000E-03 0. -1.
        -11    1    3    3    0    0  0.52709980497E+01  0.82852438826E+00 -0.76822235813E+01  0.93534182263E+01  0.51100000000E-03 0.  1.
        -12    1    3    3    0    0  0.14209257788E+02  0.75538474163E+01 -0.24385267593E+01  0.16276056968E+02  0.00000000000E+00 0.  1.
</event>
<event>
 7    1  0.4931104E-009  0.4778727E+02  0.7816164E-02  0.1312668E+00
        -11   -1    0    0    0    0  0.00000000000E+00  0.00000000000E+00  0.45593999997E+02  0.45594000000E+02  0.51100000000E-03 0. -1.
         11   -1    0    0    0    0 -0.00000000000E+00 -0.00000000000E+00 -0.45593999997E+02  0.45594000000E+02  0.51100000000E-03 0.  1.
    9900012    2    1    2    0    0 -0.11045621344E+02 -0.41970023427E+02 -0.36707677837E+00  0.47787270021E+02  0.19999995335E+02 0.  0.
        -12    1    1    2    0    0  0.11045621344E+02  0.41970023427E+02  0.36707677837E+00  0.43400729979E+02  0.00000000000E+00 0.  1.
         11    1    3    3    0    0 -0.59284626735E+01 -0.15643931621E+02 -0.39420026566E+01  0.17187747131E+02  0.51100000000E-03 0. -1.
        -11    1    3    3    0    0 -0.91434344064E+01 -0.13323512998E+02  0.49960155046E+01  0.16913857116E+02  0.51100000000E-03 0.  1.
         12    1    3    3    0    0  0.40262757362E+01 -0.13002578808E+02 -0.14210896264E+01  0.13685665774E+02  0.00000000000E+00 0. -1.
</event>
<event>
 7    1  0.4931104E-009  0.4778727E+02  0.7816164E-02  0.1312668E+00
        -11   -1    0    0    0    0  0.00000000000E+00  0.00000000000E+00  0.45593999997E+02  0.45594000000E+02  0.51100000000E-03 0.  1.
         11   -1    0    0    0    0 -0.00000000000E+00 -0.00000000000E+00 -0.45593999997E+02  0.45594000000E+02  0.51100000000E-03 0. -1.
    9900012    2    1    2    0    0  0.91452835482E+01 -0.36273011112E+02 -0.22005814666E+02  0.47787269299E+02  0.19999992040E+02 0.  0.
        -12    1    1    2    0    0 -0.91452835482E+01  0.36273011112E+02  0.22005814666E+02  0.43400730701E+02  0.00000000000E+00 0.  1.
         11    1    3    3    0    0  0.56634839822E+01 -0.10499110591E+02 -0.16078993312E+02  0.20020998981E+02  0.51100000000E-03 0. -1.
        -11    1    3    3    0    0  0.26813452000E+01 -0.10899416684E+02 -0.62883929792E+01  0.12865876676E+02  0.51100000000E-03 0.  1.
        -12    1    3    3    0    0  0.80045436604E+00 -0.14874483837E+02  0.36157162550E+00  0.14900393641E+02  0.00000000000E+00 0.  1.
</event>
<event>
 7    1  0.4931104E-009  0.4778727E+02  0.7816164E-02  0.1312668E+00
        -11   -1    0    0    0    0  0.00000000000E+00  0.00000000000E+00  0.45593999997E+02  0.45594000000E+02  0.51100000000E-03 0.  1.
         11   -1    0    0    0    0 -0.00000000000E+00 -0.00000000000E+00 -0.45593999997E+02  0.45594000000E+02  0.51100000000E-03 0. -1.
    9900012    2    1    2    0    0  0.52274969860E+01 -0.42160092286E+02  0.88782533699E+01  0.47787268564E+02  0.19999988691E+02 0.  0.
        -12    1    1    2    0    0 -0.52274969860E+01  0.42160092286E+02 -0.88782533699E+01  0.43400731436E+02  0.00000000000E+00 0.  1.
         11    1    3    3    0    0  0.53376430453E+01 -0.15308023154E+02 -0.49705865201E+00  0.16219527543E+02  0.51100000000E-03 0. -1.
        -11    1    3    3    0    0  0.50513596489E+01 -0.14085751280E+02  0.99017914229E-01  0.14964438788E+02  0.51100000000E-03 0.  1.
        -12    1    3    3    0    0 -0.51615057081E+01 -0.12766317851E+02  0.92762941077E+01  0.16603302233E+02  0.00000000000E+00 0.  1.
</event>
<event>
 7    1  0.4931104E-009  0.4778727E+02  0.7816164E-02  0.1312668E+00
        -11   -1    0    0    0    0  0.00000000000E+00  0.00000000000E+00  0.45593999997E+02  0.45594000000E+02  0.51100000000E-03 0.  1.
         11   -1    0    0    0    0 -0.00000000000E+00 -0.00000000000E+00 -0.45593999997E+02  0.45594000000E+02  0.51100000000E-03 0. -1.
    9900012    2    1    2    0    0  0.51141877351E+01  0.38140261890E+02 -0.20069595262E+02  0.47787272504E+02  0.20000006655E+02 0.  0.
        -12    1    1    2    0    0 -0.51141877351E+01 -0.38140261890E+02  0.20069595262E+02  0.43400727496E+02  0.00000000000E+00 0.  1.
         11    1    3    3    0    0  0.93108108486E+01  0.28728318892E+02 -0.17886790626E+02  0.35099070987E+02  0.51100000000E-03 0. -1.
        -11    1    3    3    0    0  0.10181727072E+01  0.43527114172E+01  0.12653318563E+01  0.46458408615E+01  0.51100000000E-03 0.  1.
        -12    1    3    3    0    0 -0.52147958207E+01  0.50592315809E+01 -0.34481364915E+01  0.80423606550E+01  0.00000000000E+00 0.  1.
</event>
<event>
 7    1  0.4931104E-009  0.4778727E+02  0.7816164E-02  0.1312668E+00
        -11   -1    0    0    0    0  0.00000000000E+00  0.00000000000E+00  0.45593999997E+02  0.45594000000E+02  0.51100000000E-03 0. -1.
         11   -1    0    0    0    0 -0.00000000000E+00 -0.00000000000E+00 -0.45593999997E+02  0.45594000000E+02  0.51100000000E-03 0.  1.
    9900012    2    1    2    0    0  0.22721359909E+02 -0.33566998309E+02  0.15511917541E+02  0.47787272386E+02  0.20000006119E+02 0.  0.
        -12    1    1    2    0    0 -0.22721359909E+02  0.33566998309E+02 -0.15511917541E+02  0.43400727614E+02  0.00000000000E+00 0.  1.
         11    1    3    3    0    0  0.66890319464E+01 -0.14978398487E+02  0.11308748195E+02  0.19924441162E+02  0.51100000000E-03 0. -1.
        -11    1    3    3    0    0  0.55016503291E+01 -0.10271183119E+02 -0.37786739762E+01  0.12249234110E+02  0.51100000000E-03 0.  1.
         12    1    3    3    0    0  0.10530677633E+02 -0.83174167030E+01  0.79818433220E+01  0.15613597114E+02  0.00000000000E+00 0. -1.
</event>
<event>
 7    1  0.4931104E-009  0.4778727E+02  0.7816164E-02  0.1312668E+00
        -11   -1    0    0    0    0  0.00000000000E+00  0.00000000000E+00  0.45593999997E+02  0.45594000000E+02  0.51100000000E-03 0.  1.
         11   -1    0    0    0    0 -0.00000000000E+00 -0.00000000000E+00 -0.45593999997E+02  0.45594000000E+02  0.51100000000E-03 0. -1.
    9900012    2    1    2    0    0  0.40071974927E+02 -0.74853199539E+01  0.14893964876E+02  0.47787269832E+02  0.19999994472E+02 0.  0.
        -12    1    1    2    0    0 -0.40071974927E+02  0.74853199539E+01 -0.14893964876E+02  0.43400730168E+02  0.00000000000E+00 0.  1.
         11    1    3    3    0    0  0.26042889232E+02 -0.45950144128E+01  0.10606024102E+02  0.28492700548E+02  0.51100000000E-03 0. -1.
        -11    1    3    3    0    0  0.80598983819E+01 -0.58407759544E+01  0.69325972400E+01  0.12130025986E+02  0.51100000000E-03 0.  1.
        -12    1    3    3    0    0  0.59691873136E+01  0.29504704134E+01 -0.26446564658E+01  0.71645432979E+01  0.00000000000E+00 0.  1.
</event>
<event>
 7    1  0.4941005E-009  0.4778727E+02  0.7816164E-02  0.1312668E+00
        -11   -1    0    0    0    0  0.00000000000E+00  0.00000000000E+00  0.45593999997E+02  0.45594000000E+02  0.51100000000E-03 0. -1.
         11   -1    0    0    0    0 -0.00000000000E+00 -0.00000000000E+00 -0.45593999997E+02  0.45594000000E+02  0.51100000000E-03 0.  1.
    9900012    2    1    2    0    0  0.23269806520E+02 -0.33735745713E+02  0.14284216753E+02  0.47787270944E+02  0.19999999544E+02 0.  0.
        -12    1    1    2    0    0 -0.23269806520E+02  0.33735745713E+02 -0.14284216753E+02  0.43400729056E+02  0.00000000000E+00 0.  1.
         11    1    3    3    0    0  0.69323789885E+01 -0.16441393147E+02  0.12884630595E+02  0.22008884408E+02  0.51100000000E-03 0. -1.
        -11    1    3    3    0    0  0.37016208612E+01  0.33011166792E+00  0.17082629647E+01  0.40901263221E+01  0.51100000000E-03 0.  1.
         12    1    3    3    0    0  0.12635806671E+02 -0.17624464234E+02 -0.30867680659E+00  0.21688260214E+02  0.00000000000E+00 0. -1.
</event>
<event>
 7    1  0.4931104E-009  0.4778727E+02  0.7816164E-02  0.1312668E+00
        -11   -1    0    0    0    0  0.00000000000E+00  0.00000000000E+00  0.45593999997E+02  0.45594000000E+02  0.51100000000E-03 0.  1.
         11   -1    0    0    0    0 -0.00000000000E+00 -0.00000000000E+00 -0.45593999997E+02  0.45594000000E+02  0.51100000000E-03 0. -1.
    9900012    2    1    2    0    0  0.15709335119E+01  0.61494648265E+01 -0.42934129894E+02  0.47787271210E+02  0.20000000753E+02 0.  0.
        -12    1    1    2    0    0 -0.15709335119E+01 -0.61494648265E+01  0.42934129894E+02  0.43400728790E+02  0.00000000000E+00 0.  1.
         11    1    3    3    0    0 -0.26884916740E+01  0.55547432916E+01 -0.86107177299E+01  0.10593753848E+02  0.51100000000E-03 0. -1.
        -11    1    3    3    0    0  0.10112023867E+01  0.10661221808E+01  0.96166052244E+00  0.17561144589E+01  0.51100000000E-03 0.  1.
         12    1    3    3    0    0  0.32482227992E+01 -0.47140064589E+00 -0.35285072687E+02  0.35437402902E+02  0.00000000000E+00 0. -1.
</event>
<event>
 7    1  0.4931104E-009  0.4778727E+02  0.7816164E-02  0.1312668E+00
        -11   -1    0    0    0    0  0.00000000000E+00  0.00000000000E+00  0.45593999997E+02  0.45594000000E+02  0.51100000000E-03 0.  1.
         11   -1    0    0    0    0 -0.00000000000E+00 -0.00000000000E+00 -0.45593999997E+02  0.45594000000E+02  0.51100000000E-03 0. -1.
    9900012    2    1    2    0    0 -0.24383492170E+02 -0.26857406235E+02 -0.23827469495E+02  0.47787271174E+02  0.20000000590E+02 0.  0.
        -12    1    1    2    0    0  0.24383492170E+02  0.26857406235E+02  0.23827469495E+02  0.43400728826E+02  0.00000000000E+00 0.  1.
         11    1    3    3    0    0 -0.41564777396E+01 -0.71160050821E+01 -0.11683624687E+02  0.14297584468E+02  0.51100000000E-03 0. -1.
        -11    1    3    3    0    0 -0.96711552186E+01 -0.15372535653E+02 -0.21083642577E+01  0.18283634643E+02  0.51100000000E-03 0.  1.
         12    1    3    3    0    0 -0.10555859212E+02 -0.43688655006E+01 -0.10035480550E+02  0.15206052063E+02  0.00000000000E+00 0. -1.
</event>
<event>
 7    1  0.4931104E-009  0.4778727E+02  0.7816164E-02  0.1312668E+00
        -11   -1    0    0    0    0  0.00000000000E+00  0.00000000000E+00  0.45593999997E+02  0.45594000000E+02  0.51100000000E-03 0.  1.
         11   -1    0    0    0    0 -0.00000000000E+00 -0.00000000000E+00 -0.45593999997E+02  0.45594000000E+02  0.51100000000E-03 0. -1.
    9900012    2    1    2    0    0  0.15205433716E+02  0.10130586945E+02 -0.39367367136E+02  0.47787267269E+02  0.19999982786E+02 0.  0.
        -12    1    1    2    0    0 -0.15205433716E+02 -0.10130586945E+02  0.39367367136E+02  0.43400732731E+02  0.00000000000E+00 0.  1.
         11    1    3    3    0    0  0.67725443063E+01  0.93216576967E+01 -0.13881734914E+02  0.18040599299E+02  0.51100000000E-03 0. -1.
        -11    1    3    3    0    0  0.17543718984E-01  0.20461185416E+01  0.74021320906E+00  0.21759652397E+01  0.51100000000E-03 0.  1.
         12    1    3    3    0    0  0.84153456909E+01 -0.12371892929E+01 -0.26225845432E+02  0.27570702730E+02  0.00000000000E+00 0. -1.
</event>
<event>
 7    1  0.4931104E-009  0.4778725E+02  0.7816164E-02  0.1312668E+00
        -11   -1    0    0    0    0  0.00000000000E+00  0.00000000000E+00  0.45593999997E+02  0.45594000000E+02  0.51100000000E-03 0. -1.
         11   -1    0    0    0    0 -0.00000000000E+00 -0.00000000000E+00 -0.45593999997E+02  0.45594000000E+02  0.51100000000E-03 0.  1.
    9900012    2    1    2    0    0 -0.40054281913E+02  0.10911555824E+02  0.12657715924E+02  0.47787247444E+02  0.19999892396E+02 0.  0.
        -12    1    1    2    0    0  0.40054281913E+02 -0.10911555824E+02 -0.12657715924E+02  0.43400752556E+02  0.00000000000E+00 0.  1.
         11    1    3    3    0    0 -0.26991176898E+02  0.61182808672E+01  0.10792052935E+02  0.29705645893E+02  0.51100000000E-03 0.  1.
        -11    1    3    3    0    0 -0.39018395854E+01 -0.18396665336E+01  0.47426594801E+01  0.64110486124E+01  0.51100000000E-03 0. -1.
        -12    1    3    3    0    0 -0.91612654289E+01  0.66329414900E+01 -0.28769964917E+01  0.11670552938E+02  0.00000000000E+00 0.  1.
</event>
<event>
 7    1  0.4931104E-009  0.4778727E+02  0.7816164E-02  0.1312668E+00
        -11   -1    0    0    0    0  0.00000000000E+00  0.00000000000E+00  0.45593999997E+02  0.45594000000E+02  0.51100000000E-03 0. -1.
         11   -1    0    0    0    0 -0.00000000000E+00 -0.00000000000E+00 -0.45593999997E+02  0.45594000000E+02  0.51100000000E-03 0.  1.
    9900012    2    1    2    0    0 -0.35859205025E+02 -0.21631574888E+02  0.11393677172E+02  0.47787268478E+02  0.19999988299E+02 0.  0.
        -12    1    1    2    0    0  0.35859205025E+02  0.21631574888E+02 -0.11393677172E+02  0.43400731522E+02  0.00000000000E+00 0.  1.
         11    1    3    3    0    0 -0.20902878019E+01  0.91294879994E+00 -0.20593369106E+01  0.30730518021E+01  0.51100000000E-03 0.  1.
        -11    1    3    3    0    0 -0.89807977403E+01  0.15879008285E-01  0.13670095463E+01  0.90842553661E+01  0.51100000000E-03 0. -1.
        -12    1    3    3    0    0 -0.24788119482E+02 -0.22560402696E+02  0.12086004537E+02  0.35629961310E+02  0.00000000000E+00 0.  1.
</event>
<event>
 7    1  0.4931104E-009  0.4778726E+02  0.7816164E-02  0.1312668E+00
        -11   -1    0    0    0    0  0.00000000000E+00  0.00000000000E+00  0.45593999997E+02  0.45594000000E+02  0.51100000000E-03 0. -1.
         11   -1    0    0    0    0 -0.00000000000E+00 -0.00000000000E+00 -0.45593999997E+02  0.45594000000E+02  0.51100000000E-03 0.  1.
    9900012    2    1    2    0    0 -0.14186997996E+02  0.59710166538E+01  0.40579551103E+02  0.47787263603E+02  0.19999966073E+02 0.  0.
        -12    1    1    2    0    0  0.14186997996E+02 -0.59710166538E+01 -0.40579551103E+02  0.43400736397E+02  0.00000000000E+00 0.  1.
         11    1    3    3    0    0 -0.59931296847E+01  0.59980970636E+01  0.53775546864E+01  0.10040561063E+02  0.51100000000E-03 0. -1.
        -11    1    3    3    0    0 -0.70056545276E+01 -0.49383811960E+01  0.21997663699E+02  0.23608558039E+02  0.51100000000E-03 0.  1.
         12    1    3    3    0    0 -0.11882137842E+01  0.49113007862E+01  0.13204332718E+02  0.14138144501E+02  0.00000000000E+00 0. -1.
</event>
<event>
 7    1  0.4931104E-009  0.4778727E+02  0.7816164E-02  0.1312668E+00
        -11   -1    0    0    0    0  0.00000000000E+00  0.00000000000E+00  0.45593999997E+02  0.45594000000E+02  0.51100000000E-03 0.  1.
         11   -1    0    0    0    0 -0.00000000000E+00 -0.00000000000E+00 -0.45593999997E+02  0.45594000000E+02  0.51100000000E-03 0. -1.
    9900012    2    1    2    0    0  0.82726223074E+00 -0.17708885342E+02 -0.39614826633E+02  0.47787268762E+02  0.19999989592E+02 0.  0.
        -12    1    1    2    0    0 -0.82726223074E+00  0.17708885342E+02  0.39614826633E+02  0.43400731238E+02  0.00000000000E+00 0.  1.
         11    1    3    3    0    0  0.30039094483E+01 -0.69051051920E+01 -0.12540073434E+02  0.14627282443E+02  0.51100000000E-03 0. -1.
        -11    1    3    3    0    0  0.49342935479E+01 -0.19740371585E+01 -0.20668225433E+01  0.57022654451E+01  0.51100000000E-03 0.  1.
        -12    1    3    3    0    0 -0.71109407654E+01 -0.88297429919E+01 -0.25007930655E+02  0.27457720873E+02  0.00000000000E+00 0.  1.
</event>
<event>
 7    1  0.4931104E-009  0.4778727E+02  0.7816164E-02  0.1312668E+00
        -11   -1    0    0    0    0  0.00000000000E+00  0.00000000000E+00  0.45593999997E+02  0.45594000000E+02  0.51100000000E-03 0.  1.
         11   -1    0    0    0    0 -0.00000000000E+00 -0.00000000000E+00 -0.45593999997E+02  0.45594000000E+02  0.51100000000E-03 0. -1.
    9900012    2    1    2    0    0 -0.17815563720E+02 -0.45037914773E+01 -0.39318504070E+02  0.47787271773E+02  0.20000003321E+02 0.  0.
        -12    1    1    2    0    0  0.17815563720E+02  0.45037914773E+01  0.39318504070E+02  0.43400728227E+02  0.00000000000E+00 0.  1.
         11    1    3    3    0    0 -0.12241020333E+02 -0.54293257597E+00 -0.14120477444E+02  0.18695594082E+02  0.51100000000E-03 0. -1.
        -11    1    3    3    0    0 -0.61718484953E+01  0.34725715754E+01 -0.12266440885E+02  0.14163899161E+02  0.51100000000E-03 0.  1.
        -12    1    3    3    0    0  0.59730510865E+00 -0.74334304767E+01 -0.12931585741E+02  0.14927778529E+02  0.00000000000E+00 0.  1.
</event>
<event>
 7    1  0.4931104E-009  0.4778727E+02  0.7816164E-02  0.1312668E+00
        -11   -1    0    0    0    0  0.00000000000E+00  0.00000000000E+00  0.45593999997E+02  0.45594000000E+02  0.51100000000E-03 0. -1.
         11   -1    0    0    0    0 -0.00000000000E+00 -0.00000000000E+00 -0.45593999997E+02  0.45594000000E+02  0.51100000000E-03 0.  1.
    9900012    2    1    2    0    0 -0.18631418175E+02  0.25882233851E+02  0.29438124956E+02  0.47787274508E+02  0.20000015791E+02 0.  0.
        -12    1    1    2    0    0  0.18631418175E+02 -0.25882233851E+02 -0.29438124956E+02  0.43400725492E+02  0.00000000000E+00 0.  1.
         11    1    3    3    0    0 -0.56297696193E+01  0.29542888251E+01  0.68716969638E+01  0.93617491876E+01  0.51100000000E-03 0. -1.
        -11    1    3    3    0    0 -0.87163374512E+01  0.31941174984E+01  0.13269781263E+02  0.16194567614E+02  0.51100000000E-03 0.  1.
         12    1    3    3    0    0 -0.42853111041E+01  0.19733827528E+02  0.92966467284E+01  0.22230957707E+02  0.00000000000E+00 0. -1.
</event>
<event>
 7    1  0.4931104E-009  0.4778728E+02  0.7816164E-02  0.1312668E+00
        -11   -1    0    0    0    0  0.00000000000E+00  0.00000000000E+00  0.45593999997E+02  0.45594000000E+02  0.51100000000E-03 0. -1.
         11   -1    0    0    0    0 -0.00000000000E+00 -0.00000000000E+00 -0.45593999997E+02  0.45594000000E+02  0.51100000000E-03 0.  1.
    9900012    2    1    2    0    0 -0.31592097650E+02 -0.21851790304E+02  0.20200531073E+02  0.47787276169E+02  0.20000023365E+02 0.  0.
        -12    1    1    2    0    0  0.31592097650E+02  0.21851790304E+02 -0.20200531073E+02  0.43400723831E+02  0.00000000000E+00 0.  1.
         11    1    3    3    0    0 -0.10548750087E+02 -0.73753076139E+01  0.13379831106E+02  0.18565860375E+02  0.51100000000E-03 0. -1.
        -11    1    3    3    0    0 -0.84663271163E+01  0.62885446661E+00  0.39262611533E+01  0.93535918066E+01  0.51100000000E-03 0.  1.
        -12    1    3    3    0    0 -0.12577020447E+02 -0.15105337157E+02  0.28944388142E+01  0.19867823988E+02  0.00000000000E+00 0.  1.
</event>
<event>
 7    1  0.4931104E-009  0.4778727E+02  0.7816164E-02  0.1312668E+00
        -11   -1    0    0    0    0  0.00000000000E+00  0.00000000000E+00  0.45593999997E+02  0.45594000000E+02  0.51100000000E-03 0. -1.
         11   -1    0    0    0    0 -0.00000000000E+00 -0.00000000000E+00 -0.45593999997E+02  0.45594000000E+02  0.51100000000E-03 0.  1.
    9900012    2    1    2    0    0 -0.26851136375E+02  0.33704369407E+02 -0.51628562769E+01  0.47787272741E+02  0.20000007734E+02 0.  0.
        -12    1    1    2    0    0  0.26851136375E+02 -0.33704369407E+02  0.51628562769E+01  0.43400727259E+02  0.00000000000E+00 0.  1.
         11    1    3    3    0    0 -0.15958376295E+02  0.17247112956E+02  0.25308346239E+01  0.23633404398E+02  0.51100000000E-03 0. -1.
        -11    1    3    3    0    0 -0.52657356215E+01  0.16444993237E+02 -0.59115723207E+01  0.18251368764E+02  0.51100000000E-03 0.  1.
        -12    1    3    3    0    0 -0.56270244579E+01  0.12263213274E-01 -0.17821185801E+01  0.59024995782E+01  0.00000000000E+00 0.  1.
</event>
<event>
 7    1  0.4931104E-009  0.4778726E+02  0.7816164E-02  0.1312668E+00
        -11   -1    0    0    0    0  0.00000000000E+00  0.00000000000E+00  0.45593999997E+02  0.45594000000E+02  0.51100000000E-03 0.  1.
         11   -1    0    0    0    0 -0.00000000000E+00 -0.00000000000E+00 -0.45593999997E+02  0.45594000000E+02  0.51100000000E-03 0. -1.
    9900012    2    1    2    0    0 -0.14970739525E+01  0.96873343746E+01 -0.42279289934E+02  0.47787262276E+02  0.19999960019E+02 0.  0.
        -12    1    1    2    0    0  0.14970739525E+01 -0.96873343746E+01  0.42279289934E+02  0.43400737724E+02  0.00000000000E+00 0.  1.
         11    1    3    3    0    0  0.33347267459E+01  0.71485757857E+01 -0.11127237599E+02  0.13639573126E+02  0.51100000000E-03 0. -1.
        -11    1    3    3    0    0  0.34584760029E+01  0.17065067990E+01 -0.19166227875E+02  0.19550383959E+02  0.51100000000E-03 0.  1.
        -12    1    3    3    0    0 -0.82902767014E+01  0.83225178987E+00 -0.11985824461E+02  0.14597305191E+02  0.00000000000E+00 0.  1.
</event>
<event>
 7    1  0.4931104E-009  0.4778726E+02  0.7816164E-02  0.1312668E+00
        -11   -1    0    0    0    0  0.00000000000E+00  0.00000000000E+00  0.45593999997E+02  0.45594000000E+02  0.51100000000E-03 0. -1.
         11   -1    0    0    0    0 -0.00000000000E+00 -0.00000000000E+00 -0.45593999997E+02  0.45594000000E+02  0.51100000000E-03 0.  1.
    9900012    2    1    2    0    0 -0.39970905851E+02  0.13773239114E+02 -0.98106656905E+01  0.47787255864E+02  0.19999930787E+02 0.  0.
        -12    1    1    2    0    0  0.39970905851E+02 -0.13773239114E+02  0.98106656905E+01  0.43400744136E+02  0.00000000000E+00 0.  1.
         11    1    3    3    0    0 -0.65711476650E+01  0.97004519175E+01  0.10558612954E+00  0.11717077184E+02  0.51100000000E-03 0. -1.
        -11    1    3    3    0    0 -0.12220438981E+02  0.53066213687E+01 -0.22455804220E+01  0.13510810151E+02  0.51100000000E-03 0.  1.
        -12    1    3    3    0    0 -0.21179319205E+02 -0.12338341720E+01 -0.76706713980E+01  0.22559368529E+02  0.00000000000E+00 0.  1.
</event>
<event>
 7    1  0.4931104E-009  0.4778727E+02  0.7816164E-02  0.1312668E+00
        -11   -1    0    0    0    0  0.00000000000E+00  0.00000000000E+00  0.45593999997E+02  0.45594000000E+02  0.51100000000E-03 0.  1.
         11   -1    0    0    0    0 -0.00000000000E+00 -0.00000000000E+00 -0.45593999997E+02  0.45594000000E+02  0.51100000000E-03 0. -1.
    9900012    2    1    2    0    0  0.34793954658E+02  0.21989320573E+02 -0.13764950280E+02  0.47787270096E+02  0.19999995675E+02 0.  0.
        -12    1    1    2    0    0 -0.34793954658E+02 -0.21989320573E+02  0.13764950280E+02  0.43400729904E+02  0.00000000000E+00 0.  1.
         11    1    3    3    0    0 -0.96661000416E-01  0.26473570234E+01 -0.49318290744E+01  0.55982837405E+01  0.51100000000E-03 0. -1.
        -11    1    3    3    0    0  0.70271894986E+01  0.54940139114E+01 -0.64013798056E+01  0.10979218769E+02  0.51100000000E-03 0.  1.
        -12    1    3    3    0    0  0.27863426160E+02  0.13847949639E+02 -0.24317413996E+01  0.31209767586E+02  0.00000000000E+00 0.  1.
</event>
<event>
 7    1  0.4931104E-009  0.4778727E+02  0.7816164E-02  0.1312668E+00
        -11   -1    0    0    0    0  0.00000000000E+00  0.00000000000E+00  0.45593999997E+02  0.45594000000E+02  0.51100000000E-03 0.  1.
         11   -1    0    0    0    0 -0.00000000000E+00 -0.00000000000E+00 -0.45593999997E+02  0.45594000000E+02  0.51100000000E-03 0. -1.
    9900012    2    1    2    0    0  0.28556888540E+01  0.38164378320E+02 -0.20468231813E+02  0.47787271377E+02  0.20000001518E+02 0.  0.
        -12    1    1    2    0    0 -0.28556888540E+01 -0.38164378320E+02  0.20468231813E+02  0.43400728623E+02  0.00000000000E+00 0.  1.
         11    1    3    3    0    0  0.59574772810E+01  0.79689314099E+01 -0.92281699153E+01  0.13570354587E+02  0.51100000000E-03 0. -1.
        -11    1    3    3    0    0  0.29613419048E+01  0.11527255351E+02 -0.66221208283E+00  0.11919970088E+02  0.51100000000E-03 0.  1.
        -12    1    3    3    0    0 -0.60631303318E+01  0.18668191559E+02 -0.10577849815E+02  0.22296946702E+02  0.00000000000E+00 0.  1.
</event>
<event>
 7    1  0.4931104E-009  0.4778727E+02  0.7816164E-02  0.1312668E+00
        -11   -1    0    0    0    0  0.00000000000E+00  0.00000000000E+00  0.45593999997E+02  0.45594000000E+02  0.51100000000E-03 0. -1.
         11   -1    0    0    0    0 -0.00000000000E+00 -0.00000000000E+00 -0.45593999997E+02  0.45594000000E+02  0.51100000000E-03 0.  1.
    9900012    2    1    2    0    0  0.93479609764E+01  0.34606630276E+02  0.24466714441E+02  0.47787270179E+02  0.19999996052E+02 0.  0.
        -12    1    1    2    0    0 -0.93479609764E+01 -0.34606630276E+02 -0.24466714441E+02  0.43400729821E+02  0.00000000000E+00 0.  1.
         11    1    3    3    0    0  0.82593259450E+01  0.21667928411E+02  0.12249247208E+02  0.26225171955E+02  0.51100000000E-03 0. -1.
        -11    1    3    3    0    0  0.27603504912E+01  0.36071258923E+01 -0.15908787965E+01  0.48126694924E+01  0.51100000000E-03 0.  1.
         12    1    3    3    0    0 -0.16717154598E+01  0.93315759731E+01  0.13808346030E+02  0.16749428731E+02  0.00000000000E+00 0. -1.
</event>
<event>
 7    1  0.4931104E-009  0.4778727E+02  0.7816164E-02  0.1312668E+00
        -11   -1    0    0    0    0  0.00000000000E+00  0.00000000000E+00  0.45593999997E+02  0.45594000000E+02  0.51100000000E-03 0.  1.
         11   -1    0    0    0    0 -0.00000000000E+00 -0.00000000000E+00 -0.45593999997E+02  0.45594000000E+02  0.51100000000E-03 0. -1.
    9900012    2    1    2    0    0  0.11633579261E+02 -0.23656741265E+01 -0.41745499243E+02  0.47787270887E+02  0.19999999282E+02 0.  0.
        -12    1    1    2    0    0 -0.11633579261E+02  0.23656741265E+01  0.41745499243E+02  0.43400729113E+02  0.00000000000E+00 0.  1.
         11    1    3    3    0    0  0.85152309366E+01  0.73380741626E+01 -0.26366058686E+02  0.28662266854E+02  0.51100000000E-03 0. -1.
        -11    1    3    3    0    0  0.11643710807E+01  0.27709787088E+00 -0.15384774350E+01  0.19492194137E+01  0.51100000000E-03 0.  1.
         12    1    3    3    0    0  0.19539772437E+01 -0.99808461600E+01 -0.13840963122E+02  0.17175784619E+02  0.00000000000E+00 0. -1.
</event>
<event>
 7    1  0.4931104E-009  0.4778727E+02  0.7816164E-02  0.1312668E+00
        -11   -1    0    0    0    0  0.00000000000E+00  0.00000000000E+00  0.45593999997E+02  0.45594000000E+02  0.51100000000E-03 0. -1.
         11   -1    0    0    0    0 -0.00000000000E+00 -0.00000000000E+00 -0.45593999997E+02  0.45594000000E+02  0.51100000000E-03 0.  1.
    9900012    2    1    2    0    0 -0.42730687632E+02  0.56765903961E+01  0.50485275041E+01  0.47787274499E+02  0.20000015752E+02 0.  0.
        -12    1    1    2    0    0  0.42730687632E+02 -0.56765903961E+01 -0.50485275041E+01  0.43400725501E+02  0.00000000000E+00 0.  1.
         11    1    3    3    0    0 -0.20721258235E+02  0.27887323825E+01 -0.36231623199E+01  0.21219681350E+02  0.51100000000E-03 0. -1.
        -11    1    3    3    0    0 -0.70532444805E+01 -0.41815631497E+01  0.77342088569E+00  0.82360128827E+01  0.51100000000E-03 0.  1.
         12    1    3    3    0    0 -0.14956184917E+02  0.70694211634E+01  0.78982689383E+01  0.18331580267E+02  0.00000000000E+00 0. -1.
</event>
<event>
 7    1  0.4931104E-009  0.4778727E+02  0.7816164E-02  0.1312668E+00
        -11   -1    0    0    0    0  0.00000000000E+00  0.00000000000E+00  0.45593999997E+02  0.45594000000E+02  0.51100000000E-03 0.  1.
         11   -1    0    0    0    0 -0.00000000000E+00 -0.00000000000E+00 -0.45593999997E+02  0.45594000000E+02  0.51100000000E-03 0. -1.
    9900012    2    1    2    0    0 -0.31569450349E+02 -0.27540610340E+02 -0.11336134809E+02  0.47787269987E+02  0.19999995178E+02 0.  0.
        -12    1    1    2    0    0  0.31569450349E+02  0.27540610340E+02  0.11336134809E+02  0.43400730013E+02  0.00000000000E+00 0.  1.
         11    1    3    3    0    0 -0.91341900657E+01 -0.17524705157E+02 -0.86123596379E+01  0.21557399143E+02  0.51100000000E-03 0. -1.
        -11    1    3    3    0    0 -0.45124012204E+01 -0.62631887397E+01 -0.17363885225E-01  0.77194300132E+01  0.51100000000E-03 0.  1.
        -12    1    3    3    0    0 -0.17922859063E+02 -0.37527164430E+01 -0.27064112854E+01  0.18510440831E+02  0.00000000000E+00 0.  1.
</event>
<event>
 7    1  0.4931104E-009  0.4778727E+02  0.7816164E-02  0.1312668E+00
        -11   -1    0    0    0    0  0.00000000000E+00  0.00000000000E+00  0.45593999997E+02  0.45594000000E+02  0.51100000000E-03 0.  1.
         11   -1    0    0    0    0 -0.00000000000E+00 -0.00000000000E+00 -0.45593999997E+02  0.45594000000E+02  0.51100000000E-03 0. -1.
    9900012    2    1    2    0    0  0.75937421694E+01  0.29883122000E+02 -0.30544355687E+02  0.47787267692E+02  0.19999984713E+02 0.  0.
        -12    1    1    2    0    0 -0.75937421694E+01 -0.29883122000E+02  0.30544355687E+02  0.43400732308E+02  0.00000000000E+00 0.  1.
         11    1    3    3    0    0  0.11160345789E+02  0.20029630407E+02 -0.25348527919E+02  0.34180217675E+02  0.51100000000E-03 0. -1.
        -11    1    3    3    0    0 -0.10075296919E+01  0.26603252197E+01 -0.52509700462E+01  0.59720292231E+01  0.51100000000E-03 0.  1.
        -12    1    3    3    0    0 -0.25590739280E+01  0.71931663736E+01  0.55142279043E-01  0.76350207936E+01  0.00000000000E+00 0.  1.
</event>
<event>
 7    1  0.4931104E-009  0.4778727E+02  0.7816164E-02  0.1312668E+00
        -11   -1    0    0    0    0  0.00000000000E+00  0.00000000000E+00  0.45593999997E+02  0.45594000000E+02  0.51100000000E-03 0.  1.
         11   -1    0    0    0    0 -0.00000000000E+00 -0.00000000000E+00 -0.45593999997E+02  0.45594000000E+02  0.51100000000E-03 0. -1.
    9900012    2    1    2    0    0  0.55024380906E+01 -0.36350507437E+02 -0.23064844546E+02  0.47787271091E+02  0.20000000213E+02 0.  0.
        -12    1    1    2    0    0 -0.55024380906E+01  0.36350507437E+02  0.23064844546E+02  0.43400728909E+02  0.00000000000E+00 0.  1.
         11    1    3    3    0    0  0.12311351576E+01 -0.40824086314E+01 -0.12252730259E+01  0.44365581546E+01  0.51100000000E-03 0. -1.
        -11    1    3    3    0    0 -0.32576184588E+01  0.92402063199E+00 -0.24535398226E+01  0.41815965939E+01  0.51100000000E-03 0.  1.
        -12    1    3    3    0    0  0.75289213918E+01 -0.33192119438E+02 -0.19386031698E+02  0.39169116343E+02  0.00000000000E+00 0.  1.
</event>
<event>
 7    1  0.4931104E-009  0.4778727E+02  0.7816164E-02  0.1312668E+00
        -11   -1    0    0    0    0  0.00000000000E+00  0.00000000000E+00  0.45593999997E+02  0.45594000000E+02  0.51100000000E-03 0.  1.
         11   -1    0    0    0    0 -0.00000000000E+00 -0.00000000000E+00 -0.45593999997E+02  0.45594000000E+02  0.51100000000E-03 0. -1.
    9900012    2    1    2    0    0 -0.33134606531E+02 -0.56967583530E+01 -0.27445731569E+02  0.47787269740E+02  0.19999994054E+02 0.  0.
        -12    1    1    2    0    0  0.33134606531E+02  0.56967583530E+01  0.27445731569E+02  0.43400730260E+02  0.00000000000E+00 0.  1.
         11    1    3    3    0    0 -0.84623319109E+01  0.32571407040E+01 -0.97633146149E+00  0.91199369691E+01  0.51100000000E-03 0.  1.
        -11    1    3    3    0    0 -0.12694064088E+02 -0.20462208288E+01 -0.65800626852E+01  0.14443805176E+02  0.51100000000E-03 0. -1.
        -12    1    3    3    0    0 -0.11978210532E+02 -0.69076782282E+01 -0.19889337422E+02  0.24223527595E+02  0.00000000000E+00 0.  1.
</event>
<event>
 7    1  0.4931104E-009  0.4778727E+02  0.7816164E-02  0.1312668E+00
        -11   -1    0    0    0    0  0.00000000000E+00  0.00000000000E+00  0.45593999997E+02  0.45594000000E+02  0.51100000000E-03 0.  1.
         11   -1    0    0    0    0 -0.00000000000E+00 -0.00000000000E+00 -0.45593999997E+02  0.45594000000E+02  0.51100000000E-03 0. -1.
    9900012    2    1    2    0    0 -0.13243727189E+02  0.40142377374E+02 -0.98395309602E+01  0.47787272580E+02  0.20000007001E+02 0.  0.
        -12    1    1    2    0    0  0.13243727189E+02 -0.40142377374E+02  0.98395309602E+01  0.43400727420E+02  0.00000000000E+00 0.  1.
         11    1    3    3    0    0 -0.45867164922E+01  0.93354305687E+01 -0.89893193172E+01  0.13747585029E+02  0.51100000000E-03 0. -1.
        -11    1    3    3    0    0  0.24716333923E+01  0.21202747404E+01  0.50423511490E-01  0.32568511468E+01  0.51100000000E-03 0.  1.
        -12    1    3    3    0    0 -0.11128644089E+02  0.28686672064E+02 -0.90063515454E+00  0.30782836404E+02  0.00000000000E+00 0.  1.
</event>
<event>
 7    1  0.4931104E-009  0.4778729E+02  0.7816164E-02  0.1312668E+00
        -11   -1    0    0    0    0  0.00000000000E+00  0.00000000000E+00  0.45593999997E+02  0.45594000000E+02  0.51100000000E-03 0.  1.
         11   -1    0    0    0    0 -0.00000000000E+00 -0.00000000000E+00 -0.45593999997E+02  0.45594000000E+02  0.51100000000E-03 0. -1.
    9900012    2    1    2    0    0  0.34433136283E+02 -0.10639161362E+02 -0.24182405783E+02  0.47787292884E+02  0.20000099574E+02 0.  0.
        -12    1    1    2    0    0 -0.34433136283E+02  0.10639161362E+02  0.24182405783E+02  0.43400707116E+02  0.00000000000E+00 0.  1.
         11    1    3    3    0    0 -0.12815640674E+01  0.98930955303E+00 -0.11135183704E+01  0.19649588477E+01  0.51100000000E-03 0. -1.
        -11    1    3    3    0    0  0.59935430602E+01  0.89312426623E+00 -0.84859035583E+01  0.10427405662E+02  0.51100000000E-03 0.  1.
         12    1    3    3    0    0  0.29721157290E+02 -0.12521595181E+02 -0.14582983854E+02  0.35394928374E+02  0.00000000000E+00 0. -1.
</event>
<event>
 7    1  0.4931104E-009  0.4778727E+02  0.7816164E-02  0.1312668E+00
        -11   -1    0    0    0    0  0.00000000000E+00  0.00000000000E+00  0.45593999997E+02  0.45594000000E+02  0.51100000000E-03 0.  1.
         11   -1    0    0    0    0 -0.00000000000E+00 -0.00000000000E+00 -0.45593999997E+02  0.45594000000E+02  0.51100000000E-03 0. -1.
    9900012    2    1    2    0    0 -0.66118940070E+00 -0.42644006851E+02 -0.80420822936E+01  0.47787267525E+02  0.19999983954E+02 0.  0.
        -12    1    1    2    0    0  0.66118940070E+00  0.42644006851E+02  0.80420822936E+01  0.43400732475E+02  0.00000000000E+00 0.  1.
         11    1    3    3    0    0  0.37744306381E+01 -0.94164904188E+01  0.71591244171E+00  0.10170012258E+02  0.51100000000E-03 0. -1.
        -11    1    3    3    0    0  0.25301987806E+01 -0.18111723869E+02 -0.10150025743E+02  0.20915531794E+02  0.51100000000E-03 0.  1.
        -12    1    3    3    0    0 -0.69658188194E+01 -0.15115792563E+02  0.13920310074E+01  0.16701723473E+02  0.00000000000E+00 0.  1.
</event>
<event>
 7    1  0.4931104E-009  0.4778728E+02  0.7816164E-02  0.1312668E+00
        -11   -1    0    0    0    0  0.00000000000E+00  0.00000000000E+00  0.45593999997E+02  0.45594000000E+02  0.51100000000E-03 0. -1.
         11   -1    0    0    0    0 -0.00000000000E+00 -0.00000000000E+00 -0.45593999997E+02  0.45594000000E+02  0.51100000000E-03 0.  1.
    9900012    2    1    2    0    0 -0.42919727841E+02 -0.50323299346E+00 -0.64238919844E+01  0.47787278006E+02  0.20000031740E+02 0.  0.
        -12    1    1    2    0    0  0.42919727841E+02  0.50323299346E+00  0.64238919844E+01  0.43400721994E+02  0.00000000000E+00 0.  1.
         11    1    3    3    0    0 -0.19898289293E+02  0.24833413880E+01  0.32792101356E+01  0.20319008849E+02  0.51100000000E-03 0.  1.
        -11    1    3    3    0    0 -0.11489629915E+02  0.22575735972E+01 -0.33789544676E+00  0.11714196845E+02  0.51100000000E-03 0. -1.
        -12    1    3    3    0    0 -0.11531808633E+02 -0.52441479787E+01 -0.93652066733E+01  0.15754072311E+02  0.00000000000E+00 0.  1.
</event>
<event>
 7    1  0.5342919E-009  0.4778727E+02  0.7816164E-02  0.1312668E+00
        -11   -1    0    0    0    0  0.00000000000E+00  0.00000000000E+00  0.45593999997E+02  0.45594000000E+02  0.51100000000E-03 0. -1.
         11   -1    0    0    0    0 -0.00000000000E+00 -0.00000000000E+00 -0.45593999997E+02  0.45594000000E+02  0.51100000000E-03 0.  1.
    9900012    2    1    2    0    0 -0.13784337456E+02  0.32051523907E+02  0.25813079388E+02  0.47787271765E+02  0.20000003287E+02 0.  0.
        -12    1    1    2    0    0  0.13784337456E+02 -0.32051523907E+02 -0.25813079388E+02  0.43400728235E+02  0.00000000000E+00 0.  1.
         11    1    3    3    0    0 -0.55437754379E+01  0.14935670859E+02  0.13966744506E+02  0.21186733171E+02  0.51100000000E-03 0. -1.
        -11    1    3    3    0    0 -0.10520836163E+02  0.17969204289E+02  0.85667335525E+01  0.22515977002E+02  0.51100000000E-03 0.  1.
        -12    1    3    3    0    0  0.22802741450E+01 -0.85335124136E+00  0.32796013296E+01  0.40845615920E+01  0.00000000000E+00 0.  1.
</event>
<event>
 7    1  0.4931104E-009  0.4778727E+02  0.7816164E-02  0.1312668E+00
        -11   -1    0    0    0    0  0.00000000000E+00  0.00000000000E+00  0.45593999997E+02  0.45594000000E+02  0.51100000000E-03 0.  1.
         11   -1    0    0    0    0 -0.00000000000E+00 -0.00000000000E+00 -0.45593999997E+02  0.45594000000E+02  0.51100000000E-03 0. -1.
    9900012    2    1    2    0    0 -0.16710788886E+01  0.39428942248E+01 -0.43188938029E+02  0.47787270887E+02  0.19999999280E+02 0.  0.
        -12    1    1    2    0    0  0.16710788886E+01 -0.39428942248E+01  0.43188938029E+02  0.43400729113E+02  0.00000000000E+00 0.  1.
         11    1    3    3    0    0 -0.21020443527E+01  0.18007853626E+01 -0.25242630185E+02  0.25393932293E+02  0.51100000000E-03 0. -1.
        -11    1    3    3    0    0 -0.40096822399E+01 -0.40955463153E+01 -0.73732819718E+01  0.93389688179E+01  0.51100000000E-03 0.  1.
        -12    1    3    3    0    0  0.44406477039E+01  0.62376551776E+01 -0.10573025872E+02  0.13054369775E+02  0.00000000000E+00 0.  1.
</event>
<event>
 7    1  0.4931104E-009  0.4778727E+02  0.7816164E-02  0.1312668E+00
        -11   -1    0    0    0    0  0.00000000000E+00  0.00000000000E+00  0.45593999997E+02  0.45594000000E+02  0.51100000000E-03 0.  1.
         11   -1    0    0    0    0 -0.00000000000E+00 -0.00000000000E+00 -0.45593999997E+02  0.45594000000E+02  0.51100000000E-03 0. -1.
    9900012    2    1    2    0    0  0.25024843174E+02  0.13932324749E+02 -0.32607835120E+02  0.47787270052E+02  0.19999995475E+02 0.  0.
        -12    1    1    2    0    0 -0.25024843174E+02 -0.13932324749E+02  0.32607835120E+02  0.43400729948E+02  0.00000000000E+00 0.  1.
         11    1    3    3    0    0  0.68005879236E+01 -0.17866771422E+01 -0.14422770342E+02  0.16045451565E+02  0.51100000000E-03 0.  1.
        -11    1    3    3    0    0  0.36505310250E+01  0.19025994231E+01 -0.85042849533E+01  0.94482339174E+01  0.51100000000E-03 0. -1.
        -12    1    3    3    0    0  0.14573724226E+02  0.13816402468E+02 -0.96807798251E+01  0.22293584570E+02  0.00000000000E+00 0.  1.
</event>
<event>
 7    1  0.4931104E-009  0.4778727E+02  0.7816164E-02  0.1312668E+00
        -11   -1    0    0    0    0  0.00000000000E+00  0.00000000000E+00  0.45593999997E+02  0.45594000000E+02  0.51100000000E-03 0.  1.
         11   -1    0    0    0    0 -0.00000000000E+00 -0.00000000000E+00 -0.45593999997E+02  0.45594000000E+02  0.51100000000E-03 0. -1.
    9900012    2    1    2    0    0 -0.11021728915E+02 -0.41829782532E+02 -0.35233605482E+01  0.47787270922E+02  0.19999999443E+02 0.  0.
        -12    1    1    2    0    0  0.11021728915E+02  0.41829782532E+02  0.35233605482E+01  0.43400729078E+02  0.00000000000E+00 0.  1.
         11    1    3    3    0    0 -0.29450722788E+01 -0.66560479505E+01 -0.41353006460E+01  0.83712087981E+01  0.51100000000E-03 0. -1.
        -11    1    3    3    0    0  0.27159531699E+01 -0.11160512334E+00  0.23683267312E+00  0.27285430729E+01  0.51100000000E-03 0.  1.
         12    1    3    3    0    0 -0.10792609807E+02 -0.35062129458E+02  0.37510742465E+00  0.36687519051E+02  0.00000000000E+00 0. -1.
</event>
<event>
 7    1  0.4931104E-009  0.4778727E+02  0.7816164E-02  0.1312668E+00
        -11   -1    0    0    0    0  0.00000000000E+00  0.00000000000E+00  0.45593999997E+02  0.45594000000E+02  0.51100000000E-03 0.  1.
         11   -1    0    0    0    0 -0.00000000000E+00 -0.00000000000E+00 -0.45593999997E+02  0.45594000000E+02  0.51100000000E-03 0. -1.
    9900012    2    1    2    0    0  0.13008706887E+02 -0.38087945219E+02 -0.16239004177E+02  0.47787270945E+02  0.19999999545E+02 0.  0.
        -12    1    1    2    0    0 -0.13008706887E+02  0.38087945219E+02  0.16239004177E+02  0.43400729055E+02  0.00000000000E+00 0.  1.
         11    1    3    3    0    0  0.12243925215E+02 -0.21808421962E+02 -0.84355830412E+00  0.25024639139E+02  0.51100000000E-03 0. -1.
        -11    1    3    3    0    0  0.44727627375E+00 -0.63106074598E+01 -0.34684055826E+01  0.72148222516E+01  0.51100000000E-03 0.  1.
        -12    1    3    3    0    0  0.31750539821E+00 -0.99689157974E+01 -0.11927040290E+02  0.15547809554E+02  0.00000000000E+00 0.  1.
</event>
<event>
 7    1  0.4931104E-009  0.4778727E+02  0.7816164E-02  0.1312668E+00
        -11   -1    0    0    0    0  0.00000000000E+00  0.00000000000E+00  0.45593999997E+02  0.45594000000E+02  0.51100000000E-03 0.  1.
         11   -1    0    0    0    0 -0.00000000000E+00 -0.00000000000E+00 -0.45593999997E+02  0.45594000000E+02  0.51100000000E-03 0. -1.
    9900012    2    1    2    0    0 -0.66586150782E+01 -0.32684584080E+02 -0.27766959446E+02  0.47787271572E+02  0.20000002403E+02 0.  0.
        -12    1    1    2    0    0  0.66586150782E+01  0.32684584080E+02  0.27766959446E+02  0.43400728428E+02  0.00000000000E+00 0.  1.
         11    1    3    3    0    0 -0.70450371284E+00 -0.46622960140E+01 -0.31641751666E+01  0.56784975433E+01  0.51100000000E-03 0. -1.
        -11    1    3    3    0    0  0.42190561672E+01 -0.21724768356E+02 -0.14590093722E+02  0.26507297677E+02  0.51100000000E-03 0.  1.
        -12    1    3    3    0    0 -0.10173167533E+02 -0.62975197109E+01 -0.10012690557E+02  0.15601476352E+02  0.00000000000E+00 0.  1.
</event>
<event>
 7    1  0.4931104E-009  0.4778727E+02  0.7816164E-02  0.1312668E+00
        -11   -1    0    0    0    0  0.00000000000E+00  0.00000000000E+00  0.45593999997E+02  0.45594000000E+02  0.51100000000E-03 0.  1.
         11   -1    0    0    0    0 -0.00000000000E+00 -0.00000000000E+00 -0.45593999997E+02  0.45594000000E+02  0.51100000000E-03 0. -1.
    9900012    2    1    2    0    0 -0.37668917087E+02  0.21034590555E+02 -0.47140114570E+01  0.47787271684E+02  0.20000002917E+02 0.  0.
        -12    1    1    2    0    0  0.37668917087E+02 -0.21034590555E+02  0.47140114570E+01  0.43400728316E+02  0.00000000000E+00 0.  1.
         11    1    3    3    0    0 -0.17267088545E+02  0.15563954476E+02 -0.14920908564E+01  0.23294105716E+02  0.51100000000E-03 0. -1.
        -11    1    3    3    0    0 -0.49544866788E+01  0.53423198922E+01 -0.51542759961E+01  0.89249023180E+01  0.51100000000E-03 0.  1.
        -12    1    3    3    0    0 -0.15447341864E+02  0.12831618674E+00  0.19323553955E+01  0.15568263650E+02  0.00000000000E+00 0.  1.
</event>
<event>
 7    1  0.4931104E-009  0.4778727E+02  0.7816164E-02  0.1312668E+00
        -11   -1    0    0    0    0  0.00000000000E+00  0.00000000000E+00  0.45593999997E+02  0.45594000000E+02  0.51100000000E-03 0.  1.
         11   -1    0    0    0    0 -0.00000000000E+00 -0.00000000000E+00 -0.45593999997E+02  0.45594000000E+02  0.51100000000E-03 0. -1.
    9900012    2    1    2    0    0  0.18185250508E+02  0.34505446740E+02 -0.19034028677E+02  0.47787269149E+02  0.19999991356E+02 0.  0.
        -12    1    1    2    0    0 -0.18185250508E+02 -0.34505446740E+02  0.19034028677E+02  0.43400730851E+02  0.00000000000E+00 0.  1.
         11    1    3    3    0    0  0.12224762716E+02  0.23356265117E+02 -0.18638859328E+02  0.32285709237E+02  0.51100000000E-03 0. -1.
        -11    1    3    3    0    0  0.43706837001E+01  0.31988412063E+01 -0.38943624676E+01  0.66709459868E+01  0.51100000000E-03 0.  1.
        -12    1    3    3    0    0  0.15898040914E+01  0.79503404174E+01  0.34991931183E+01  0.88306139243E+01  0.00000000000E+00 0.  1.
</event>
<event>
 7    1  0.4931104E-009  0.4778726E+02  0.7816164E-02  0.1312668E+00
        -11   -1    0    0    0    0  0.00000000000E+00  0.00000000000E+00  0.45593999997E+02  0.45594000000E+02  0.51100000000E-03 0.  1.
         11   -1    0    0    0    0 -0.00000000000E+00 -0.00000000000E+00 -0.45593999997E+02  0.45594000000E+02  0.51100000000E-03 0. -1.
    9900012    2    1    2    0    0 -0.39292083552E+02 -0.13620815793E+02 -0.12418920891E+02  0.47787262117E+02  0.19999959296E+02 0.  0.
        -12    1    1    2    0    0  0.39292083552E+02  0.13620815793E+02  0.12418920891E+02  0.43400737883E+02  0.00000000000E+00 0.  1.
         11    1    3    3    0    0 -0.11534894563E+02  0.15825821300E+00  0.30622614079E+01  0.11935505160E+02  0.51100000000E-03 0. -1.
        -11    1    3    3    0    0 -0.52949631340E+00  0.85524648998E+00  0.42030639816E+00  0.10901700023E+01  0.51100000000E-03 0.  1.
        -12    1    3    3    0    0 -0.27227692675E+02 -0.14634320496E+02 -0.15901488697E+02  0.34761586954E+02  0.00000000000E+00 0.  1.
</event>
<event>
 7    1  0.4931104E-009  0.4778728E+02  0.7816164E-02  0.1312668E+00
        -11   -1    0    0    0    0  0.00000000000E+00  0.00000000000E+00  0.45593999997E+02  0.45594000000E+02  0.51100000000E-03 0.  1.
         11   -1    0    0    0    0 -0.00000000000E+00 -0.00000000000E+00 -0.45593999997E+02  0.45594000000E+02  0.51100000000E-03 0. -1.
    9900012    2    1    2    0    0  0.18214188633E+02 -0.35473741193E+02 -0.17131254656E+02  0.47787275721E+02  0.20000021323E+02 0.  0.
        -12    1    1    2    0    0 -0.18214188633E+02  0.35473741193E+02  0.17131254656E+02  0.43400724279E+02  0.00000000000E+00 0.  1.
         11    1    3    3    0    0  0.90131542383E+00 -0.50779295888E+01  0.29914732434E+01  0.59621012092E+01  0.51100000000E-03 0. -1.
        -11    1    3    3    0    0  0.11347587918E+02 -0.14556239526E+02 -0.49859031671E+01  0.19118344367E+02  0.51100000000E-03 0.  1.
         12    1    3    3    0    0  0.59652852920E+01 -0.15839572079E+02 -0.15136824732E+02  0.22706830145E+02  0.00000000000E+00 0. -1.
</event>
<event>
 7    1  0.4931104E-009  0.4778727E+02  0.7816164E-02  0.1312668E+00
        -11   -1    0    0    0    0  0.00000000000E+00  0.00000000000E+00  0.45593999997E+02  0.45594000000E+02  0.51100000000E-03 0.  1.
         11   -1    0    0    0    0 -0.00000000000E+00 -0.00000000000E+00 -0.45593999997E+02  0.45594000000E+02  0.51100000000E-03 0. -1.
    9900012    2    1    2    0    0 -0.27650113556E+02  0.69983809790E+01 -0.32712649673E+02  0.47787267695E+02  0.19999984728E+02 0.  0.
        -12    1    1    2    0    0  0.27650113556E+02 -0.69983809790E+01  0.32712649673E+02  0.43400732305E+02  0.00000000000E+00 0.  1.
         11    1    3    3    0    0 -0.53800653879E+01 -0.12078608659E+01 -0.10379211354E+02  0.11752959629E+02  0.51100000000E-03 0. -1.
        -11    1    3    3    0    0 -0.11135949971E+02 -0.34783626952E+01 -0.61920314014E+01  0.13207938595E+02  0.51100000000E-03 0.  1.
         12    1    3    3    0    0 -0.11134098197E+02  0.11684604540E+02 -0.16141406917E+02  0.22826369470E+02  0.00000000000E+00 0. -1.
</event>
<event>
 7    1  0.4931104E-009  0.4778727E+02  0.7816164E-02  0.1312668E+00
        -11   -1    0    0    0    0  0.00000000000E+00  0.00000000000E+00  0.45593999997E+02  0.45594000000E+02  0.51100000000E-03 0.  1.
         11   -1    0    0    0    0 -0.00000000000E+00 -0.00000000000E+00 -0.45593999997E+02  0.45594000000E+02  0.51100000000E-03 0. -1.
    9900012    2    1    2    0    0 -0.33438344392E+01  0.39048994748E+02 -0.18644524858E+02  0.47787268131E+02  0.19999986715E+02 0.  0.
        -12    1    1    2    0    0  0.33438344392E+01 -0.39048994748E+02  0.18644524858E+02  0.43400731869E+02  0.00000000000E+00 0.  1.
         11    1    3    3    0    0 -0.54509238619E+01  0.29635152396E+02 -0.14127513833E+02  0.33279745730E+02  0.51100000000E-03 0. -1.
        -11    1    3    3    0    0 -0.79668051794E+00  0.34806178439E+01 -0.66651581023E+01  0.75613314445E+01  0.51100000000E-03 0.  1.
         12    1    3    3    0    0  0.29037699406E+01  0.59332245086E+01  0.21481470772E+01  0.69461909564E+01  0.00000000000E+00 0. -1.
</event>
<event>
 7    1  0.4931104E-009  0.4778727E+02  0.7816164E-02  0.1312668E+00
        -11   -1    0    0    0    0  0.00000000000E+00  0.00000000000E+00  0.45593999997E+02  0.45594000000E+02  0.51100000000E-03 0.  1.
         11   -1    0    0    0    0 -0.00000000000E+00 -0.00000000000E+00 -0.45593999997E+02  0.45594000000E+02  0.51100000000E-03 0. -1.
    9900012    2    1    2    0    0  0.24943350663E+02 -0.62034842652E+01 -0.34970976750E+02  0.47787272193E+02  0.20000005237E+02 0.  0.
        -12    1    1    2    0    0 -0.24943350663E+02  0.62034842652E+01  0.34970976750E+02  0.43400727807E+02  0.00000000000E+00 0.  1.
         11    1    3    3    0    0  0.11963336681E+02 -0.36776455210E+01 -0.59650436656E+01  0.13864640180E+02  0.51100000000E-03 0. -1.
        -11    1    3    3    0    0  0.11909903216E+02  0.56112754701E+00 -0.13221516924E+02  0.17803627966E+02  0.51100000000E-03 0.  1.
         12    1    3    3    0    0  0.10701107659E+01 -0.30869662912E+01 -0.15784416161E+02  0.16119004047E+02  0.00000000000E+00 0. -1.
</event>
<event>
 7    1  0.4931104E-009  0.4778727E+02  0.7816164E-02  0.1312668E+00
        -11   -1    0    0    0    0  0.00000000000E+00  0.00000000000E+00  0.45593999997E+02  0.45594000000E+02  0.51100000000E-03 0.  1.
         11   -1    0    0    0    0 -0.00000000000E+00 -0.00000000000E+00 -0.45593999997E+02  0.45594000000E+02  0.51100000000E-03 0. -1.
    9900012    2    1    2    0    0  0.23173421612E+00 -0.41378156232E+02  0.13092663819E+02  0.47787270055E+02  0.19999995487E+02 0.  0.
        -12    1    1    2    0    0 -0.23173421612E+00  0.41378156232E+02 -0.13092663819E+02  0.43400729945E+02  0.00000000000E+00 0.  1.
         11    1    3    3    0    0  0.63222755951E-01 -0.96617340509E+01  0.61293945099E+01  0.11442140504E+02  0.51100000000E-03 0. -1.
        -11    1    3    3    0    0  0.97246747043E+00  0.73102582962E+00  0.34976901323E+01  0.37032321379E+01  0.51100000000E-03 0.  1.
         12    1    3    3    0    0 -0.80395601026E+00 -0.32447448011E+02  0.34655791765E+01  0.32641897413E+02  0.00000000000E+00 0. -1.
</event>
<event>
 7    1  0.4931104E-009  0.4778726E+02  0.7816164E-02  0.1312668E+00
        -11   -1    0    0    0    0  0.00000000000E+00  0.00000000000E+00  0.45593999997E+02  0.45594000000E+02  0.51100000000E-03 0.  1.
         11   -1    0    0    0    0 -0.00000000000E+00 -0.00000000000E+00 -0.45593999997E+02  0.45594000000E+02  0.51100000000E-03 0. -1.
    9900012    2    1    2    0    0  0.10142462351E+02  0.12687290928E+02 -0.40246579723E+02  0.47787261837E+02  0.19999958020E+02 0.  0.
        -12    1    1    2    0    0 -0.10142462351E+02 -0.12687290928E+02  0.40246579723E+02  0.43400738163E+02  0.00000000000E+00 0.  1.
         11    1    3    3    0    0  0.69778692832E+01  0.97368717556E+01 -0.31761087953E+02  0.33945014944E+02  0.51100000000E-03 0. -1.
        -11    1    3    3    0    0  0.21580261205E+01  0.67071575990E+01 -0.55709255146E+01  0.89821072775E+01  0.51100000000E-03 0.  1.
        -12    1    3    3    0    0  0.10065669477E+01 -0.37567384265E+01 -0.29145662559E+01  0.48601396158E+01  0.00000000000E+00 0.  1.
</event>
<event>
 7    1  0.4931104E-009  0.4778726E+02  0.7816164E-02  0.1312668E+00
        -11   -1    0    0    0    0  0.00000000000E+00  0.00000000000E+00  0.45593999997E+02  0.45594000000E+02  0.51100000000E-03 0.  1.
         11   -1    0    0    0    0 -0.00000000000E+00 -0.00000000000E+00 -0.45593999997E+02  0.45594000000E+02  0.51100000000E-03 0. -1.
    9900012    2    1    2    0    0  0.30581511998E+02  0.55114061818E+01 -0.30298834360E+02  0.47787264548E+02  0.19999970381E+02 0.  0.
        -12    1    1    2    0    0 -0.30581511998E+02 -0.55114061818E+01  0.30298834360E+02  0.43400735452E+02  0.00000000000E+00 0.  1.
         11    1    3    3    0    0  0.10917899694E+02 -0.47201361849E+01 -0.71724021832E+01  0.13889693037E+02  0.51100000000E-03 0. -1.
        -11    1    3    3    0    0  0.18208363325E+01 -0.22758105333E+01 -0.36601708269E+01  0.46788470029E+01  0.51100000000E-03 0.  1.
        -12    1    3    3    0    0  0.17842775971E+02  0.12507352900E+02 -0.19466261350E+02  0.29218724508E+02  0.00000000000E+00 0.  1.
</event>
<event>
 7    1  0.4931104E-009  0.4778727E+02  0.7816164E-02  0.1312668E+00
        -11   -1    0    0    0    0  0.00000000000E+00  0.00000000000E+00  0.45593999997E+02  0.45594000000E+02  0.51100000000E-03 0.  1.
         11   -1    0    0    0    0 -0.00000000000E+00 -0.00000000000E+00 -0.45593999997E+02  0.45594000000E+02  0.51100000000E-03 0. -1.
    9900012    2    1    2    0    0  0.19264548007E+02 -0.34272589757E+02 -0.18381786439E+02  0.47787270845E+02  0.19999999089E+02 0.  0.
        -12    1    1    2    0    0 -0.19264548007E+02  0.34272589757E+02  0.18381786439E+02  0.43400729155E+02  0.00000000000E+00 0.  1.
         11    1    3    3    0    0  0.94048182876E-01 -0.41051807016E+01 -0.55729702936E+01  0.69223805015E+01  0.51100000000E-03 0. -1.
        -11    1    3    3    0    0  0.74829968926E+01 -0.12131837937E+02 -0.13117550511E+02  0.19371289732E+02  0.51100000000E-03 0.  1.
        -12    1    3    3    0    0  0.11687502931E+02 -0.18035571118E+02  0.30873436517E+00  0.21493600611E+02  0.00000000000E+00 0.  1.
</event>
<event>
 7    1  0.4931104E-009  0.4778727E+02  0.7816164E-02  0.1312668E+00
        -11   -1    0    0    0    0  0.00000000000E+00  0.00000000000E+00  0.45593999997E+02  0.45594000000E+02  0.51100000000E-03 0.  1.
         11   -1    0    0    0    0 -0.00000000000E+00 -0.00000000000E+00 -0.45593999997E+02  0.45594000000E+02  0.51100000000E-03 0. -1.
    9900012    2    1    2    0    0  0.23500820844E+02 -0.32919047954E+02 -0.15737567543E+02  0.47787270390E+02  0.19999997015E+02 0.  0.
        -12    1    1    2    0    0 -0.23500820844E+02  0.32919047954E+02  0.15737567543E+02  0.43400729610E+02  0.00000000000E+00 0.  1.
         11    1    3    3    0    0  0.88380352581E+01 -0.12543554112E+02 -0.70092519586E+00  0.15360433372E+02  0.51100000000E-03 0. -1.
        -11    1    3    3    0    0  0.13065415369E+01 -0.64811949283E+01  0.17818761047E+01  0.68474828367E+01  0.51100000000E-03 0.  1.
         12    1    3    3    0    0  0.13356244049E+02 -0.13894298913E+02 -0.16818518452E+02  0.25579354181E+02  0.00000000000E+00 0. -1.
</event>
<event>
 7    1  0.4931104E-009  0.4778727E+02  0.7816164E-02  0.1312668E+00
        -11   -1    0    0    0    0  0.00000000000E+00  0.00000000000E+00  0.45593999997E+02  0.45594000000E+02  0.51100000000E-03 0.  1.
         11   -1    0    0    0    0 -0.00000000000E+00 -0.00000000000E+00 -0.45593999997E+02  0.45594000000E+02  0.51100000000E-03 0. -1.
    9900012    2    1    2    0    0  0.42559181225E+02  0.69924184201E+01 -0.48420402260E+01  0.47787272178E+02  0.20000005170E+02 0.  0.
        -12    1    1    2    0    0 -0.42559181225E+02 -0.69924184201E+01  0.48420402260E+01  0.43400727822E+02  0.00000000000E+00 0.  1.
         11    1    3    3    0    0  0.10076022650E+02 -0.37051344267E+01 -0.63762848049E+00  0.10754572233E+02  0.51100000000E-03 0. -1.
        -11    1    3    3    0    0  0.19494583022E+02  0.13933884029E+01  0.25044550246E+01  0.19704126311E+02  0.51100000000E-03 0.  1.
         12    1    3    3    0    0  0.12988575553E+02  0.93041644439E+01 -0.67088667701E+01  0.17328573635E+02  0.00000000000E+00 0. -1.
</event>
<event>
 7    1  0.4931104E-009  0.4778727E+02  0.7816164E-02  0.1312668E+00
        -11   -1    0    0    0    0  0.00000000000E+00  0.00000000000E+00  0.45593999997E+02  0.45594000000E+02  0.51100000000E-03 0.  1.
         11   -1    0    0    0    0 -0.00000000000E+00 -0.00000000000E+00 -0.45593999997E+02  0.45594000000E+02  0.51100000000E-03 0. -1.
    9900012    2    1    2    0    0 -0.88505274144E+01 -0.19145137353E+02 -0.37930924372E+02  0.47787272546E+02  0.20000006846E+02 0.  0.
        -12    1    1    2    0    0  0.88505274144E+01  0.19145137353E+02  0.37930924372E+02  0.43400727454E+02  0.00000000000E+00 0.  1.
         11    1    3    3    0    0 -0.34704905357E+01 -0.28642473012E+01 -0.58727609922E+01  0.73984822155E+01  0.51100000000E-03 0. -1.
        -11    1    3    3    0    0 -0.51750635288E+01 -0.19508074771E+02 -0.30990886324E+02  0.36983527404E+02  0.51100000000E-03 0.  1.
        -12    1    3    3    0    0 -0.20497334992E+00  0.32271847190E+01 -0.10672770558E+01  0.34052629265E+01  0.00000000000E+00 0.  1.
</event>
<event>
 7    1  0.4931104E-009  0.4778726E+02  0.7816164E-02  0.1312668E+00
        -11   -1    0    0    0    0  0.00000000000E+00  0.00000000000E+00  0.45593999997E+02  0.45594000000E+02  0.51100000000E-03 0. -1.
         11   -1    0    0    0    0 -0.00000000000E+00 -0.00000000000E+00 -0.45593999997E+02  0.45594000000E+02  0.51100000000E-03 0.  1.
    9900012    2    1    2    0    0 -0.21879718047E+02 -0.37398219930E+02  0.25050196151E+01  0.47787262230E+02  0.19999959812E+02 0.  0.
        -12    1    1    2    0    0  0.21879718047E+02  0.37398219930E+02 -0.25050196151E+01  0.43400737770E+02  0.00000000000E+00 0.  1.
         11    1    3    3    0    0 -0.15052090974E+02 -0.22705977725E+02  0.58360662161E+01  0.27860124484E+02  0.51100000000E-03 0. -1.
        -11    1    3    3    0    0 -0.92923921374E+01 -0.72966005700E+01 -0.25992576667E+01  0.12097316735E+02  0.51100000000E-03 0.  1.
         12    1    3    3    0    0  0.24647650648E+01 -0.73956416347E+01 -0.73178893434E+00  0.78298210106E+01  0.00000000000E+00 0. -1.
</event>
<event>
 7    1  0.4931104E-009  0.4778727E+02  0.7816164E-02  0.1312668E+00
        -11   -1    0    0    0    0  0.00000000000E+00  0.00000000000E+00  0.45593999997E+02  0.45594000000E+02  0.51100000000E-03 0. -1.
         11   -1    0    0    0    0 -0.00000000000E+00 -0.00000000000E+00 -0.45593999997E+02  0.45594000000E+02  0.51100000000E-03 0.  1.
    9900012    2    1    2    0    0 -0.14479595814E+02 -0.33402279601E+02  0.23627364954E+02  0.47787270143E+02  0.19999995889E+02 0.  0.
        -12    1    1    2    0    0  0.14479595814E+02  0.33402279601E+02 -0.23627364954E+02  0.43400729857E+02  0.00000000000E+00 0.  1.
         11    1    3    3    0    0 -0.64816589051E+01 -0.23588440097E+02  0.16162836403E+02  0.29320021985E+02  0.51100000000E-03 0. -1.
        -11    1    3    3    0    0 -0.28274512809E+01 -0.65412016282E+01  0.96267451507E+01  0.11977312801E+02  0.51100000000E-03 0.  1.
         12    1    3    3    0    0 -0.51704856278E+01 -0.32726378764E+01 -0.21622166004E+01  0.64899353560E+01  0.00000000000E+00 0. -1.
</event>
<event>
 7    1  0.4931104E-009  0.4778727E+02  0.7816164E-02  0.1312668E+00
        -11   -1    0    0    0    0  0.00000000000E+00  0.00000000000E+00  0.45593999997E+02  0.45594000000E+02  0.51100000000E-03 0.  1.
         11   -1    0    0    0    0 -0.00000000000E+00 -0.00000000000E+00 -0.45593999997E+02  0.45594000000E+02  0.51100000000E-03 0. -1.
    9900012    2    1    2    0    0  0.39317468043E+02 -0.41548983952E+01 -0.17902428984E+02  0.47787269159E+02  0.19999991404E+02 0.  0.
        -12    1    1    2    0    0 -0.39317468043E+02  0.41548983952E+01  0.17902428984E+02  0.43400730841E+02  0.00000000000E+00 0.  1.
         11    1    3    3    0    0  0.20480422060E+02  0.23608192291E+01 -0.53210237714E+01  0.21291652107E+02  0.51100000000E-03 0. -1.
        -11    1    3    3    0    0  0.19521315583E+02 -0.35891063236E+01 -0.89258557032E+01  0.21763141928E+02  0.51100000000E-03 0.  1.
        -12    1    3    3    0    0 -0.68426959938E+00 -0.29266113008E+01 -0.36555495092E+01  0.47324751246E+01  0.00000000000E+00 0.  1.
</event>
<event>
 7    1  0.4931104E-009  0.4778727E+02  0.7816164E-02  0.1312668E+00
        -11   -1    0    0    0    0  0.00000000000E+00  0.00000000000E+00  0.45593999997E+02  0.45594000000E+02  0.51100000000E-03 0.  1.
         11   -1    0    0    0    0 -0.00000000000E+00 -0.00000000000E+00 -0.45593999997E+02  0.45594000000E+02  0.51100000000E-03 0. -1.
    9900012    2    1    2    0    0  0.17170343399E+01  0.39284737770E+00 -0.43364971598E+02  0.47787270770E+02  0.19999998750E+02 0.  0.
        -12    1    1    2    0    0 -0.17170343399E+01 -0.39284737770E+00  0.43364971598E+02  0.43400729230E+02  0.00000000000E+00 0.  1.
         11    1    3    3    0    0  0.39983140614E+01 -0.35661253757E+00 -0.48038787221E+01  0.62602666775E+01  0.51100000000E-03 0. -1.
        -11    1    3    3    0    0 -0.21916203743E+01  0.14116012512E+00  0.66612961452E+00  0.22949629562E+01  0.51100000000E-03 0.  1.
         12    1    3    3    0    0 -0.89659347137E-01  0.60829979015E+00 -0.39227222490E+02  0.39232041137E+02  0.00000000000E+00 0. -1.
</event>
<event>
 7    1  0.4931104E-009  0.4778727E+02  0.7816164E-02  0.1312668E+00
        -11   -1    0    0    0    0  0.00000000000E+00  0.00000000000E+00  0.45593999997E+02  0.45594000000E+02  0.51100000000E-03 0. -1.
         11   -1    0    0    0    0 -0.00000000000E+00 -0.00000000000E+00 -0.45593999997E+02  0.45594000000E+02  0.51100000000E-03 0.  1.
    9900012    2    1    2    0    0  0.36451801203E+02  0.47400988556E+01  0.23074259306E+02  0.47787265091E+02  0.19999972856E+02 0.  0.
        -12    1    1    2    0    0 -0.36451801203E+02 -0.47400988556E+01 -0.23074259306E+02  0.43400734909E+02  0.00000000000E+00 0.  1.
         11    1    3    3    0    0  0.77028745978E+01  0.33874219619E+01  0.13103732250E+02  0.15572947818E+02  0.51100000000E-03 0. -1.
        -11    1    3    3    0    0  0.11927780266E+02  0.54596616759E+01  0.61238275970E+01  0.14476916536E+02  0.51100000000E-03 0.  1.
        -12    1    3    3    0    0  0.16821146340E+02 -0.41069847822E+01  0.38466994594E+01  0.17737400737E+02  0.00000000000E+00 0.  1.
</event>
<event>
 7    1  0.4931104E-009  0.4778727E+02  0.7816164E-02  0.1312668E+00
        -11   -1    0    0    0    0  0.00000000000E+00  0.00000000000E+00  0.45593999997E+02  0.45594000000E+02  0.51100000000E-03 0.  1.
         11   -1    0    0    0    0 -0.00000000000E+00 -0.00000000000E+00 -0.45593999997E+02  0.45594000000E+02  0.51100000000E-03 0. -1.
    9900012    2    1    2    0    0  0.21571557735E+02 -0.25136903589E+02 -0.28043311585E+02  0.47787270170E+02  0.19999996012E+02 0.  0.
        -12    1    1    2    0    0 -0.21571557735E+02  0.25136903589E+02  0.28043311585E+02  0.43400729830E+02  0.00000000000E+00 0.  1.
         11    1    3    3    0    0  0.99037138753E+01 -0.91967152630E+01 -0.10320796975E+02  0.17005351235E+02  0.51100000000E-03 0. -1.
        -11    1    3    3    0    0  0.26600634205E+01 -0.67606257908E+00 -0.11769176505E+02  0.12084970578E+02  0.51100000000E-03 0.  1.
        -12    1    3    3    0    0  0.90077804394E+01 -0.15264125747E+02 -0.59533381042E+01  0.18696948356E+02  0.00000000000E+00 0.  1.
</event>
<event>
 7    1  0.4931104E-009  0.4778727E+02  0.7816164E-02  0.1312668E+00
        -11   -1    0    0    0    0  0.00000000000E+00  0.00000000000E+00  0.45593999997E+02  0.45594000000E+02  0.51100000000E-03 0.  1.
         11   -1    0    0    0    0 -0.00000000000E+00 -0.00000000000E+00 -0.45593999997E+02  0.45594000000E+02  0.51100000000E-03 0. -1.
    9900012    2    1    2    0    0 -0.62346572543E+01  0.40666593352E+02 -0.13819569805E+02  0.47787271025E+02  0.19999999911E+02 0.  0.
        -12    1    1    2    0    0  0.62346572543E+01 -0.40666593352E+02  0.13819569805E+02  0.43400728975E+02  0.00000000000E+00 0.  1.
         11    1    3    3    0    0 -0.12355422312E+02  0.29084164149E+02 -0.84565593435E+01  0.32711748057E+02  0.51100000000E-03 0.  1.
        -11    1    3    3    0    0  0.13764352417E+01  0.55562905423E+01 -0.12946738369E-01  0.57242559729E+01  0.51100000000E-03 0. -1.
        -12    1    3    3    0    0  0.47443298158E+01  0.60261386610E+01 -0.53500637236E+01  0.93512669949E+01  0.00000000000E+00 0.  1.
</event>
<event>
 7    1  0.4931104E-009  0.4778727E+02  0.7816164E-02  0.1312668E+00
        -11   -1    0    0    0    0  0.00000000000E+00  0.00000000000E+00  0.45593999997E+02  0.45594000000E+02  0.51100000000E-03 0.  1.
         11   -1    0    0    0    0 -0.00000000000E+00 -0.00000000000E+00 -0.45593999997E+02  0.45594000000E+02  0.51100000000E-03 0. -1.
    9900012    2    1    2    0    0  0.22408734785E+02 -0.22639416778E+02 -0.29477594566E+02  0.47787272263E+02  0.20000005556E+02 0.  0.
        -12    1    1    2    0    0 -0.22408734785E+02  0.22639416778E+02  0.29477594566E+02  0.43400727737E+02  0.00000000000E+00 0.  1.
         11    1    3    3    0    0  0.51874357697E+01 -0.13002502176E+02 -0.13515195112E+02  0.19458547013E+02  0.51100000000E-03 0. -1.
        -11    1    3    3    0    0  0.58405957036E+01  0.18203721682E+01 -0.86662207023E+01  0.10608001439E+02  0.51100000000E-03 0.  1.
         12    1    3    3    0    0  0.11380703311E+02 -0.11457286771E+02 -0.72961787515E+01  0.17720723811E+02  0.00000000000E+00 0. -1.
</event>
<event>
 7    1  0.4931104E-009  0.4778727E+02  0.7816164E-02  0.1312668E+00
        -11   -1    0    0    0    0  0.00000000000E+00  0.00000000000E+00  0.45593999997E+02  0.45594000000E+02  0.51100000000E-03 0. -1.
         11   -1    0    0    0    0 -0.00000000000E+00 -0.00000000000E+00 -0.45593999997E+02  0.45594000000E+02  0.51100000000E-03 0.  1.
    9900012    2    1    2    0    0 -0.25129170337E+02 -0.12191303830E+00  0.35385495580E+02  0.47787270029E+02  0.19999995370E+02 0.  0.
        -12    1    1    2    0    0  0.25129170337E+02  0.12191303830E+00 -0.35385495580E+02  0.43400729971E+02  0.00000000000E+00 0.  1.
         11    1    3    3    0    0 -0.87320101906E+01  0.13746905077E+01  0.72819796063E+01  0.11452729073E+02  0.51100000000E-03 0. -1.
        -11    1    3    3    0    0 -0.66245028952E+01  0.10255745541E+01  0.24920371605E+00  0.67080507249E+01  0.51100000000E-03 0.  1.
         12    1    3    3    0    0 -0.97726572509E+01 -0.25221781001E+01  0.27854312257E+02  0.29626490232E+02  0.00000000000E+00 0. -1.
</event>
<event>
 7    1  0.4931104E-009  0.4778727E+02  0.7816164E-02  0.1312668E+00
        -11   -1    0    0    0    0  0.00000000000E+00  0.00000000000E+00  0.45593999997E+02  0.45594000000E+02  0.51100000000E-03 0. -1.
         11   -1    0    0    0    0 -0.00000000000E+00 -0.00000000000E+00 -0.45593999997E+02  0.45594000000E+02  0.51100000000E-03 0.  1.
    9900012    2    1    2    0    0 -0.24290901409E+02 -0.34048495874E+02  0.11587718030E+02  0.47787272222E+02  0.20000005367E+02 0.  0.
        -12    1    1    2    0    0  0.24290901409E+02  0.34048495874E+02 -0.11587718030E+02  0.43400727778E+02  0.00000000000E+00 0.  1.
         11    1    3    3    0    0 -0.36727082290E+00 -0.63929548684E+01  0.40342672809E+01  0.75683599651E+01  0.51100000000E-03 0.  1.
        -11    1    3    3    0    0 -0.31377674990E+01 -0.10520315685E+02  0.74733406844E+01  0.13280566563E+02  0.51100000000E-03 0. -1.
        -12    1    3    3    0    0 -0.20785863087E+02 -0.17135225321E+02  0.80110064555E-01  0.26938345693E+02  0.00000000000E+00 0.  1.
</event>
<event>
 7    1  0.4931104E-009  0.4778727E+02  0.7816164E-02  0.1312668E+00
        -11   -1    0    0    0    0  0.00000000000E+00  0.00000000000E+00  0.45593999997E+02  0.45594000000E+02  0.51100000000E-03 0. -1.
         11   -1    0    0    0    0 -0.00000000000E+00 -0.00000000000E+00 -0.45593999997E+02  0.45594000000E+02  0.51100000000E-03 0.  1.
    9900012    2    1    2    0    0 -0.26052849788E+02 -0.34516180490E+02  0.36749885606E+01  0.47787271451E+02  0.20000001853E+02 0.  0.
        -12    1    1    2    0    0  0.26052849788E+02  0.34516180490E+02 -0.36749885606E+01  0.43400728549E+02  0.00000000000E+00 0.  1.
         11    1    3    3    0    0 -0.17401465623E+02 -0.15430139038E+02  0.40587858260E+01  0.23608768269E+02  0.51100000000E-03 0. -1.
        -11    1    3    3    0    0 -0.11523685634E+02 -0.13748900652E+02 -0.15499287456E+01  0.18006384399E+02  0.51100000000E-03 0.  1.
        -12    1    3    3    0    0  0.28723014684E+01 -0.53371407998E+01  0.11661314802E+01  0.61721187830E+01  0.00000000000E+00 0.  1.
</event>
<event>
 7    1  0.4931104E-009  0.4778727E+02  0.7816164E-02  0.1312668E+00
        -11   -1    0    0    0    0  0.00000000000E+00  0.00000000000E+00  0.45593999997E+02  0.45594000000E+02  0.51100000000E-03 0.  1.
         11   -1    0    0    0    0 -0.00000000000E+00 -0.00000000000E+00 -0.45593999997E+02  0.45594000000E+02  0.51100000000E-03 0. -1.
    9900012    2    1    2    0    0 -0.63893841928E+01 -0.28971725048E+02 -0.31677092375E+02  0.47787271158E+02  0.20000000519E+02 0.  0.
        -12    1    1    2    0    0  0.63893841928E+01  0.28971725048E+02  0.31677092375E+02  0.43400728842E+02  0.00000000000E+00 0.  1.
         11    1    3    3    0    0 -0.46165732566E+01 -0.15172885345E+02 -0.15521825166E+02  0.22191355413E+02  0.51100000000E-03 0. -1.
        -11    1    3    3    0    0  0.11596138082E+01 -0.60030495186E+01 -0.16148140452E+02  0.17266839549E+02  0.51100000000E-03 0.  1.
         12    1    3    3    0    0 -0.29324247444E+01 -0.77957901847E+01 -0.71267574433E-02  0.83290761959E+01  0.00000000000E+00 0. -1.
</event>
<event>
 7    1  0.4931104E-009  0.4778727E+02  0.7816164E-02  0.1312668E+00
        -11   -1    0    0    0    0  0.00000000000E+00  0.00000000000E+00  0.45593999997E+02  0.45594000000E+02  0.51100000000E-03 0.  1.
         11   -1    0    0    0    0 -0.00000000000E+00 -0.00000000000E+00 -0.45593999997E+02  0.45594000000E+02  0.51100000000E-03 0. -1.
    9900012    2    1    2    0    0  0.15146369263E+02  0.95948086248E+01 -0.39524048408E+02  0.47787271239E+02  0.20000000888E+02 0.  0.
        -12    1    1    2    0    0 -0.15146369263E+02 -0.95948086248E+01  0.39524048408E+02  0.43400728761E+02  0.00000000000E+00 0.  1.
         11    1    3    3    0    0  0.12941850534E+02  0.59799469330E+01 -0.23825388932E+02  0.27765093527E+02  0.51100000000E-03 0. -1.
        -11    1    3    3    0    0  0.31760698495E+01  0.47602836936E+01 -0.17060537843E+02  0.17994712342E+02  0.51100000000E-03 0.  1.
         12    1    3    3    0    0 -0.97155112063E+00 -0.11454220018E+01  0.13618783661E+01  0.20274653699E+01  0.00000000000E+00 0. -1.
</event>
<event>
 7    1  0.4931104E-009  0.4778727E+02  0.7816164E-02  0.1312668E+00
        -11   -1    0    0    0    0  0.00000000000E+00  0.00000000000E+00  0.45593999997E+02  0.45594000000E+02  0.51100000000E-03 0.  1.
         11   -1    0    0    0    0 -0.00000000000E+00 -0.00000000000E+00 -0.45593999997E+02  0.45594000000E+02  0.51100000000E-03 0. -1.
    9900012    2    1    2    0    0 -0.33024292709E+01  0.37513434263E+00 -0.43273277946E+02  0.47787270178E+02  0.19999996050E+02 0.  0.
        -12    1    1    2    0    0  0.33024292709E+01 -0.37513434263E+00  0.43273277946E+02  0.43400729822E+02  0.00000000000E+00 0.  1.
         11    1    3    3    0    0 -0.92295138260E+00  0.47554088872E+01 -0.60785602421E+01  0.77726860105E+01  0.51100000000E-03 0. -1.
        -11    1    3    3    0    0  0.28537821522E+01 -0.39690416170E+01 -0.37519781437E+01  0.61623618996E+01  0.51100000000E-03 0.  1.
        -12    1    3    3    0    0 -0.52332600405E+01 -0.41123292757E+00 -0.33442739560E+02  0.33852222268E+02  0.00000000000E+00 0.  1.
</event>
<event>
 7    1  0.4931104E-009  0.4778727E+02  0.7816164E-02  0.1312668E+00
        -11   -1    0    0    0    0  0.00000000000E+00  0.00000000000E+00  0.45593999997E+02  0.45594000000E+02  0.51100000000E-03 0.  1.
         11   -1    0    0    0    0 -0.00000000000E+00 -0.00000000000E+00 -0.45593999997E+02  0.45594000000E+02  0.51100000000E-03 0. -1.
    9900012    2    1    2    0    0  0.20338370596E+02  0.38324651520E+02  0.10931743694E+01  0.47787271171E+02  0.20000000579E+02 0.  0.
        -12    1    1    2    0    0 -0.20338370596E+02 -0.38324651520E+02 -0.10931743694E+01  0.43400728829E+02  0.00000000000E+00 0.  1.
         11    1    3    3    0    0  0.20413116244E+02  0.25849852009E+02 -0.52412248704E+01  0.33352370262E+02  0.51100000000E-03 0. -1.
        -11    1    3    3    0    0  0.16093413822E+01  0.85211543966E+01  0.41275159477E+01  0.96039804297E+01  0.51100000000E-03 0.  1.
         12    1    3    3    0    0 -0.16840870301E+01  0.39536451144E+01  0.22068832921E+01  0.48309204796E+01  0.00000000000E+00 0. -1.
</event>
<event>
 7    1  0.4931104E-009  0.4778726E+02  0.7816164E-02  0.1312668E+00
        -11   -1    0    0    0    0  0.00000000000E+00  0.00000000000E+00  0.45593999997E+02  0.45594000000E+02  0.51100000000E-03 0.  1.
         11   -1    0    0    0    0 -0.00000000000E+00 -0.00000000000E+00 -0.45593999997E+02  0.45594000000E+02  0.51100000000E-03 0. -1.
    9900012    2    1    2    0    0  0.45048039204E+01 -0.37532385352E+02 -0.21322545761E+02  0.47787260763E+02  0.19999953121E+02 0.  0.
        -12    1    1    2    0    0 -0.45048039204E+01  0.37532385352E+02  0.21322545761E+02  0.43400739237E+02  0.00000000000E+00 0.  1.
         11    1    3    3    0    0  0.42449263263E+01 -0.26752124638E+02 -0.10083355793E+02  0.28902761745E+02  0.51100000000E-03 0. -1.
        -11    1    3    3    0    0  0.31482873772E+01 -0.72362061213E+01 -0.13723392740E+01  0.80098506718E+01  0.51100000000E-03 0.  1.
        -12    1    3    3    0    0 -0.28884097831E+01 -0.35440545931E+01 -0.98668506941E+01  0.10874648346E+02  0.00000000000E+00 0.  1.
</event>
<event>
 7    1  0.4931104E-009  0.4778727E+02  0.7816164E-02  0.1312668E+00
        -11   -1    0    0    0    0  0.00000000000E+00  0.00000000000E+00  0.45593999997E+02  0.45594000000E+02  0.51100000000E-03 0.  1.
         11   -1    0    0    0    0 -0.00000000000E+00 -0.00000000000E+00 -0.45593999997E+02  0.45594000000E+02  0.51100000000E-03 0. -1.
    9900012    2    1    2    0    0  0.26925568420E+02  0.20272313729E+02 -0.27343561339E+02  0.47787270912E+02  0.19999999394E+02 0.  0.
        -12    1    1    2    0    0 -0.26925568420E+02 -0.20272313729E+02  0.27343561339E+02  0.43400729088E+02  0.00000000000E+00 0.  1.
         11    1    3    3    0    0  0.19772844101E+02  0.55499428701E+01 -0.94570116851E+01  0.22609783280E+02  0.51100000000E-03 0. -1.
        -11    1    3    3    0    0  0.66620308419E+01  0.59750381705E+01 -0.86288163099E+01  0.12431420162E+02  0.51100000000E-03 0.  1.
        -12    1    3    3    0    0  0.49069347719E+00  0.87473326883E+01 -0.92577333445E+01  0.12746067469E+02  0.00000000000E+00 0.  1.
</event>
<event>
 7    1  0.4931104E-009  0.4778727E+02  0.7816164E-02  0.1312668E+00
        -11   -1    0    0    0    0  0.00000000000E+00  0.00000000000E+00  0.45593999997E+02  0.45594000000E+02  0.51100000000E-03 0.  1.
         11   -1    0    0    0    0 -0.00000000000E+00 -0.00000000000E+00 -0.45593999997E+02  0.45594000000E+02  0.51100000000E-03 0. -1.
    9900012    2    1    2    0    0 -0.77221075673E+01 -0.23989411096E+02 -0.35334130732E+02  0.47787267465E+02  0.19999983680E+02 0.  0.
        -12    1    1    2    0    0  0.77221075673E+01  0.23989411096E+02  0.35334130732E+02  0.43400732535E+02  0.00000000000E+00 0.  1.
         11    1    3    3    0    0 -0.30613197055E+01 -0.12340966950E+02 -0.61624279852E+01  0.14129637736E+02  0.51100000000E-03 0. -1.
        -11    1    3    3    0    0 -0.24241971208E+01 -0.22002287503E+01 -0.40765384205E+00  0.32990786820E+01  0.51100000000E-03 0.  1.
         12    1    3    3    0    0 -0.22365907410E+01 -0.94482153952E+01 -0.28764048905E+02  0.30358551047E+02  0.00000000000E+00 0. -1.
</event>
<event>
 7    1  0.4931104E-009  0.4778727E+02  0.7816164E-02  0.1312668E+00
        -11   -1    0    0    0    0  0.00000000000E+00  0.00000000000E+00  0.45593999997E+02  0.45594000000E+02  0.51100000000E-03 0. -1.
         11   -1    0    0    0    0 -0.00000000000E+00 -0.00000000000E+00 -0.45593999997E+02  0.45594000000E+02  0.51100000000E-03 0.  1.
    9900012    2    1    2    0    0  0.42358481415E+02 -0.66235046109E+01  0.67462004969E+01  0.47787274404E+02  0.20000015316E+02 0.  0.
        -12    1    1    2    0    0 -0.42358481415E+02  0.66235046109E+01 -0.67462004969E+01  0.43400725596E+02  0.00000000000E+00 0.  1.
         11    1    3    3    0    0  0.30822076244E+02 -0.11023115431E+01  0.85561933278E+01  0.32006623053E+02  0.51100000000E-03 0. -1.
        -11    1    3    3    0    0  0.58869909746E+01  0.12880597861E+01  0.17010935500E+01  0.62617473819E+01  0.51100000000E-03 0.  1.
        -12    1    3    3    0    0  0.56494141964E+01 -0.68092528539E+01 -0.35110863809E+01  0.95189039687E+01  0.00000000000E+00 0.  1.
</event>
<event>
 7    1  0.4931104E-009  0.4778727E+02  0.7816164E-02  0.1312668E+00
        -11   -1    0    0    0    0  0.00000000000E+00  0.00000000000E+00  0.45593999997E+02  0.45594000000E+02  0.51100000000E-03 0.  1.
         11   -1    0    0    0    0 -0.00000000000E+00 -0.00000000000E+00 -0.45593999997E+02  0.45594000000E+02  0.51100000000E-03 0. -1.
    9900012    2    1    2    0    0 -0.44183168330E+01 -0.39985744389E+01 -0.42989687289E+02  0.47787270347E+02  0.19999996822E+02 0.  0.
        -12    1    1    2    0    0  0.44183168330E+01  0.39985744389E+01  0.42989687289E+02  0.43400729653E+02  0.00000000000E+00 0.  1.
         11    1    3    3    0    0  0.44931468961E+01  0.38967820471E+01 -0.16728409513E+02  0.17754237929E+02  0.51100000000E-03 0. -1.
        -11    1    3    3    0    0  0.38802887062E+00 -0.29972849713E+01 -0.20874535719E+01  0.36731112533E+01  0.51100000000E-03 0.  1.
         12    1    3    3    0    0 -0.92994925997E+01 -0.48980715147E+01 -0.24173824204E+02  0.26359921165E+02  0.00000000000E+00 0. -1.
</event>
<event>
 7    1  0.4931104E-009  0.4778729E+02  0.7816164E-02  0.1312668E+00
        -11   -1    0    0    0    0  0.00000000000E+00  0.00000000000E+00  0.45593999997E+02  0.45594000000E+02  0.51100000000E-03 0.  1.
         11   -1    0    0    0    0 -0.00000000000E+00 -0.00000000000E+00 -0.45593999997E+02  0.45594000000E+02  0.51100000000E-03 0. -1.
    9900012    2    1    2    0    0 -0.31470942352E+02 -0.29852575353E+02  0.14230818792E+01  0.47787289986E+02  0.20000086361E+02 0.  0.
        -12    1    1    2    0    0  0.31470942352E+02  0.29852575353E+02 -0.14230818792E+01  0.43400710014E+02  0.00000000000E+00 0.  1.
         11    1    3    3    0    0 -0.77857343694E+01 -0.94088062046E+01 -0.40025211491E+01  0.12851594052E+02  0.51100000000E-03 0. -1.
        -11    1    3    3    0    0  0.11861496307E+01 -0.13647630091E+00 -0.16693921251E+01  0.20524246772E+01  0.51100000000E-03 0.  1.
         12    1    3    3    0    0 -0.24871357613E+02 -0.20307292848E+02  0.70949951534E+01  0.32883271257E+02  0.00000000000E+00 0. -1.
</event>
<event>
 7    1  0.4931104E-009  0.4778727E+02  0.7816164E-02  0.1312668E+00
        -11   -1    0    0    0    0  0.00000000000E+00  0.00000000000E+00  0.45593999997E+02  0.45594000000E+02  0.51100000000E-03 0.  1.
         11   -1    0    0    0    0 -0.00000000000E+00 -0.00000000000E+00 -0.45593999997E+02  0.45594000000E+02  0.51100000000E-03 0. -1.
    9900012    2    1    2    0    0  0.18145798930E+02  0.11516228910E+02 -0.37705833225E+02  0.47787269519E+02  0.19999993044E+02 0.  0.
        -12    1    1    2    0    0 -0.18145798930E+02 -0.11516228910E+02  0.37705833225E+02  0.43400730481E+02  0.00000000000E+00 0.  1.
         11    1    3    3    0    0  0.14301063244E+02  0.69004537028E+01 -0.15690074433E+02  0.22322972633E+02  0.51100000000E-03 0. -1.
        -11    1    3    3    0    0  0.77666745688E+01  0.25242343210E+01 -0.12101676507E+02  0.14599437226E+02  0.51100000000E-03 0.  1.
        -12    1    3    3    0    0 -0.39219388826E+01  0.20915408861E+01 -0.99140822851E+01  0.10864859660E+02  0.00000000000E+00 0.  1.
</event>
<event>
 7    1  0.4931104E-009  0.4778728E+02  0.7816164E-02  0.1312668E+00
        -11   -1    0    0    0    0  0.00000000000E+00  0.00000000000E+00  0.45593999997E+02  0.45594000000E+02  0.51100000000E-03 0.  1.
         11   -1    0    0    0    0 -0.00000000000E+00 -0.00000000000E+00 -0.45593999997E+02  0.45594000000E+02  0.51100000000E-03 0. -1.
    9900012    2    1    2    0    0  0.20535398684E+02 -0.30913209814E+02 -0.22500959219E+02  0.47787282196E+02  0.20000050843E+02 0.  0.
        -12    1    1    2    0    0 -0.20535398684E+02  0.30913209814E+02  0.22500959219E+02  0.43400717804E+02  0.00000000000E+00 0.  1.
         11    1    3    3    0    0 -0.53049751761E+00 -0.41894004056E+01 -0.27432415516E+01  0.50356606167E+01  0.51100000000E-03 0. -1.
        -11    1    3    3    0    0  0.23631731357E+01 -0.95401273992E+01  0.10955634115E+01  0.98893314998E+01  0.51100000000E-03 0.  1.
         12    1    3    3    0    0  0.18702723066E+02 -0.17183682010E+02 -0.20853281079E+02  0.32862290079E+02  0.00000000000E+00 0. -1.
</event>
<event>
 7    1  0.4931104E-009  0.4778727E+02  0.7816164E-02  0.1312668E+00
        -11   -1    0    0    0    0  0.00000000000E+00  0.00000000000E+00  0.45593999997E+02  0.45594000000E+02  0.51100000000E-03 0. -1.
         11   -1    0    0    0    0 -0.00000000000E+00 -0.00000000000E+00 -0.45593999997E+02  0.45594000000E+02  0.51100000000E-03 0.  1.
    9900012    2    1    2    0    0 -0.31578811084E+02  0.96884726928E+01  0.28152001547E+02  0.47787274157E+02  0.20000014191E+02 0.  0.
        -12    1    1    2    0    0  0.31578811084E+02 -0.96884726928E+01 -0.28152001547E+02  0.43400725843E+02  0.00000000000E+00 0.  1.
         11    1    3    3    0    0 -0.96470554999E+01  0.72701613226E+01  0.71087607272E+01  0.14016255021E+02  0.51100000000E-03 0.  1.
        -11    1    3    3    0    0 -0.17565104670E+02  0.37493700333E+01  0.74728624092E+01  0.19453389179E+02  0.51100000000E-03 0. -1.
        -12    1    3    3    0    0 -0.43666509146E+01 -0.13310586630E+01  0.13570378411E+02  0.14317629957E+02  0.00000000000E+00 0.  1.
</event>
<event>
 7    1  0.4931104E-009  0.4778727E+02  0.7816164E-02  0.1312668E+00
        -11   -1    0    0    0    0  0.00000000000E+00  0.00000000000E+00  0.45593999997E+02  0.45594000000E+02  0.51100000000E-03 0. -1.
         11   -1    0    0    0    0 -0.00000000000E+00 -0.00000000000E+00 -0.45593999997E+02  0.45594000000E+02  0.51100000000E-03 0.  1.
    9900012    2    1    2    0    0 -0.47975138613E+01  0.40565611799E+02  0.14664181253E+02  0.47787271761E+02  0.20000003266E+02 0.  0.
        -12    1    1    2    0    0  0.47975138613E+01 -0.40565611799E+02 -0.14664181253E+02  0.43400728239E+02  0.00000000000E+00 0.  1.
         11    1    3    3    0    0 -0.12042607661E+01  0.62082690806E+01 -0.10398530853E+00  0.63248448341E+01  0.51100000000E-03 0. -1.
        -11    1    3    3    0    0 -0.70174664028E+01  0.16599991811E+02  0.14889738276E+02  0.23377529147E+02  0.51100000000E-03 0.  1.
         12    1    3    3    0    0  0.34242133076E+01  0.17757350907E+02 -0.12157171416E+00  0.18084897780E+02  0.00000000000E+00 0. -1.
</event>
<event>
 7    1  0.4931104E-009  0.4778727E+02  0.7816164E-02  0.1312668E+00
        -11   -1    0    0    0    0  0.00000000000E+00  0.00000000000E+00  0.45593999997E+02  0.45594000000E+02  0.51100000000E-03 0. -1.
         11   -1    0    0    0    0 -0.00000000000E+00 -0.00000000000E+00 -0.45593999997E+02  0.45594000000E+02  0.51100000000E-03 0.  1.
    9900012    2    1    2    0    0  0.18090705227E+01 -0.43362837134E+02 -0.12189041849E+00  0.47787271461E+02  0.20000001899E+02 0.  0.
        -12    1    1    2    0    0 -0.18090705227E+01  0.43362837134E+02  0.12189041849E+00  0.43400728539E+02  0.00000000000E+00 0.  1.
         11    1    3    3    0    0  0.18124240616E+01 -0.12294493527E+02 -0.21840948027E+01  0.12617833508E+02  0.51100000000E-03 0.  1.
        -11    1    3    3    0    0  0.54878829669E+01 -0.20890739170E+02 -0.42212678617E+01  0.22008156332E+02  0.51100000000E-03 0. -1.
         12    1    3    3    0    0 -0.54912365058E+01 -0.10177604437E+02  0.62834722458E+01  0.13161281621E+02  0.00000000000E+00 0. -1.
</event>
<event>
 7    1  0.4931104E-009  0.4778728E+02  0.7816164E-02  0.1312668E+00
        -11   -1    0    0    0    0  0.00000000000E+00  0.00000000000E+00  0.45593999997E+02  0.45594000000E+02  0.51100000000E-03 0. -1.
         11   -1    0    0    0    0 -0.00000000000E+00 -0.00000000000E+00 -0.45593999997E+02  0.45594000000E+02  0.51100000000E-03 0.  1.
    9900012    2    1    2    0    0 -0.21576799179E+02 -0.29212335742E+02  0.23763492780E+02  0.47787280981E+02  0.20000045303E+02 0.  0.
        -12    1    1    2    0    0  0.21576799179E+02  0.29212335742E+02 -0.23763492780E+02  0.43400719019E+02  0.00000000000E+00 0.  1.
         11    1    3    3    0    0 -0.21372762908E+02 -0.21783243088E+02  0.25563954062E+02  0.39809803080E+02  0.51100000000E-03 0. -1.
        -11    1    3    3    0    0 -0.52922406058E+00 -0.33761792643E+00  0.82314379955E-01  0.63311917426E+00  0.51100000000E-03 0.  1.
         12    1    3    3    0    0  0.32518778931E+00 -0.70914747271E+01 -0.18827756617E+01  0.73443587260E+01  0.00000000000E+00 0. -1.
</event>
<event>
 7    1  0.4931104E-009  0.4778727E+02  0.7816164E-02  0.1312668E+00
        -11   -1    0    0    0    0  0.00000000000E+00  0.00000000000E+00  0.45593999997E+02  0.45594000000E+02  0.51100000000E-03 0.  1.
         11   -1    0    0    0    0 -0.00000000000E+00 -0.00000000000E+00 -0.45593999997E+02  0.45594000000E+02  0.51100000000E-03 0. -1.
    9900012    2    1    2    0    0 -0.32561172653E+02  0.21822240594E+02 -0.18632852257E+02  0.47787270371E+02  0.19999996930E+02 0.  0.
        -12    1    1    2    0    0  0.32561172653E+02 -0.21822240594E+02  0.18632852257E+02  0.43400729629E+02  0.00000000000E+00 0.  1.
         11    1    3    3    0    0 -0.17748958884E+02  0.59737917542E+01 -0.49571437375E+01  0.19372274097E+02  0.51100000000E-03 0. -1.
        -11    1    3    3    0    0 -0.16552651427E+02  0.11514812666E+02 -0.11933572943E+02  0.23430564301E+02  0.51100000000E-03 0.  1.
        -12    1    3    3    0    0  0.17404376587E+01  0.43336361733E+01 -0.17421355768E+01  0.49844319731E+01  0.00000000000E+00 0.  1.
</event>
<event>
 7    1  0.4931104E-009  0.4778728E+02  0.7816164E-02  0.1312668E+00
        -11   -1    0    0    0    0  0.00000000000E+00  0.00000000000E+00  0.45593999997E+02  0.45594000000E+02  0.51100000000E-03 0.  1.
         11   -1    0    0    0    0 -0.00000000000E+00 -0.00000000000E+00 -0.45593999997E+02  0.45594000000E+02  0.51100000000E-03 0. -1.
    9900012    2    1    2    0    0  0.41986465428E+02 -0.25189643673E+01 -0.10696458119E+02  0.47787277922E+02  0.20000031356E+02 0.  0.
        -12    1    1    2    0    0 -0.41986465428E+02  0.25189643673E+01  0.10696458119E+02  0.43400722078E+02  0.00000000000E+00 0.  1.
         11    1    3    3    0    0  0.41386938308E+01 -0.37150514252E+01 -0.34818254833E+01  0.65615167968E+01  0.51100000000E-03 0.  1.
        -11    1    3    3    0    0  0.11230692249E+02  0.78799522582E+00 -0.91892243303E+01  0.14532419927E+02  0.51100000000E-03 0. -1.
        -12    1    3    3    0    0  0.26617079348E+02  0.40809183206E+00  0.19745916947E+01  0.26693341198E+02  0.00000000000E+00 0.  1.
</event>
<event>
 7    1  0.4931104E-009  0.4778726E+02  0.7816164E-02  0.1312668E+00
        -11   -1    0    0    0    0  0.00000000000E+00  0.00000000000E+00  0.45593999997E+02  0.45594000000E+02  0.51100000000E-03 0.  1.
         11   -1    0    0    0    0 -0.00000000000E+00 -0.00000000000E+00 -0.45593999997E+02  0.45594000000E+02  0.51100000000E-03 0. -1.
    9900012    2    1    2    0    0  0.46989568610E+01 -0.41399652285E+02  0.12149592662E+02  0.47787262601E+02  0.19999961505E+02 0.  0.
        -12    1    1    2    0    0 -0.46989568610E+01  0.41399652285E+02 -0.12149592662E+02  0.43400737399E+02  0.00000000000E+00 0.  1.
         11    1    3    3    0    0 -0.17845365048E+01 -0.13563919359E+01  0.33220137734E+00  0.22659937416E+01  0.51100000000E-03 0. -1.
        -11    1    3    3    0    0 -0.39683873635E+01 -0.16814261934E+02  0.10052709998E+02  0.19988108495E+02  0.51100000000E-03 0.  1.
         12    1    3    3    0    0  0.10451880729E+02 -0.23228998415E+02  0.17646812859E+01  0.25533160364E+02  0.00000000000E+00 0. -1.
</event>
<event>
 7    1  0.4931104E-009  0.4778727E+02  0.7816164E-02  0.1312668E+00
        -11   -1    0    0    0    0  0.00000000000E+00  0.00000000000E+00  0.45593999997E+02  0.45594000000E+02  0.51100000000E-03 0.  1.
         11   -1    0    0    0    0 -0.00000000000E+00 -0.00000000000E+00 -0.45593999997E+02  0.45594000000E+02  0.51100000000E-03 0. -1.
    9900012    2    1    2    0    0  0.53909710254E+01 -0.16872056355E+01 -0.43031548596E+02  0.47787269522E+02  0.19999993057E+02 0.  0.
        -12    1    1    2    0    0 -0.53909710254E+01  0.16872056355E+01  0.43031548596E+02  0.43400730478E+02  0.00000000000E+00 0.  1.
         11    1    3    3    0    0 -0.30208532737E+00 -0.79563409244E+01 -0.24012037514E+02  0.25297678990E+02  0.51100000000E-03 0. -1.
        -11    1    3    3    0    0  0.46259647161E+01  0.58610262993E+00 -0.14251556429E+02  0.14994996724E+02  0.51100000000E-03 0.  1.
        -12    1    3    3    0    0  0.10670916366E+01  0.56830326590E+01 -0.47679546539E+01  0.74945938079E+01  0.00000000000E+00 0.  1.
</event>
<event>
 7    1  0.4931104E-009  0.4778727E+02  0.7816164E-02  0.1312668E+00
        -11   -1    0    0    0    0  0.00000000000E+00  0.00000000000E+00  0.45593999997E+02  0.45594000000E+02  0.51100000000E-03 0.  1.
         11   -1    0    0    0    0 -0.00000000000E+00 -0.00000000000E+00 -0.45593999997E+02  0.45594000000E+02  0.51100000000E-03 0. -1.
    9900012    2    1    2    0    0 -0.65915721344E+01  0.43203855375E+01 -0.42679135842E+02  0.47787272003E+02  0.20000004372E+02 0.  0.
        -12    1    1    2    0    0  0.65915721344E+01 -0.43203855375E+01  0.42679135842E+02  0.43400727997E+02  0.00000000000E+00 0.  1.
         11    1    3    3    0    0 -0.22471647466E+01 -0.14810127658E+01 -0.80256748731E+01  0.84649043492E+01  0.51100000000E-03 0. -1.
        -11    1    3    3    0    0 -0.75815200019E+01  0.83763442990E+01 -0.12765553851E+02  0.17047051203E+02  0.51100000000E-03 0.  1.
        -12    1    3    3    0    0  0.32371126141E+01 -0.25749459957E+01 -0.21887907118E+02  0.22275316451E+02  0.00000000000E+00 0.  1.
</event>
<event>
 7    1  0.5130058E-009  0.4778726E+02  0.7816164E-02  0.1312668E+00
        -11   -1    0    0    0    0  0.00000000000E+00  0.00000000000E+00  0.45593999997E+02  0.45594000000E+02  0.51100000000E-03 0.  1.
         11   -1    0    0    0    0 -0.00000000000E+00 -0.00000000000E+00 -0.45593999997E+02  0.45594000000E+02  0.51100000000E-03 0. -1.
    9900012    2    1    2    0    0  0.31611235220E+02 -0.29670254743E+02  0.20075688007E+01  0.47787256445E+02  0.19999933437E+02 0.  0.
        -12    1    1    2    0    0 -0.31611235220E+02  0.29670254743E+02 -0.20075688007E+01  0.43400743555E+02  0.00000000000E+00 0.  1.
         11    1    3    3    0    0  0.19840769064E+02 -0.24828736898E+02  0.21048994406E+01  0.31852046950E+02  0.51100000000E-03 0. -1.
        -11    1    3    3    0    0  0.58448560773E+01 -0.57799296558E+01  0.35062945516E+01  0.89366677869E+01  0.51100000000E-03 0.  1.
        -12    1    3    3    0    0  0.59256100784E+01  0.93841181060E+00 -0.36036251915E+01  0.69985417087E+01  0.00000000000E+00 0.  1.
</event>
<event>
 7    1  0.4931104E-009  0.4778727E+02  0.7816164E-02  0.1312668E+00
        -11   -1    0    0    0    0  0.00000000000E+00  0.00000000000E+00  0.45593999997E+02  0.45594000000E+02  0.51100000000E-03 0. -1.
         11   -1    0    0    0    0 -0.00000000000E+00 -0.00000000000E+00 -0.45593999997E+02  0.45594000000E+02  0.51100000000E-03 0.  1.
    9900012    2    1    2    0    0  0.20005514004E+02  0.24294252008E+02  0.29886318896E+02  0.47787270417E+02  0.19999997140E+02 0.  0.
        -12    1    1    2    0    0 -0.20005514004E+02 -0.24294252008E+02 -0.29886318896E+02  0.43400729583E+02  0.00000000000E+00 0.  1.
         11    1    3    3    0    0  0.31973338714E+01  0.63038468151E+01  0.13899467753E+02  0.15593480453E+02  0.51100000000E-03 0. -1.
        -11    1    3    3    0    0  0.61254324976E+01 -0.88858284920E+00  0.26738665984E+01  0.67424079978E+01  0.51100000000E-03 0.  1.
         12    1    3    3    0    0  0.10682747635E+02  0.18878988042E+02  0.13312984544E+02  0.25451381966E+02  0.00000000000E+00 0. -1.
</event>
<event>
 7    1  0.4931104E-009  0.4778727E+02  0.7816164E-02  0.1312668E+00
        -11   -1    0    0    0    0  0.00000000000E+00  0.00000000000E+00  0.45593999997E+02  0.45594000000E+02  0.51100000000E-03 0. -1.
         11   -1    0    0    0    0 -0.00000000000E+00 -0.00000000000E+00 -0.45593999997E+02  0.45594000000E+02  0.51100000000E-03 0.  1.
    9900012    2    1    2    0    0  0.13639316647E+02  0.35041470708E+02  0.21672270660E+02  0.47787274850E+02  0.20000017353E+02 0.  0.
        -12    1    1    2    0    0 -0.13639316647E+02 -0.35041470708E+02 -0.21672270660E+02  0.43400725150E+02  0.00000000000E+00 0.  1.
         11    1    3    3    0    0  0.55968314331E+01  0.13875402515E+02  0.14169543090E+02  0.20606486083E+02  0.51100000000E-03 0. -1.
        -11    1    3    3    0    0 -0.14016569993E+01 -0.11418482161E+01  0.11297071933E+01  0.21318297999E+01  0.51100000000E-03 0.  1.
        -12    1    3    3    0    0  0.94441422134E+01  0.22307916409E+02  0.63730203766E+01  0.25048958968E+02  0.00000000000E+00 0.  1.
</event>
<event>
 7    1  0.4931104E-009  0.4778727E+02  0.7816164E-02  0.1312668E+00
        -11   -1    0    0    0    0  0.00000000000E+00  0.00000000000E+00  0.45593999997E+02  0.45594000000E+02  0.51100000000E-03 0.  1.
         11   -1    0    0    0    0 -0.00000000000E+00 -0.00000000000E+00 -0.45593999997E+02  0.45594000000E+02  0.51100000000E-03 0. -1.
    9900012    2    1    2    0    0  0.30446140813E+02 -0.28454782309E+02  0.12123585887E+02  0.47787268884E+02  0.19999990150E+02 0.  0.
        -12    1    1    2    0    0 -0.30446140813E+02  0.28454782309E+02 -0.12123585887E+02  0.43400731116E+02  0.00000000000E+00 0.  1.
         11    1    3    3    0    0  0.13958085613E+02 -0.17626195287E+02  0.48075746764E+01  0.22991817866E+02  0.51100000000E-03 0. -1.
        -11    1    3    3    0    0  0.14307029522E+02 -0.13884184389E+02  0.62392163766E+01  0.20889937557E+02  0.51100000000E-03 0.  1.
        -12    1    3    3    0    0  0.21810256774E+01  0.30555973669E+01  0.10767948336E+01  0.39055134602E+01  0.00000000000E+00 0.  1.
</event>
<event>
 7    1  0.4931104E-009  0.4778727E+02  0.7816164E-02  0.1312668E+00
        -11   -1    0    0    0    0  0.00000000000E+00  0.00000000000E+00  0.45593999997E+02  0.45594000000E+02  0.51100000000E-03 0. -1.
         11   -1    0    0    0    0 -0.00000000000E+00 -0.00000000000E+00 -0.45593999997E+02  0.45594000000E+02  0.51100000000E-03 0.  1.
    9900012    2    1    2    0    0  0.12338801885E+02 -0.18977936543E+02  0.37029922040E+02  0.47787271508E+02  0.20000002113E+02 0.  0.
        -12    1    1    2    0    0 -0.12338801885E+02  0.18977936543E+02 -0.37029922040E+02  0.43400728492E+02  0.00000000000E+00 0.  1.
         11    1    3    3    0    0  0.70310105876E+00 -0.19980803947E+01  0.11974520500E+02  0.12160420134E+02  0.51100000000E-03 0. -1.
        -11    1    3    3    0    0 -0.11157746082E+01 -0.11310990239E+02  0.10826269918E+02  0.15696865093E+02  0.51100000000E-03 0.  1.
        -12    1    3    3    0    0  0.12751475435E+02 -0.56688659095E+01  0.14229131622E+02  0.19929986281E+02  0.00000000000E+00 0.  1.
</event>
<event>
 7    1  0.4931104E-009  0.4778727E+02  0.7816164E-02  0.1312668E+00
        -11   -1    0    0    0    0  0.00000000000E+00  0.00000000000E+00  0.45593999997E+02  0.45594000000E+02  0.51100000000E-03 0.  1.
         11   -1    0    0    0    0 -0.00000000000E+00 -0.00000000000E+00 -0.45593999997E+02  0.45594000000E+02  0.51100000000E-03 0. -1.
    9900012    2    1    2    0    0 -0.32317508145E+02  0.17717044778E+02 -0.22919604952E+02  0.47787270749E+02  0.19999998652E+02 0.  0.
        -12    1    1    2    0    0  0.32317508145E+02 -0.17717044778E+02  0.22919604952E+02  0.43400729251E+02  0.00000000000E+00 0.  1.
         11    1    3    3    0    0 -0.92019225641E+01  0.11716214923E+02 -0.51738206864E+01  0.15770652864E+02  0.51100000000E-03 0. -1.
        -11    1    3    3    0    0 -0.29947118568E+01  0.54127349247E+01 -0.64390135511E+01  0.89289917820E+01  0.51100000000E-03 0.  1.
        -12    1    3    3    0    0 -0.20120873724E+02  0.58809493015E+00 -0.11306770715E+02  0.23087626103E+02  0.00000000000E+00 0.  1.
</event>
<event>
 7    1  0.4931104E-009  0.4778728E+02  0.7816164E-02  0.1312668E+00
        -11   -1    0    0    0    0  0.00000000000E+00  0.00000000000E+00  0.45593999997E+02  0.45594000000E+02  0.51100000000E-03 0. -1.
         11   -1    0    0    0    0 -0.00000000000E+00 -0.00000000000E+00 -0.45593999997E+02  0.45594000000E+02  0.51100000000E-03 0.  1.
    9900012    2    1    2    0    0  0.25045994843E+01 -0.41372322564E+02 -0.12871695576E+02  0.47787278348E+02  0.20000033301E+02 0.  0.
        -12    1    1    2    0    0 -0.25045994843E+01  0.41372322564E+02  0.12871695576E+02  0.43400721652E+02  0.00000000000E+00 0.  1.
         11    1    3    3    0    0 -0.19528812527E+01 -0.30977863403E+01 -0.22632019017E+01  0.43048935534E+01  0.51100000000E-03 0. -1.
        -11    1    3    3    0    0 -0.47137418311E+01 -0.70674110921E+01  0.17738661131E+01  0.86783790447E+01  0.51100000000E-03 0.  1.
         12    1    3    3    0    0  0.91712225681E+01 -0.31207125131E+02 -0.12382359787E+02  0.34804005750E+02  0.00000000000E+00 0. -1.
</event>
<event>
 7    1  0.4931104E-009  0.4778727E+02  0.7816164E-02  0.1312668E+00
        -11   -1    0    0    0    0  0.00000000000E+00  0.00000000000E+00  0.45593999997E+02  0.45594000000E+02  0.51100000000E-03 0. -1.
         11   -1    0    0    0    0 -0.00000000000E+00 -0.00000000000E+00 -0.45593999997E+02  0.45594000000E+02  0.51100000000E-03 0.  1.
    9900012    2    1    2    0    0  0.32194990226E+02 -0.69593410494E+01  0.28260810849E+02  0.47787271281E+02  0.20000001079E+02 0.  0.
        -12    1    1    2    0    0 -0.32194990226E+02  0.69593410494E+01 -0.28260810849E+02  0.43400728719E+02  0.00000000000E+00 0.  1.
         11    1    3    3    0    0  0.79383501028E+00 -0.77176270632E+00 -0.12169576352E+01  0.16452288125E+01  0.51100000000E-03 0. -1.
        -11    1    3    3    0    0  0.19076906540E+02  0.36137585647E+01  0.13098854090E+02  0.23421519866E+02  0.51100000000E-03 0.  1.
         12    1    3    3    0    0  0.12324248676E+02 -0.98013369078E+01  0.16378914395E+02  0.22720522603E+02  0.00000000000E+00 0. -1.
</event>
<event>
 7    1  0.4931104E-009  0.4778723E+02  0.7816164E-02  0.1312668E+00
        -11   -1    0    0    0    0  0.00000000000E+00  0.00000000000E+00  0.45593999997E+02  0.45594000000E+02  0.51100000000E-03 0. -1.
         11   -1    0    0    0    0 -0.00000000000E+00 -0.00000000000E+00 -0.45593999997E+02  0.45594000000E+02  0.51100000000E-03 0.  1.
    9900012    2    1    2    0    0 -0.81527073283E+00  0.42361612065E+02  0.94050960504E+01  0.47787231864E+02  0.19999821360E+02 0.  0.
        -12    1    1    2    0    0  0.81527073283E+00 -0.42361612065E+02 -0.94050960504E+01  0.43400768136E+02  0.00000000000E+00 0.  1.
         11    1    3    3    0    0  0.62093528235E+01  0.15516349543E+02  0.14788682721E+01  0.16777968210E+02  0.51100000000E-03 0.  1.
        -11    1    3    3    0    0 -0.65247373724E+00  0.19014718428E+02  0.86247298624E+01  0.20889499859E+02  0.51100000000E-03 0. -1.
         12    1    3    3    0    0 -0.63721498191E+01  0.78305440936E+01 -0.69850208416E+00  0.10119763796E+02  0.00000000000E+00 0. -1.
</event>
<event>
 7    1  0.4931104E-009  0.4778727E+02  0.7816164E-02  0.1312668E+00
        -11   -1    0    0    0    0  0.00000000000E+00  0.00000000000E+00  0.45593999997E+02  0.45594000000E+02  0.51100000000E-03 0.  1.
         11   -1    0    0    0    0 -0.00000000000E+00 -0.00000000000E+00 -0.45593999997E+02  0.45594000000E+02  0.51100000000E-03 0. -1.
    9900012    2    1    2    0    0  0.20736809415E+02 -0.94405249416E+01 -0.36938935539E+02  0.47787265736E+02  0.19999975798E+02 0.  0.
        -12    1    1    2    0    0 -0.20736809415E+02  0.94405249416E+01  0.36938935539E+02  0.43400734264E+02  0.00000000000E+00 0.  1.
         11    1    3    3    0    0 -0.20518989111E+00  0.43928991858E+00 -0.17336473706E+01  0.18001699894E+01  0.51100000000E-03 0.  1.
        -11    1    3    3    0    0  0.51892925369E+01  0.29292666875E+01 -0.76527012040E+00  0.60079113657E+01  0.51100000000E-03 0. -1.
         12    1    3    3    0    0  0.15752706769E+02 -0.12809081548E+02 -0.34440018048E+02  0.39979184381E+02  0.00000000000E+00 0. -1.
</event>
<event>
 7    1  0.4931104E-009  0.4778727E+02  0.7816164E-02  0.1312668E+00
        -11   -1    0    0    0    0  0.00000000000E+00  0.00000000000E+00  0.45593999997E+02  0.45594000000E+02  0.51100000000E-03 0.  1.
         11   -1    0    0    0    0 -0.00000000000E+00 -0.00000000000E+00 -0.45593999997E+02  0.45594000000E+02  0.51100000000E-03 0. -1.
    9900012    2    1    2    0    0 -0.26596171083E+02 -0.27912499111E+02  0.19928860820E+02  0.47787269401E+02  0.19999992508E+02 0.  0.
        -12    1    1    2    0    0  0.26596171083E+02  0.27912499111E+02 -0.19928860820E+02  0.43400730599E+02  0.00000000000E+00 0.  1.
         11    1    3    3    0    0 -0.40871676029E+01 -0.50975515622E+01 -0.12422341023E+01  0.66507982054E+01  0.51100000000E-03 0. -1.
        -11    1    3    3    0    0 -0.76832138653E+01  0.34094096451E+00  0.58303299838E+01  0.96509462760E+01  0.51100000000E-03 0.  1.
         12    1    3    3    0    0 -0.14825789615E+02 -0.23155888514E+02  0.15340764939E+02  0.31485524920E+02  0.00000000000E+00 0. -1.
</event>
<event>
 7    1  0.4931104E-009  0.4778728E+02  0.7816164E-02  0.1312668E+00
        -11   -1    0    0    0    0  0.00000000000E+00  0.00000000000E+00  0.45593999997E+02  0.45594000000E+02  0.51100000000E-03 0. -1.
         11   -1    0    0    0    0 -0.00000000000E+00 -0.00000000000E+00 -0.45593999997E+02  0.45594000000E+02  0.51100000000E-03 0.  1.
    9900012    2    1    2    0    0  0.34620288291E+02 -0.65438428027E+01  0.25342377410E+02  0.47787281887E+02  0.20000049434E+02 0.  0.
        -12    1    1    2    0    0 -0.34620288291E+02  0.65438428027E+01 -0.25342377410E+02  0.43400718113E+02  0.00000000000E+00 0.  1.
         11    1    3    3    0    0  0.12336996615E+02 -0.11180387572E+02  0.11789260730E+02  0.20400716178E+02  0.51100000000E-03 0. -1.
        -11    1    3    3    0    0  0.35466411227E+01 -0.89080909351E+00  0.83030643734E-01  0.36577449943E+01  0.51100000000E-03 0.  1.
         12    1    3    3    0    0  0.18736650553E+02  0.55273538631E+01  0.13470086036E+02  0.23728820714E+02  0.00000000000E+00 0. -1.
</event>
<event>
 7    1  0.4931104E-009  0.4778727E+02  0.7816164E-02  0.1312668E+00
        -11   -1    0    0    0    0  0.00000000000E+00  0.00000000000E+00  0.45593999997E+02  0.45594000000E+02  0.51100000000E-03 0.  1.
         11   -1    0    0    0    0 -0.00000000000E+00 -0.00000000000E+00 -0.45593999997E+02  0.45594000000E+02  0.51100000000E-03 0. -1.
    9900012    2    1    2    0    0 -0.20033581524E+01 -0.30566810534E+02 -0.30745407306E+02  0.47787269355E+02  0.19999992298E+02 0.  0.
        -12    1    1    2    0    0  0.20033581524E+01  0.30566810534E+02  0.30745407306E+02  0.43400730645E+02  0.00000000000E+00 0.  1.
         11    1    3    3    0    0 -0.60392639430E+01 -0.12884575532E+02 -0.13185586744E+02  0.19399605502E+02  0.51100000000E-03 0. -1.
        -11    1    3    3    0    0 -0.28962837020E+01 -0.47238277090E+01 -0.10952876093E+02  0.12274709873E+02  0.51100000000E-03 0.  1.
        -12    1    3    3    0    0  0.69321894926E+01 -0.12958407293E+02 -0.66069444692E+01  0.16112953980E+02  0.00000000000E+00 0.  1.
</event>
<event>
 7    1  0.4931104E-009  0.4778726E+02  0.7816164E-02  0.1312668E+00
        -11   -1    0    0    0    0  0.00000000000E+00  0.00000000000E+00  0.45593999997E+02  0.45594000000E+02  0.51100000000E-03 0.  1.
         11   -1    0    0    0    0 -0.00000000000E+00 -0.00000000000E+00 -0.45593999997E+02  0.45594000000E+02  0.51100000000E-03 0. -1.
    9900012    2    1    2    0    0 -0.12516503629E+02 -0.29002246172E+02 -0.29762919551E+02  0.47787256615E+02  0.19999934212E+02 0.  0.
        -12    1    1    2    0    0  0.12516503629E+02  0.29002246172E+02  0.29762919551E+02  0.43400743385E+02  0.00000000000E+00 0.  1.
         11    1    3    3    0    0  0.97219217161E+00 -0.64917448043E+01 -0.65746680854E+01  0.92905419065E+01  0.51100000000E-03 0. -1.
        -11    1    3    3    0    0 -0.29544750759E+01  0.76024270441E+00  0.11056457805E+01  0.32448951904E+01  0.51100000000E-03 0.  1.
         12    1    3    3    0    0 -0.10534220724E+02 -0.23270744073E+02 -0.24293897246E+02  0.35251819519E+02  0.00000000000E+00 0. -1.
</event>
<event>
 7    1  0.4931104E-009  0.4778727E+02  0.7816164E-02  0.1312668E+00
        -11   -1    0    0    0    0  0.00000000000E+00  0.00000000000E+00  0.45593999997E+02  0.45594000000E+02  0.51100000000E-03 0. -1.
         11   -1    0    0    0    0 -0.00000000000E+00 -0.00000000000E+00 -0.45593999997E+02  0.45594000000E+02  0.51100000000E-03 0.  1.
    9900012    2    1    2    0    0  0.20316531850E+02  0.32442667484E+02  0.20453242770E+02  0.47787270977E+02  0.19999999694E+02 0.  0.
        -12    1    1    2    0    0 -0.20316531850E+02 -0.32442667484E+02 -0.20453242770E+02  0.43400729023E+02  0.00000000000E+00 0.  1.
         11    1    3    3    0    0  0.68587500784E+01  0.12753967172E+02  0.38641050516E+01  0.14987909773E+02  0.51100000000E-03 0. -1.
        -11    1    3    3    0    0  0.65892300645E+01  0.18089057616E+02  0.61671243483E+01  0.20215473808E+02  0.51100000000E-03 0.  1.
        -12    1    3    3    0    0  0.68685517075E+01  0.15996426958E+01  0.10422013370E+02  0.12583887396E+02  0.00000000000E+00 0.  1.
</event>
<event>
 7    1  0.4931104E-009  0.4778727E+02  0.7816164E-02  0.1312668E+00
        -11   -1    0    0    0    0  0.00000000000E+00  0.00000000000E+00  0.45593999997E+02  0.45594000000E+02  0.51100000000E-03 0. -1.
         11   -1    0    0    0    0 -0.00000000000E+00 -0.00000000000E+00 -0.45593999997E+02  0.45594000000E+02  0.51100000000E-03 0.  1.
    9900012    2    1    2    0    0  0.10949009184E+02  0.38887202080E+02  0.15859624814E+02  0.47787274350E+02  0.20000015071E+02 0.  0.
        -12    1    1    2    0    0 -0.10949009184E+02 -0.38887202080E+02 -0.15859624814E+02  0.43400725650E+02  0.00000000000E+00 0.  1.
         11    1    3    3    0    0  0.15191955975E+01  0.40458560095E+01 -0.57514544432E-01  0.43220613481E+01  0.51100000000E-03 0. -1.
        -11    1    3    3    0    0  0.42305549136E+01  0.55994551141E+01 -0.36382225627E+01  0.79049450427E+01  0.51100000000E-03 0.  1.
         12    1    3    3    0    0  0.51992586726E+01  0.29241890956E+02  0.19555361921E+02  0.35560267959E+02  0.00000000000E+00 0. -1.
</event>
<event>
 7    1  0.4931104E-009  0.4778727E+02  0.7816164E-02  0.1312668E+00
        -11   -1    0    0    0    0  0.00000000000E+00  0.00000000000E+00  0.45593999997E+02  0.45594000000E+02  0.51100000000E-03 0.  1.
         11   -1    0    0    0    0 -0.00000000000E+00 -0.00000000000E+00 -0.45593999997E+02  0.45594000000E+02  0.51100000000E-03 0. -1.
    9900012    2    1    2    0    0 -0.32232729634E+02 -0.13676119311E+02 -0.25644457999E+02  0.47787270454E+02  0.19999997308E+02 0.  0.
        -12    1    1    2    0    0  0.32232729634E+02  0.13676119311E+02  0.25644457999E+02  0.43400729546E+02  0.00000000000E+00 0.  1.
         11    1    3    3    0    0 -0.19366595727E+02  0.71112847395E+00 -0.17134940420E+02  0.25868454094E+02  0.51100000000E-03 0. -1.
        -11    1    3    3    0    0 -0.92030425621E+01 -0.65369761995E+01 -0.64996048530E+01  0.13025855586E+02  0.51100000000E-03 0.  1.
        -12    1    3    3    0    0 -0.36630913448E+01 -0.78502715855E+01 -0.20099127265E+01  0.88929607744E+01  0.00000000000E+00 0.  1.
</event>
<event>
 7    1  0.4931104E-009  0.4778727E+02  0.7816164E-02  0.1312668E+00
        -11   -1    0    0    0    0  0.00000000000E+00  0.00000000000E+00  0.45593999997E+02  0.45594000000E+02  0.51100000000E-03 0.  1.
         11   -1    0    0    0    0 -0.00000000000E+00 -0.00000000000E+00 -0.45593999997E+02  0.45594000000E+02  0.51100000000E-03 0. -1.
    9900012    2    1    2    0    0 -0.20701644099E+02  0.38093304064E+02  0.19914335990E+01  0.47787266242E+02  0.19999978105E+02 0.  0.
        -12    1    1    2    0    0  0.20701644099E+02 -0.38093304064E+02 -0.19914335990E+01  0.43400733758E+02  0.00000000000E+00 0.  1.
         11    1    3    3    0    0 -0.38640301312E+01  0.17553850304E+02  0.91118531947E+00  0.17997184455E+02  0.51100000000E-03 0. -1.
        -11    1    3    3    0    0  0.13371754491E+01 -0.55583626953E+00 -0.11598033173E+01  0.18552994735E+01  0.51100000000E-03 0.  1.
         12    1    3    3    0    0 -0.18174789417E+02  0.21095290030E+02  0.22400515969E+01  0.27934782314E+02  0.00000000000E+00 0. -1.
</event>
<event>
 7    1  0.4931104E-009  0.4778726E+02  0.7816164E-02  0.1312668E+00
        -11   -1    0    0    0    0  0.00000000000E+00  0.00000000000E+00  0.45593999997E+02  0.45594000000E+02  0.51100000000E-03 0. -1.
         11   -1    0    0    0    0 -0.00000000000E+00 -0.00000000000E+00 -0.45593999997E+02  0.45594000000E+02  0.51100000000E-03 0.  1.
    9900012    2    1    2    0    0 -0.20469926525E+02 -0.22043807214E+02  0.31283817238E+02  0.47787256350E+02  0.19999933002E+02 0.  0.
        -12    1    1    2    0    0  0.20469926525E+02  0.22043807214E+02 -0.31283817238E+02  0.43400743650E+02  0.00000000000E+00 0.  1.
         11    1    3    3    0    0 -0.11097184804E+02 -0.10280990043E+02  0.11191622173E+02  0.18817509770E+02  0.51100000000E-03 0. -1.
        -11    1    3    3    0    0 -0.10347002449E+02 -0.58618865272E+01  0.19655451627E+02  0.22973004859E+02  0.51100000000E-03 0.  1.
        -12    1    3    3    0    0  0.97426072789E+00 -0.59009306442E+01  0.43674343738E+00  0.59967417206E+01  0.00000000000E+00 0.  1.
</event>
<event>
 7    1  0.4931104E-009  0.4778727E+02  0.7816164E-02  0.1312668E+00
        -11   -1    0    0    0    0  0.00000000000E+00  0.00000000000E+00  0.45593999997E+02  0.45594000000E+02  0.51100000000E-03 0.  1.
         11   -1    0    0    0    0 -0.00000000000E+00 -0.00000000000E+00 -0.45593999997E+02  0.45594000000E+02  0.51100000000E-03 0. -1.
    9900012    2    1    2    0    0  0.29550185938E+02  0.26454488118E+02 -0.17622990893E+02  0.47787271451E+02  0.20000001854E+02 0.  0.
        -12    1    1    2    0    0 -0.29550185938E+02 -0.26454488118E+02  0.17622990893E+02  0.43400728549E+02  0.00000000000E+00 0.  1.
         11    1    3    3    0    0  0.26035545416E+02  0.26692827289E+02 -0.13040346528E+02  0.39501990983E+02  0.51100000000E-03 0. -1.
        -11    1    3    3    0    0 -0.47976931929E+00  0.18258801958E+01 -0.32130963716E-01  0.18881339331E+01  0.51100000000E-03 0.  1.
         12    1    3    3    0    0  0.39944098420E+01 -0.20642193671E+01 -0.45505134009E+01  0.63971465352E+01  0.00000000000E+00 0. -1.
</event>
<event>
 7    1  0.4931104E-009  0.4778728E+02  0.7816164E-02  0.1312668E+00
        -11   -1    0    0    0    0  0.00000000000E+00  0.00000000000E+00  0.45593999997E+02  0.45594000000E+02  0.51100000000E-03 0.  1.
         11   -1    0    0    0    0 -0.00000000000E+00 -0.00000000000E+00 -0.45593999997E+02  0.45594000000E+02  0.51100000000E-03 0. -1.
    9900012    2    1    2    0    0 -0.43161912011E+02 -0.23155036908E+00 -0.45407666070E+01  0.47787276211E+02  0.20000023559E+02 0.  0.
        -12    1    1    2    0    0  0.43161912011E+02  0.23155036908E+00  0.45407666070E+01  0.43400723789E+02  0.00000000000E+00 0.  1.
         11    1    3    3    0    0 -0.88228639322E+01 -0.57947872504E+01 -0.21704147518E+01  0.10776510924E+02  0.51100000000E-03 0. -1.
        -11    1    3    3    0    0 -0.50828531440E+01 -0.26784678316E+01  0.24317859391E+01  0.62388435726E+01  0.51100000000E-03 0.  1.
        -12    1    3    3    0    0 -0.29256194934E+02  0.82417047130E+01 -0.48021377943E+01  0.30771921715E+02  0.00000000000E+00 0.  1.
</event>
<event>
 7    1  0.4931104E-009  0.4778725E+02  0.7816164E-02  0.1312668E+00
        -11   -1    0    0    0    0  0.00000000000E+00  0.00000000000E+00  0.45593999997E+02  0.45594000000E+02  0.51100000000E-03 0.  1.
         11   -1    0    0    0    0 -0.00000000000E+00 -0.00000000000E+00 -0.45593999997E+02  0.45594000000E+02  0.51100000000E-03 0. -1.
    9900012    2    1    2    0    0  0.95709238545E+01  0.19008875662E+02 -0.37824394856E+02  0.47787253652E+02  0.19999920701E+02 0.  0.
        -12    1    1    2    0    0 -0.95709238545E+01 -0.19008875662E+02  0.37824394856E+02  0.43400746348E+02  0.00000000000E+00 0.  1.
         11    1    3    3    0    0  0.35534682781E+01  0.91446391916E+01 -0.19251940958E+01  0.99978965445E+01  0.51100000000E-03 0.  1.
        -11    1    3    3    0    0  0.18688402809E+01  0.37254408209E+01 -0.95851227090E+01  0.10452083568E+02  0.51100000000E-03 0. -1.
        -12    1    3    3    0    0  0.41486152956E+01  0.61387956498E+01 -0.26314078051E+02  0.27337273539E+02  0.00000000000E+00 0.  1.
</event>
