<event>
 7    1  0.3014423E-011  0.5052888E+02  0.7816164E-02  0.1300439E+00
        -11   -1    0    0    0    0  0.00000000000E+00  0.00000000000E+00  0.45593999997E+02  0.45594000000E+02  0.51100000000E-03 0.  1.
         11   -1    0    0    0    0 -0.00000000000E+00 -0.00000000000E+00 -0.45593999997E+02  0.45594000000E+02  0.51100000000E-03 0. -1.
    9900012    2    1    2    0    0 -0.27776090238E+02  0.22659513078E+01 -0.29606053567E+02  0.50528878857E+02  0.30000057775E+02 0.  0.
        -12    1    1    2    0    0  0.27776090238E+02 -0.22659513078E+01  0.29606053567E+02  0.40659121143E+02  0.00000000000E+00 0.  1.
         11    1    3    3    0    0 -0.14873048548E+02  0.53573627915E+01 -0.72481391144E+01  0.17390929535E+02  0.51100000000E-03 0. -1.
        -11    1    3    3    0    0 -0.16560881073E+00  0.65859734838E+01 -0.13079950137E+02  0.14645394118E+02  0.51100000000E-03 0.  1.
        -12    1    3    3    0    0 -0.12737432879E+02 -0.96773849674E+01 -0.92779643156E+01  0.18492555205E+02  0.00000000000E+00 0.  1.
</event>
<event>
 7    1  0.4050776E-011  0.5052880E+02  0.7816164E-02  0.1300439E+00
        -11   -1    0    0    0    0  0.00000000000E+00  0.00000000000E+00  0.45593999997E+02  0.45594000000E+02  0.51100000000E-03 0.  1.
         11   -1    0    0    0    0 -0.00000000000E+00 -0.00000000000E+00 -0.45593999997E+02  0.45594000000E+02  0.51100000000E-03 0. -1.
    9900012    2    1    2    0    0  0.10012693529E+02  0.37759695761E+02 -0.11274821123E+02  0.50528803660E+02  0.29999829204E+02 0.  0.
        -12    1    1    2    0    0 -0.10012693529E+02 -0.37759695761E+02  0.11274821123E+02  0.40659196340E+02  0.00000000000E+00 0.  1.
         11    1    3    3    0    0  0.10647789647E+02  0.15266806973E+02  0.17634942333E+01  0.18696543308E+02  0.51100000000E-03 0. -1.
        -11    1    3    3    0    0 -0.45535507311E+01  0.11798050283E+00  0.15779724385E+01  0.48206577287E+01  0.51100000000E-03 0.  1.
         12    1    3    3    0    0  0.39184546127E+01  0.22374908285E+02 -0.14616287795E+02  0.27011602623E+02  0.00000000000E+00 0. -1.
</event>
<event>
 7    1  0.3014423E-011  0.5052886E+02  0.7816164E-02  0.1300439E+00
        -11   -1    0    0    0    0  0.00000000000E+00  0.00000000000E+00  0.45593999997E+02  0.45594000000E+02  0.51100000000E-03 0. -1.
         11   -1    0    0    0    0 -0.00000000000E+00 -0.00000000000E+00 -0.45593999997E+02  0.45594000000E+02  0.51100000000E-03 0.  1.
    9900012    2    1    2    0    0 -0.12381812734E+02 -0.36181287621E+02  0.13811970200E+02  0.50528863495E+02  0.30000011080E+02 0.  0.
        -12    1    1    2    0    0  0.12381812734E+02  0.36181287621E+02 -0.13811970200E+02  0.40659136505E+02  0.00000000000E+00 0.  1.
         11    1    3    3    0    0  0.44024746163E+01 -0.73258279233E+01  0.14340081677E+02  0.16693935434E+02  0.51100000000E-03 0.  1.
        -11    1    3    3    0    0 -0.34429190311E+01 -0.92515467174E+01 -0.20165402433E+01  0.10075278802E+02  0.51100000000E-03 0. -1.
        -12    1    3    3    0    0 -0.13341368319E+02 -0.19603912980E+02  0.14884287671E+01  0.23759649260E+02  0.00000000000E+00 0.  1.
</event>
<event>
 7    1  0.3014423E-011  0.5052887E+02  0.7816164E-02  0.1300439E+00
        -11   -1    0    0    0    0  0.00000000000E+00  0.00000000000E+00  0.45593999997E+02  0.45594000000E+02  0.51100000000E-03 0.  1.
         11   -1    0    0    0    0 -0.00000000000E+00 -0.00000000000E+00 -0.45593999997E+02  0.45594000000E+02  0.51100000000E-03 0. -1.
    9900012    2    1    2    0    0 -0.11848581751E+02 -0.14075999073E+02 -0.36257997986E+02  0.50528867478E+02  0.30000023187E+02 0.  0.
        -12    1    1    2    0    0  0.11848581751E+02  0.14075999073E+02  0.36257997986E+02  0.40659132522E+02  0.00000000000E+00 0.  1.
         11    1    3    3    0    0 -0.12536653472E+02 -0.11641148713E+02 -0.91722800554E+01  0.19411716702E+02  0.51100000000E-03 0. -1.
        -11    1    3    3    0    0  0.85685074173E+00 -0.33987850626E+01  0.47667266124E+00  0.35373931337E+01  0.51100000000E-03 0.  1.
         12    1    3    3    0    0 -0.16877902136E+00  0.96393470283E+00 -0.27562390592E+02  0.27579757643E+02  0.00000000000E+00 0. -1.
</event>
<event>
 7    1  0.3014423E-011  0.5052885E+02  0.7816164E-02  0.1300439E+00
        -11   -1    0    0    0    0  0.00000000000E+00  0.00000000000E+00  0.45593999997E+02  0.45594000000E+02  0.51100000000E-03 0.  1.
         11   -1    0    0    0    0 -0.00000000000E+00 -0.00000000000E+00 -0.45593999997E+02  0.45594000000E+02  0.51100000000E-03 0. -1.
    9900012    2    1    2    0    0  0.39203756163E+02 -0.12129510658E+01 -0.10712637232E+02  0.50528851656E+02  0.29999975094E+02 0.  0.
        -12    1    1    2    0    0 -0.39203756163E+02  0.12129510658E+01  0.10712637232E+02  0.40659148344E+02  0.00000000000E+00 0.  1.
         11    1    3    3    0    0  0.97164638936E+01  0.56124702201E+01 -0.91611940066E+01  0.14485750531E+02  0.51100000000E-03 0.  1.
        -11    1    3    3    0    0  0.65303260065E+01  0.46676786077E+01 -0.59553326963E+01  0.99949171642E+01  0.51100000000E-03 0. -1.
        -12    1    3    3    0    0  0.22956966263E+02 -0.11493099894E+02  0.44038894705E+01  0.26048183960E+02  0.00000000000E+00 0.  1.
</event>
<event>
 7    1  0.3014423E-011  0.5052886E+02  0.7816164E-02  0.1300439E+00
        -11   -1    0    0    0    0  0.00000000000E+00  0.00000000000E+00  0.45593999997E+02  0.45594000000E+02  0.51100000000E-03 0. -1.
         11   -1    0    0    0    0 -0.00000000000E+00 -0.00000000000E+00 -0.45593999997E+02  0.45594000000E+02  0.51100000000E-03 0.  1.
    9900012    2    1    2    0    0  0.37870957297E+02  0.20925034314E+01 -0.14648468173E+02  0.50528860843E+02  0.30000003019E+02 0.  0.
        -12    1    1    2    0    0 -0.37870957297E+02 -0.20925034314E+01  0.14648468173E+02  0.40659139157E+02  0.00000000000E+00 0.  1.
         11    1    3    3    0    0  0.20360159501E+02 -0.46183219786E+01 -0.11278331070E+02  0.23729006401E+02  0.51100000000E-03 0. -1.
        -11    1    3    3    0    0  0.63768987591E+01 -0.66346540969E+01 -0.92676848817E+00  0.92489119826E+01  0.51100000000E-03 0.  1.
         12    1    3    3    0    0  0.11133899036E+02  0.13345479507E+02 -0.24433686147E+01  0.17550942459E+02  0.00000000000E+00 0. -1.
</event>
<event>
 7    1  0.3014423E-011  0.5052885E+02  0.7816164E-02  0.1300439E+00
        -11   -1    0    0    0    0  0.00000000000E+00  0.00000000000E+00  0.45593999997E+02  0.45594000000E+02  0.51100000000E-03 0. -1.
         11   -1    0    0    0    0 -0.00000000000E+00 -0.00000000000E+00 -0.45593999997E+02  0.45594000000E+02  0.51100000000E-03 0.  1.
    9900012    2    1    2    0    0 -0.30935128523E+02  0.22281871984E+02  0.14131624552E+02  0.50528845947E+02  0.29999957741E+02 0.  0.
        -12    1    1    2    0    0  0.30935128523E+02 -0.22281871984E+02 -0.14131624552E+02  0.40659154053E+02  0.00000000000E+00 0.  1.
         11    1    3    3    0    0 -0.12381814285E+02  0.12391045179E+02  0.32292771869E+01  0.17812230546E+02  0.51100000000E-03 0. -1.
        -11    1    3    3    0    0 -0.17151467503E+02  0.15830291451E+02  0.43131100565E+01  0.23735498384E+02  0.51100000000E-03 0.  1.
        -12    1    3    3    0    0 -0.14018467340E+01 -0.59394646462E+01  0.65892373091E+01  0.89811170165E+01  0.00000000000E+00 0.  1.
</event>
<event>
 7    1  0.3014423E-011  0.5052886E+02  0.7816164E-02  0.1300439E+00
        -11   -1    0    0    0    0  0.00000000000E+00  0.00000000000E+00  0.45593999997E+02  0.45594000000E+02  0.51100000000E-03 0.  1.
         11   -1    0    0    0    0 -0.00000000000E+00 -0.00000000000E+00 -0.45593999997E+02  0.45594000000E+02  0.51100000000E-03 0. -1.
    9900012    2    1    2    0    0  0.19613840369E+02  0.25005574657E+02 -0.25361076670E+02  0.50528859480E+02  0.29999998875E+02 0.  0.
        -12    1    1    2    0    0 -0.19613840369E+02 -0.25005574657E+02  0.25361076670E+02  0.40659140520E+02  0.00000000000E+00 0.  1.
         11    1    3    3    0    0  0.14925860364E+01 -0.20992433393E+01  0.13675173291E+01  0.29162886655E+01  0.51100000000E-03 0. -1.
        -11    1    3    3    0    0 -0.21496872556E+01 -0.25803149375E+01 -0.32809864005E+01  0.46951094231E+01  0.51100000000E-03 0.  1.
         12    1    3    3    0    0  0.20270941588E+02  0.29685132934E+02 -0.23447607599E+02  0.42917461391E+02  0.00000000000E+00 0. -1.
</event>
<event>
 7    1  0.3014423E-011  0.5052888E+02  0.7816164E-02  0.1300439E+00
        -11   -1    0    0    0    0  0.00000000000E+00  0.00000000000E+00  0.45593999997E+02  0.45594000000E+02  0.51100000000E-03 0. -1.
         11   -1    0    0    0    0 -0.00000000000E+00 -0.00000000000E+00 -0.45593999997E+02  0.45594000000E+02  0.51100000000E-03 0.  1.
    9900012    2    1    2    0    0 -0.24596495479E+02 -0.31705567486E+02 -0.65523317757E+01  0.50528884772E+02  0.30000075751E+02 0.  0.
        -12    1    1    2    0    0  0.24596495479E+02  0.31705567486E+02  0.65523317757E+01  0.40659115228E+02  0.00000000000E+00 0.  1.
         11    1    3    3    0    0  0.24362731110E+00 -0.36382111373E+00 -0.33270395312E+01  0.33557282925E+01  0.51100000000E-03 0. -1.
        -11    1    3    3    0    0  0.17006515229E+01 -0.87117754132E+01 -0.80244789916E+01  0.11965764071E+02  0.51100000000E-03 0.  1.
         12    1    3    3    0    0 -0.26540774313E+02 -0.22629970959E+02  0.47991867471E+01  0.35207392408E+02  0.00000000000E+00 0. -1.
</event>
<event>
 7    1  0.3014423E-011  0.5052886E+02  0.7816164E-02  0.1300439E+00
        -11   -1    0    0    0    0  0.00000000000E+00  0.00000000000E+00  0.45593999997E+02  0.45594000000E+02  0.51100000000E-03 0.  1.
         11   -1    0    0    0    0 -0.00000000000E+00 -0.00000000000E+00 -0.45593999997E+02  0.45594000000E+02  0.51100000000E-03 0. -1.
    9900012    2    1    2    0    0 -0.12480497879E+02 -0.34598746334E+02  0.17330023584E+02  0.50528858437E+02  0.29999995706E+02 0.  0.
        -12    1    1    2    0    0  0.12480497879E+02  0.34598746334E+02 -0.17330023584E+02  0.40659141563E+02  0.00000000000E+00 0.  1.
         11    1    3    3    0    0 -0.67494795204E+01 -0.16224267163E+02  0.10913490738E+01  0.17606060373E+02  0.51100000000E-03 0. -1.
        -11    1    3    3    0    0  0.16746018701E+01 -0.14716343666E+02  0.12089651512E+00  0.14811808753E+02  0.51100000000E-03 0.  1.
        -12    1    3    3    0    0 -0.74056202283E+01 -0.36581355052E+01  0.16117777995E+02  0.18110989312E+02  0.00000000000E+00 0.  1.
</event>
<event>
 7    1  0.3014423E-011  0.5052886E+02  0.7816164E-02  0.1300439E+00
        -11   -1    0    0    0    0  0.00000000000E+00  0.00000000000E+00  0.45593999997E+02  0.45594000000E+02  0.51100000000E-03 0.  1.
         11   -1    0    0    0    0 -0.00000000000E+00 -0.00000000000E+00 -0.45593999997E+02  0.45594000000E+02  0.51100000000E-03 0. -1.
    9900012    2    1    2    0    0  0.23294644913E+01 -0.33580000721E+02 -0.22806193826E+02  0.50528864126E+02  0.30000012997E+02 0.  0.
        -12    1    1    2    0    0 -0.23294644913E+01  0.33580000721E+02  0.22806193826E+02  0.40659135874E+02  0.00000000000E+00 0.  1.
         11    1    3    3    0    0 -0.52338980899E+01 -0.19604550230E+02 -0.16653695992E+02  0.26250288939E+02  0.51100000000E-03 0. -1.
        -11    1    3    3    0    0  0.21599840978E+01 -0.16388067394E+02 -0.12197701327E+01  0.16574743547E+02  0.51100000000E-03 0.  1.
         12    1    3    3    0    0  0.54033784834E+01  0.24126169033E+01 -0.49327277016E+01  0.77038316399E+01  0.00000000000E+00 0. -1.
</event>
<event>
 7    1  0.3014423E-011  0.5052886E+02  0.7816164E-02  0.1300439E+00
        -11   -1    0    0    0    0  0.00000000000E+00  0.00000000000E+00  0.45593999997E+02  0.45594000000E+02  0.51100000000E-03 0.  1.
         11   -1    0    0    0    0 -0.00000000000E+00 -0.00000000000E+00 -0.45593999997E+02  0.45594000000E+02  0.51100000000E-03 0. -1.
    9900012    2    1    2    0    0  0.22219024424E+02 -0.10957162075E+02 -0.32240056260E+02  0.50528859887E+02  0.30000000113E+02 0.  0.
        -12    1    1    2    0    0 -0.22219024424E+02  0.10957162075E+02  0.32240056260E+02  0.40659140113E+02  0.00000000000E+00 0.  1.
         11    1    3    3    0    0  0.16604351268E+01 -0.73841668036E+01  0.18140558548E+01  0.77829148203E+01  0.51100000000E-03 0. -1.
        -11    1    3    3    0    0 -0.23146691233E+01 -0.69804875874E+00 -0.14636939207E+01  0.28261927348E+01  0.51100000000E-03 0.  1.
         12    1    3    3    0    0  0.22873258420E+02 -0.28749465130E+01 -0.32590418194E+02  0.39919752332E+02  0.00000000000E+00 0. -1.
</event>
<event>
 7    1  0.3014423E-011  0.5052886E+02  0.7816164E-02  0.1300439E+00
        -11   -1    0    0    0    0  0.00000000000E+00  0.00000000000E+00  0.45593999997E+02  0.45594000000E+02  0.51100000000E-03 0. -1.
         11   -1    0    0    0    0 -0.00000000000E+00 -0.00000000000E+00 -0.45593999997E+02  0.45594000000E+02  0.51100000000E-03 0.  1.
    9900012    2    1    2    0    0 -0.18813749001E+02 -0.28050890006E+02  0.22635288956E+02  0.50528857268E+02  0.29999992151E+02 0.  0.
        -12    1    1    2    0    0  0.18813749001E+02  0.28050890006E+02 -0.22635288956E+02  0.40659142732E+02  0.00000000000E+00 0.  1.
         11    1    3    3    0    0 -0.16915215152E+02 -0.12147596682E+02  0.45718716312E+01  0.21321130816E+02  0.51100000000E-03 0. -1.
        -11    1    3    3    0    0 -0.31838389670E+01 -0.13331283440E+01  0.13427257049E+02  0.13863812385E+02  0.51100000000E-03 0.  1.
        -12    1    3    3    0    0  0.12853051178E+01 -0.14570164979E+02  0.46361602763E+01  0.15343914067E+02  0.00000000000E+00 0.  1.
</event>
<event>
 7    1  0.3014423E-011  0.5052886E+02  0.7816164E-02  0.1300439E+00
        -11   -1    0    0    0    0  0.00000000000E+00  0.00000000000E+00  0.45593999997E+02  0.45594000000E+02  0.51100000000E-03 0. -1.
         11   -1    0    0    0    0 -0.00000000000E+00 -0.00000000000E+00 -0.45593999997E+02  0.45594000000E+02  0.51100000000E-03 0.  1.
    9900012    2    1    2    0    0 -0.29655040370E+02  0.27729696393E+02  0.21927353106E+01  0.50528861180E+02  0.30000004044E+02 0.  0.
        -12    1    1    2    0    0  0.29655040370E+02 -0.27729696393E+02 -0.21927353106E+01  0.40659138820E+02  0.00000000000E+00 0.  1.
         11    1    3    3    0    0 -0.12648515815E+02  0.12205143402E+02 -0.10180623221E+02  0.20312448577E+02  0.51100000000E-03 0. -1.
        -11    1    3    3    0    0 -0.62024207686E+01  0.94580710598E+01 -0.17313329692E+01  0.11442143404E+02  0.51100000000E-03 0.  1.
        -12    1    3    3    0    0 -0.10804103786E+02  0.60664819316E+01  0.14104691500E+02  0.18774269199E+02  0.00000000000E+00 0.  1.
</event>
<event>
 7    1  0.3014423E-011  0.5052885E+02  0.7816164E-02  0.1300439E+00
        -11   -1    0    0    0    0  0.00000000000E+00  0.00000000000E+00  0.45593999997E+02  0.45594000000E+02  0.51100000000E-03 0.  1.
         11   -1    0    0    0    0 -0.00000000000E+00 -0.00000000000E+00 -0.45593999997E+02  0.45594000000E+02  0.51100000000E-03 0. -1.
    9900012    2    1    2    0    0  0.12904502073E+02 -0.27859589978E+02 -0.26654902718E+02  0.50528846463E+02  0.29999959309E+02 0.  0.
        -12    1    1    2    0    0 -0.12904502073E+02  0.27859589978E+02  0.26654902718E+02  0.40659153537E+02  0.00000000000E+00 0.  1.
         11    1    3    3    0    0  0.12498907407E+02 -0.91271863203E+01 -0.13570678085E+02  0.20583768373E+02  0.51100000000E-03 0. -1.
        -11    1    3    3    0    0  0.97361426309E+01 -0.10901697385E+02 -0.86369669307E+01  0.16977534486E+02  0.51100000000E-03 0.  1.
         12    1    3    3    0    0 -0.93305479649E+01 -0.78307062720E+01 -0.44472577019E+01  0.12967543604E+02  0.00000000000E+00 0. -1.
</event>
<event>
 7    1  0.3014423E-011  0.5052883E+02  0.7816164E-02  0.1300439E+00
        -11   -1    0    0    0    0  0.00000000000E+00  0.00000000000E+00  0.45593999997E+02  0.45594000000E+02  0.51100000000E-03 0. -1.
         11   -1    0    0    0    0 -0.00000000000E+00 -0.00000000000E+00 -0.45593999997E+02  0.45594000000E+02  0.51100000000E-03 0.  1.
    9900012    2    1    2    0    0 -0.13758760181E+02 -0.19121887579E+02  0.33139377093E+02  0.50528826614E+02  0.29999898977E+02 0.  0.
        -12    1    1    2    0    0  0.13758760181E+02  0.19121887579E+02 -0.33139377093E+02  0.40659173386E+02  0.00000000000E+00 0.  1.
         11    1    3    3    0    0  0.30300466470E+01 -0.70241245920E+01  0.18292513623E+02  0.19827646453E+02  0.51100000000E-03 0.  1.
        -11    1    3    3    0    0 -0.29276203351E+01 -0.58362457422E+00  0.12112869465E+02  0.12475303019E+02  0.51100000000E-03 0. -1.
         12    1    3    3    0    0 -0.13861186493E+02 -0.11514138413E+02  0.27339940046E+01  0.18225877142E+02  0.00000000000E+00 0. -1.
</event>
<event>
 7    1  0.3014423E-011  0.5052886E+02  0.7816164E-02  0.1300439E+00
        -11   -1    0    0    0    0  0.00000000000E+00  0.00000000000E+00  0.45593999997E+02  0.45594000000E+02  0.51100000000E-03 0.  1.
         11   -1    0    0    0    0 -0.00000000000E+00 -0.00000000000E+00 -0.45593999997E+02  0.45594000000E+02  0.51100000000E-03 0. -1.
    9900012    2    1    2    0    0  0.37101401153E+02 -0.69905143787E+01 -0.15092535119E+02  0.50528857422E+02  0.29999992621E+02 0.  0.
        -12    1    1    2    0    0 -0.37101401153E+02  0.69905143787E+01  0.15092535119E+02  0.40659142578E+02  0.00000000000E+00 0.  1.
         11    1    3    3    0    0  0.17297221231E+02 -0.16242362048E+01 -0.17830705723E+01  0.17464574043E+02  0.51100000000E-03 0. -1.
        -11    1    3    3    0    0  0.10507138162E+02  0.68074991970E+01  0.37326102467E+00  0.12525227412E+02  0.51100000000E-03 0.  1.
         12    1    3    3    0    0  0.92970417602E+01 -0.12173777371E+02 -0.13682725572E+02  0.20539055968E+02  0.00000000000E+00 0. -1.
</event>
<event>
 7    1  0.3014423E-011  0.5052886E+02  0.7816164E-02  0.1300439E+00
        -11   -1    0    0    0    0  0.00000000000E+00  0.00000000000E+00  0.45593999997E+02  0.45594000000E+02  0.51100000000E-03 0. -1.
         11   -1    0    0    0    0 -0.00000000000E+00 -0.00000000000E+00 -0.45593999997E+02  0.45594000000E+02  0.51100000000E-03 0.  1.
    9900012    2    1    2    0    0  0.26356869152E+02  0.24046727334E+02  0.19499644360E+02  0.50528858627E+02  0.29999996284E+02 0.  0.
        -12    1    1    2    0    0 -0.26356869152E+02 -0.24046727334E+02 -0.19499644360E+02  0.40659141373E+02  0.00000000000E+00 0.  1.
         11    1    3    3    0    0  0.24244543409E+02  0.10571344109E+02  0.59737774929E+01  0.27115258051E+02  0.51100000000E-03 0. -1.
        -11    1    3    3    0    0  0.42738048302E+01 -0.10686046612E+01  0.32738206243E+01  0.54886451324E+01  0.51100000000E-03 0.  1.
        -12    1    3    3    0    0 -0.21614790874E+01  0.14543987886E+02  0.10252046243E+02  0.17924955444E+02  0.00000000000E+00 0.  1.
</event>
<event>
 7    1  0.3014423E-011  0.5052886E+02  0.7816164E-02  0.1300439E+00
        -11   -1    0    0    0    0  0.00000000000E+00  0.00000000000E+00  0.45593999997E+02  0.45594000000E+02  0.51100000000E-03 0.  1.
         11   -1    0    0    0    0 -0.00000000000E+00 -0.00000000000E+00 -0.45593999997E+02  0.45594000000E+02  0.51100000000E-03 0. -1.
    9900012    2    1    2    0    0 -0.20544083291E+02  0.28542711216E+02 -0.20406371432E+02  0.50528859369E+02  0.29999998537E+02 0.  0.
        -12    1    1    2    0    0  0.20544083291E+02 -0.28542711216E+02  0.20406371432E+02  0.40659140631E+02  0.00000000000E+00 0.  1.
         11    1    3    3    0    0 -0.10644887881E+02  0.19014813044E+02 -0.19903619929E+02  0.29513231603E+02  0.51100000000E-03 0. -1.
        -11    1    3    3    0    0  0.40359338419E+00  0.57520124829E+01 -0.63538359315E+01  0.85801961824E+01  0.51100000000E-03 0.  1.
         12    1    3    3    0    0 -0.10302788794E+02  0.37758856888E+01  0.58510844285E+01  0.12435431583E+02  0.00000000000E+00 0. -1.
</event>
<event>
 7    1  0.3014423E-011  0.5052885E+02  0.7816164E-02  0.1300439E+00
        -11   -1    0    0    0    0  0.00000000000E+00  0.00000000000E+00  0.45593999997E+02  0.45594000000E+02  0.51100000000E-03 0.  1.
         11   -1    0    0    0    0 -0.00000000000E+00 -0.00000000000E+00 -0.45593999997E+02  0.45594000000E+02  0.51100000000E-03 0. -1.
    9900012    2    1    2    0    0  0.22894641126E+02 -0.19017764738E+01 -0.33546765459E+02  0.50528845818E+02  0.29999957347E+02 0.  0.
        -12    1    1    2    0    0 -0.22894641126E+02  0.19017764738E+01  0.33546765459E+02  0.40659154182E+02  0.00000000000E+00 0.  1.
         11    1    3    3    0    0  0.14577863914E+02  0.73361682694E+01 -0.44543531842E+01  0.16916700143E+02  0.51100000000E-03 0. -1.
        -11    1    3    3    0    0 -0.63837826452E+00  0.44596741191E+00  0.68952323917E+00  0.10401232137E+01  0.51100000000E-03 0.  1.
         12    1    3    3    0    0  0.89551554765E+01 -0.96839121551E+01 -0.29781935514E+02  0.32572022461E+02  0.00000000000E+00 0. -1.
</event>
<event>
 7    1  0.3014423E-011  0.5052886E+02  0.7816164E-02  0.1300439E+00
        -11   -1    0    0    0    0  0.00000000000E+00  0.00000000000E+00  0.45593999997E+02  0.45594000000E+02  0.51100000000E-03 0. -1.
         11   -1    0    0    0    0 -0.00000000000E+00 -0.00000000000E+00 -0.45593999997E+02  0.45594000000E+02  0.51100000000E-03 0.  1.
    9900012    2    1    2    0    0  0.15119816099E+02 -0.37628120391E+02 -0.29464021811E+01  0.50528861189E+02  0.30000004071E+02 0.  0.
        -12    1    1    2    0    0 -0.15119816099E+02  0.37628120391E+02  0.29464021811E+01  0.40659138811E+02  0.00000000000E+00 0.  1.
         11    1    3    3    0    0  0.25080887628E+01 -0.31273912334E+02 -0.34076629431E+01  0.31558838206E+02  0.51100000000E-03 0. -1.
        -11    1    3    3    0    0  0.41927566327E+01 -0.85175009678E+01  0.29271792183E+01  0.99345563239E+01  0.51100000000E-03 0.  1.
        -12    1    3    3    0    0  0.84189707033E+01  0.21632929109E+01 -0.24659184563E+01  0.90354666595E+01  0.00000000000E+00 0.  1.
</event>
<event>
 7    1  0.3014423E-011  0.5052889E+02  0.7816164E-02  0.1300439E+00
        -11   -1    0    0    0    0  0.00000000000E+00  0.00000000000E+00  0.45593999997E+02  0.45594000000E+02  0.51100000000E-03 0.  1.
         11   -1    0    0    0    0 -0.00000000000E+00 -0.00000000000E+00 -0.45593999997E+02  0.45594000000E+02  0.51100000000E-03 0. -1.
    9900012    2    1    2    0    0  0.18072169200E+02 -0.45064262730E+01 -0.36142103784E+02  0.50528894706E+02  0.30000105948E+02 0.  0.
        -12    1    1    2    0    0 -0.18072169200E+02  0.45064262730E+01  0.36142103784E+02  0.40659105294E+02  0.00000000000E+00 0.  1.
         11    1    3    3    0    0  0.19863011592E-01  0.23471123081E+01 -0.22119859847E+01  0.32252461896E+01  0.51100000000E-03 0.  1.
        -11    1    3    3    0    0  0.95716468096E+01  0.39615253744E+01 -0.31738648012E+02  0.33386402679E+02  0.51100000000E-03 0. -1.
         12    1    3    3    0    0  0.84806593789E+01 -0.10815063956E+02 -0.21914697873E+01  0.13917245837E+02  0.00000000000E+00 0. -1.
</event>
<event>
 7    1  0.3014423E-011  0.5052887E+02  0.7816164E-02  0.1300439E+00
        -11   -1    0    0    0    0  0.00000000000E+00  0.00000000000E+00  0.45593999997E+02  0.45594000000E+02  0.51100000000E-03 0.  1.
         11   -1    0    0    0    0 -0.00000000000E+00 -0.00000000000E+00 -0.45593999997E+02  0.45594000000E+02  0.51100000000E-03 0. -1.
    9900012    2    1    2    0    0 -0.96498775472E+01  0.22752032076E+02 -0.32286060708E+02  0.50528870443E+02  0.30000032198E+02 0.  0.
        -12    1    1    2    0    0  0.96498775472E+01 -0.22752032076E+02  0.32286060708E+02  0.40659129557E+02  0.00000000000E+00 0.  1.
         11    1    3    3    0    0 -0.15503854761E+02  0.15291617081E+02 -0.28536739830E+02  0.35896358949E+02  0.51100000000E-03 0. -1.
        -11    1    3    3    0    0 -0.28117833235E+01  0.45506717896E+00  0.80662751943E-01  0.28495119471E+01  0.51100000000E-03 0.  1.
         12    1    3    3    0    0  0.86657605369E+01  0.70053478169E+01 -0.38299836301E+01  0.11782999547E+02  0.00000000000E+00 0. -1.
</event>
<event>
 7    1  0.3014423E-011  0.5052886E+02  0.7816164E-02  0.1300439E+00
        -11   -1    0    0    0    0  0.00000000000E+00  0.00000000000E+00  0.45593999997E+02  0.45594000000E+02  0.51100000000E-03 0.  1.
         11   -1    0    0    0    0 -0.00000000000E+00 -0.00000000000E+00 -0.45593999997E+02  0.45594000000E+02  0.51100000000E-03 0. -1.
    9900012    2    1    2    0    0  0.12106739126E+02  0.37545200176E+02 -0.98463510409E+01  0.50528858133E+02  0.29999994782E+02 0.  0.
        -12    1    1    2    0    0 -0.12106739126E+02 -0.37545200176E+02  0.98463510409E+01  0.40659141867E+02  0.00000000000E+00 0.  1.
         11    1    3    3    0    0  0.12201288618E+02  0.29417454200E+02 -0.55022220104E+01  0.32319228067E+02  0.51100000000E-03 0. -1.
        -11    1    3    3    0    0  0.75269477516E+01  0.58568953232E+01 -0.37042984994E+01  0.10231324104E+02  0.51100000000E-03 0.  1.
        -12    1    3    3    0    0 -0.76214972433E+01  0.22708506526E+01 -0.63983053112E+00  0.79783059621E+01  0.00000000000E+00 0.  1.
</event>
<event>
 7    1  0.3014423E-011  0.5052885E+02  0.7816164E-02  0.1300439E+00
        -11   -1    0    0    0    0  0.00000000000E+00  0.00000000000E+00  0.45593999997E+02  0.45594000000E+02  0.51100000000E-03 0.  1.
         11   -1    0    0    0    0 -0.00000000000E+00 -0.00000000000E+00 -0.45593999997E+02  0.45594000000E+02  0.51100000000E-03 0. -1.
    9900012    2    1    2    0    0 -0.32190825298E+02 -0.15650814928E+02 -0.19286505292E+02  0.50528849398E+02  0.29999968232E+02 0.  0.
        -12    1    1    2    0    0  0.32190825298E+02  0.15650814928E+02  0.19286505292E+02  0.40659150602E+02  0.00000000000E+00 0.  1.
         11    1    3    3    0    0 -0.26490490204E+02 -0.11288424681E+02 -0.63885379939E+01  0.29495559343E+02  0.51100000000E-03 0. -1.
        -11    1    3    3    0    0 -0.80769087151E+01  0.31777981334E+01 -0.61274668122E+01  0.10624533174E+02  0.51100000000E-03 0.  1.
        -12    1    3    3    0    0  0.23765736209E+01 -0.75401883802E+01 -0.67705004860E+01  0.10408756881E+02  0.00000000000E+00 0.  1.
</event>
<event>
 7    1  0.3014423E-011  0.5052885E+02  0.7816164E-02  0.1300439E+00
        -11   -1    0    0    0    0  0.00000000000E+00  0.00000000000E+00  0.45593999997E+02  0.45594000000E+02  0.51100000000E-03 0.  1.
         11   -1    0    0    0    0 -0.00000000000E+00 -0.00000000000E+00 -0.45593999997E+02  0.45594000000E+02  0.51100000000E-03 0. -1.
    9900012    2    1    2    0    0 -0.14409763259E+02  0.11866199159E+01 -0.38001543230E+02  0.50528848116E+02  0.29999964334E+02 0.  0.
        -12    1    1    2    0    0  0.14409763259E+02 -0.11866199159E+01  0.38001543230E+02  0.40659151884E+02  0.00000000000E+00 0.  1.
         11    1    3    3    0    0 -0.14442901616E+01 -0.90917275180E+00 -0.17513565654E+02  0.17596521001E+02  0.51100000000E-03 0. -1.
        -11    1    3    3    0    0 -0.49205419235E+01  0.10721817545E+02 -0.36020470023E+01  0.12334660399E+02  0.51100000000E-03 0.  1.
         12    1    3    3    0    0 -0.80449311743E+01 -0.86260248775E+01 -0.16885930574E+02  0.20597666716E+02  0.00000000000E+00 0. -1.
</event>
<event>
 7    1  0.3014423E-011  0.5052886E+02  0.7816164E-02  0.1300439E+00
        -11   -1    0    0    0    0  0.00000000000E+00  0.00000000000E+00  0.45593999997E+02  0.45594000000E+02  0.51100000000E-03 0.  1.
         11   -1    0    0    0    0 -0.00000000000E+00 -0.00000000000E+00 -0.45593999997E+02  0.45594000000E+02  0.51100000000E-03 0. -1.
    9900012    2    1    2    0    0 -0.17856247986E+02 -0.11057093202E+02 -0.34814661731E+02  0.50528861130E+02  0.30000003890E+02 0.  0.
        -12    1    1    2    0    0  0.17856247986E+02  0.11057093202E+02  0.34814661731E+02  0.40659138870E+02  0.00000000000E+00 0.  1.
         11    1    3    3    0    0 -0.10700583221E+02 -0.17270530985E+02 -0.25365712230E+02  0.32499124280E+02  0.51100000000E-03 0. -1.
        -11    1    3    3    0    0  0.32604778619E+01  0.74820063604E+00 -0.82851440174E+00  0.34462960486E+01  0.51100000000E-03 0.  1.
        -12    1    3    3    0    0 -0.10416142627E+02  0.54652371468E+01 -0.86204350994E+01  0.14583440801E+02  0.00000000000E+00 0.  1.
</event>
<event>
 7    1  0.3014423E-011  0.5052886E+02  0.7816164E-02  0.1300439E+00
        -11   -1    0    0    0    0  0.00000000000E+00  0.00000000000E+00  0.45593999997E+02  0.45594000000E+02  0.51100000000E-03 0.  1.
         11   -1    0    0    0    0 -0.00000000000E+00 -0.00000000000E+00 -0.45593999997E+02  0.45594000000E+02  0.51100000000E-03 0. -1.
    9900012    2    1    2    0    0  0.20565328809E+02  0.31586527464E+02 -0.15248731241E+02  0.50528864855E+02  0.30000015214E+02 0.  0.
        -12    1    1    2    0    0 -0.20565328809E+02 -0.31586527464E+02  0.15248731241E+02  0.40659135145E+02  0.00000000000E+00 0.  1.
         11    1    3    3    0    0  0.33692909979E+01  0.31326078061E+01 -0.14729587665E+02  0.15431335215E+02  0.51100000000E-03 0. -1.
        -11    1    3    3    0    0 -0.45514660910E+00  0.47370831345E+01 -0.26669231017E+01  0.54552354808E+01  0.51100000000E-03 0.  1.
         12    1    3    3    0    0  0.17651184421E+02  0.23716836523E+02  0.21477795253E+01  0.29642294159E+02  0.00000000000E+00 0. -1.
</event>
<event>
 7    1  0.3014423E-011  0.5052888E+02  0.7816164E-02  0.1300439E+00
        -11   -1    0    0    0    0  0.00000000000E+00  0.00000000000E+00  0.45593999997E+02  0.45594000000E+02  0.51100000000E-03 0.  1.
         11   -1    0    0    0    0 -0.00000000000E+00 -0.00000000000E+00 -0.45593999997E+02  0.45594000000E+02  0.51100000000E-03 0. -1.
    9900012    2    1    2    0    0 -0.34199075622E+02  0.61625406457E+01 -0.21109482222E+02  0.50528881462E+02  0.30000065692E+02 0.  0.
        -12    1    1    2    0    0  0.34199075622E+02 -0.61625406457E+01  0.21109482222E+02  0.40659118538E+02  0.00000000000E+00 0.  1.
         11    1    3    3    0    0 -0.10600081465E+02 -0.26055478841E+01 -0.10288755583E+01  0.10963995258E+02  0.51100000000E-03 0. -1.
        -11    1    3    3    0    0 -0.17280839979E+02 -0.34685474531E+01 -0.34283771485E+01  0.17955835317E+02  0.51100000000E-03 0.  1.
         12    1    3    3    0    0 -0.63181541781E+01  0.12236635983E+02 -0.16652229515E+02  0.21609050887E+02  0.00000000000E+00 0. -1.
</event>
<event>
 7    1  0.3014423E-011  0.5052886E+02  0.7816164E-02  0.1300439E+00
        -11   -1    0    0    0    0  0.00000000000E+00  0.00000000000E+00  0.45593999997E+02  0.45594000000E+02  0.51100000000E-03 0. -1.
         11   -1    0    0    0    0 -0.00000000000E+00 -0.00000000000E+00 -0.45593999997E+02  0.45594000000E+02  0.51100000000E-03 0.  1.
    9900012    2    1    2    0    0  0.40439206388E+02  0.22132508642E+01 -0.35968769676E+01  0.50528863061E+02  0.30000009760E+02 0.  0.
        -12    1    1    2    0    0 -0.40439206388E+02 -0.22132508642E+01  0.35968769676E+01  0.40659136939E+02  0.00000000000E+00 0.  1.
         11    1    3    3    0    0  0.23573265478E+02 -0.90780865943E+00  0.10598053647E+01  0.23614532592E+02  0.51100000000E-03 0. -1.
        -11    1    3    3    0    0  0.74643246679E+01  0.10111250030E+02  0.29969721425E+01  0.12920346830E+02  0.51100000000E-03 0.  1.
        -12    1    3    3    0    0  0.94016162425E+01 -0.69901905062E+01 -0.76536544748E+01  0.13993983640E+02  0.00000000000E+00 0.  1.
</event>
<event>
 7    1  0.3014423E-011  0.5052885E+02  0.7816164E-02  0.1300439E+00
        -11   -1    0    0    0    0  0.00000000000E+00  0.00000000000E+00  0.45593999997E+02  0.45594000000E+02  0.51100000000E-03 0.  1.
         11   -1    0    0    0    0 -0.00000000000E+00 -0.00000000000E+00 -0.45593999997E+02  0.45594000000E+02  0.51100000000E-03 0. -1.
    9900012    2    1    2    0    0  0.24923129473E+01 -0.94797578235E+01 -0.39459965292E+02  0.50528852283E+02  0.29999977000E+02 0.  0.
        -12    1    1    2    0    0 -0.24923129473E+01  0.94797578235E+01  0.39459965292E+02  0.40659147717E+02  0.00000000000E+00 0.  1.
         11    1    3    3    0    0  0.28104194720E+01  0.46376709260E+01 -0.23867444707E+02  0.24475730149E+02  0.51100000000E-03 0. -1.
        -11    1    3    3    0    0 -0.28781710333E+01  0.40754857755E+00 -0.97755491177E+01  0.10198594273E+02  0.51100000000E-03 0.  1.
        -12    1    3    3    0    0  0.25600645086E+01 -0.14524977327E+02 -0.58169714668E+01  0.15854527861E+02  0.00000000000E+00 0.  1.
</event>
<event>
 7    1  0.3014423E-011  0.5052886E+02  0.7816164E-02  0.1300439E+00
        -11   -1    0    0    0    0  0.00000000000E+00  0.00000000000E+00  0.45593999997E+02  0.45594000000E+02  0.51100000000E-03 0.  1.
         11   -1    0    0    0    0 -0.00000000000E+00 -0.00000000000E+00 -0.45593999997E+02  0.45594000000E+02  0.51100000000E-03 0. -1.
    9900012    2    1    2    0    0  0.12364572882E+02  0.30133857372E+02 -0.24335848235E+02  0.50528861643E+02  0.30000005449E+02 0.  0.
        -12    1    1    2    0    0 -0.12364572882E+02 -0.30133857372E+02  0.24335848235E+02  0.40659138357E+02  0.00000000000E+00 0.  1.
         11    1    3    3    0    0  0.67856900813E+01  0.78191326807E+00 -0.80970683501E+01  0.10593370303E+02  0.51100000000E-03 0. -1.
        -11    1    3    3    0    0  0.12610878567E+02  0.20303274842E+02 -0.15426252422E+02  0.28446906538E+02  0.51100000000E-03 0.  1.
        -12    1    3    3    0    0 -0.70319957664E+01  0.90486692622E+01 -0.81252746210E+00  0.11488584802E+02  0.00000000000E+00 0.  1.
</event>
<event>
 7    1  0.3014423E-011  0.5052886E+02  0.7816164E-02  0.1300439E+00
        -11   -1    0    0    0    0  0.00000000000E+00  0.00000000000E+00  0.45593999997E+02  0.45594000000E+02  0.51100000000E-03 0.  1.
         11   -1    0    0    0    0 -0.00000000000E+00 -0.00000000000E+00 -0.45593999997E+02  0.45594000000E+02  0.51100000000E-03 0. -1.
    9900012    2    1    2    0    0  0.28800721962E+02 -0.96954038613E+01  0.27012644318E+02  0.50528863332E+02  0.30000010583E+02 0.  0.
        -12    1    1    2    0    0 -0.28800721962E+02  0.96954038613E+01 -0.27012644318E+02  0.40659136668E+02  0.00000000000E+00 0.  1.
         11    1    3    3    0    0  0.38088879867E+01  0.79349510041E+01  0.94859793456E+01  0.12940435833E+02  0.51100000000E-03 0. -1.
        -11    1    3    3    0    0 -0.11257255622E+01 -0.59514508290E+00  0.28570589638E+01  0.31279772849E+01  0.51100000000E-03 0.  1.
         12    1    3    3    0    0  0.26117559537E+02 -0.17035209783E+02  0.14669606008E+02  0.34460450214E+02  0.00000000000E+00 0. -1.
</event>
<event>
 7    1  0.3014423E-011  0.5052886E+02  0.7816164E-02  0.1300439E+00
        -11   -1    0    0    0    0  0.00000000000E+00  0.00000000000E+00  0.45593999997E+02  0.45594000000E+02  0.51100000000E-03 0.  1.
         11   -1    0    0    0    0 -0.00000000000E+00 -0.00000000000E+00 -0.45593999997E+02  0.45594000000E+02  0.51100000000E-03 0. -1.
    9900012    2    1    2    0    0  0.77706995831E+01  0.31319521565E+02 -0.24735991042E+02  0.50528862578E+02  0.30000008292E+02 0.  0.
        -12    1    1    2    0    0 -0.77706995831E+01 -0.31319521565E+02  0.24735991042E+02  0.40659137422E+02  0.00000000000E+00 0.  1.
         11    1    3    3    0    0 -0.19629895731E+01  0.15693974253E+02 -0.14400244640E+02  0.21389745250E+02  0.51100000000E-03 0. -1.
        -11    1    3    3    0    0 -0.20726371093E+01  0.13919882441E+02 -0.98918418568E+01  0.17201961730E+02  0.51100000000E-03 0.  1.
        -12    1    3    3    0    0  0.11806326265E+02  0.17056648711E+01 -0.44390454572E+00  0.11937155599E+02  0.00000000000E+00 0.  1.
</event>
<event>
 7    1  0.3014423E-011  0.5052886E+02  0.7816164E-02  0.1300439E+00
        -11   -1    0    0    0    0  0.00000000000E+00  0.00000000000E+00  0.45593999997E+02  0.45594000000E+02  0.51100000000E-03 0.  1.
         11   -1    0    0    0    0 -0.00000000000E+00 -0.00000000000E+00 -0.45593999997E+02  0.45594000000E+02  0.51100000000E-03 0. -1.
    9900012    2    1    2    0    0  0.25585911873E+02  0.16396808701E+02 -0.27012429907E+02  0.50528860911E+02  0.30000003226E+02 0.  0.
        -12    1    1    2    0    0 -0.25585911873E+02 -0.16396808701E+02  0.27012429907E+02  0.40659139089E+02  0.00000000000E+00 0.  1.
         11    1    3    3    0    0  0.27447759245E+02  0.82824341996E+01 -0.20862045185E+02  0.35457060417E+02  0.51100000000E-03 0. -1.
        -11    1    3    3    0    0 -0.12540676627E+01 -0.26583128569E+01 -0.91135262977E+00  0.30773164973E+01  0.51100000000E-03 0.  1.
        -12    1    3    3    0    0 -0.60777970890E+00  0.10772687358E+02 -0.52390320923E+01  0.11994483997E+02  0.00000000000E+00 0.  1.
</event>
<event>
 7    1  0.3014423E-011  0.5052886E+02  0.7816164E-02  0.1300439E+00
        -11   -1    0    0    0    0  0.00000000000E+00  0.00000000000E+00  0.45593999997E+02  0.45594000000E+02  0.51100000000E-03 0.  1.
         11   -1    0    0    0    0 -0.00000000000E+00 -0.00000000000E+00 -0.45593999997E+02  0.45594000000E+02  0.51100000000E-03 0. -1.
    9900012    2    1    2    0    0  0.14487367432E+02  0.37829968684E+02  0.34893379470E+01  0.50528858038E+02  0.29999994493E+02 0.  0.
        -12    1    1    2    0    0 -0.14487367432E+02 -0.37829968684E+02 -0.34893379470E+01  0.40659141962E+02  0.00000000000E+00 0.  1.
         11    1    3    3    0    0 -0.31093216048E+00 -0.13220914551E+01 -0.50512709265E+01  0.52306732701E+01  0.51100000000E-03 0. -1.
        -11    1    3    3    0    0  0.89539751053E+01  0.70278945893E+01  0.50768155734E+01  0.12463507900E+02  0.51100000000E-03 0.  1.
         12    1    3    3    0    0  0.58443244872E+01  0.32124165550E+02  0.34637933001E+01  0.32834676868E+02  0.00000000000E+00 0. -1.
</event>
<event>
 7    1  0.3014423E-011  0.5052887E+02  0.7816164E-02  0.1300439E+00
        -11   -1    0    0    0    0  0.00000000000E+00  0.00000000000E+00  0.45593999997E+02  0.45594000000E+02  0.51100000000E-03 0.  1.
         11   -1    0    0    0    0 -0.00000000000E+00 -0.00000000000E+00 -0.45593999997E+02  0.45594000000E+02  0.51100000000E-03 0. -1.
    9900012    2    1    2    0    0 -0.28626313157E+02  0.28721742518E+02  0.29598410747E+01  0.50528868708E+02  0.30000026925E+02 0.  0.
        -12    1    1    2    0    0  0.28626313157E+02 -0.28721742518E+02 -0.29598410747E+01  0.40659131292E+02  0.00000000000E+00 0.  1.
         11    1    3    3    0    0 -0.99299245170E+01  0.36418343653E+01  0.78049086817E+01  0.13144693159E+02  0.51100000000E-03 0. -1.
        -11    1    3    3    0    0 -0.12145150164E+02  0.20430224503E+02  0.53917181991E+01  0.24371486847E+02  0.51100000000E-03 0.  1.
         12    1    3    3    0    0 -0.65512384765E+01  0.46496836496E+01 -0.10236785806E+02  0.13012688702E+02  0.00000000000E+00 0. -1.
</event>
<event>
 7    1  0.3014423E-011  0.5052888E+02  0.7816164E-02  0.1300439E+00
        -11   -1    0    0    0    0  0.00000000000E+00  0.00000000000E+00  0.45593999997E+02  0.45594000000E+02  0.51100000000E-03 0. -1.
         11   -1    0    0    0    0 -0.00000000000E+00 -0.00000000000E+00 -0.45593999997E+02  0.45594000000E+02  0.51100000000E-03 0.  1.
    9900012    2    1    2    0    0  0.35966693027E+01 -0.26507269664E+02 -0.30620131454E+02  0.50528882629E+02  0.30000069239E+02 0.  0.
        -12    1    1    2    0    0 -0.35966693027E+01  0.26507269664E+02  0.30620131454E+02  0.40659117371E+02  0.00000000000E+00 0.  1.
         11    1    3    3    0    0 -0.35562017577E+01 -0.46283197798E+01 -0.29006834550E+00  0.58439759438E+01  0.51100000000E-03 0. -1.
        -11    1    3    3    0    0 -0.16265494014E+01 -0.20025101614E+02 -0.29475223932E+02  0.35671265519E+02  0.51100000000E-03 0.  1.
         12    1    3    3    0    0  0.87794204619E+01 -0.18538482704E+01 -0.85483917644E+00  0.90136411662E+01  0.00000000000E+00 0. -1.
</event>
<event>
 7    1  0.3014423E-011  0.5052886E+02  0.7816164E-02  0.1300439E+00
        -11   -1    0    0    0    0  0.00000000000E+00  0.00000000000E+00  0.45593999997E+02  0.45594000000E+02  0.51100000000E-03 0.  1.
         11   -1    0    0    0    0 -0.00000000000E+00 -0.00000000000E+00 -0.45593999997E+02  0.45594000000E+02  0.51100000000E-03 0. -1.
    9900012    2    1    2    0    0  0.11627946148E+01  0.27692526016E+02 -0.29747906512E+02  0.50528855515E+02  0.29999986822E+02 0.  0.
        -12    1    1    2    0    0 -0.11627946148E+01 -0.27692526016E+02  0.29747906512E+02  0.40659144485E+02  0.00000000000E+00 0.  1.
         11    1    3    3    0    0  0.18601161726E+01  0.15928471782E+02 -0.29909186780E+02  0.33937231761E+02  0.51100000000E-03 0. -1.
        -11    1    3    3    0    0 -0.41994590575E+01  0.22000439347E+00  0.14757305239E+01  0.44566398945E+01  0.51100000000E-03 0.  1.
        -12    1    3    3    0    0  0.35021374998E+01  0.11544049840E+02 -0.13144502552E+01  0.12134983859E+02  0.00000000000E+00 0.  1.
</event>
<event>
 7    1  0.3014423E-011  0.5052886E+02  0.7816164E-02  0.1300439E+00
        -11   -1    0    0    0    0  0.00000000000E+00  0.00000000000E+00  0.45593999997E+02  0.45594000000E+02  0.51100000000E-03 0.  1.
         11   -1    0    0    0    0 -0.00000000000E+00 -0.00000000000E+00 -0.45593999997E+02  0.45594000000E+02  0.51100000000E-03 0. -1.
    9900012    2    1    2    0    0  0.30391553846E+02  0.47492651436E+01 -0.26588782722E+02  0.50528862881E+02  0.30000009213E+02 0.  0.
        -12    1    1    2    0    0 -0.30391553846E+02 -0.47492651436E+01  0.26588782722E+02  0.40659137119E+02  0.00000000000E+00 0.  1.
         11    1    3    3    0    0  0.41298704122E+01 -0.17465050832E+01 -0.47552841868E+01  0.65359649314E+01  0.51100000000E-03 0.  1.
        -11    1    3    3    0    0  0.10021734747E+02  0.16283255333E+02 -0.92850921834E+01  0.21255411281E+02  0.51100000000E-03 0. -1.
         12    1    3    3    0    0  0.16239948687E+02 -0.97874851062E+01 -0.12548406352E+02  0.22737486669E+02  0.00000000000E+00 0. -1.
</event>
<event>
 7    1  0.3014423E-011  0.5052886E+02  0.7816164E-02  0.1300439E+00
        -11   -1    0    0    0    0  0.00000000000E+00  0.00000000000E+00  0.45593999997E+02  0.45594000000E+02  0.51100000000E-03 0.  1.
         11   -1    0    0    0    0 -0.00000000000E+00 -0.00000000000E+00 -0.45593999997E+02  0.45594000000E+02  0.51100000000E-03 0. -1.
    9900012    2    1    2    0    0 -0.49159836532E+01  0.12148481443E+01 -0.40342565112E+02  0.50528864359E+02  0.30000013705E+02 0.  0.
        -12    1    1    2    0    0  0.49159836532E+01 -0.12148481443E+01  0.40342565112E+02  0.40659135641E+02  0.00000000000E+00 0.  1.
         11    1    3    3    0    0  0.55654132136E+01  0.16490779907E+01 -0.88861566044E+00  0.58722159796E+01  0.51100000000E-03 0. -1.
        -11    1    3    3    0    0  0.40104614920E+01  0.35101339293E+01 -0.62496999068E+01  0.82136222683E+01  0.51100000000E-03 0.  1.
         12    1    3    3    0    0 -0.14491858359E+02 -0.39443637758E+01 -0.33204249545E+02  0.36443026111E+02  0.00000000000E+00 0. -1.
</event>
<event>
 7    1  0.3014423E-011  0.5052887E+02  0.7816164E-02  0.1300439E+00
        -11   -1    0    0    0    0  0.00000000000E+00  0.00000000000E+00  0.45593999997E+02  0.45594000000E+02  0.51100000000E-03 0.  1.
         11   -1    0    0    0    0 -0.00000000000E+00 -0.00000000000E+00 -0.45593999997E+02  0.45594000000E+02  0.51100000000E-03 0. -1.
    9900012    2    1    2    0    0 -0.30780551982E+02  0.25007101064E+02 -0.89647932303E+01  0.50528868164E+02  0.30000025272E+02 0.  0.
        -12    1    1    2    0    0  0.30780551982E+02 -0.25007101064E+02  0.89647932303E+01  0.40659131836E+02  0.00000000000E+00 0.  1.
         11    1    3    3    0    0 -0.11158240342E+02  0.13612412410E+02 -0.14689818805E+02  0.22925856056E+02  0.51100000000E-03 0. -1.
        -11    1    3    3    0    0  0.20291677456E+01  0.23001879797E+01  0.23792507788E+01  0.38819094543E+01  0.51100000000E-03 0.  1.
        -12    1    3    3    0    0 -0.21651479386E+02  0.90945006750E+01  0.33457747954E+01  0.23721102654E+02  0.00000000000E+00 0.  1.
</event>
<event>
 7    1  0.3014423E-011  0.5052887E+02  0.7816164E-02  0.1300439E+00
        -11   -1    0    0    0    0  0.00000000000E+00  0.00000000000E+00  0.45593999997E+02  0.45594000000E+02  0.51100000000E-03 0.  1.
         11   -1    0    0    0    0 -0.00000000000E+00 -0.00000000000E+00 -0.45593999997E+02  0.45594000000E+02  0.51100000000E-03 0. -1.
    9900012    2    1    2    0    0 -0.33715026810E+02 -0.16333068197E+02 -0.15801654948E+02  0.50528874965E+02  0.30000045943E+02 0.  0.
        -12    1    1    2    0    0  0.33715026810E+02  0.16333068197E+02  0.15801654948E+02  0.40659125035E+02  0.00000000000E+00 0.  1.
         11    1    3    3    0    0 -0.16639136060E+02  0.32190863042E+01 -0.53224057078E+01  0.17763765598E+02  0.51100000000E-03 0. -1.
        -11    1    3    3    0    0 -0.25764440595E+01 -0.48459996040E+01  0.46265365616E+01  0.71782042998E+01  0.51100000000E-03 0.  1.
         12    1    3    3    0    0 -0.14499446691E+02 -0.14706154897E+02 -0.15105785802E+02  0.25586905066E+02  0.00000000000E+00 0. -1.
</event>
<event>
 7    1  0.3014423E-011  0.5052886E+02  0.7816164E-02  0.1300439E+00
        -11   -1    0    0    0    0  0.00000000000E+00  0.00000000000E+00  0.45593999997E+02  0.45594000000E+02  0.51100000000E-03 0.  1.
         11   -1    0    0    0    0 -0.00000000000E+00 -0.00000000000E+00 -0.45593999997E+02  0.45594000000E+02  0.51100000000E-03 0. -1.
    9900012    2    1    2    0    0 -0.94820109716E+01 -0.33927504838E+02 -0.20302256097E+02  0.50528859340E+02  0.29999998450E+02 0.  0.
        -12    1    1    2    0    0  0.94820109716E+01  0.33927504838E+02  0.20302256097E+02  0.40659140660E+02  0.00000000000E+00 0.  1.
         11    1    3    3    0    0 -0.67537284190E+01 -0.16527823726E+02 -0.20112945909E+02  0.26894467797E+02  0.51100000000E-03 0. -1.
        -11    1    3    3    0    0 -0.22827714501E+01 -0.13917991551E+02 -0.71693052305E+01  0.15821519271E+02  0.51100000000E-03 0.  1.
        -12    1    3    3    0    0 -0.44551110256E+00 -0.34816895611E+01  0.69799950428E+01  0.78128722721E+01  0.00000000000E+00 0.  1.
</event>
<event>
 7    1  0.3014423E-011  0.5052886E+02  0.7816164E-02  0.1300439E+00
        -11   -1    0    0    0    0  0.00000000000E+00  0.00000000000E+00  0.45593999997E+02  0.45594000000E+02  0.51100000000E-03 0. -1.
         11   -1    0    0    0    0 -0.00000000000E+00 -0.00000000000E+00 -0.45593999997E+02  0.45594000000E+02  0.51100000000E-03 0.  1.
    9900012    2    1    2    0    0 -0.34173696716E+02  0.20437811571E+02  0.82231361935E+01  0.50528860094E+02  0.30000000741E+02 0.  0.
        -12    1    1    2    0    0  0.34173696716E+02 -0.20437811571E+02 -0.82231361935E+01  0.40659139906E+02  0.00000000000E+00 0.  1.
         11    1    3    3    0    0 -0.31491081385E+01  0.29645444383E+01  0.11989528905E+02  0.12745752603E+02  0.51100000000E-03 0. -1.
        -11    1    3    3    0    0 -0.11382383188E+02  0.52301196122E+00  0.86935654261E+00  0.11427509335E+02  0.51100000000E-03 0.  1.
        -12    1    3    3    0    0 -0.19642205390E+02  0.16950255171E+02 -0.46357492544E+01  0.26355598155E+02  0.00000000000E+00 0.  1.
</event>
<event>
 7    1  0.3014423E-011  0.5052886E+02  0.7816164E-02  0.1300439E+00
        -11   -1    0    0    0    0  0.00000000000E+00  0.00000000000E+00  0.45593999997E+02  0.45594000000E+02  0.51100000000E-03 0.  1.
         11   -1    0    0    0    0 -0.00000000000E+00 -0.00000000000E+00 -0.45593999997E+02  0.45594000000E+02  0.51100000000E-03 0. -1.
    9900012    2    1    2    0    0  0.28523359443E+02 -0.36164170292E+01 -0.28748998568E+02  0.50528862961E+02  0.30000009458E+02 0.  0.
        -12    1    1    2    0    0 -0.28523359443E+02  0.36164170292E+01  0.28748998568E+02  0.40659137039E+02  0.00000000000E+00 0.  1.
         11    1    3    3    0    0  0.12902694055E+01  0.41610265348E+01 -0.13991737766E+02  0.14654271150E+02  0.51100000000E-03 0. -1.
        -11    1    3    3    0    0 -0.20787473084E-01  0.32191064705E+01 -0.22909275806E+01  0.39511299685E+01  0.51100000000E-03 0.  1.
        -12    1    3    3    0    0  0.27253877511E+02 -0.10996550035E+02 -0.12466333221E+02  0.31923461843E+02  0.00000000000E+00 0.  1.
</event>
<event>
 7    1  0.3014423E-011  0.5052886E+02  0.7816164E-02  0.1300439E+00
        -11   -1    0    0    0    0  0.00000000000E+00  0.00000000000E+00  0.45593999997E+02  0.45594000000E+02  0.51100000000E-03 0. -1.
         11   -1    0    0    0    0 -0.00000000000E+00 -0.00000000000E+00 -0.45593999997E+02  0.45594000000E+02  0.51100000000E-03 0.  1.
    9900012    2    1    2    0    0  0.14719234346E+02  0.10958205704E+02  0.36282606433E+02  0.50528860049E+02  0.30000000604E+02 0.  0.
        -12    1    1    2    0    0 -0.14719234346E+02 -0.10958205704E+02 -0.36282606433E+02  0.40659139951E+02  0.00000000000E+00 0.  1.
         11    1    3    3    0    0  0.43632576679E+01  0.64689643118E+01 -0.21471834700E+01  0.80929545815E+01  0.51100000000E-03 0. -1.
        -11    1    3    3    0    0  0.49072576523E+01  0.11835698252E+01  0.19626807899E+01  0.54160992736E+01  0.51100000000E-03 0.  1.
         12    1    3    3    0    0  0.54487190255E+01  0.33056715671E+01  0.36467109113E+02  0.37019806194E+02  0.00000000000E+00 0. -1.
</event>
<event>
 7    1  0.3014423E-011  0.5052886E+02  0.7816164E-02  0.1300439E+00
        -11   -1    0    0    0    0  0.00000000000E+00  0.00000000000E+00  0.45593999997E+02  0.45594000000E+02  0.51100000000E-03 0.  1.
         11   -1    0    0    0    0 -0.00000000000E+00 -0.00000000000E+00 -0.45593999997E+02  0.45594000000E+02  0.51100000000E-03 0. -1.
    9900012    2    1    2    0    0  0.32365165278E+02 -0.35969675225E+01 -0.24345911466E+02  0.50528861987E+02  0.30000006497E+02 0.  0.
        -12    1    1    2    0    0 -0.32365165278E+02  0.35969675225E+01  0.24345911466E+02  0.40659138013E+02  0.00000000000E+00 0.  1.
         11    1    3    3    0    0  0.30849834951E+01 -0.11770451773E+01  0.30720371454E+01  0.45099856982E+01  0.51100000000E-03 0. -1.
        -11    1    3    3    0    0 -0.32222584689E+00 -0.55608763328E+01 -0.33301680174E-01  0.55703037932E+01  0.51100000000E-03 0.  1.
         12    1    3    3    0    0  0.29602407630E+02  0.31409539877E+01 -0.27384646931E+02  0.40448572496E+02  0.00000000000E+00 0. -1.
</event>
<event>
 7    1  0.3014423E-011  0.5052886E+02  0.7816164E-02  0.1300439E+00
        -11   -1    0    0    0    0  0.00000000000E+00  0.00000000000E+00  0.45593999997E+02  0.45594000000E+02  0.51100000000E-03 0.  1.
         11   -1    0    0    0    0 -0.00000000000E+00 -0.00000000000E+00 -0.45593999997E+02  0.45594000000E+02  0.51100000000E-03 0. -1.
    9900012    2    1    2    0    0  0.16538678858E+02  0.26274003268E+02 -0.26254795497E+02  0.50528862864E+02  0.30000009161E+02 0.  0.
        -12    1    1    2    0    0 -0.16538678858E+02 -0.26274003268E+02  0.26254795497E+02  0.40659137136E+02  0.00000000000E+00 0.  1.
         11    1    3    3    0    0  0.34295934448E+01  0.17561911544E+02 -0.17802959546E+02  0.25241398875E+02  0.51100000000E-03 0. -1.
        -11    1    3    3    0    0  0.72885266024E+00 -0.16617934760E+01 -0.89457106973E+01  0.91278981096E+01  0.51100000000E-03 0.  1.
        -12    1    3    3    0    0  0.12380232753E+02  0.10373885200E+02  0.49387474726E+00  0.16159565880E+02  0.00000000000E+00 0.  1.
</event>
<event>
 7    1  0.3014423E-011  0.5052887E+02  0.7816164E-02  0.1300439E+00
        -11   -1    0    0    0    0  0.00000000000E+00  0.00000000000E+00  0.45593999997E+02  0.45594000000E+02  0.51100000000E-03 0.  1.
         11   -1    0    0    0    0 -0.00000000000E+00 -0.00000000000E+00 -0.45593999997E+02  0.45594000000E+02  0.51100000000E-03 0. -1.
    9900012    2    1    2    0    0  0.30024162835E+02  0.20156251646E+02 -0.18586010225E+02  0.50528872975E+02  0.30000039894E+02 0.  0.
        -12    1    1    2    0    0 -0.30024162835E+02 -0.20156251646E+02  0.18586010225E+02  0.40659127025E+02  0.00000000000E+00 0.  1.
         11    1    3    3    0    0  0.18311395410E+02  0.17428220477E+02 -0.11987011964E+02  0.27977464627E+02  0.51100000000E-03 0. -1.
        -11    1    3    3    0    0  0.14772662310E+02  0.39381618039E+00 -0.96419148353E+01  0.17645202319E+02  0.51100000000E-03 0.  1.
        -12    1    3    3    0    0 -0.30598948854E+01  0.23342149879E+01  0.30429165740E+01  0.49062060287E+01  0.00000000000E+00 0.  1.
</event>
<event>
 7    1  0.3014423E-011  0.5052885E+02  0.7816164E-02  0.1300439E+00
        -11   -1    0    0    0    0  0.00000000000E+00  0.00000000000E+00  0.45593999997E+02  0.45594000000E+02  0.51100000000E-03 0.  1.
         11   -1    0    0    0    0 -0.00000000000E+00 -0.00000000000E+00 -0.45593999997E+02  0.45594000000E+02  0.51100000000E-03 0. -1.
    9900012    2    1    2    0    0  0.24338974294E+02  0.72606445738E+01 -0.31750015732E+02  0.50528854310E+02  0.29999983159E+02 0.  0.
        -12    1    1    2    0    0 -0.24338974294E+02 -0.72606445738E+01  0.31750015732E+02  0.40659145690E+02  0.00000000000E+00 0.  1.
         11    1    3    3    0    0  0.10476594387E+02  0.82372228576E+01 -0.98472833574E+01  0.16570451416E+02  0.51100000000E-03 0. -1.
        -11    1    3    3    0    0  0.10082784327E+02  0.89904332797E+01 -0.59247305899E+01  0.14751029224E+02  0.51100000000E-03 0.  1.
         12    1    3    3    0    0  0.37795955803E+01 -0.99670115635E+01 -0.15978001785E+02  0.19207373670E+02  0.00000000000E+00 0. -1.
</event>
<event>
 7    1  0.3014423E-011  0.5052884E+02  0.7816164E-02  0.1300439E+00
        -11   -1    0    0    0    0  0.00000000000E+00  0.00000000000E+00  0.45593999997E+02  0.45594000000E+02  0.51100000000E-03 0.  1.
         11   -1    0    0    0    0 -0.00000000000E+00 -0.00000000000E+00 -0.45593999997E+02  0.45594000000E+02  0.51100000000E-03 0. -1.
    9900012    2    1    2    0    0  0.53710814532E+01  0.32426653144E+02 -0.23933884763E+02  0.50528841254E+02  0.29999943475E+02 0.  0.
        -12    1    1    2    0    0 -0.53710814532E+01 -0.32426653144E+02  0.23933884763E+02  0.40659158746E+02  0.00000000000E+00 0.  1.
         11    1    3    3    0    0  0.27122743400E+00  0.97598948936E+01  0.34136401550E+00  0.97696285655E+01  0.51100000000E-03 0. -1.
        -11    1    3    3    0    0  0.16764994844E+01  0.48648744813E+01  0.44427471869E+01  0.67982098428E+01  0.51100000000E-03 0.  1.
         12    1    3    3    0    0  0.34233545348E+01  0.17801883770E+02 -0.28717995965E+02  0.33961002845E+02  0.00000000000E+00 0. -1.
</event>
<event>
 7    1  0.3014423E-011  0.5052885E+02  0.7816164E-02  0.1300439E+00
        -11   -1    0    0    0    0  0.00000000000E+00  0.00000000000E+00  0.45593999997E+02  0.45594000000E+02  0.51100000000E-03 0.  1.
         11   -1    0    0    0    0 -0.00000000000E+00 -0.00000000000E+00 -0.45593999997E+02  0.45594000000E+02  0.51100000000E-03 0. -1.
    9900012    2    1    2    0    0  0.23565638050E+02  0.35014939831E+01 -0.32947933501E+02  0.50528854918E+02  0.29999985008E+02 0.  0.
        -12    1    1    2    0    0 -0.23565638050E+02 -0.35014939831E+01  0.32947933501E+02  0.40659145082E+02  0.00000000000E+00 0.  1.
         11    1    3    3    0    0  0.28311465092E+01 -0.37675821902E+01  0.42604957541E+01  0.63531008530E+01  0.51100000000E-03 0.  1.
        -11    1    3    3    0    0  0.11726050521E+02  0.17112910715E+00 -0.13808500671E+02  0.18116407951E+02  0.51100000000E-03 0. -1.
        -12    1    3    3    0    0  0.90084410198E+01  0.70979470661E+01 -0.23399928584E+02  0.26059346114E+02  0.00000000000E+00 0.  1.
</event>
<event>
 7    1  0.3014423E-011  0.5052887E+02  0.7816164E-02  0.1300439E+00
        -11   -1    0    0    0    0  0.00000000000E+00  0.00000000000E+00  0.45593999997E+02  0.45594000000E+02  0.51100000000E-03 0.  1.
         11   -1    0    0    0    0 -0.00000000000E+00 -0.00000000000E+00 -0.45593999997E+02  0.45594000000E+02  0.51100000000E-03 0. -1.
    9900012    2    1    2    0    0 -0.46336311514E+01  0.40393373985E+02 -0.26444906133E+00  0.50528866551E+02  0.30000020369E+02 0.  0.
        -12    1    1    2    0    0  0.46336311514E+01 -0.40393373985E+02  0.26444906133E+00  0.40659133449E+02  0.00000000000E+00 0.  1.
         11    1    3    3    0    0 -0.24086919948E+01  0.13471329552E+02 -0.10603300862E+02  0.17312091337E+02  0.51100000000E-03 0. -1.
        -11    1    3    3    0    0 -0.25400373778E+01 -0.54887538195E+00 -0.18210793816E+01  0.31732293395E+01  0.51100000000E-03 0.  1.
        -12    1    3    3    0    0  0.31509822119E+00  0.27470919815E+02  0.12159931183E+02  0.30043545875E+02  0.00000000000E+00 0.  1.
</event>
<event>
 7    1  0.3014423E-011  0.5052886E+02  0.7816164E-02  0.1300439E+00
        -11   -1    0    0    0    0  0.00000000000E+00  0.00000000000E+00  0.45593999997E+02  0.45594000000E+02  0.51100000000E-03 0. -1.
         11   -1    0    0    0    0 -0.00000000000E+00 -0.00000000000E+00 -0.45593999997E+02  0.45594000000E+02  0.51100000000E-03 0.  1.
    9900012    2    1    2    0    0 -0.29137123736E+02  0.28161928109E+02  0.33315327262E+01  0.50528864683E+02  0.30000014690E+02 0.  0.
        -12    1    1    2    0    0  0.29137123736E+02 -0.28161928109E+02 -0.33315327262E+01  0.40659135317E+02  0.00000000000E+00 0.  1.
         11    1    3    3    0    0 -0.24027229391E+02  0.18169689289E+02  0.88380123205E+00  0.30136795880E+02  0.51100000000E-03 0. -1.
        -11    1    3    3    0    0 -0.10292179930E+02  0.47199861948E+01 -0.23697521730E+01  0.11568187542E+02  0.51100000000E-03 0.  1.
         12    1    3    3    0    0  0.51822855840E+01  0.52722526256E+01  0.48174836671E+01  0.88238812608E+01  0.00000000000E+00 0. -1.
</event>
<event>
 7    1  0.3014423E-011  0.5052886E+02  0.7816164E-02  0.1300439E+00
        -11   -1    0    0    0    0  0.00000000000E+00  0.00000000000E+00  0.45593999997E+02  0.45594000000E+02  0.51100000000E-03 0.  1.
         11   -1    0    0    0    0 -0.00000000000E+00 -0.00000000000E+00 -0.45593999997E+02  0.45594000000E+02  0.51100000000E-03 0. -1.
    9900012    2    1    2    0    0  0.14903672178E+02  0.12295494944E+02 -0.35775223654E+02  0.50528864891E+02  0.30000015322E+02 0.  0.
        -12    1    1    2    0    0 -0.14903672178E+02 -0.12295494944E+02  0.35775223654E+02  0.40659135109E+02  0.00000000000E+00 0.  1.
         11    1    3    3    0    0  0.17877309625E+02  0.81653127385E+01 -0.18445834509E+02  0.26954022752E+02  0.51100000000E-03 0. -1.
        -11    1    3    3    0    0  0.53543425793E+01  0.13816528676E+01 -0.19364969921E+01  0.58590075921E+01  0.51100000000E-03 0.  1.
        -12    1    3    3    0    0 -0.83279800255E+01  0.27485293382E+01 -0.15392892153E+02  0.17715834546E+02  0.00000000000E+00 0.  1.
</event>
<event>
 7    1  0.3014423E-011  0.5052887E+02  0.7816164E-02  0.1300439E+00
        -11   -1    0    0    0    0  0.00000000000E+00  0.00000000000E+00  0.45593999997E+02  0.45594000000E+02  0.51100000000E-03 0.  1.
         11   -1    0    0    0    0 -0.00000000000E+00 -0.00000000000E+00 -0.45593999997E+02  0.45594000000E+02  0.51100000000E-03 0. -1.
    9900012    2    1    2    0    0  0.27270384788E+02 -0.26522744097E+02 -0.14353928552E+02  0.50528866883E+02  0.30000021379E+02 0.  0.
        -12    1    1    2    0    0 -0.27270384788E+02  0.26522744097E+02  0.14353928552E+02  0.40659133117E+02  0.00000000000E+00 0.  1.
         11    1    3    3    0    0 -0.10258746091E+01 -0.46975120637E+01 -0.18038311027E+01  0.51354498547E+01  0.51100000000E-03 0. -1.
        -11    1    3    3    0    0  0.87434998092E+01 -0.22280344468E+02 -0.51509818086E+01  0.24482547915E+02  0.51100000000E-03 0.  1.
         12    1    3    3    0    0  0.19552759588E+02  0.45511243540E+00 -0.73991156403E+01  0.20910869114E+02  0.00000000000E+00 0. -1.
</event>
<event>
 7    1  0.3014423E-011  0.5052886E+02  0.7816164E-02  0.1300439E+00
        -11   -1    0    0    0    0  0.00000000000E+00  0.00000000000E+00  0.45593999997E+02  0.45594000000E+02  0.51100000000E-03 0.  1.
         11   -1    0    0    0    0 -0.00000000000E+00 -0.00000000000E+00 -0.45593999997E+02  0.45594000000E+02  0.51100000000E-03 0. -1.
    9900012    2    1    2    0    0 -0.28184259752E+02  0.27072730816E+02 -0.11219649487E+02  0.50528858516E+02  0.29999995946E+02 0.  0.
        -12    1    1    2    0    0  0.28184259752E+02 -0.27072730816E+02  0.11219649487E+02  0.40659141484E+02  0.00000000000E+00 0.  1.
         11    1    3    3    0    0  0.20063836395E+01  0.19523397828E+01 -0.41793193383E+01  0.50302998249E+01  0.51100000000E-03 0. -1.
        -11    1    3    3    0    0  0.92055435096E+00 -0.22285696975E+01  0.19619225346E+01  0.31085500643E+01  0.51100000000E-03 0.  1.
        -12    1    3    3    0    0 -0.31111197742E+02  0.27348960731E+02 -0.90022526830E+01  0.42390008627E+02  0.00000000000E+00 0.  1.
</event>
<event>
 7    1  0.3014423E-011  0.5052889E+02  0.7816164E-02  0.1300439E+00
        -11   -1    0    0    0    0  0.00000000000E+00  0.00000000000E+00  0.45593999997E+02  0.45594000000E+02  0.51100000000E-03 0.  1.
         11   -1    0    0    0    0 -0.00000000000E+00 -0.00000000000E+00 -0.45593999997E+02  0.45594000000E+02  0.51100000000E-03 0. -1.
    9900012    2    1    2    0    0  0.39201799129E+02  0.93246172171E+01 -0.54253145535E+01  0.50528885656E+02  0.30000078441E+02 0.  0.
        -12    1    1    2    0    0 -0.39201799129E+02 -0.93246172171E+01  0.54253145535E+01  0.40659114344E+02  0.00000000000E+00 0.  1.
         11    1    3    3    0    0  0.10737144866E+01 -0.48483752820E+01 -0.32949532634E+01  0.59595572774E+01  0.51100000000E-03 0. -1.
        -11    1    3    3    0    0  0.37253379876E+01  0.34403082228E+01 -0.65256504823E+01  0.82642590877E+01  0.51100000000E-03 0.  1.
         12    1    3    3    0    0  0.34402746655E+02  0.10732684276E+02  0.43952891922E+01  0.36305069291E+02  0.00000000000E+00 0. -1.
</event>
<event>
 7    1  0.3014423E-011  0.5052885E+02  0.7816164E-02  0.1300439E+00
        -11   -1    0    0    0    0  0.00000000000E+00  0.00000000000E+00  0.45593999997E+02  0.45594000000E+02  0.51100000000E-03 0.  1.
         11   -1    0    0    0    0 -0.00000000000E+00 -0.00000000000E+00 -0.45593999997E+02  0.45594000000E+02  0.51100000000E-03 0. -1.
    9900012    2    1    2    0    0  0.83304492909E+01  0.34029516334E+02 -0.20633998493E+02  0.50528852676E+02  0.29999978195E+02 0.  0.
        -12    1    1    2    0    0 -0.83304492909E+01 -0.34029516334E+02  0.20633998493E+02  0.40659147324E+02  0.00000000000E+00 0.  1.
         11    1    3    3    0    0  0.85436694417E+01  0.11958748560E+02 -0.37652629075E+00  0.14701963371E+02  0.51100000000E-03 0. -1.
        -11    1    3    3    0    0  0.95322775304E+01  0.86304105237E+01 -0.10231153801E+02  0.16432431624E+02  0.51100000000E-03 0.  1.
        -12    1    3    3    0    0 -0.97454976811E+01  0.13440357250E+02 -0.10026318401E+02  0.19394457681E+02  0.00000000000E+00 0.  1.
</event>
<event>
 7    1  0.3014423E-011  0.5052886E+02  0.7816164E-02  0.1300439E+00
        -11   -1    0    0    0    0  0.00000000000E+00  0.00000000000E+00  0.45593999997E+02  0.45594000000E+02  0.51100000000E-03 0.  1.
         11   -1    0    0    0    0 -0.00000000000E+00 -0.00000000000E+00 -0.45593999997E+02  0.45594000000E+02  0.51100000000E-03 0. -1.
    9900012    2    1    2    0    0  0.31340698324E+02 -0.11033122667E+02 -0.23434941117E+02  0.50528860408E+02  0.30000001695E+02 0.  0.
        -12    1    1    2    0    0 -0.31340698324E+02  0.11033122667E+02  0.23434941117E+02  0.40659139592E+02  0.00000000000E+00 0.  1.
         11    1    3    3    0    0  0.87625727818E+01 -0.92598593467E+01 -0.20268790122E+01  0.12908753451E+02  0.51100000000E-03 0. -1.
        -11    1    3    3    0    0  0.14144245205E+01 -0.85501973210E+01 -0.50965072541E+01  0.10053897623E+02  0.51100000000E-03 0.  1.
        -12    1    3    3    0    0  0.21163701021E+02  0.67769340005E+01 -0.16311554851E+02  0.27566209334E+02  0.00000000000E+00 0.  1.
</event>
<event>
 7    1  0.3014423E-011  0.5052886E+02  0.7816164E-02  0.1300439E+00
        -11   -1    0    0    0    0  0.00000000000E+00  0.00000000000E+00  0.45593999997E+02  0.45594000000E+02  0.51100000000E-03 0. -1.
         11   -1    0    0    0    0 -0.00000000000E+00 -0.00000000000E+00 -0.45593999997E+02  0.45594000000E+02  0.51100000000E-03 0.  1.
    9900012    2    1    2    0    0 -0.34923527601E+02 -0.49130487084E+01  0.20233005928E+02  0.50528863799E+02  0.30000012004E+02 0.  0.
        -12    1    1    2    0    0  0.34923527601E+02  0.49130487084E+01 -0.20233005928E+02  0.40659136201E+02  0.00000000000E+00 0.  1.
         11    1    3    3    0    0  0.12531826079E+01 -0.23108434563E+01  0.58625352068E+00  0.26933543361E+01  0.51100000000E-03 0.  1.
        -11    1    3    3    0    0 -0.45026569692E+01  0.84312596819E+01  0.75485602238E+01  0.12179524675E+02  0.51100000000E-03 0. -1.
         12    1    3    3    0    0 -0.31674053239E+02 -0.11033464934E+02  0.12098192184E+02  0.35655984788E+02  0.00000000000E+00 0. -1.
</event>
<event>
 7    1  0.3014423E-011  0.5052886E+02  0.7816164E-02  0.1300439E+00
        -11   -1    0    0    0    0  0.00000000000E+00  0.00000000000E+00  0.45593999997E+02  0.45594000000E+02  0.51100000000E-03 0. -1.
         11   -1    0    0    0    0 -0.00000000000E+00 -0.00000000000E+00 -0.45593999997E+02  0.45594000000E+02  0.51100000000E-03 0.  1.
    9900012    2    1    2    0    0 -0.39710301441E+02  0.33189464804E+01  0.80772686678E+01  0.50528859387E+02  0.29999998592E+02 0.  0.
        -12    1    1    2    0    0  0.39710301441E+02 -0.33189464804E+01 -0.80772686678E+01  0.40659140613E+02  0.00000000000E+00 0.  1.
         11    1    3    3    0    0  0.11534612839E+01 -0.26422794651E+01 -0.28835935515E+01  0.40776495358E+01  0.51100000000E-03 0. -1.
        -11    1    3    3    0    0 -0.70507051133E+01  0.48918923422E+01  0.91917417323E+01  0.12575021655E+02  0.51100000000E-03 0.  1.
        -12    1    3    3    0    0 -0.33813057612E+02  0.10693336033E+01  0.17691204870E+01  0.33876188196E+02  0.00000000000E+00 0.  1.
</event>
<event>
 7    1  0.3014423E-011  0.5052886E+02  0.7816164E-02  0.1300439E+00
        -11   -1    0    0    0    0  0.00000000000E+00  0.00000000000E+00  0.45593999997E+02  0.45594000000E+02  0.51100000000E-03 0. -1.
         11   -1    0    0    0    0 -0.00000000000E+00 -0.00000000000E+00 -0.45593999997E+02  0.45594000000E+02  0.51100000000E-03 0.  1.
    9900012    2    1    2    0    0  0.14031625336E+02  0.12830731628E+02  0.35939557906E+02  0.50528855812E+02  0.29999987725E+02 0.  0.
        -12    1    1    2    0    0 -0.14031625336E+02 -0.12830731628E+02 -0.35939557906E+02  0.40659144188E+02  0.00000000000E+00 0.  1.
         11    1    3    3    0    0  0.12578481928E+02  0.70251970990E+01  0.28104362731E+02  0.31582064635E+02  0.51100000000E-03 0. -1.
        -11    1    3    3    0    0  0.20415115887E+01 -0.90273781611E+00  0.11199042596E+02  0.11419337128E+02  0.51100000000E-03 0.  1.
        -12    1    3    3    0    0 -0.58836818052E+00  0.67082723451E+01 -0.33638474205E+01  0.75274540477E+01  0.00000000000E+00 0.  1.
</event>
<event>
 7    1  0.3014423E-011  0.5052886E+02  0.7816164E-02  0.1300439E+00
        -11   -1    0    0    0    0  0.00000000000E+00  0.00000000000E+00  0.45593999997E+02  0.45594000000E+02  0.51100000000E-03 0.  1.
         11   -1    0    0    0    0 -0.00000000000E+00 -0.00000000000E+00 -0.45593999997E+02  0.45594000000E+02  0.51100000000E-03 0. -1.
    9900012    2    1    2    0    0  0.26056609101E+02  0.50471634609E+01 -0.30801699762E+02  0.50528862711E+02  0.30000008697E+02 0.  0.
        -12    1    1    2    0    0 -0.26056609101E+02 -0.50471634609E+01  0.30801699762E+02  0.40659137289E+02  0.00000000000E+00 0.  1.
         11    1    3    3    0    0  0.12098862707E+01  0.30406249153E+01 -0.75751043405E+01  0.82517531891E+01  0.51100000000E-03 0. -1.
        -11    1    3    3    0    0 -0.11089812765E+01  0.70992783668E+01 -0.10996444511E+02  0.13135881582E+02  0.51100000000E-03 0.  1.
        -12    1    3    3    0    0  0.25955704106E+02 -0.50927398212E+01 -0.12230150911E+02  0.29141227940E+02  0.00000000000E+00 0.  1.
</event>
<event>
 7    1  0.3014423E-011  0.5052887E+02  0.7816164E-02  0.1300439E+00
        -11   -1    0    0    0    0  0.00000000000E+00  0.00000000000E+00  0.45593999997E+02  0.45594000000E+02  0.51100000000E-03 0. -1.
         11   -1    0    0    0    0 -0.00000000000E+00 -0.00000000000E+00 -0.45593999997E+02  0.45594000000E+02  0.51100000000E-03 0.  1.
    9900012    2    1    2    0    0 -0.11776148824E+02  0.13135117011E+02  0.36632714945E+02  0.50528870837E+02  0.30000033397E+02 0.  0.
        -12    1    1    2    0    0  0.11776148824E+02 -0.13135117011E+02 -0.36632714945E+02  0.40659129163E+02  0.00000000000E+00 0.  1.
         11    1    3    3    0    0  0.20603440054E+01 -0.19737853561E+01  0.17506832551E+02  0.17737813627E+02  0.51100000000E-03 0. -1.
        -11    1    3    3    0    0 -0.13846348617E+01 -0.37721274360E+01  0.28615193656E+01  0.49329962938E+01  0.51100000000E-03 0.  1.
         12    1    3    3    0    0 -0.12451857968E+02  0.18881029803E+02  0.16264363029E+02  0.27858060916E+02  0.00000000000E+00 0. -1.
</event>
<event>
 7    1  0.3014423E-011  0.5052886E+02  0.7816164E-02  0.1300439E+00
        -11   -1    0    0    0    0  0.00000000000E+00  0.00000000000E+00  0.45593999997E+02  0.45594000000E+02  0.51100000000E-03 0.  1.
         11   -1    0    0    0    0 -0.00000000000E+00 -0.00000000000E+00 -0.45593999997E+02  0.45594000000E+02  0.51100000000E-03 0. -1.
    9900012    2    1    2    0    0 -0.33398567680E+02  0.12525185720E+02 -0.19514646468E+02  0.50528855553E+02  0.29999986938E+02 0.  0.
        -12    1    1    2    0    0  0.33398567680E+02 -0.12525185720E+02  0.19514646468E+02  0.40659144447E+02  0.00000000000E+00 0.  1.
         11    1    3    3    0    0 -0.12614020250E+02  0.13754367800E+02  0.15230741867E+01  0.18724740204E+02  0.51100000000E-03 0. -1.
        -11    1    3    3    0    0 -0.37905675648E+01  0.45290488524E+01 -0.54265417369E+01  0.80204763857E+01  0.51100000000E-03 0.  1.
         12    1    3    3    0    0 -0.16993979865E+02 -0.57582309324E+01 -0.15611178918E+02  0.23783638963E+02  0.00000000000E+00 0. -1.
</event>
<event>
 7    1  0.3014423E-011  0.5052887E+02  0.7816164E-02  0.1300439E+00
        -11   -1    0    0    0    0  0.00000000000E+00  0.00000000000E+00  0.45593999997E+02  0.45594000000E+02  0.51100000000E-03 0.  1.
         11   -1    0    0    0    0 -0.00000000000E+00 -0.00000000000E+00 -0.45593999997E+02  0.45594000000E+02  0.51100000000E-03 0. -1.
    9900012    2    1    2    0    0 -0.24274505326E+02  0.74320874693E+01 -0.31759685777E+02  0.50528866049E+02  0.30000018843E+02 0.  0.
        -12    1    1    2    0    0  0.24274505326E+02 -0.74320874693E+01  0.31759685777E+02  0.40659133951E+02  0.00000000000E+00 0.  1.
         11    1    3    3    0    0 -0.52354003267E+01 -0.83813245609E+01 -0.28302595314E+01  0.10279415706E+02  0.51100000000E-03 0. -1.
        -11    1    3    3    0    0 -0.28219842348E+01 -0.13994149593E+01 -0.82621840012E+01  0.88422645278E+01  0.51100000000E-03 0.  1.
        -12    1    3    3    0    0 -0.16217120765E+02  0.17212826990E+02 -0.20667242244E+02  0.31407185816E+02  0.00000000000E+00 0.  1.
</event>
<event>
 7    1  0.3014423E-011  0.5052888E+02  0.7816164E-02  0.1300439E+00
        -11   -1    0    0    0    0  0.00000000000E+00  0.00000000000E+00  0.45593999997E+02  0.45594000000E+02  0.51100000000E-03 0. -1.
         11   -1    0    0    0    0 -0.00000000000E+00 -0.00000000000E+00 -0.45593999997E+02  0.45594000000E+02  0.51100000000E-03 0.  1.
    9900012    2    1    2    0    0 -0.23744817269E+02  0.33001561812E+02  0.49476693432E+00  0.50528877734E+02  0.30000054359E+02 0.  0.
        -12    1    1    2    0    0  0.23744817269E+02 -0.33001561812E+02 -0.49476693432E+00  0.40659122266E+02  0.00000000000E+00 0.  1.
         11    1    3    3    0    0 -0.18614334979E+02  0.16532817685E+02 -0.14820148065E+01  0.24940406883E+02  0.51100000000E-03 0. -1.
        -11    1    3    3    0    0 -0.10547978791E+01 -0.41673420044E+01 -0.79584938373E+00  0.43718090592E+01  0.51100000000E-03 0.  1.
        -12    1    3    3    0    0 -0.40756844104E+01  0.20636086131E+02  0.27726311246E+01  0.21216661792E+02  0.00000000000E+00 0.  1.
</event>
<event>
 7    1  0.3014423E-011  0.5052891E+02  0.7816164E-02  0.1300439E+00
        -11   -1    0    0    0    0  0.00000000000E+00  0.00000000000E+00  0.45593999997E+02  0.45594000000E+02  0.51100000000E-03 0.  1.
         11   -1    0    0    0    0 -0.00000000000E+00 -0.00000000000E+00 -0.45593999997E+02  0.45594000000E+02  0.51100000000E-03 0. -1.
    9900012    2    1    2    0    0 -0.17309750685E+02 -0.35685636575E+02 -0.89481541436E+01  0.50528910129E+02  0.30000152827E+02 0.  0.
        -12    1    1    2    0    0  0.17309750685E+02  0.35685636575E+02  0.89481541436E+01  0.40659089871E+02  0.00000000000E+00 0.  1.
         11    1    3    3    0    0 -0.14409581102E+02 -0.19180049182E+02  0.12662275703E+01  0.24023189769E+02  0.51100000000E-03 0. -1.
        -11    1    3    3    0    0 -0.42354860991E+01 -0.17458253632E+01  0.39175469229E+01  0.60278041482E+01  0.51100000000E-03 0.  1.
         12    1    3    3    0    0  0.13353165153E+01 -0.14759762030E+02 -0.14131928637E+02  0.20477916212E+02  0.00000000000E+00 0. -1.
</event>
<event>
 7    1  0.3014423E-011  0.5052886E+02  0.7816164E-02  0.1300439E+00
        -11   -1    0    0    0    0  0.00000000000E+00  0.00000000000E+00  0.45593999997E+02  0.45594000000E+02  0.51100000000E-03 0.  1.
         11   -1    0    0    0    0 -0.00000000000E+00 -0.00000000000E+00 -0.45593999997E+02  0.45594000000E+02  0.51100000000E-03 0. -1.
    9900012    2    1    2    0    0 -0.11307902678E+02 -0.72832553041E+00 -0.39048258036E+02  0.50528861093E+02  0.30000003777E+02 0.  0.
        -12    1    1    2    0    0  0.11307902678E+02  0.72832553041E+00  0.39048258036E+02  0.40659138907E+02  0.00000000000E+00 0.  1.
         11    1    3    3    0    0 -0.43802262616E+01 -0.81294821540E+00 -0.23645190176E+02  0.24061219538E+02  0.51100000000E-03 0. -1.
        -11    1    3    3    0    0 -0.11493795985E+02  0.31281809878E+01 -0.16995024425E+02  0.20753884406E+02  0.51100000000E-03 0.  1.
        -12    1    3    3    0    0  0.45661195682E+01 -0.30435583028E+01  0.15919565662E+01  0.57137571494E+01  0.00000000000E+00 0.  1.
</event>
<event>
 7    1  0.3014423E-011  0.5052886E+02  0.7816164E-02  0.1300439E+00
        -11   -1    0    0    0    0  0.00000000000E+00  0.00000000000E+00  0.45593999997E+02  0.45594000000E+02  0.51100000000E-03 0.  1.
         11   -1    0    0    0    0 -0.00000000000E+00 -0.00000000000E+00 -0.45593999997E+02  0.45594000000E+02  0.51100000000E-03 0. -1.
    9900012    2    1    2    0    0  0.93777423439E+01  0.12854078971E+02 -0.37416525447E+02  0.50528858664E+02  0.29999996395E+02 0.  0.
        -12    1    1    2    0    0 -0.93777423439E+01 -0.12854078971E+02  0.37416525447E+02  0.40659141336E+02  0.00000000000E+00 0.  1.
         11    1    3    3    0    0 -0.16275060132E+01  0.95355659046E+01 -0.21028677343E+02  0.23146945026E+02  0.51100000000E-03 0. -1.
        -11    1    3    3    0    0 -0.13660998241E+01  0.82355738565E+01 -0.84702486628E+01  0.11892687591E+02  0.51100000000E-03 0.  1.
        -12    1    3    3    0    0  0.12371348181E+02 -0.49170607903E+01 -0.79175994407E+01  0.15489226047E+02  0.00000000000E+00 0.  1.
</event>
<event>
 7    1  0.3014423E-011  0.5052886E+02  0.7816164E-02  0.1300439E+00
        -11   -1    0    0    0    0  0.00000000000E+00  0.00000000000E+00  0.45593999997E+02  0.45594000000E+02  0.51100000000E-03 0.  1.
         11   -1    0    0    0    0 -0.00000000000E+00 -0.00000000000E+00 -0.45593999997E+02  0.45594000000E+02  0.51100000000E-03 0. -1.
    9900012    2    1    2    0    0 -0.11830483816E+02  0.27293662841E+01 -0.38804074584E+02  0.50528855986E+02  0.29999988254E+02 0.  0.
        -12    1    1    2    0    0  0.11830483816E+02 -0.27293662841E+01  0.38804074584E+02  0.40659144014E+02  0.00000000000E+00 0.  1.
         11    1    3    3    0    0 -0.74577371063E+01 -0.98038361297E+01 -0.25571353153E+02  0.28383571797E+02  0.51100000000E-03 0. -1.
        -11    1    3    3    0    0  0.26884147910E+01  0.12201947325E+01 -0.66444157759E+01  0.72708122337E+01  0.51100000000E-03 0.  1.
        -12    1    3    3    0    0 -0.70611615007E+01  0.11313007681E+02 -0.65883056552E+01  0.14874471955E+02  0.00000000000E+00 0.  1.
</event>
<event>
 7    1  0.3014423E-011  0.5052886E+02  0.7816164E-02  0.1300439E+00
        -11   -1    0    0    0    0  0.00000000000E+00  0.00000000000E+00  0.45593999997E+02  0.45594000000E+02  0.51100000000E-03 0.  1.
         11   -1    0    0    0    0 -0.00000000000E+00 -0.00000000000E+00 -0.45593999997E+02  0.45594000000E+02  0.51100000000E-03 0. -1.
    9900012    2    1    2    0    0  0.26761554394E+01 -0.35584134415E+02 -0.19487776509E+02  0.50528857568E+02  0.29999993064E+02 0.  0.
        -12    1    1    2    0    0 -0.26761554394E+01  0.35584134415E+02  0.19487776509E+02  0.40659142432E+02  0.00000000000E+00 0.  1.
         11    1    3    3    0    0 -0.52097001175E+01 -0.15754990206E+02  0.26758596428E+01  0.16808358540E+02  0.51100000000E-03 0. -1.
        -11    1    3    3    0    0  0.15830372186E+01 -0.64908526657E+01  0.47650037803E+00  0.66980764429E+01  0.51100000000E-03 0.  1.
         12    1    3    3    0    0  0.63028183383E+01 -0.13338291543E+02 -0.22640136530E+02  0.27022422585E+02  0.00000000000E+00 0. -1.
</event>
<event>
 7    1  0.3014423E-011  0.5052887E+02  0.7816164E-02  0.1300439E+00
        -11   -1    0    0    0    0  0.00000000000E+00  0.00000000000E+00  0.45593999997E+02  0.45594000000E+02  0.51100000000E-03 0.  1.
         11   -1    0    0    0    0 -0.00000000000E+00 -0.00000000000E+00 -0.45593999997E+02  0.45594000000E+02  0.51100000000E-03 0. -1.
    9900012    2    1    2    0    0  0.29870216754E+02  0.21211308194E+02 -0.17635640335E+02  0.50528865058E+02  0.30000015830E+02 0.  0.
        -12    1    1    2    0    0 -0.29870216754E+02 -0.21211308194E+02  0.17635640335E+02  0.40659134942E+02  0.00000000000E+00 0.  1.
         11    1    3    3    0    0  0.49433131521E+01  0.99064992034E+01  0.67675687655E+01  0.12975941532E+02  0.51100000000E-03 0. -1.
        -11    1    3    3    0    0  0.16429133075E+02  0.10178814118E+02 -0.13020939701E+02  0.23303852501E+02  0.51100000000E-03 0.  1.
        -12    1    3    3    0    0  0.84977705272E+01  0.11259948727E+01 -0.11382269400E+02  0.14249071025E+02  0.00000000000E+00 0.  1.
</event>
<event>
 7    1  0.3014423E-011  0.5052886E+02  0.7816164E-02  0.1300439E+00
        -11   -1    0    0    0    0  0.00000000000E+00  0.00000000000E+00  0.45593999997E+02  0.45594000000E+02  0.51100000000E-03 0. -1.
         11   -1    0    0    0    0 -0.00000000000E+00 -0.00000000000E+00 -0.45593999997E+02  0.45594000000E+02  0.51100000000E-03 0.  1.
    9900012    2    1    2    0    0  0.10526444704E+02  0.36224705827E+02 -0.15170050008E+02  0.50528858745E+02  0.29999996641E+02 0.  0.
        -12    1    1    2    0    0 -0.10526444704E+02 -0.36224705827E+02  0.15170050008E+02  0.40659141255E+02  0.00000000000E+00 0.  1.
         11    1    3    3    0    0  0.14705068393E+01  0.16690343634E+02 -0.16136652137E+01  0.16832524370E+02  0.51100000000E-03 0. -1.
        -11    1    3    3    0    0 -0.14532926715E+01  0.16772086555E+02 -0.68128125452E+00  0.16848711862E+02  0.51100000000E-03 0.  1.
        -12    1    3    3    0    0  0.10509230536E+02  0.27622756374E+01 -0.12875103540E+02  0.16847622513E+02  0.00000000000E+00 0.  1.
</event>
<event>
 7    1  0.3014423E-011  0.5052887E+02  0.7816164E-02  0.1300439E+00
        -11   -1    0    0    0    0  0.00000000000E+00  0.00000000000E+00  0.45593999997E+02  0.45594000000E+02  0.51100000000E-03 0. -1.
         11   -1    0    0    0    0 -0.00000000000E+00 -0.00000000000E+00 -0.45593999997E+02  0.45594000000E+02  0.51100000000E-03 0.  1.
    9900012    2    1    2    0    0 -0.29331998923E+02 -0.26028054493E+02  0.10739604339E+02  0.50528869625E+02  0.30000029712E+02 0.  0.
        -12    1    1    2    0    0  0.29331998923E+02  0.26028054493E+02 -0.10739604339E+02  0.40659130375E+02  0.00000000000E+00 0.  1.
         11    1    3    3    0    0 -0.12655441291E+02 -0.12767876635E+02  0.17249119137E+01  0.18059739462E+02  0.51100000000E-03 0. -1.
        -11    1    3    3    0    0 -0.14063034511E+02 -0.16568032048E+02 -0.84272114750E+00  0.21748075887E+02  0.51100000000E-03 0.  1.
        -12    1    3    3    0    0 -0.26135231200E+01  0.33078541902E+01  0.98574135729E+01  0.10721054276E+02  0.00000000000E+00 0.  1.
</event>
<event>
 7    1  0.3014423E-011  0.5052886E+02  0.7816164E-02  0.1300439E+00
        -11   -1    0    0    0    0  0.00000000000E+00  0.00000000000E+00  0.45593999997E+02  0.45594000000E+02  0.51100000000E-03 0.  1.
         11   -1    0    0    0    0 -0.00000000000E+00 -0.00000000000E+00 -0.45593999997E+02  0.45594000000E+02  0.51100000000E-03 0. -1.
    9900012    2    1    2    0    0  0.21161096010E+02 -0.34146826562E+02 -0.62743683044E+01  0.50528862697E+02  0.30000008654E+02 0.  0.
        -12    1    1    2    0    0 -0.21161096010E+02  0.34146826562E+02  0.62743683044E+01  0.40659137303E+02  0.00000000000E+00 0.  1.
         11    1    3    3    0    0  0.15773844645E+02 -0.93126083212E+01 -0.88892537268E+01  0.20360689593E+02  0.51100000000E-03 0. -1.
        -11    1    3    3    0    0  0.66896232453E+01 -0.16834409596E+02 -0.52644452542E+01  0.18864325848E+02  0.51100000000E-03 0.  1.
        -12    1    3    3    0    0 -0.13023718802E+01 -0.79998086444E+01  0.78793306767E+01  0.11303847255E+02  0.00000000000E+00 0.  1.
</event>
<event>
 7    1  0.3014423E-011  0.5052887E+02  0.7816164E-02  0.1300439E+00
        -11   -1    0    0    0    0  0.00000000000E+00  0.00000000000E+00  0.45593999997E+02  0.45594000000E+02  0.51100000000E-03 0. -1.
         11   -1    0    0    0    0 -0.00000000000E+00 -0.00000000000E+00 -0.45593999997E+02  0.45594000000E+02  0.51100000000E-03 0.  1.
    9900012    2    1    2    0    0 -0.11644768008E+02 -0.30655089196E+02  0.24038089492E+02  0.50528869881E+02  0.30000030491E+02 0.  0.
        -12    1    1    2    0    0  0.11644768008E+02  0.30655089196E+02 -0.24038089492E+02  0.40659130119E+02  0.00000000000E+00 0.  1.
         11    1    3    3    0    0 -0.52703178550E+01 -0.49566841162E+01  0.16574113129E+02  0.18084418542E+02  0.51100000000E-03 0. -1.
        -11    1    3    3    0    0  0.20652027341E+01 -0.83251191012E+01  0.97602996440E+01  0.12993695386E+02  0.51100000000E-03 0.  1.
        -12    1    3    3    0    0 -0.84396528872E+01 -0.17373285979E+02 -0.22963232808E+01  0.19450755954E+02  0.00000000000E+00 0.  1.
</event>
<event>
 7    1  0.3014423E-011  0.5052886E+02  0.7816164E-02  0.1300439E+00
        -11   -1    0    0    0    0  0.00000000000E+00  0.00000000000E+00  0.45593999997E+02  0.45594000000E+02  0.51100000000E-03 0.  1.
         11   -1    0    0    0    0 -0.00000000000E+00 -0.00000000000E+00 -0.45593999997E+02  0.45594000000E+02  0.51100000000E-03 0. -1.
    9900012    2    1    2    0    0  0.17458486567E+02 -0.36574137485E+02 -0.32709613633E+01  0.50528862353E+02  0.30000007608E+02 0.  0.
        -12    1    1    2    0    0 -0.17458486567E+02  0.36574137485E+02  0.32709613633E+01  0.40659137647E+02  0.00000000000E+00 0.  1.
         11    1    3    3    0    0  0.10298205392E+02 -0.38503532560E+02 -0.54526510250E+01  0.40228179891E+02  0.51100000000E-03 0. -1.
        -11    1    3    3    0    0  0.15891379636E+01 -0.24753642766E+01  0.96029077014E+00  0.30943410274E+01  0.51100000000E-03 0.  1.
        -12    1    3    3    0    0  0.55711432114E+01  0.44047593512E+01  0.12213988916E+01  0.72063414349E+01  0.00000000000E+00 0.  1.
</event>
<event>
 7    1  0.3014423E-011  0.5052887E+02  0.7816164E-02  0.1300439E+00
        -11   -1    0    0    0    0  0.00000000000E+00  0.00000000000E+00  0.45593999997E+02  0.45594000000E+02  0.51100000000E-03 0.  1.
         11   -1    0    0    0    0 -0.00000000000E+00 -0.00000000000E+00 -0.45593999997E+02  0.45594000000E+02  0.51100000000E-03 0. -1.
    9900012    2    1    2    0    0  0.25784309762E+02 -0.17971874895E+02 -0.25794308153E+02  0.50528865108E+02  0.30000015981E+02 0.  0.
        -12    1    1    2    0    0 -0.25784309762E+02  0.17971874895E+02  0.25794308153E+02  0.40659134892E+02  0.00000000000E+00 0.  1.
         11    1    3    3    0    0  0.73469030097E+01 -0.13167266256E+02 -0.10821504034E+02  0.18559602213E+02  0.51100000000E-03 0. -1.
        -11    1    3    3    0    0  0.35098895700E+01 -0.86466395493E+01 -0.13600659499E+02  0.16494291115E+02  0.51100000000E-03 0.  1.
        -12    1    3    3    0    0  0.14927517182E+02  0.38420309102E+01 -0.13721446194E+01  0.15474971780E+02  0.00000000000E+00 0.  1.
</event>
<event>
 7    1  0.3014423E-011  0.5052886E+02  0.7816164E-02  0.1300439E+00
        -11   -1    0    0    0    0  0.00000000000E+00  0.00000000000E+00  0.45593999997E+02  0.45594000000E+02  0.51100000000E-03 0.  1.
         11   -1    0    0    0    0 -0.00000000000E+00 -0.00000000000E+00 -0.45593999997E+02  0.45594000000E+02  0.51100000000E-03 0. -1.
    9900012    2    1    2    0    0  0.37305032609E+02  0.15814837366E+02 -0.33750590206E+01  0.50528861270E+02  0.30000004316E+02 0.  0.
        -12    1    1    2    0    0 -0.37305032609E+02 -0.15814837366E+02  0.33750590206E+01  0.40659138730E+02  0.00000000000E+00 0.  1.
         11    1    3    3    0    0  0.19529960202E+02  0.17048110726E+02  0.22225527771E+01  0.26019169201E+02  0.51100000000E-03 0. -1.
        -11    1    3    3    0    0  0.92988250596E+01  0.50742324839E+01  0.28638859548E+01  0.10973505630E+02  0.51100000000E-03 0.  1.
         12    1    3    3    0    0  0.84762473476E+01 -0.63075058444E+01 -0.84614977526E+01  0.13536186438E+02  0.00000000000E+00 0. -1.
</event>
<event>
 7    1  0.3014423E-011  0.5052888E+02  0.7816164E-02  0.1300439E+00
        -11   -1    0    0    0    0  0.00000000000E+00  0.00000000000E+00  0.45593999997E+02  0.45594000000E+02  0.51100000000E-03 0. -1.
         11   -1    0    0    0    0 -0.00000000000E+00 -0.00000000000E+00 -0.45593999997E+02  0.45594000000E+02  0.51100000000E-03 0.  1.
    9900012    2    1    2    0    0  0.91390668520E+01  0.37265742525E+02  0.13450132431E+02  0.50528878376E+02  0.30000056311E+02 0.  0.
        -12    1    1    2    0    0 -0.91390668520E+01 -0.37265742525E+02 -0.13450132431E+02  0.40659121624E+02  0.00000000000E+00 0.  1.
         11    1    3    3    0    0  0.95634418309E-01  0.35883930081E+00 -0.92763319567E+00  0.99920728210E+00  0.51100000000E-03 0. -1.
        -11    1    3    3    0    0  0.79119574796E+01  0.17288107289E+02 -0.72130079555E+01  0.20334827484E+02  0.51100000000E-03 0.  1.
         12    1    3    3    0    0  0.11314749541E+01  0.19618795935E+02  0.21590773582E+02  0.29194843610E+02  0.00000000000E+00 0. -1.
</event>
<event>
 7    1  0.3014423E-011  0.5052885E+02  0.7816164E-02  0.1300439E+00
        -11   -1    0    0    0    0  0.00000000000E+00  0.00000000000E+00  0.45593999997E+02  0.45594000000E+02  0.51100000000E-03 0.  1.
         11   -1    0    0    0    0 -0.00000000000E+00 -0.00000000000E+00 -0.45593999997E+02  0.45594000000E+02  0.51100000000E-03 0. -1.
    9900012    2    1    2    0    0 -0.28894369967E+02 -0.25361546512E+02 -0.13231535635E+02  0.50528853519E+02  0.29999980757E+02 0.  0.
        -12    1    1    2    0    0  0.28894369967E+02  0.25361546512E+02  0.13231535635E+02  0.40659146481E+02  0.00000000000E+00 0.  1.
         11    1    3    3    0    0 -0.95823606504E+01 -0.31027817142E+01  0.65621906008E+01  0.12021282616E+02  0.51100000000E-03 0. -1.
        -11    1    3    3    0    0 -0.33151410413E+00 -0.32865591032E+01  0.20647728381E+01  0.38954665284E+01  0.51100000000E-03 0.  1.
         12    1    3    3    0    0 -0.18980495213E+02 -0.18972205694E+02 -0.21858499074E+02  0.34612104374E+02  0.00000000000E+00 0. -1.
</event>
<event>
 7    1  0.3014423E-011  0.5052885E+02  0.7816164E-02  0.1300439E+00
        -11   -1    0    0    0    0  0.00000000000E+00  0.00000000000E+00  0.45593999997E+02  0.45594000000E+02  0.51100000000E-03 0.  1.
         11   -1    0    0    0    0 -0.00000000000E+00 -0.00000000000E+00 -0.45593999997E+02  0.45594000000E+02  0.51100000000E-03 0. -1.
    9900012    2    1    2    0    0  0.21205112973E+02  0.18555232679E+01 -0.34641980382E+02  0.50528848661E+02  0.29999965990E+02 0.  0.
        -12    1    1    2    0    0 -0.21205112973E+02 -0.18555232679E+01  0.34641980382E+02  0.40659151339E+02  0.00000000000E+00 0.  1.
         11    1    3    3    0    0  0.98806984751E+01 -0.84420174400E+01 -0.41144392390E+01  0.13631744985E+02  0.51100000000E-03 0. -1.
        -11    1    3    3    0    0  0.45666540371E+01 -0.28222332886E+01 -0.46272875693E+01  0.70873916457E+01  0.51100000000E-03 0.  1.
         12    1    3    3    0    0  0.67577604605E+01  0.13119773996E+02 -0.25900253574E+02  0.29809712031E+02  0.00000000000E+00 0. -1.
</event>
<event>
 7    1  0.3014423E-011  0.5052886E+02  0.7816164E-02  0.1300439E+00
        -11   -1    0    0    0    0  0.00000000000E+00  0.00000000000E+00  0.45593999997E+02  0.45594000000E+02  0.51100000000E-03 0.  1.
         11   -1    0    0    0    0 -0.00000000000E+00 -0.00000000000E+00 -0.45593999997E+02  0.45594000000E+02  0.51100000000E-03 0. -1.
    9900012    2    1    2    0    0  0.15675598377E+02 -0.23929668411E+01 -0.37439484245E+02  0.50528860126E+02  0.30000000840E+02 0.  0.
        -12    1    1    2    0    0 -0.15675598377E+02  0.23929668411E+01  0.37439484245E+02  0.40659139874E+02  0.00000000000E+00 0.  1.
         11    1    3    3    0    0  0.27059713838E+01 -0.79448076693E+01 -0.78912986892E+01  0.11520192937E+02  0.51100000000E-03 0. -1.
        -11    1    3    3    0    0 -0.14558481646E+01 -0.54138759191E+01 -0.18379833056E+01  0.58998075594E+01  0.51100000000E-03 0.  1.
        -12    1    3    3    0    0  0.14425475157E+02  0.10965716747E+02 -0.27710202250E+02  0.33108859630E+02  0.00000000000E+00 0.  1.
</event>
<event>
 7    1  0.3014423E-011  0.5052887E+02  0.7816164E-02  0.1300439E+00
        -11   -1    0    0    0    0  0.00000000000E+00  0.00000000000E+00  0.45593999997E+02  0.45594000000E+02  0.51100000000E-03 0.  1.
         11   -1    0    0    0    0 -0.00000000000E+00 -0.00000000000E+00 -0.45593999997E+02  0.45594000000E+02  0.51100000000E-03 0. -1.
    9900012    2    1    2    0    0 -0.10093467985E+02  0.16758778111E+02 -0.35643093612E+02  0.50528869882E+02  0.30000030492E+02 0.  0.
        -12    1    1    2    0    0  0.10093467985E+02 -0.16758778111E+02  0.35643093612E+02  0.40659130118E+02  0.00000000000E+00 0.  1.
         11    1    3    3    0    0 -0.33945731368E+01  0.15456459146E+01 -0.21505458211E+02  0.21826517845E+02  0.51100000000E-03 0. -1.
        -11    1    3    3    0    0  0.13512002151E+00 -0.35778313490E+01  0.89039974899E+00  0.36894371598E+01  0.51100000000E-03 0.  1.
         12    1    3    3    0    0 -0.68340148696E+01  0.18790963545E+02 -0.15028035150E+02  0.25012914877E+02  0.00000000000E+00 0. -1.
</event>
<event>
 7    1  0.3014423E-011  0.5052886E+02  0.7816164E-02  0.1300439E+00
        -11   -1    0    0    0    0  0.00000000000E+00  0.00000000000E+00  0.45593999997E+02  0.45594000000E+02  0.51100000000E-03 0.  1.
         11   -1    0    0    0    0 -0.00000000000E+00 -0.00000000000E+00 -0.45593999997E+02  0.45594000000E+02  0.51100000000E-03 0. -1.
    9900012    2    1    2    0    0 -0.17077746657E+02  0.28862156297E+02 -0.22988956110E+02  0.50528860805E+02  0.30000002904E+02 0.  0.
        -12    1    1    2    0    0  0.17077746657E+02 -0.28862156297E+02  0.22988956110E+02  0.40659139195E+02  0.00000000000E+00 0.  1.
         11    1    3    3    0    0 -0.29546200389E+01  0.25307764994E+01  0.41869202677E+01  0.57153224628E+01  0.51100000000E-03 0. -1.
        -11    1    3    3    0    0  0.21097947368E+01 -0.11421666749E+01  0.63801698255E+00  0.24825076990E+01  0.51100000000E-03 0.  1.
         12    1    3    3    0    0 -0.16232921355E+02  0.27473546473E+02 -0.27813893360E+02  0.42331030644E+02  0.00000000000E+00 0. -1.
</event>
<event>
 7    1  0.3014423E-011  0.5052886E+02  0.7816164E-02  0.1300439E+00
        -11   -1    0    0    0    0  0.00000000000E+00  0.00000000000E+00  0.45593999997E+02  0.45594000000E+02  0.51100000000E-03 0.  1.
         11   -1    0    0    0    0 -0.00000000000E+00 -0.00000000000E+00 -0.45593999997E+02  0.45594000000E+02  0.51100000000E-03 0. -1.
    9900012    2    1    2    0    0 -0.32287095242E+02 -0.61858467130E+01 -0.23925810957E+02  0.50528860207E+02  0.30000001085E+02 0.  0.
        -12    1    1    2    0    0  0.32287095242E+02  0.61858467130E+01  0.23925810957E+02  0.40659139793E+02  0.00000000000E+00 0.  1.
         11    1    3    3    0    0 -0.10559403721E+02  0.42001277048E+01 -0.16439988617E+02  0.19985377296E+02  0.51100000000E-03 0. -1.
        -11    1    3    3    0    0 -0.60203349962E+01 -0.88113091104E+01 -0.99207784497E+01  0.14570705097E+02  0.51100000000E-03 0.  1.
        -12    1    3    3    0    0 -0.15707356525E+02 -0.15746653074E+01  0.24349561097E+01  0.15972777814E+02  0.00000000000E+00 0.  1.
</event>
<event>
 7    1  0.3014423E-011  0.5052886E+02  0.7816164E-02  0.1300439E+00
        -11   -1    0    0    0    0  0.00000000000E+00  0.00000000000E+00  0.45593999997E+02  0.45594000000E+02  0.51100000000E-03 0.  1.
         11   -1    0    0    0    0 -0.00000000000E+00 -0.00000000000E+00 -0.45593999997E+02  0.45594000000E+02  0.51100000000E-03 0. -1.
    9900012    2    1    2    0    0  0.27926196856E+02  0.29411050579E+02  0.28780386760E+01  0.50528862360E+02  0.30000007628E+02 0.  0.
        -12    1    1    2    0    0 -0.27926196856E+02 -0.29411050579E+02 -0.28780386760E+01  0.40659137640E+02  0.00000000000E+00 0.  1.
         11    1    3    3    0    0  0.21833492849E+02  0.17272042401E+02  0.39162348782E+01  0.28113373234E+02  0.51100000000E-03 0. -1.
        -11    1    3    3    0    0  0.10174821233E+02  0.14463292085E+02 -0.54346361173E+00  0.17692064832E+02  0.51100000000E-03 0.  1.
        -12    1    3    3    0    0 -0.40821172260E+01 -0.23242839065E+01 -0.49473259052E+00  0.47234242940E+01  0.00000000000E+00 0.  1.
</event>
<event>
 7    1  0.3014423E-011  0.5052886E+02  0.7816164E-02  0.1300439E+00
        -11   -1    0    0    0    0  0.00000000000E+00  0.00000000000E+00  0.45593999997E+02  0.45594000000E+02  0.51100000000E-03 0. -1.
         11   -1    0    0    0    0 -0.00000000000E+00 -0.00000000000E+00 -0.45593999997E+02  0.45594000000E+02  0.51100000000E-03 0.  1.
    9900012    2    1    2    0    0 -0.31980288239E+02  0.24776715308E+02  0.40670839949E+01  0.50528860442E+02  0.30000001801E+02 0.  0.
        -12    1    1    2    0    0  0.31980288239E+02 -0.24776715308E+02 -0.40670839949E+01  0.40659139558E+02  0.00000000000E+00 0.  1.
         11    1    3    3    0    0 -0.96095888394E+01  0.76226313859E+01 -0.38592728277E+01  0.12858565003E+02  0.51100000000E-03 0. -1.
        -11    1    3    3    0    0 -0.84217578210E+01  0.19483424617E+02 -0.45607704118E+00  0.21230587513E+02  0.51100000000E-03 0.  1.
         12    1    3    3    0    0 -0.13948941579E+02 -0.23293406948E+01  0.83824338637E+01  0.16439707927E+02  0.00000000000E+00 0. -1.
</event>
<event>
 7    1  0.3014423E-011  0.5052884E+02  0.7816164E-02  0.1300439E+00
        -11   -1    0    0    0    0  0.00000000000E+00  0.00000000000E+00  0.45593999997E+02  0.45594000000E+02  0.51100000000E-03 0.  1.
         11   -1    0    0    0    0 -0.00000000000E+00 -0.00000000000E+00 -0.45593999997E+02  0.45594000000E+02  0.51100000000E-03 0. -1.
    9900012    2    1    2    0    0 -0.38687885395E+02 -0.24465040993E+01  0.12264964372E+02  0.50528841011E+02  0.29999942737E+02 0.  0.
        -12    1    1    2    0    0  0.38687885395E+02  0.24465040993E+01 -0.12264964372E+02  0.40659158989E+02  0.00000000000E+00 0.  1.
         11    1    3    3    0    0 -0.18117820525E+01  0.12105890232E+01  0.13613080511E+01  0.25692878119E+01  0.51100000000E-03 0. -1.
        -11    1    3    3    0    0 -0.19657636139E+02 -0.14337443114E+02 -0.11954783815E+01  0.24360092415E+02  0.51100000000E-03 0.  1.
        -12    1    3    3    0    0 -0.17218467203E+02  0.10680349992E+02  0.12099134703E+02  0.23599460785E+02  0.00000000000E+00 0.  1.
</event>
<event>
 7    1  0.3014423E-011  0.5052886E+02  0.7816164E-02  0.1300439E+00
        -11   -1    0    0    0    0  0.00000000000E+00  0.00000000000E+00  0.45593999997E+02  0.45594000000E+02  0.51100000000E-03 0.  1.
         11   -1    0    0    0    0 -0.00000000000E+00 -0.00000000000E+00 -0.45593999997E+02  0.45594000000E+02  0.51100000000E-03 0. -1.
    9900012    2    1    2    0    0 -0.31472997410E+02  0.24646361203E+02  0.74278411620E+01  0.50528861902E+02  0.30000006237E+02 0.  0.
        -12    1    1    2    0    0  0.31472997410E+02 -0.24646361203E+02 -0.74278411620E+01  0.40659138098E+02  0.00000000000E+00 0.  1.
         11    1    3    3    0    0 -0.15765061717E+01  0.32508836294E+01 -0.45787059538E+01  0.58325092845E+01  0.51100000000E-03 0.  1.
        -11    1    3    3    0    0 -0.16338412104E+02  0.86252406172E+01 -0.53533215687E+01  0.19235294068E+02  0.51100000000E-03 0. -1.
         12    1    3    3    0    0 -0.13558079134E+02  0.12770236957E+02  0.17359868684E+02  0.25461058550E+02  0.00000000000E+00 0. -1.
</event>
<event>
 7    1  0.3014423E-011  0.5052886E+02  0.7816164E-02  0.1300439E+00
        -11   -1    0    0    0    0  0.00000000000E+00  0.00000000000E+00  0.45593999997E+02  0.45594000000E+02  0.51100000000E-03 0.  1.
         11   -1    0    0    0    0 -0.00000000000E+00 -0.00000000000E+00 -0.45593999997E+02  0.45594000000E+02  0.51100000000E-03 0. -1.
    9900012    2    1    2    0    0  0.15228323968E+02 -0.27230171690E+01 -0.37601186164E+02  0.50528857433E+02  0.29999992653E+02 0.  0.
        -12    1    1    2    0    0 -0.15228323968E+02  0.27230171690E+01  0.37601186164E+02  0.40659142567E+02  0.00000000000E+00 0.  1.
         11    1    3    3    0    0  0.60060330271E+01  0.13938180707E+01 -0.18820975750E+01  0.64465070449E+01  0.51100000000E-03 0. -1.
        -11    1    3    3    0    0  0.34257055111E+01 -0.44521746869E+00  0.31120914060E+01  0.46496010607E+01  0.51100000000E-03 0.  1.
         12    1    3    3    0    0  0.57965854299E+01 -0.36716177710E+01 -0.38831179995E+02  0.39432749327E+02  0.00000000000E+00 0. -1.
</event>
<event>
 7    1  0.3014423E-011  0.5052886E+02  0.7816164E-02  0.1300439E+00
        -11   -1    0    0    0    0  0.00000000000E+00  0.00000000000E+00  0.45593999997E+02  0.45594000000E+02  0.51100000000E-03 0.  1.
         11   -1    0    0    0    0 -0.00000000000E+00 -0.00000000000E+00 -0.45593999997E+02  0.45594000000E+02  0.51100000000E-03 0. -1.
    9900012    2    1    2    0    0  0.23811607439E+02  0.41187275896E+01 -0.32698764750E+02  0.50528858568E+02  0.29999996103E+02 0.  0.
        -12    1    1    2    0    0 -0.23811607439E+02 -0.41187275896E+01  0.32698764750E+02  0.40659141432E+02  0.00000000000E+00 0.  1.
         11    1    3    3    0    0  0.10149989163E+02 -0.87163273789E+01 -0.16150118808E+02  0.20971957008E+02  0.51100000000E-03 0. -1.
        -11    1    3    3    0    0  0.14242531506E+02  0.53590834511E+01 -0.15934073351E+02  0.22033251529E+02  0.51100000000E-03 0.  1.
        -12    1    3    3    0    0 -0.58091322990E+00  0.74759715174E+01 -0.61457259147E+00  0.75236500304E+01  0.00000000000E+00 0.  1.
</event>
<event>
 7    1  0.3014423E-011  0.5052885E+02  0.7816164E-02  0.1300439E+00
        -11   -1    0    0    0    0  0.00000000000E+00  0.00000000000E+00  0.45593999997E+02  0.45594000000E+02  0.51100000000E-03 0. -1.
         11   -1    0    0    0    0 -0.00000000000E+00 -0.00000000000E+00 -0.45593999997E+02  0.45594000000E+02  0.51100000000E-03 0.  1.
    9900012    2    1    2    0    0 -0.36442102453E+02  0.53223750726E+01  0.17228224182E+02  0.50528853229E+02  0.29999979876E+02 0.  0.
        -12    1    1    2    0    0  0.36442102453E+02 -0.53223750726E+01 -0.17228224182E+02  0.40659146771E+02  0.00000000000E+00 0.  1.
         11    1    3    3    0    0 -0.13094390948E+02  0.29698889049E+01  0.53249503404E+01  0.14444321057E+02  0.51100000000E-03 0. -1.
        -11    1    3    3    0    0 -0.14185364066E+02  0.13089613505E+02  0.10301659981E+02  0.21878910714E+02  0.51100000000E-03 0.  1.
        -12    1    3    3    0    0 -0.91623474400E+01 -0.10737127338E+02  0.16016138609E+01  0.14205621459E+02  0.00000000000E+00 0.  1.
</event>
<event>
 7    1  0.3014423E-011  0.5052886E+02  0.7816164E-02  0.1300439E+00
        -11   -1    0    0    0    0  0.00000000000E+00  0.00000000000E+00  0.45593999997E+02  0.45594000000E+02  0.51100000000E-03 0.  1.
         11   -1    0    0    0    0 -0.00000000000E+00 -0.00000000000E+00 -0.45593999997E+02  0.45594000000E+02  0.51100000000E-03 0. -1.
    9900012    2    1    2    0    0 -0.66766479197E+01  0.20455172884E+02 -0.34498894676E+02  0.50528862540E+02  0.30000008176E+02 0.  0.
        -12    1    1    2    0    0  0.66766479197E+01 -0.20455172884E+02  0.34498894676E+02  0.40659137460E+02  0.00000000000E+00 0.  1.
         11    1    3    3    0    0 -0.35844936156E+01  0.96023393748E+00 -0.50141400142E+01  0.62379679414E+01  0.51100000000E-03 0. -1.
        -11    1    3    3    0    0 -0.14553174530E+02  0.11606676545E+02 -0.12924444622E+02  0.22661665834E+02  0.51100000000E-03 0.  1.
         12    1    3    3    0    0  0.11461020226E+02  0.78882624016E+01 -0.16560310039E+02  0.21629228764E+02  0.00000000000E+00 0. -1.
</event>
<event>
 7    1  0.3014423E-011  0.5052883E+02  0.7816164E-02  0.1300439E+00
        -11   -1    0    0    0    0  0.00000000000E+00  0.00000000000E+00  0.45593999997E+02  0.45594000000E+02  0.51100000000E-03 0.  1.
         11   -1    0    0    0    0 -0.00000000000E+00 -0.00000000000E+00 -0.45593999997E+02  0.45594000000E+02  0.51100000000E-03 0. -1.
    9900012    2    1    2    0    0 -0.27159524356E+01  0.28368068586E+02 -0.29000763598E+02  0.50528831265E+02  0.29999913113E+02 0.  0.
        -12    1    1    2    0    0  0.27159524356E+01 -0.28368068586E+02  0.29000763598E+02  0.40659168735E+02  0.00000000000E+00 0.  1.
         11    1    3    3    0    0 -0.36085270686E+01  0.74341095287E+00  0.25838427544E+01  0.45000412320E+01  0.51100000000E-03 0. -1.
        -11    1    3    3    0    0 -0.40425830891E+00  0.32620221078E+01 -0.17607229416E+02  0.17911413707E+02  0.51100000000E-03 0.  1.
         12    1    3    3    0    0  0.12968329419E+01  0.24362635525E+02 -0.13977376937E+02  0.28117376326E+02  0.00000000000E+00 0. -1.
</event>
<event>
 7    1  0.3014423E-011  0.5052886E+02  0.7816164E-02  0.1300439E+00
        -11   -1    0    0    0    0  0.00000000000E+00  0.00000000000E+00  0.45593999997E+02  0.45594000000E+02  0.51100000000E-03 0. -1.
         11   -1    0    0    0    0 -0.00000000000E+00 -0.00000000000E+00 -0.45593999997E+02  0.45594000000E+02  0.51100000000E-03 0.  1.
    9900012    2    1    2    0    0  0.34984393978E+02  0.11086814906E+02  0.17502572782E+02  0.50528863994E+02  0.30000012597E+02 0.  0.
        -12    1    1    2    0    0 -0.34984393978E+02 -0.11086814906E+02 -0.17502572782E+02  0.40659136006E+02  0.00000000000E+00 0.  1.
         11    1    3    3    0    0 -0.12112612538E+01  0.41118881181E+01  0.23266635239E+01  0.48773088005E+01  0.51100000000E-03 0. -1.
        -11    1    3    3    0    0 -0.27189618888E+01  0.23435995280E+01  0.28066929248E+01  0.45566147451E+01  0.51100000000E-03 0.  1.
         12    1    3    3    0    0  0.38914617120E+02  0.46313272601E+01  0.12369216333E+02  0.41094940449E+02  0.00000000000E+00 0. -1.
</event>
<event>
 7    1  0.3014423E-011  0.5052886E+02  0.7816164E-02  0.1300439E+00
        -11   -1    0    0    0    0  0.00000000000E+00  0.00000000000E+00  0.45593999997E+02  0.45594000000E+02  0.51100000000E-03 0.  1.
         11   -1    0    0    0    0 -0.00000000000E+00 -0.00000000000E+00 -0.45593999997E+02  0.45594000000E+02  0.51100000000E-03 0. -1.
    9900012    2    1    2    0    0  0.10155950956E+02 -0.39292823667E+02 -0.24690486867E+01  0.50528861631E+02  0.30000005413E+02 0.  0.
        -12    1    1    2    0    0 -0.10155950956E+02  0.39292823667E+02  0.24690486867E+01  0.40659138369E+02  0.00000000000E+00 0.  1.
         11    1    3    3    0    0  0.14385496607E+02 -0.27902366256E+02 -0.52427808483E+00  0.31396805937E+02  0.51100000000E-03 0. -1.
        -11    1    3    3    0    0  0.74500932217E+00 -0.12313563925E+02  0.22746614179E+01  0.12544041623E+02  0.51100000000E-03 0.  1.
         12    1    3    3    0    0 -0.49745549733E+01  0.92310651393E+00 -0.42194320197E+01  0.65880140700E+01  0.00000000000E+00 0. -1.
</event>
<event>
 7    1  0.3014423E-011  0.5052887E+02  0.7816164E-02  0.1300439E+00
        -11   -1    0    0    0    0  0.00000000000E+00  0.00000000000E+00  0.45593999997E+02  0.45594000000E+02  0.51100000000E-03 0. -1.
         11   -1    0    0    0    0 -0.00000000000E+00 -0.00000000000E+00 -0.45593999997E+02  0.45594000000E+02  0.51100000000E-03 0.  1.
    9900012    2    1    2    0    0  0.81459946939E+01  0.10987165956E+02  0.38289547479E+02  0.50528874439E+02  0.30000044343E+02 0.  0.
        -12    1    1    2    0    0 -0.81459946939E+01 -0.10987165956E+02 -0.38289547479E+02  0.40659125561E+02  0.00000000000E+00 0.  1.
         11    1    3    3    0    0  0.90863562899E+00  0.65956007673E+01  0.16767511938E+01  0.68657893221E+01  0.51100000000E-03 0. -1.
        -11    1    3    3    0    0 -0.57923850238E+01  0.40849683000E+01  0.31588650802E+01  0.77599690162E+01  0.51100000000E-03 0.  1.
        -12    1    3    3    0    0  0.13029744089E+02  0.30659688892E+00  0.33453931205E+02  0.35903116100E+02  0.00000000000E+00 0.  1.
</event>
<event>
 7    1  0.3014423E-011  0.5052886E+02  0.7816164E-02  0.1300439E+00
        -11   -1    0    0    0    0  0.00000000000E+00  0.00000000000E+00  0.45593999997E+02  0.45594000000E+02  0.51100000000E-03 0. -1.
         11   -1    0    0    0    0 -0.00000000000E+00 -0.00000000000E+00 -0.45593999997E+02  0.45594000000E+02  0.51100000000E-03 0.  1.
    9900012    2    1    2    0    0  0.12932379660E+02 -0.16682401015E+02  0.34750780405E+02  0.50528859748E+02  0.29999999689E+02 0.  0.
        -12    1    1    2    0    0 -0.12932379660E+02  0.16682401015E+02 -0.34750780405E+02  0.40659140252E+02  0.00000000000E+00 0.  1.
         11    1    3    3    0    0  0.12844570177E+02 -0.18768813983E+02  0.20555173863E+02  0.30655611789E+02  0.51100000000E-03 0. -1.
        -11    1    3    3    0    0 -0.59650922167E+01  0.67678553037E-01  0.23367952103E+01  0.64068336685E+01  0.51100000000E-03 0.  1.
        -12    1    3    3    0    0  0.60529017000E+01  0.20187344149E+01  0.11858811332E+02  0.13466414290E+02  0.00000000000E+00 0.  1.
</event>
<event>
 7    1  0.3014423E-011  0.5052886E+02  0.7816164E-02  0.1300439E+00
        -11   -1    0    0    0    0  0.00000000000E+00  0.00000000000E+00  0.45593999997E+02  0.45594000000E+02  0.51100000000E-03 0.  1.
         11   -1    0    0    0    0 -0.00000000000E+00 -0.00000000000E+00 -0.45593999997E+02  0.45594000000E+02  0.51100000000E-03 0. -1.
    9900012    2    1    2    0    0  0.10394584744E+02 -0.12284450649E+02 -0.37339124105E+02  0.50528864389E+02  0.30000013796E+02 0.  0.
        -12    1    1    2    0    0 -0.10394584744E+02  0.12284450649E+02  0.37339124105E+02  0.40659135611E+02  0.00000000000E+00 0.  1.
         11    1    3    3    0    0  0.14340745312E+02 -0.11383203163E+02 -0.14441236129E+02  0.23319167900E+02  0.51100000000E-03 0. -1.
        -11    1    3    3    0    0  0.17152895124E+01 -0.55535954420E+01 -0.43295180651E+01  0.72477146316E+01  0.51100000000E-03 0.  1.
        -12    1    3    3    0    0 -0.56614500809E+01  0.46523479556E+01 -0.18568369910E+02  0.19961981857E+02  0.00000000000E+00 0.  1.
</event>
<event>
 7    1  0.3014423E-011  0.5052881E+02  0.7816164E-02  0.1300439E+00
        -11   -1    0    0    0    0  0.00000000000E+00  0.00000000000E+00  0.45593999997E+02  0.45594000000E+02  0.51100000000E-03 0.  1.
         11   -1    0    0    0    0 -0.00000000000E+00 -0.00000000000E+00 -0.45593999997E+02  0.45594000000E+02  0.51100000000E-03 0. -1.
    9900012    2    1    2    0    0 -0.25237552760E+02 -0.13322264790E+02 -0.28961234443E+02  0.50528807818E+02  0.29999841843E+02 0.  0.
        -12    1    1    2    0    0  0.25237552760E+02  0.13322264790E+02  0.28961234443E+02  0.40659192182E+02  0.00000000000E+00 0.  1.
         11    1    3    3    0    0  0.18285228588E+01 -0.42002306502E+01 -0.12258630700E+02  0.13086613781E+02  0.51100000000E-03 0. -1.
        -11    1    3    3    0    0 -0.61402306682E+01 -0.10439222071E+02 -0.90621898142E+01  0.15126237952E+02  0.51100000000E-03 0.  1.
        -12    1    3    3    0    0 -0.20925844950E+02  0.13171879310E+01 -0.76404139286E+01  0.22315956084E+02  0.00000000000E+00 0.  1.
</event>
<event>
 7    1  0.3014423E-011  0.5052885E+02  0.7816164E-02  0.1300439E+00
        -11   -1    0    0    0    0  0.00000000000E+00  0.00000000000E+00  0.45593999997E+02  0.45594000000E+02  0.51100000000E-03 0. -1.
         11   -1    0    0    0    0 -0.00000000000E+00 -0.00000000000E+00 -0.45593999997E+02  0.45594000000E+02  0.51100000000E-03 0.  1.
    9900012    2    1    2    0    0  0.21101216450E+02 -0.32919870930E+02  0.11143919051E+02  0.50528853803E+02  0.29999981618E+02 0.  0.
        -12    1    1    2    0    0 -0.21101216450E+02  0.32919870930E+02 -0.11143919051E+02  0.40659146197E+02  0.00000000000E+00 0.  1.
         11    1    3    3    0    0  0.10724033690E+02 -0.20949507889E+02  0.54428873314E+01  0.24155988949E+02  0.51100000000E-03 0.  1.
        -11    1    3    3    0    0  0.12599369101E+02 -0.15855099461E+02  0.74349757590E+01  0.21573297047E+02  0.51100000000E-03 0. -1.
        -12    1    3    3    0    0 -0.22221863410E+01  0.38847364207E+01 -0.17339440398E+01  0.47995678061E+01  0.00000000000E+00 0.  1.
</event>
<event>
 7    1  0.3014423E-011  0.5052886E+02  0.7816164E-02  0.1300439E+00
        -11   -1    0    0    0    0  0.00000000000E+00  0.00000000000E+00  0.45593999997E+02  0.45594000000E+02  0.51100000000E-03 0. -1.
         11   -1    0    0    0    0 -0.00000000000E+00 -0.00000000000E+00 -0.45593999997E+02  0.45594000000E+02  0.51100000000E-03 0.  1.
    9900012    2    1    2    0    0 -0.38712344993E+02 -0.56278463014E+01 -0.11083663309E+02  0.50528857102E+02  0.29999991647E+02 0.  0.
        -12    1    1    2    0    0  0.38712344993E+02  0.56278463014E+01  0.11083663309E+02  0.40659142898E+02  0.00000000000E+00 0.  1.
         11    1    3    3    0    0 -0.17982201862E+02  0.36040636944E+01 -0.13239123506E+01  0.18387539343E+02  0.51100000000E-03 0.  1.
        -11    1    3    3    0    0 -0.18594370059E+02 -0.53608606219E+01  0.21181313379E+01  0.19467303489E+02  0.51100000000E-03 0. -1.
        -12    1    3    3    0    0 -0.21357730718E+01 -0.38710493738E+01 -0.11877882296E+02  0.12674014270E+02  0.00000000000E+00 0.  1.
</event>
<event>
 7    1  0.3014423E-011  0.5052886E+02  0.7816164E-02  0.1300439E+00
        -11   -1    0    0    0    0  0.00000000000E+00  0.00000000000E+00  0.45593999997E+02  0.45594000000E+02  0.51100000000E-03 0.  1.
         11   -1    0    0    0    0 -0.00000000000E+00 -0.00000000000E+00 -0.45593999997E+02  0.45594000000E+02  0.51100000000E-03 0. -1.
    9900012    2    1    2    0    0 -0.24312866998E+02 -0.96211604716E+01 -0.31136528499E+02  0.50528860346E+02  0.30000001506E+02 0.  0.
        -12    1    1    2    0    0  0.24312866998E+02  0.96211604716E+01  0.31136528499E+02  0.40659139654E+02  0.00000000000E+00 0.  1.
         11    1    3    3    0    0 -0.11402642997E+02 -0.10793111725E+02 -0.11220173414E+02  0.19297767221E+02  0.51100000000E-03 0. -1.
        -11    1    3    3    0    0 -0.16728276215E+02 -0.27445405257E+01 -0.94156857333E+01  0.19391309030E+02  0.51100000000E-03 0.  1.
        -12    1    3    3    0    0  0.38180522138E+01  0.39164917791E+01 -0.10500669351E+02  0.11839784094E+02  0.00000000000E+00 0.  1.
</event>
<event>
 7    1  0.3014423E-011  0.5052885E+02  0.7816164E-02  0.1300439E+00
        -11   -1    0    0    0    0  0.00000000000E+00  0.00000000000E+00  0.45593999997E+02  0.45594000000E+02  0.51100000000E-03 0. -1.
         11   -1    0    0    0    0 -0.00000000000E+00 -0.00000000000E+00 -0.45593999997E+02  0.45594000000E+02  0.51100000000E-03 0.  1.
    9900012    2    1    2    0    0 -0.26402551246E+02 -0.27165423898E+02  0.14768593290E+02  0.50528852006E+02  0.29999976157E+02 0.  0.
        -12    1    1    2    0    0  0.26402551246E+02  0.27165423898E+02 -0.14768593290E+02  0.40659147994E+02  0.00000000000E+00 0.  1.
         11    1    3    3    0    0  0.19955245376E+01 -0.76364653485E+01  0.34707585900E+01  0.86222901048E+01  0.51100000000E-03 0. -1.
        -11    1    3    3    0    0 -0.23982934011E+00  0.37594813758E+01  0.47745382945E+00  0.37972596366E+01  0.51100000000E-03 0.  1.
         12    1    3    3    0    0 -0.28158246443E+02 -0.23288439925E+02  0.10820380870E+02  0.38109302265E+02  0.00000000000E+00 0. -1.
</event>
<event>
 7    1  0.3014423E-011  0.5052886E+02  0.7816164E-02  0.1300439E+00
        -11   -1    0    0    0    0  0.00000000000E+00  0.00000000000E+00  0.45593999997E+02  0.45594000000E+02  0.51100000000E-03 0.  1.
         11   -1    0    0    0    0 -0.00000000000E+00 -0.00000000000E+00 -0.45593999997E+02  0.45594000000E+02  0.51100000000E-03 0. -1.
    9900012    2    1    2    0    0 -0.32052166149E+02 -0.20637822458E+02 -0.14138766051E+02  0.50528858640E+02  0.29999996323E+02 0.  0.
        -12    1    1    2    0    0  0.32052166149E+02  0.20637822458E+02  0.14138766051E+02  0.40659141360E+02  0.00000000000E+00 0.  1.
         11    1    3    3    0    0 -0.66040828056E+01 -0.38767467578E+01 -0.56874529914E+01  0.95388781792E+01  0.51100000000E-03 0. -1.
        -11    1    3    3    0    0  0.94464999451E+00 -0.10306489743E+02 -0.91442251270E+01  0.13810609974E+02  0.51100000000E-03 0.  1.
        -12    1    3    3    0    0 -0.26392733338E+02 -0.64545859580E+01  0.69291206759E+00  0.27179370487E+02  0.00000000000E+00 0.  1.
</event>
<event>
 7    1  0.3014423E-011  0.5052887E+02  0.7816164E-02  0.1300439E+00
        -11   -1    0    0    0    0  0.00000000000E+00  0.00000000000E+00  0.45593999997E+02  0.45594000000E+02  0.51100000000E-03 0.  1.
         11   -1    0    0    0    0 -0.00000000000E+00 -0.00000000000E+00 -0.45593999997E+02  0.45594000000E+02  0.51100000000E-03 0. -1.
    9900012    2    1    2    0    0 -0.19355591064E+01 -0.10717904723E+02 -0.39173272138E+02  0.50528866700E+02  0.30000020821E+02 0.  0.
        -12    1    1    2    0    0  0.19355591064E+01  0.10717904723E+02  0.39173272138E+02  0.40659133300E+02  0.00000000000E+00 0.  1.
         11    1    3    3    0    0  0.24782135320E+01 -0.72665881525E+00 -0.15380330454E+02  0.15595644921E+02  0.51100000000E-03 0. -1.
        -11    1    3    3    0    0  0.66233671479E+01 -0.71770794967E+01 -0.14753809791E+01  0.98770548126E+01  0.51100000000E-03 0.  1.
         12    1    3    3    0    0 -0.11037139786E+02 -0.28141664108E+01 -0.22317560705E+02  0.25056166967E+02  0.00000000000E+00 0. -1.
</event>
<event>
 7    1  0.3538137E-011  0.5052888E+02  0.7816164E-02  0.1300439E+00
        -11   -1    0    0    0    0  0.00000000000E+00  0.00000000000E+00  0.45593999997E+02  0.45594000000E+02  0.51100000000E-03 0. -1.
         11   -1    0    0    0    0 -0.00000000000E+00 -0.00000000000E+00 -0.45593999997E+02  0.45594000000E+02  0.51100000000E-03 0.  1.
    9900012    2    1    2    0    0 -0.36562541060E+02  0.13868299198E+02  0.11136192742E+02  0.50528881463E+02  0.30000065694E+02 0.  0.
        -12    1    1    2    0    0  0.36562541060E+02 -0.13868299198E+02 -0.11136192742E+02  0.40659118537E+02  0.00000000000E+00 0.  1.
         11    1    3    3    0    0 -0.12554194774E+02  0.12028726258E+02  0.77174009048E+01  0.19022521884E+02  0.51100000000E-03 0. -1.
        -11    1    3    3    0    0 -0.15338493261E+01  0.78278085268E+01 -0.13513583100E+00  0.79778156184E+01  0.51100000000E-03 0.  1.
         12    1    3    3    0    0 -0.22474496960E+02 -0.59882355868E+01  0.35539276683E+01  0.23528543961E+02  0.00000000000E+00 0. -1.
</event>
<event>
 7    1  0.3014423E-011  0.5052886E+02  0.7816164E-02  0.1300439E+00
        -11   -1    0    0    0    0  0.00000000000E+00  0.00000000000E+00  0.45593999997E+02  0.45594000000E+02  0.51100000000E-03 0.  1.
         11   -1    0    0    0    0 -0.00000000000E+00 -0.00000000000E+00 -0.45593999997E+02  0.45594000000E+02  0.51100000000E-03 0. -1.
    9900012    2    1    2    0    0  0.17943214268E+02 -0.96226765962E+01 -0.35193899141E+02  0.50528863513E+02  0.30000011134E+02 0.  0.
        -12    1    1    2    0    0 -0.17943214268E+02  0.96226765962E+01  0.35193899141E+02  0.40659136487E+02  0.00000000000E+00 0.  1.
         11    1    3    3    0    0  0.75064746207E+01  0.57120839276E+00 -0.12421612838E+02  0.14524803132E+02  0.51100000000E-03 0. -1.
        -11    1    3    3    0    0  0.41625520183E+01 -0.88729362004E+00 -0.24305953881E+02  0.24675767943E+02  0.51100000000E-03 0.  1.
        -12    1    3    3    0    0  0.62741876294E+01 -0.93065913689E+01  0.15336675783E+01  0.11328292438E+02  0.00000000000E+00 0.  1.
</event>
<event>
 7    1  0.3014423E-011  0.5052886E+02  0.7816164E-02  0.1300439E+00
        -11   -1    0    0    0    0  0.00000000000E+00  0.00000000000E+00  0.45593999997E+02  0.45594000000E+02  0.51100000000E-03 0.  1.
         11   -1    0    0    0    0 -0.00000000000E+00 -0.00000000000E+00 -0.45593999997E+02  0.45594000000E+02  0.51100000000E-03 0. -1.
    9900012    2    1    2    0    0 -0.11504947812E+02  0.19589274809E+02 -0.33720354252E+02  0.50528858315E+02  0.29999995334E+02 0.  0.
        -12    1    1    2    0    0  0.11504947812E+02 -0.19589274809E+02  0.33720354252E+02  0.40659141685E+02  0.00000000000E+00 0.  1.
         11    1    3    3    0    0 -0.28681048016E+01  0.77262670380E+01 -0.25130272890E+02  0.26447151893E+02  0.51100000000E-03 0. -1.
        -11    1    3    3    0    0 -0.16326112695E+01 -0.24532037798E+01 -0.75561343416E+01  0.81104127387E+01  0.51100000000E-03 0.  1.
        -12    1    3    3    0    0 -0.70042317412E+01  0.14316211551E+02 -0.10339470204E+01  0.15971293683E+02  0.00000000000E+00 0.  1.
</event>
<event>
 7    1  0.3014423E-011  0.5052893E+02  0.7816164E-02  0.1300439E+00
        -11   -1    0    0    0    0  0.00000000000E+00  0.00000000000E+00  0.45593999997E+02  0.45594000000E+02  0.51100000000E-03 0. -1.
         11   -1    0    0    0    0 -0.00000000000E+00 -0.00000000000E+00 -0.45593999997E+02  0.45594000000E+02  0.51100000000E-03 0.  1.
    9900012    2    1    2    0    0  0.69400145686E+01 -0.28584208664E+02  0.28070254248E+02  0.50528930154E+02  0.30000213697E+02 0.  0.
        -12    1    1    2    0    0 -0.69400145686E+01  0.28584208664E+02 -0.28070254248E+02  0.40659069846E+02  0.00000000000E+00 0.  1.
         11    1    3    3    0    0  0.31267655844E+01 -0.36211637422E+01  0.11678419189E+02  0.12620418570E+02  0.51100000000E-03 0.  1.
        -11    1    3    3    0    0  0.29575686936E+01  0.35242894800E+01  0.60264088087E+01  0.75819148180E+01  0.51100000000E-03 0. -1.
         12    1    3    3    0    0  0.85568029064E+00 -0.28487334402E+02  0.10365426250E+02  0.30326596766E+02  0.00000000000E+00 0. -1.
</event>
<event>
 7    1  0.3014423E-011  0.5052884E+02  0.7816164E-02  0.1300439E+00
        -11   -1    0    0    0    0  0.00000000000E+00  0.00000000000E+00  0.45593999997E+02  0.45594000000E+02  0.51100000000E-03 0.  1.
         11   -1    0    0    0    0 -0.00000000000E+00 -0.00000000000E+00 -0.45593999997E+02  0.45594000000E+02  0.51100000000E-03 0. -1.
    9900012    2    1    2    0    0  0.25201588179E+02 -0.28191281807E+02 -0.14943187240E+02  0.50528840373E+02  0.29999940799E+02 0.  0.
        -12    1    1    2    0    0 -0.25201588179E+02  0.28191281807E+02  0.14943187240E+02  0.40659159627E+02  0.00000000000E+00 0.  1.
         11    1    3    3    0    0  0.75723497850E+01  0.12415256153E+01  0.43944949501E+00  0.76860251912E+01  0.51100000000E-03 0.  1.
        -11    1    3    3    0    0  0.12814560658E+02 -0.45859855877E+01 -0.80156948002E+00  0.13634028845E+02  0.51100000000E-03 0. -1.
         12    1    3    3    0    0  0.48146777358E+01 -0.24846821835E+02 -0.14581067255E+02  0.29208786337E+02  0.00000000000E+00 0. -1.
</event>
<event>
 7    1  0.3014423E-011  0.5052887E+02  0.7816164E-02  0.1300439E+00
        -11   -1    0    0    0    0  0.00000000000E+00  0.00000000000E+00  0.45593999997E+02  0.45594000000E+02  0.51100000000E-03 0. -1.
         11   -1    0    0    0    0 -0.00000000000E+00 -0.00000000000E+00 -0.45593999997E+02  0.45594000000E+02  0.51100000000E-03 0.  1.
    9900012    2    1    2    0    0  0.28539767712E+02 -0.13258070857E+02  0.25746271069E+02  0.50528865013E+02  0.30000015694E+02 0.  0.
        -12    1    1    2    0    0 -0.28539767712E+02  0.13258070857E+02 -0.25746271069E+02  0.40659134987E+02  0.00000000000E+00 0.  1.
         11    1    3    3    0    0  0.62085295435E+01  0.92518338612E-01  0.15533872362E+02  0.16728884887E+02  0.51100000000E-03 0. -1.
        -11    1    3    3    0    0  0.14814206789E+02  0.19442641591E+01  0.27350081143E+01  0.15189508075E+02  0.51100000000E-03 0.  1.
         12    1    3    3    0    0  0.75170313793E+01 -0.15294853355E+02  0.74773905933E+01  0.18610472052E+02  0.00000000000E+00 0. -1.
</event>
<event>
 7    1  0.3014423E-011  0.5052894E+02  0.7816164E-02  0.1300439E+00
        -11   -1    0    0    0    0  0.00000000000E+00  0.00000000000E+00  0.45593999997E+02  0.45594000000E+02  0.51100000000E-03 0. -1.
         11   -1    0    0    0    0 -0.00000000000E+00 -0.00000000000E+00 -0.45593999997E+02  0.45594000000E+02  0.51100000000E-03 0.  1.
    9900012    2    1    2    0    0  0.24809806207E+01  0.38757317068E+02  0.12036370105E+02  0.50528940783E+02  0.30000246002E+02 0.  0.
        -12    1    1    2    0    0 -0.24809806207E+01 -0.38757317068E+02 -0.12036370105E+02  0.40659059217E+02  0.00000000000E+00 0.  1.
         11    1    3    3    0    0  0.18917406817E+01  0.56325040667E+01 -0.77226988571E+01  0.97439141400E+01  0.51100000000E-03 0. -1.
        -11    1    3    3    0    0  0.18288329950E+00  0.16254343534E+01  0.63337637619E+01  0.65415630236E+01  0.51100000000E-03 0.  1.
         12    1    3    3    0    0  0.40635663953E+00  0.31499378648E+02  0.13425305200E+02  0.34243463619E+02  0.00000000000E+00 0. -1.
</event>
<event>
 7    1  0.3014423E-011  0.5052886E+02  0.7816164E-02  0.1300439E+00
        -11   -1    0    0    0    0  0.00000000000E+00  0.00000000000E+00  0.45593999997E+02  0.45594000000E+02  0.51100000000E-03 0.  1.
         11   -1    0    0    0    0 -0.00000000000E+00 -0.00000000000E+00 -0.45593999997E+02  0.45594000000E+02  0.51100000000E-03 0. -1.
    9900012    2    1    2    0    0  0.54671023529E+01  0.18741654153E+02 -0.35665487881E+02  0.50528857925E+02  0.29999994148E+02 0.  0.
        -12    1    1    2    0    0 -0.54671023529E+01 -0.18741654153E+02  0.35665487881E+02  0.40659142075E+02  0.00000000000E+00 0.  1.
         11    1    3    3    0    0 -0.62308894101E+01  0.72096648105E+01 -0.15246611578E+02  0.17979499837E+02  0.51100000000E-03 0. -1.
        -11    1    3    3    0    0 -0.29548442712E+01 -0.17118942051E+00  0.18080332755E+01  0.34683418331E+01  0.51100000000E-03 0.  1.
         12    1    3    3    0    0  0.14652836034E+02  0.11703178763E+02 -0.22226909579E+02  0.29081016255E+02  0.00000000000E+00 0. -1.
</event>
<event>
 7    1  0.3014423E-011  0.5052886E+02  0.7816164E-02  0.1300439E+00
        -11   -1    0    0    0    0  0.00000000000E+00  0.00000000000E+00  0.45593999997E+02  0.45594000000E+02  0.51100000000E-03 0.  1.
         11   -1    0    0    0    0 -0.00000000000E+00 -0.00000000000E+00 -0.45593999997E+02  0.45594000000E+02  0.51100000000E-03 0. -1.
    9900012    2    1    2    0    0  0.87324139627E+01 -0.36957130361E+02 -0.14528643933E+02  0.50528855485E+02  0.29999986732E+02 0.  0.
        -12    1    1    2    0    0 -0.87324139627E+01  0.36957130361E+02  0.14528643933E+02  0.40659144515E+02  0.00000000000E+00 0.  1.
         11    1    3    3    0    0 -0.22508857558E+01 -0.11239339360E+02 -0.11234696332E+02  0.16050160058E+02  0.51100000000E-03 0. -1.
        -11    1    3    3    0    0 -0.27558834822E+01 -0.10326199041E+02 -0.79597373441E+01  0.13326015880E+02  0.51100000000E-03 0.  1.
        -12    1    3    3    0    0  0.13739183201E+02 -0.15391591960E+02  0.46657897432E+01  0.21152679547E+02  0.00000000000E+00 0.  1.
</event>
<event>
 7    1  0.3014423E-011  0.5052886E+02  0.7816164E-02  0.1300439E+00
        -11   -1    0    0    0    0  0.00000000000E+00  0.00000000000E+00  0.45593999997E+02  0.45594000000E+02  0.51100000000E-03 0. -1.
         11   -1    0    0    0    0 -0.00000000000E+00 -0.00000000000E+00 -0.45593999997E+02  0.45594000000E+02  0.51100000000E-03 0.  1.
    9900012    2    1    2    0    0 -0.26856439182E+02  0.28324925390E+02 -0.11384019280E+02  0.50528860574E+02  0.30000002200E+02 0.  0.
        -12    1    1    2    0    0  0.26856439182E+02 -0.28324925390E+02  0.11384019280E+02  0.40659139426E+02  0.00000000000E+00 0.  1.
         11    1    3    3    0    0 -0.28389442224E+01  0.15556111531E+02 -0.35125021215E+01  0.16198453065E+02  0.51100000000E-03 0. -1.
        -11    1    3    3    0    0  0.26942326622E+01  0.14370623898E+01 -0.40376474358E+01  0.50622756767E+01  0.51100000000E-03 0.  1.
        -12    1    3    3    0    0 -0.26711727622E+02  0.11331751469E+02 -0.38338697229E+01  0.29268131832E+02  0.00000000000E+00 0.  1.
</event>
<event>
 7    1  0.3014423E-011  0.5052886E+02  0.7816164E-02  0.1300439E+00
        -11   -1    0    0    0    0  0.00000000000E+00  0.00000000000E+00  0.45593999997E+02  0.45594000000E+02  0.51100000000E-03 0.  1.
         11   -1    0    0    0    0 -0.00000000000E+00 -0.00000000000E+00 -0.45593999997E+02  0.45594000000E+02  0.51100000000E-03 0. -1.
    9900012    2    1    2    0    0  0.31825232914E+02  0.21858423812E+02 -0.12748692479E+02  0.50528864476E+02  0.30000014062E+02 0.  0.
        -12    1    1    2    0    0 -0.31825232914E+02 -0.21858423812E+02  0.12748692479E+02  0.40659135524E+02  0.00000000000E+00 0.  1.
         11    1    3    3    0    0  0.41162996226E+01  0.75746068132E+01  0.13866724649E+01  0.87316351129E+01  0.51100000000E-03 0. -1.
        -11    1    3    3    0    0 -0.34183307507E+01  0.62816399320E+01 -0.18234790969E+01  0.73803158221E+01  0.51100000000E-03 0.  1.
         12    1    3    3    0    0  0.31127264042E+02  0.80021770672E+01 -0.12311885847E+02  0.34416913541E+02  0.00000000000E+00 0. -1.
</event>
<event>
 7    1  0.3014423E-011  0.5052887E+02  0.7816164E-02  0.1300439E+00
        -11   -1    0    0    0    0  0.00000000000E+00  0.00000000000E+00  0.45593999997E+02  0.45594000000E+02  0.51100000000E-03 0.  1.
         11   -1    0    0    0    0 -0.00000000000E+00 -0.00000000000E+00 -0.45593999997E+02  0.45594000000E+02  0.51100000000E-03 0. -1.
    9900012    2    1    2    0    0 -0.26706501061E+02  0.42280695956E+01 -0.30365298298E+02  0.50528866805E+02  0.30000021140E+02 0.  0.
        -12    1    1    2    0    0  0.26706501061E+02 -0.42280695956E+01  0.30365298298E+02  0.40659133195E+02  0.00000000000E+00 0.  1.
         11    1    3    3    0    0 -0.69029733400E+01  0.17382024399E+01 -0.40626256714E+01  0.81961769297E+01  0.51100000000E-03 0. -1.
        -11    1    3    3    0    0 -0.15937906993E+02 -0.10765197057E+02 -0.17137321401E+02  0.25760320884E+02  0.51100000000E-03 0.  1.
        -12    1    3    3    0    0 -0.38656207285E+01  0.13255064212E+02 -0.91653512258E+01  0.16572368991E+02  0.00000000000E+00 0.  1.
</event>
<event>
 7    1  0.3014423E-011  0.5052886E+02  0.7816164E-02  0.1300439E+00
        -11   -1    0    0    0    0  0.00000000000E+00  0.00000000000E+00  0.45593999997E+02  0.45594000000E+02  0.51100000000E-03 0.  1.
         11   -1    0    0    0    0 -0.00000000000E+00 -0.00000000000E+00 -0.45593999997E+02  0.45594000000E+02  0.51100000000E-03 0. -1.
    9900012    2    1    2    0    0  0.39596406873E+01  0.15689724741E+02 -0.37300394069E+02  0.50528860628E+02  0.30000002364E+02 0.  0.
        -12    1    1    2    0    0 -0.39596406873E+01 -0.15689724741E+02  0.37300394069E+02  0.40659139372E+02  0.00000000000E+00 0.  1.
         11    1    3    3    0    0  0.10384132022E+01 -0.21315771617E+01 -0.59281653156E-01  0.23718005292E+01  0.51100000000E-03 0. -1.
        -11    1    3    3    0    0  0.63459627377E+01  0.44069792111E+01  0.71085125735E+00  0.77587382097E+01  0.51100000000E-03 0.  1.
         12    1    3    3    0    0 -0.34247352526E+01  0.13414322691E+02 -0.37951963673E+02  0.40398321889E+02  0.00000000000E+00 0. -1.
</event>
<event>
 7    1  0.3014423E-011  0.5052890E+02  0.7816164E-02  0.1300439E+00
        -11   -1    0    0    0    0  0.00000000000E+00  0.00000000000E+00  0.45593999997E+02  0.45594000000E+02  0.51100000000E-03 0.  1.
         11   -1    0    0    0    0 -0.00000000000E+00 -0.00000000000E+00 -0.45593999997E+02  0.45594000000E+02  0.51100000000E-03 0. -1.
    9900012    2    1    2    0    0 -0.23091784107E+02 -0.71627413517E+00 -0.33457716052E+02  0.50528901322E+02  0.30000126058E+02 0.  0.
        -12    1    1    2    0    0  0.23091784107E+02  0.71627413517E+00  0.33457716052E+02  0.40659098678E+02  0.00000000000E+00 0.  1.
         11    1    3    3    0    0 -0.21672754019E+01  0.39514999118E+01 -0.15559034223E+01  0.47678370296E+01  0.51100000000E-03 0. -1.
        -11    1    3    3    0    0 -0.17899921899E+02  0.80501864166E+01 -0.20946780265E+02  0.28705057203E+02  0.51100000000E-03 0.  1.
        -12    1    3    3    0    0 -0.30245868060E+01 -0.12717960464E+02 -0.10955032365E+02  0.17056007089E+02  0.00000000000E+00 0.  1.
</event>
<event>
 7    1  0.3014423E-011  0.5052886E+02  0.7816164E-02  0.1300439E+00
        -11   -1    0    0    0    0  0.00000000000E+00  0.00000000000E+00  0.45593999997E+02  0.45594000000E+02  0.51100000000E-03 0.  1.
         11   -1    0    0    0    0 -0.00000000000E+00 -0.00000000000E+00 -0.45593999997E+02  0.45594000000E+02  0.51100000000E-03 0. -1.
    9900012    2    1    2    0    0  0.19135244040E+02  0.34338498738E+02 -0.10386337634E+02  0.50528855033E+02  0.29999985358E+02 0.  0.
        -12    1    1    2    0    0 -0.19135244040E+02 -0.34338498738E+02  0.10386337634E+02  0.40659144967E+02  0.00000000000E+00 0.  1.
         11    1    3    3    0    0 -0.42095465417E+00  0.70309410502E+01 -0.88850527900E+01  0.11338231706E+02  0.51100000000E-03 0. -1.
        -11    1    3    3    0    0  0.10030388247E+02  0.19240659359E+02 -0.10199975167E+02  0.23976053775E+02  0.51100000000E-03 0.  1.
        -12    1    3    3    0    0  0.95258104465E+01  0.80668983288E+01  0.86986903234E+01  0.15214569552E+02  0.00000000000E+00 0.  1.
</event>
<event>
 7    1  0.3014423E-011  0.5052885E+02  0.7816164E-02  0.1300439E+00
        -11   -1    0    0    0    0  0.00000000000E+00  0.00000000000E+00  0.45593999997E+02  0.45594000000E+02  0.51100000000E-03 0.  1.
         11   -1    0    0    0    0 -0.00000000000E+00 -0.00000000000E+00 -0.45593999997E+02  0.45594000000E+02  0.51100000000E-03 0. -1.
    9900012    2    1    2    0    0  0.35382897483E+02 -0.12103218624E+02 -0.15960229737E+02  0.50528852584E+02  0.29999977914E+02 0.  0.
        -12    1    1    2    0    0 -0.35382897483E+02  0.12103218624E+02  0.15960229737E+02  0.40659147416E+02  0.00000000000E+00 0.  1.
         11    1    3    3    0    0  0.16392559404E+01  0.18723730011E+01 -0.51533486561E+01  0.57227566195E+01  0.51100000000E-03 0. -1.
        -11    1    3    3    0    0 -0.33046615973E+01  0.29941408264E+00 -0.27131469980E+01  0.42862109093E+01  0.51100000000E-03 0.  1.
        -12    1    3    3    0    0  0.37048303139E+02 -0.14275005708E+02 -0.80937340834E+01  0.40519885055E+02  0.00000000000E+00 0.  1.
</event>
<event>
 7    1  0.3014423E-011  0.5052887E+02  0.7816164E-02  0.1300439E+00
        -11   -1    0    0    0    0  0.00000000000E+00  0.00000000000E+00  0.45593999997E+02  0.45594000000E+02  0.51100000000E-03 0. -1.
         11   -1    0    0    0    0 -0.00000000000E+00 -0.00000000000E+00 -0.45593999997E+02  0.45594000000E+02  0.51100000000E-03 0.  1.
    9900012    2    1    2    0    0  0.36147784216E+02 -0.18508860663E+02 -0.19811350395E+01  0.50528866674E+02  0.30000020744E+02 0.  0.
        -12    1    1    2    0    0 -0.36147784216E+02  0.18508860663E+02  0.19811350395E+01  0.40659133326E+02  0.00000000000E+00 0.  1.
         11    1    3    3    0    0  0.21810943721E+02 -0.38604156090E+01  0.45007474322E+01  0.22602583976E+02  0.51100000000E-03 0. -1.
        -11    1    3    3    0    0  0.43719163637E+01 -0.32335744599E+01  0.61426461855E+01  0.82037649223E+01  0.51100000000E-03 0.  1.
        -12    1    3    3    0    0  0.99649241306E+01 -0.11414870594E+02 -0.12624528657E+02  0.19722517776E+02  0.00000000000E+00 0.  1.
</event>
<event>
 7    1  0.3014423E-011  0.5052881E+02  0.7816164E-02  0.1300439E+00
        -11   -1    0    0    0    0  0.00000000000E+00  0.00000000000E+00  0.45593999997E+02  0.45594000000E+02  0.51100000000E-03 0.  1.
         11   -1    0    0    0    0 -0.00000000000E+00 -0.00000000000E+00 -0.45593999997E+02  0.45594000000E+02  0.51100000000E-03 0. -1.
    9900012    2    1    2    0    0 -0.10068210962E+02 -0.64947694911E+01 -0.38853811115E+02  0.50528812344E+02  0.29999855600E+02 0.  0.
        -12    1    1    2    0    0  0.10068210962E+02  0.64947694911E+01  0.38853811115E+02  0.40659187656E+02  0.00000000000E+00 0.  1.
         11    1    3    3    0    0 -0.62452580722E+01 -0.62724917468E+01 -0.15329469025E+02  0.17701412993E+02  0.51100000000E-03 0. -1.
        -11    1    3    3    0    0 -0.82915556482E+01  0.99964405792E+00 -0.26185314002E+02  0.27484902273E+02  0.51100000000E-03 0.  1.
        -12    1    3    3    0    0  0.44686027587E+01 -0.12219218023E+01  0.26609719123E+01  0.53424970775E+01  0.00000000000E+00 0.  1.
</event>
<event>
 7    1  0.3014423E-011  0.5052886E+02  0.7816164E-02  0.1300439E+00
        -11   -1    0    0    0    0  0.00000000000E+00  0.00000000000E+00  0.45593999997E+02  0.45594000000E+02  0.51100000000E-03 0. -1.
         11   -1    0    0    0    0 -0.00000000000E+00 -0.00000000000E+00 -0.45593999997E+02  0.45594000000E+02  0.51100000000E-03 0.  1.
    9900012    2    1    2    0    0  0.17908814204E+02  0.17941452760E+02 -0.31789061530E+02  0.50528858515E+02  0.29999995943E+02 0.  0.
        -12    1    1    2    0    0 -0.17908814204E+02 -0.17941452760E+02  0.31789061530E+02  0.40659141485E+02  0.00000000000E+00 0.  1.
         11    1    3    3    0    0  0.10579329734E+00  0.51238082090E+01 -0.34423747623E+01  0.61736980044E+01  0.51100000000E-03 0.  1.
        -11    1    3    3    0    0 -0.40007310347E+01  0.87164013129E+01 -0.16798431466E+02  0.19343443350E+02  0.51100000000E-03 0. -1.
         12    1    3    3    0    0  0.21803751941E+02  0.41012432384E+01 -0.11548255302E+02  0.25011717161E+02  0.00000000000E+00 0. -1.
</event>
<event>
 7    1  0.3014423E-011  0.5052885E+02  0.7816164E-02  0.1300439E+00
        -11   -1    0    0    0    0  0.00000000000E+00  0.00000000000E+00  0.45593999997E+02  0.45594000000E+02  0.51100000000E-03 0. -1.
         11   -1    0    0    0    0 -0.00000000000E+00 -0.00000000000E+00 -0.45593999997E+02  0.45594000000E+02  0.51100000000E-03 0.  1.
    9900012    2    1    2    0    0 -0.61936824800E+01 -0.16904716873E+02  0.36455942243E+02  0.50528845065E+02  0.29999955059E+02 0.  0.
        -12    1    1    2    0    0  0.61936824800E+01  0.16904716873E+02 -0.36455942243E+02  0.40659154935E+02  0.00000000000E+00 0.  1.
         11    1    3    3    0    0  0.37276892478E+01  0.30653551864E+01  0.63006181837E+01  0.79366151037E+01  0.51100000000E-03 0. -1.
        -11    1    3    3    0    0 -0.13396940194E+02 -0.57208408558E+01  0.20041012516E+02  0.24775960316E+02  0.51100000000E-03 0.  1.
         12    1    3    3    0    0  0.34755684664E+01 -0.14249231204E+02  0.10114311544E+02  0.17816269645E+02  0.00000000000E+00 0. -1.
</event>
<event>
 7    1  0.3014423E-011  0.5052889E+02  0.7816164E-02  0.1300439E+00
        -11   -1    0    0    0    0  0.00000000000E+00  0.00000000000E+00  0.45593999997E+02  0.45594000000E+02  0.51100000000E-03 0.  1.
         11   -1    0    0    0    0 -0.00000000000E+00 -0.00000000000E+00 -0.45593999997E+02  0.45594000000E+02  0.51100000000E-03 0. -1.
    9900012    2    1    2    0    0 -0.10212117718E+02  0.23386728634E+02 -0.31653384632E+02  0.50528890527E+02  0.30000093245E+02 0.  0.
        -12    1    1    2    0    0  0.10212117718E+02 -0.23386728634E+02  0.31653384632E+02  0.40659109473E+02  0.00000000000E+00 0.  1.
         11    1    3    3    0    0 -0.28200422742E+01  0.41690562520E+01  0.18917135051E+01  0.53770111314E+01  0.51100000000E-03 0. -1.
        -11    1    3    3    0    0 -0.51978186606E+01 -0.21481577523E+01 -0.37697229918E+00  0.56368438804E+01  0.51100000000E-03 0.  1.
         12    1    3    3    0    0 -0.21942567834E+01  0.21365830134E+02 -0.33168125838E+02  0.39515035515E+02  0.00000000000E+00 0. -1.
</event>
<event>
 7    1  0.3014423E-011  0.5052886E+02  0.7816164E-02  0.1300439E+00
        -11   -1    0    0    0    0  0.00000000000E+00  0.00000000000E+00  0.45593999997E+02  0.45594000000E+02  0.51100000000E-03 0.  1.
         11   -1    0    0    0    0 -0.00000000000E+00 -0.00000000000E+00 -0.45593999997E+02  0.45594000000E+02  0.51100000000E-03 0. -1.
    9900012    2    1    2    0    0 -0.60611633688E+01  0.37645303841E+02 -0.14115913011E+02  0.50528860772E+02  0.30000002802E+02 0.  0.
        -12    1    1    2    0    0  0.60611633688E+01 -0.37645303841E+02  0.14115913011E+02  0.40659139228E+02  0.00000000000E+00 0.  1.
         11    1    3    3    0    0 -0.36313342305E+01  0.26804358421E+02 -0.14663603291E+02  0.30768189423E+02  0.51100000000E-03 0. -1.
        -11    1    3    3    0    0 -0.20188792814E+01 -0.44941499470E+00 -0.62446233537E+01  0.65782344502E+01  0.51100000000E-03 0.  1.
         12    1    3    3    0    0 -0.41094985692E+00  0.11290360415E+02  0.67923136339E+01  0.13182436898E+02  0.00000000000E+00 0. -1.
</event>
<event>
 7    1  0.3014423E-011  0.5052886E+02  0.7816164E-02  0.1300439E+00
        -11   -1    0    0    0    0  0.00000000000E+00  0.00000000000E+00  0.45593999997E+02  0.45594000000E+02  0.51100000000E-03 0.  1.
         11   -1    0    0    0    0 -0.00000000000E+00 -0.00000000000E+00 -0.45593999997E+02  0.45594000000E+02  0.51100000000E-03 0. -1.
    9900012    2    1    2    0    0 -0.96542466964E+01 -0.29536830929E+02 -0.26220929062E+02  0.50528856115E+02  0.29999988647E+02 0.  0.
        -12    1    1    2    0    0  0.96542466964E+01  0.29536830929E+02  0.26220929062E+02  0.40659143885E+02  0.00000000000E+00 0.  1.
         11    1    3    3    0    0 -0.90509360804E+00 -0.13005850071E+02  0.54717318111E+00  0.13048782673E+02  0.51100000000E-03 0. -1.
        -11    1    3    3    0    0 -0.66078599609E+01 -0.32722078219E+01  0.17425777940E+00  0.73757388327E+01  0.51100000000E-03 0.  1.
         12    1    3    3    0    0 -0.21412931275E+01 -0.13258773036E+02 -0.26942360023E+02  0.30104334609E+02  0.00000000000E+00 0. -1.
</event>
<event>
 7    1  0.3014423E-011  0.5052886E+02  0.7816164E-02  0.1300439E+00
        -11   -1    0    0    0    0  0.00000000000E+00  0.00000000000E+00  0.45593999997E+02  0.45594000000E+02  0.51100000000E-03 0.  1.
         11   -1    0    0    0    0 -0.00000000000E+00 -0.00000000000E+00 -0.45593999997E+02  0.45594000000E+02  0.51100000000E-03 0. -1.
    9900012    2    1    2    0    0 -0.27879156666E+02  0.22192675663E+02 -0.19580697289E+02  0.50528856677E+02  0.29999990355E+02 0.  0.
        -12    1    1    2    0    0  0.27879156666E+02 -0.22192675663E+02  0.19580697289E+02  0.40659143323E+02  0.00000000000E+00 0.  1.
         11    1    3    3    0    0 -0.77129485583E+01 -0.51001561321E+01 -0.52528668431E+01  0.10634555861E+02  0.51100000000E-03 0. -1.
        -11    1    3    3    0    0 -0.12302147458E+01  0.86095778512E+00  0.27753919658E+01  0.31555470926E+01  0.51100000000E-03 0.  1.
         12    1    3    3    0    0 -0.18935993362E+02  0.26431874010E+02 -0.17103222411E+02  0.36738753723E+02  0.00000000000E+00 0. -1.
</event>
<event>
 7    1  0.3014423E-011  0.5052886E+02  0.7816164E-02  0.1300439E+00
        -11   -1    0    0    0    0  0.00000000000E+00  0.00000000000E+00  0.45593999997E+02  0.45594000000E+02  0.51100000000E-03 0.  1.
         11   -1    0    0    0    0 -0.00000000000E+00 -0.00000000000E+00 -0.45593999997E+02  0.45594000000E+02  0.51100000000E-03 0. -1.
    9900012    2    1    2    0    0 -0.18912090863E+02 -0.27450405442E+00 -0.35991985416E+02  0.50528861452E+02  0.30000004871E+02 0.  0.
        -12    1    1    2    0    0  0.18912090863E+02  0.27450405442E+00  0.35991985416E+02  0.40659138548E+02  0.00000000000E+00 0.  1.
         11    1    3    3    0    0  0.32960516306E+01  0.16694166435E+00 -0.17807892255E+01  0.37500715190E+01  0.51100000000E-03 0. -1.
        -11    1    3    3    0    0  0.54684325525E+00 -0.74060999450E+01 -0.43911630278E+01  0.86273789148E+01  0.51100000000E-03 0.  1.
         12    1    3    3    0    0 -0.22754985749E+02  0.69646542263E+01 -0.29820033162E+02  0.38151411019E+02  0.00000000000E+00 0. -1.
</event>
<event>
 7    1  0.3014423E-011  0.5052886E+02  0.7816164E-02  0.1300439E+00
        -11   -1    0    0    0    0  0.00000000000E+00  0.00000000000E+00  0.45593999997E+02  0.45594000000E+02  0.51100000000E-03 0. -1.
         11   -1    0    0    0    0 -0.00000000000E+00 -0.00000000000E+00 -0.45593999997E+02  0.45594000000E+02  0.51100000000E-03 0.  1.
    9900012    2    1    2    0    0 -0.28698561267E+02 -0.11157261995E+02 -0.26553221553E+02  0.50528862173E+02  0.30000007060E+02 0.  0.
        -12    1    1    2    0    0  0.28698561267E+02  0.11157261995E+02  0.26553221553E+02  0.40659137827E+02  0.00000000000E+00 0.  1.
         11    1    3    3    0    0 -0.69070215761E+01 -0.68024135686E+00 -0.11625181559E+02  0.13539369332E+02  0.51100000000E-03 0. -1.
        -11    1    3    3    0    0 -0.33654969629E+00  0.60854318163E+01 -0.57351692474E+01  0.83688656726E+01  0.51100000000E-03 0.  1.
         12    1    3    3    0    0 -0.21454989995E+02 -0.16562452454E+02 -0.91928707466E+01  0.28620627169E+02  0.00000000000E+00 0. -1.
</event>
<event>
 7    1  0.3014423E-011  0.5052886E+02  0.7816164E-02  0.1300439E+00
        -11   -1    0    0    0    0  0.00000000000E+00  0.00000000000E+00  0.45593999997E+02  0.45594000000E+02  0.51100000000E-03 0. -1.
         11   -1    0    0    0    0 -0.00000000000E+00 -0.00000000000E+00 -0.45593999997E+02  0.45594000000E+02  0.51100000000E-03 0.  1.
    9900012    2    1    2    0    0  0.21986256233E+02  0.33231784945E+02  0.80881775296E+01  0.50528860689E+02  0.30000002550E+02 0.  0.
        -12    1    1    2    0    0 -0.21986256233E+02 -0.33231784945E+02 -0.80881775296E+01  0.40659139311E+02  0.00000000000E+00 0.  1.
         11    1    3    3    0    0 -0.55013660347E+00 -0.15023921029E+01  0.31076865322E+01  0.34953609480E+01  0.51100000000E-03 0. -1.
        -11    1    3    3    0    0  0.18678472425E+01 -0.29995473044E+01 -0.80112463324E+00  0.36232496866E+01  0.51100000000E-03 0.  1.
         12    1    3    3    0    0  0.20668545594E+02  0.37733724352E+02  0.57816156307E+01  0.43410250054E+02  0.00000000000E+00 0. -1.
</event>
<event>
 7    1  0.3014423E-011  0.5052886E+02  0.7816164E-02  0.1300439E+00
        -11   -1    0    0    0    0  0.00000000000E+00  0.00000000000E+00  0.45593999997E+02  0.45594000000E+02  0.51100000000E-03 0. -1.
         11   -1    0    0    0    0 -0.00000000000E+00 -0.00000000000E+00 -0.45593999997E+02  0.45594000000E+02  0.51100000000E-03 0.  1.
    9900012    2    1    2    0    0  0.31726797023E+02 -0.13460165916E+02  0.21573125541E+02  0.50528862510E+02  0.30000008086E+02 0.  0.
        -12    1    1    2    0    0 -0.31726797023E+02  0.13460165916E+02 -0.21573125541E+02  0.40659137490E+02  0.00000000000E+00 0.  1.
         11    1    3    3    0    0  0.20802182133E+01 -0.32868123541E+01 -0.93138159452E+00  0.39997393917E+01  0.51100000000E-03 0. -1.
        -11    1    3    3    0    0  0.16498320703E+02 -0.14597947880E+02  0.24799304719E+01  0.22168552586E+02  0.51100000000E-03 0.  1.
         12    1    3    3    0    0  0.13148258106E+02  0.44245943183E+01  0.20024576664E+02  0.24360570533E+02  0.00000000000E+00 0. -1.
</event>
<event>
 7    1  0.3014423E-011  0.5052886E+02  0.7816164E-02  0.1300439E+00
        -11   -1    0    0    0    0  0.00000000000E+00  0.00000000000E+00  0.45593999997E+02  0.45594000000E+02  0.51100000000E-03 0.  1.
         11   -1    0    0    0    0 -0.00000000000E+00 -0.00000000000E+00 -0.45593999997E+02  0.45594000000E+02  0.51100000000E-03 0. -1.
    9900012    2    1    2    0    0 -0.75813907982E+00  0.31884103084E+02 -0.25218933960E+02  0.50528862842E+02  0.30000009096E+02 0.  0.
        -12    1    1    2    0    0  0.75813907982E+00 -0.31884103084E+02  0.25218933960E+02  0.40659137158E+02  0.00000000000E+00 0.  1.
         11    1    3    3    0    0 -0.61018726381E+01  0.27050310710E+02 -0.18144827880E+02  0.33138903697E+02  0.51100000000E-03 0. -1.
        -11    1    3    3    0    0  0.32681788100E+01  0.71959483823E+01  0.16872351942E+01  0.80814249188E+01  0.51100000000E-03 0.  1.
         12    1    3    3    0    0  0.20755547482E+01 -0.23621560085E+01 -0.87613412746E+01  0.93085342268E+01  0.00000000000E+00 0. -1.
</event>
<event>
 7    1  0.3014423E-011  0.5052885E+02  0.7816164E-02  0.1300439E+00
        -11   -1    0    0    0    0  0.00000000000E+00  0.00000000000E+00  0.45593999997E+02  0.45594000000E+02  0.51100000000E-03 0.  1.
         11   -1    0    0    0    0 -0.00000000000E+00 -0.00000000000E+00 -0.45593999997E+02  0.45594000000E+02  0.51100000000E-03 0. -1.
    9900012    2    1    2    0    0  0.22950238300E+02  0.32748092912E+02 -0.73495013950E+01  0.50528853450E+02  0.29999980547E+02 0.  0.
        -12    1    1    2    0    0 -0.22950238300E+02 -0.32748092912E+02  0.73495013950E+01  0.40659146550E+02  0.00000000000E+00 0.  1.
         11    1    3    3    0    0  0.13491562684E+01  0.16606336654E+02 -0.12146292559E+02  0.20618512625E+02  0.51100000000E-03 0. -1.
        -11    1    3    3    0    0  0.13360590944E+02  0.25344788482E+01  0.17145744526E+01  0.13706521777E+02  0.51100000000E-03 0.  1.
        -12    1    3    3    0    0  0.82404910874E+01  0.13607277410E+02  0.30822167115E+01  0.16203819048E+02  0.00000000000E+00 0.  1.
</event>
<event>
 7    1  0.3014423E-011  0.5052886E+02  0.7816164E-02  0.1300439E+00
        -11   -1    0    0    0    0  0.00000000000E+00  0.00000000000E+00  0.45593999997E+02  0.45594000000E+02  0.51100000000E-03 0.  1.
         11   -1    0    0    0    0 -0.00000000000E+00 -0.00000000000E+00 -0.45593999997E+02  0.45594000000E+02  0.51100000000E-03 0. -1.
    9900012    2    1    2    0    0 -0.24858391709E+02  0.21602407255E+02 -0.23844541913E+02  0.50528858142E+02  0.29999994809E+02 0.  0.
        -12    1    1    2    0    0  0.24858391709E+02 -0.21602407255E+02  0.23844541913E+02  0.40659141858E+02  0.00000000000E+00 0.  1.
         11    1    3    3    0    0 -0.11963064616E+02 -0.18936033211E-01 -0.96658687705E+01  0.15379996519E+02  0.51100000000E-03 0. -1.
        -11    1    3    3    0    0 -0.10055564086E+02  0.10024355404E+01 -0.25721117228E+00  0.10108679634E+02  0.51100000000E-03 0.  1.
         12    1    3    3    0    0 -0.28397630072E+01  0.20618907748E+02 -0.13921461971E+02  0.25040181989E+02  0.00000000000E+00 0. -1.
</event>
<event>
 7    1  0.3014423E-011  0.5052887E+02  0.7816164E-02  0.1300439E+00
        -11   -1    0    0    0    0  0.00000000000E+00  0.00000000000E+00  0.45593999997E+02  0.45594000000E+02  0.51100000000E-03 0. -1.
         11   -1    0    0    0    0 -0.00000000000E+00 -0.00000000000E+00 -0.45593999997E+02  0.45594000000E+02  0.51100000000E-03 0.  1.
    9900012    2    1    2    0    0  0.24946988471E+02  0.31175006204E+02  0.76767154400E+01  0.50528865657E+02  0.30000017650E+02 0.  0.
        -12    1    1    2    0    0 -0.24946988471E+02 -0.31175006204E+02 -0.76767154400E+01  0.40659134343E+02  0.00000000000E+00 0.  1.
         11    1    3    3    0    0 -0.19850893931E+01  0.30814714830E+00  0.23720118008E+01  0.31083717294E+01  0.51100000000E-03 0. -1.
        -11    1    3    3    0    0  0.15177326582E+01 -0.29979730768E+01 -0.27238133239E+01  0.43255651972E+01  0.51100000000E-03 0.  1.
         12    1    3    3    0    0  0.25414345206E+02  0.33864832132E+02  0.80285169630E+01  0.43094928730E+02  0.00000000000E+00 0. -1.
</event>
<event>
 7    1  0.3014423E-011  0.5052887E+02  0.7816164E-02  0.1300439E+00
        -11   -1    0    0    0    0  0.00000000000E+00  0.00000000000E+00  0.45593999997E+02  0.45594000000E+02  0.51100000000E-03 0.  1.
         11   -1    0    0    0    0 -0.00000000000E+00 -0.00000000000E+00 -0.45593999997E+02  0.45594000000E+02  0.51100000000E-03 0. -1.
    9900012    2    1    2    0    0  0.24759936324E+02  0.26701774195E+02 -0.18086611648E+02  0.50528871716E+02  0.30000036068E+02 0.  0.
        -12    1    1    2    0    0 -0.24759936324E+02 -0.26701774195E+02  0.18086611648E+02  0.40659128284E+02  0.00000000000E+00 0.  1.
         11    1    3    3    0    0 -0.23720524378E-01  0.47308486960E+00  0.28936441981E+01  0.29321577317E+01  0.51100000000E-03 0. -1.
        -11    1    3    3    0    0  0.50232908567E+01  0.91691348124E+01  0.42553599850E+01  0.11287806390E+02  0.51100000000E-03 0.  1.
         12    1    3    3    0    0  0.19760365991E+02  0.17059554513E+02 -0.25235615831E+02  0.36308907594E+02  0.00000000000E+00 0. -1.
</event>
<event>
 7    1  0.3014423E-011  0.5052884E+02  0.7816164E-02  0.1300439E+00
        -11   -1    0    0    0    0  0.00000000000E+00  0.00000000000E+00  0.45593999997E+02  0.45594000000E+02  0.51100000000E-03 0.  1.
         11   -1    0    0    0    0 -0.00000000000E+00 -0.00000000000E+00 -0.45593999997E+02  0.45594000000E+02  0.51100000000E-03 0. -1.
    9900012    2    1    2    0    0  0.43560357769E+01  0.25744767480E+02 -0.31167271180E+02  0.50528844905E+02  0.29999954572E+02 0.  0.
        -12    1    1    2    0    0 -0.43560357769E+01 -0.25744767480E+02  0.31167271180E+02  0.40659155095E+02  0.00000000000E+00 0.  1.
         11    1    3    3    0    0  0.68226485514E+01  0.67766959750E+01 -0.11146531091E+02  0.14721321178E+02  0.51100000000E-03 0. -1.
        -11    1    3    3    0    0  0.57275642922E+01  0.18193286869E+02 -0.19915881275E+02  0.27576131110E+02  0.51100000000E-03 0.  1.
        -12    1    3    3    0    0 -0.81941770667E+01  0.77478463657E+00 -0.10485881353E+00  0.82313926164E+01  0.00000000000E+00 0.  1.
</event>
<event>
 7    1  0.3014423E-011  0.5052886E+02  0.7816164E-02  0.1300439E+00
        -11   -1    0    0    0    0  0.00000000000E+00  0.00000000000E+00  0.45593999997E+02  0.45594000000E+02  0.51100000000E-03 0.  1.
         11   -1    0    0    0    0 -0.00000000000E+00 -0.00000000000E+00 -0.45593999997E+02  0.45594000000E+02  0.51100000000E-03 0. -1.
    9900012    2    1    2    0    0  0.10247549121E+02  0.27946945650E+02 -0.27696960303E+02  0.50528860263E+02  0.30000001255E+02 0.  0.
        -12    1    1    2    0    0 -0.10247549121E+02 -0.27946945650E+02  0.27696960303E+02  0.40659139737E+02  0.00000000000E+00 0.  1.
         11    1    3    3    0    0  0.47734877801E+01  0.12725651758E+02 -0.19837941116E+02  0.24047293116E+02  0.51100000000E-03 0. -1.
        -11    1    3    3    0    0  0.32131605554E-01 -0.35788166539E+01 -0.57816560233E+01  0.67997432095E+01  0.51100000000E-03 0.  1.
        -12    1    3    3    0    0  0.54419297349E+01  0.18800110546E+02 -0.20773631645E+01  0.19681823937E+02  0.00000000000E+00 0.  1.
</event>
<event>
 7    1  0.3014423E-011  0.5052886E+02  0.7816164E-02  0.1300439E+00
        -11   -1    0    0    0    0  0.00000000000E+00  0.00000000000E+00  0.45593999997E+02  0.45594000000E+02  0.51100000000E-03 0.  1.
         11   -1    0    0    0    0 -0.00000000000E+00 -0.00000000000E+00 -0.45593999997E+02  0.45594000000E+02  0.51100000000E-03 0. -1.
    9900012    2    1    2    0    0 -0.23735821310E+01 -0.22070248394E+02 -0.34065172166E+02  0.50528859441E+02  0.29999998758E+02 0.  0.
        -12    1    1    2    0    0  0.23735821310E+01  0.22070248394E+02  0.34065172166E+02  0.40659140559E+02  0.00000000000E+00 0.  1.
         11    1    3    3    0    0  0.89452006772E+00 -0.11578561081E+02 -0.13330550051E+02  0.17679559039E+02  0.51100000000E-03 0. -1.
        -11    1    3    3    0    0 -0.10952824575E+02 -0.98428221160E+01 -0.20361261024E+02  0.25128200575E+02  0.51100000000E-03 0.  1.
         12    1    3    3    0    0  0.76847223766E+01 -0.64886519668E+00 -0.37336109038E+00  0.77210998279E+01  0.00000000000E+00 0. -1.
</event>
<event>
 7    1  0.3014423E-011  0.5052887E+02  0.7816164E-02  0.1300439E+00
        -11   -1    0    0    0    0  0.00000000000E+00  0.00000000000E+00  0.45593999997E+02  0.45594000000E+02  0.51100000000E-03 0. -1.
         11   -1    0    0    0    0 -0.00000000000E+00 -0.00000000000E+00 -0.45593999997E+02  0.45594000000E+02  0.51100000000E-03 0.  1.
    9900012    2    1    2    0    0 -0.17908896241E+02 -0.19504036171E+02  0.30854965939E+02  0.50528869234E+02  0.30000028523E+02 0.  0.
        -12    1    1    2    0    0  0.17908896241E+02  0.19504036171E+02 -0.30854965939E+02  0.40659130766E+02  0.00000000000E+00 0.  1.
         11    1    3    3    0    0 -0.43391183906E+00 -0.90181379564E+00 -0.20646714285E+01  0.22944315146E+01  0.51100000000E-03 0. -1.
        -11    1    3    3    0    0  0.38782576030E+01 -0.12405102352E+01 -0.13430773597E+01  0.42876106089E+01  0.51100000000E-03 0.  1.
         12    1    3    3    0    0 -0.21353242005E+02 -0.17361712140E+02  0.34262714728E+02  0.43946827110E+02  0.00000000000E+00 0. -1.
</event>
<event>
 7    1  0.3014423E-011  0.5052885E+02  0.7816164E-02  0.1300439E+00
        -11   -1    0    0    0    0  0.00000000000E+00  0.00000000000E+00  0.45593999997E+02  0.45594000000E+02  0.51100000000E-03 0.  1.
         11   -1    0    0    0    0 -0.00000000000E+00 -0.00000000000E+00 -0.45593999997E+02  0.45594000000E+02  0.51100000000E-03 0. -1.
    9900012    2    1    2    0    0 -0.99053331653E+01 -0.38199971357E+02  0.97883935914E+01  0.50528854830E+02  0.29999984742E+02 0.  0.
        -12    1    1    2    0    0  0.99053331653E+01  0.38199971357E+02 -0.97883935914E+01  0.40659145170E+02  0.00000000000E+00 0.  1.
         11    1    3    3    0    0 -0.14217819579E+01 -0.31087793787E+01  0.21930443089E+01  0.40614550056E+01  0.51100000000E-03 0. -1.
        -11    1    3    3    0    0 -0.16036173781E+02 -0.18868187175E+02  0.12740395033E+02  0.27847531716E+02  0.51100000000E-03 0.  1.
         12    1    3    3    0    0  0.75526225740E+01 -0.16223004804E+02 -0.51450457506E+01  0.18619868109E+02  0.00000000000E+00 0. -1.
</event>
<event>
 7    1  0.3014423E-011  0.5052887E+02  0.7816164E-02  0.1300439E+00
        -11   -1    0    0    0    0  0.00000000000E+00  0.00000000000E+00  0.45593999997E+02  0.45594000000E+02  0.51100000000E-03 0.  1.
         11   -1    0    0    0    0 -0.00000000000E+00 -0.00000000000E+00 -0.45593999997E+02  0.45594000000E+02  0.51100000000E-03 0. -1.
    9900012    2    1    2    0    0  0.24767701162E+02  0.28328564438E+02 -0.15401895374E+02  0.50528868614E+02  0.30000026639E+02 0.  0.
        -12    1    1    2    0    0 -0.24767701162E+02 -0.28328564438E+02  0.15401895374E+02  0.40659131386E+02  0.00000000000E+00 0.  1.
         11    1    3    3    0    0  0.60900971900E+01  0.67169596404E+01  0.69360334180E+00  0.90932896385E+01  0.51100000000E-03 0. -1.
        -11    1    3    3    0    0 -0.42934779218E+01 -0.20891780795E+01 -0.41757814543E+01  0.63431670897E+01  0.51100000000E-03 0.  1.
         12    1    3    3    0    0  0.22971081894E+02  0.23700782877E+02 -0.11919717262E+02  0.35092411886E+02  0.00000000000E+00 0. -1.
</event>
<event>
 7    1  0.3014423E-011  0.5052886E+02  0.7816164E-02  0.1300439E+00
        -11   -1    0    0    0    0  0.00000000000E+00  0.00000000000E+00  0.45593999997E+02  0.45594000000E+02  0.51100000000E-03 0.  1.
         11   -1    0    0    0    0 -0.00000000000E+00 -0.00000000000E+00 -0.45593999997E+02  0.45594000000E+02  0.51100000000E-03 0. -1.
    9900012    2    1    2    0    0 -0.24423190183E+02  0.11663078015E+02 -0.30342156529E+02  0.50528855023E+02  0.29999985327E+02 0.  0.
        -12    1    1    2    0    0  0.24423190183E+02 -0.11663078015E+02  0.30342156529E+02  0.40659144977E+02  0.00000000000E+00 0.  1.
         11    1    3    3    0    0 -0.29482688293E+02  0.92844598807E+01 -0.27647548184E+02  0.41470676690E+02  0.51100000000E-03 0. -1.
        -11    1    3    3    0    0 -0.12509517817E+01  0.44873292066E+00  0.84000282118E+00  0.15722107349E+01  0.51100000000E-03 0.  1.
         12    1    3    3    0    0  0.63104498923E+01  0.19298852137E+01 -0.35346111662E+01  0.74859675979E+01  0.00000000000E+00 0. -1.
</event>
<event>
 7    1  0.3014423E-011  0.5052886E+02  0.7816164E-02  0.1300439E+00
        -11   -1    0    0    0    0  0.00000000000E+00  0.00000000000E+00  0.45593999997E+02  0.45594000000E+02  0.51100000000E-03 0. -1.
         11   -1    0    0    0    0 -0.00000000000E+00 -0.00000000000E+00 -0.45593999997E+02  0.45594000000E+02  0.51100000000E-03 0.  1.
    9900012    2    1    2    0    0  0.13302168035E+02  0.17580825555E+01  0.38381333489E+02  0.50528864629E+02  0.30000014527E+02 0.  0.
        -12    1    1    2    0    0 -0.13302168035E+02 -0.17580825555E+01 -0.38381333489E+02  0.40659135371E+02  0.00000000000E+00 0.  1.
         11    1    3    3    0    0  0.45349079165E+01 -0.88346215194E+01  0.30774612503E+01  0.10396475134E+02  0.51100000000E-03 0. -1.
        -11    1    3    3    0    0  0.21540372319E+01  0.25859404591E+01  0.34278310265E-01  0.33657301909E+01  0.51100000000E-03 0.  1.
         12    1    3    3    0    0  0.66132228868E+01  0.80067636158E+01  0.35269593928E+02  0.36766659305E+02  0.00000000000E+00 0. -1.
</event>
<event>
 7    1  0.3014423E-011  0.5052885E+02  0.7816164E-02  0.1300439E+00
        -11   -1    0    0    0    0  0.00000000000E+00  0.00000000000E+00  0.45593999997E+02  0.45594000000E+02  0.51100000000E-03 0. -1.
         11   -1    0    0    0    0 -0.00000000000E+00 -0.00000000000E+00 -0.45593999997E+02  0.45594000000E+02  0.51100000000E-03 0.  1.
    9900012    2    1    2    0    0  0.23845089311E+01  0.22676902491E+02  0.33663610403E+02  0.50528850294E+02  0.29999970954E+02 0.  0.
        -12    1    1    2    0    0 -0.23845089311E+01 -0.22676902491E+02 -0.33663610403E+02  0.40659149706E+02  0.00000000000E+00 0.  1.
         11    1    3    3    0    0 -0.33745127877E+01 -0.69332972628E+00  0.78766928007E+01  0.85971118640E+01  0.51100000000E-03 0. -1.
        -11    1    3    3    0    0 -0.66955702733E+01  0.29092922135E+01  0.12668234887E+02  0.14621177035E+02  0.51100000000E-03 0.  1.
        -12    1    3    3    0    0  0.12454591992E+02  0.20460940004E+02  0.13118682715E+02  0.27310561395E+02  0.00000000000E+00 0.  1.
</event>
<event>
 7    1  0.3014423E-011  0.5052886E+02  0.7816164E-02  0.1300439E+00
        -11   -1    0    0    0    0  0.00000000000E+00  0.00000000000E+00  0.45593999997E+02  0.45594000000E+02  0.51100000000E-03 0.  1.
         11   -1    0    0    0    0 -0.00000000000E+00 -0.00000000000E+00 -0.45593999997E+02  0.45594000000E+02  0.51100000000E-03 0. -1.
    9900012    2    1    2    0    0  0.25370925440E+02 -0.14936079710E+02 -0.28042738208E+02  0.50528862024E+02  0.30000006607E+02 0.  0.
        -12    1    1    2    0    0 -0.25370925440E+02  0.14936079710E+02  0.28042738208E+02  0.40659137976E+02  0.00000000000E+00 0.  1.
         11    1    3    3    0    0  0.15251431455E+02  0.29581198130E+01 -0.48279210737E+01  0.16268541926E+02  0.51100000000E-03 0. -1.
        -11    1    3    3    0    0  0.11344595915E+02 -0.12737663829E+02 -0.94269291623E+01  0.19488841166E+02  0.51100000000E-03 0.  1.
         12    1    3    3    0    0 -0.12251019300E+01 -0.51565356936E+01 -0.13787887972E+02  0.14771478932E+02  0.00000000000E+00 0. -1.
</event>
<event>
 7    1  0.3014423E-011  0.5052888E+02  0.7816164E-02  0.1300439E+00
        -11   -1    0    0    0    0  0.00000000000E+00  0.00000000000E+00  0.45593999997E+02  0.45594000000E+02  0.51100000000E-03 0.  1.
         11   -1    0    0    0    0 -0.00000000000E+00 -0.00000000000E+00 -0.45593999997E+02  0.45594000000E+02  0.51100000000E-03 0. -1.
    9900012    2    1    2    0    0 -0.16988185031E+02 -0.20584852971E+02 -0.30672945944E+02  0.50528877833E+02  0.30000054662E+02 0.  0.
        -12    1    1    2    0    0  0.16988185031E+02  0.20584852971E+02  0.30672945944E+02  0.40659122167E+02  0.00000000000E+00 0.  1.
         11    1    3    3    0    0 -0.90104020094E+00 -0.14547649337E+02 -0.89807172146E+01  0.17120141840E+02  0.51100000000E-03 0. -1.
        -11    1    3    3    0    0 -0.30507945393E+01 -0.10902545189E+02 -0.11679464421E+02  0.16265999150E+02  0.51100000000E-03 0.  1.
        -12    1    3    3    0    0 -0.13036350291E+02  0.48653415557E+01 -0.10012764309E+02  0.17142736843E+02  0.00000000000E+00 0.  1.
</event>
<event>
 7    1  0.3014423E-011  0.5052887E+02  0.7816164E-02  0.1300439E+00
        -11   -1    0    0    0    0  0.00000000000E+00  0.00000000000E+00  0.45593999997E+02  0.45594000000E+02  0.51100000000E-03 0. -1.
         11   -1    0    0    0    0 -0.00000000000E+00 -0.00000000000E+00 -0.45593999997E+02  0.45594000000E+02  0.51100000000E-03 0.  1.
    9900012    2    1    2    0    0 -0.26717087850E+02 -0.30605990403E+02  0.16235060186E+01  0.50528865682E+02  0.30000017726E+02 0.  0.
        -12    1    1    2    0    0  0.26717087850E+02  0.30605990403E+02 -0.16235060186E+01  0.40659134318E+02  0.00000000000E+00 0.  1.
         11    1    3    3    0    0 -0.15018342082E+02 -0.11700261423E+02 -0.12676497898E+01  0.19080190054E+02  0.51100000000E-03 0. -1.
        -11    1    3    3    0    0 -0.10151948801E+02 -0.68418431529E+01 -0.84047396352E+01  0.14849664332E+02  0.51100000000E-03 0.  1.
         12    1    3    3    0    0 -0.15467969669E+01 -0.12063885827E+02  0.11295895444E+02  0.16599011295E+02  0.00000000000E+00 0. -1.
</event>
<event>
 7    1  0.3014423E-011  0.5052886E+02  0.7816164E-02  0.1300439E+00
        -11   -1    0    0    0    0  0.00000000000E+00  0.00000000000E+00  0.45593999997E+02  0.45594000000E+02  0.51100000000E-03 0.  1.
         11   -1    0    0    0    0 -0.00000000000E+00 -0.00000000000E+00 -0.45593999997E+02  0.45594000000E+02  0.51100000000E-03 0. -1.
    9900012    2    1    2    0    0  0.34927465671E+01 -0.13896266873E+02 -0.38050758409E+02  0.50528859244E+02  0.29999998157E+02 0.  0.
        -12    1    1    2    0    0 -0.34927465671E+01  0.13896266873E+02  0.38050758409E+02  0.40659140756E+02  0.00000000000E+00 0.  1.
         11    1    3    3    0    0  0.89843785346E+01 -0.83759812115E+01 -0.52629954530E+01  0.13363204717E+02  0.51100000000E-03 0. -1.
        -11    1    3    3    0    0  0.18728938199E+01  0.45161820465E+01 -0.11654803806E+02  0.12638753244E+02  0.51100000000E-03 0.  1.
        -12    1    3    3    0    0 -0.73645257874E+01 -0.10036467708E+02 -0.21132959150E+02  0.24526901283E+02  0.00000000000E+00 0.  1.
</event>
<event>
 7    1  0.3014423E-011  0.5052885E+02  0.7816164E-02  0.1300439E+00
        -11   -1    0    0    0    0  0.00000000000E+00  0.00000000000E+00  0.45593999997E+02  0.45594000000E+02  0.51100000000E-03 0. -1.
         11   -1    0    0    0    0 -0.00000000000E+00 -0.00000000000E+00 -0.45593999997E+02  0.45594000000E+02  0.51100000000E-03 0.  1.
    9900012    2    1    2    0    0  0.11699387302E+02  0.18561095333E+02  0.34231216236E+02  0.50528854803E+02  0.29999984659E+02 0.  0.
        -12    1    1    2    0    0 -0.11699387302E+02 -0.18561095333E+02 -0.34231216236E+02  0.40659145197E+02  0.00000000000E+00 0.  1.
         11    1    3    3    0    0  0.50950434047E+01  0.11215555030E+01  0.12139207839E+02  0.13212786280E+02  0.51100000000E-03 0. -1.
        -11    1    3    3    0    0  0.35086673880E+01  0.31666797515E+01  0.22213597361E+02  0.22710845768E+02  0.51100000000E-03 0.  1.
        -12    1    3    3    0    0  0.30956765089E+01  0.14272860078E+02 -0.12158896491E+00  0.14605222756E+02  0.00000000000E+00 0.  1.
</event>
<event>
 7    1  0.3014423E-011  0.5052886E+02  0.7816164E-02  0.1300439E+00
        -11   -1    0    0    0    0  0.00000000000E+00  0.00000000000E+00  0.45593999997E+02  0.45594000000E+02  0.51100000000E-03 0.  1.
         11   -1    0    0    0    0 -0.00000000000E+00 -0.00000000000E+00 -0.45593999997E+02  0.45594000000E+02  0.51100000000E-03 0. -1.
    9900012    2    1    2    0    0 -0.14237537734E+02  0.20065535589E+02 -0.32370241287E+02  0.50528859328E+02  0.29999998414E+02 0.  0.
        -12    1    1    2    0    0  0.14237537734E+02 -0.20065535589E+02  0.32370241287E+02  0.40659140672E+02  0.00000000000E+00 0.  1.
         11    1    3    3    0    0  0.39395204372E+01 -0.28726536573E+01 -0.24511184827E+01  0.54571001811E+01  0.51100000000E-03 0. -1.
        -11    1    3    3    0    0 -0.33303582174E+01  0.21739597535E+01  0.17929956403E+01  0.43625933220E+01  0.51100000000E-03 0.  1.
         12    1    3    3    0    0 -0.14846699954E+02  0.20764229493E+02 -0.31712118444E+02  0.40709165825E+02  0.00000000000E+00 0. -1.
</event>
<event>
 7    1  0.3014423E-011  0.5052887E+02  0.7816164E-02  0.1300439E+00
        -11   -1    0    0    0    0  0.00000000000E+00  0.00000000000E+00  0.45593999997E+02  0.45594000000E+02  0.51100000000E-03 0.  1.
         11   -1    0    0    0    0 -0.00000000000E+00 -0.00000000000E+00 -0.45593999997E+02  0.45594000000E+02  0.51100000000E-03 0. -1.
    9900012    2    1    2    0    0 -0.14224319347E+00 -0.83901950322E+01 -0.39783784517E+02  0.50528866754E+02  0.30000020985E+02 0.  0.
        -12    1    1    2    0    0  0.14224319347E+00  0.83901950322E+01  0.39783784517E+02  0.40659133246E+02  0.00000000000E+00 0.  1.
         11    1    3    3    0    0 -0.30972856188E+01 -0.57640770721E+01 -0.11753095188E+02  0.13451877544E+02  0.51100000000E-03 0. -1.
        -11    1    3    3    0    0  0.37626799234E+01 -0.45134158069E+01  0.25656893571E+01  0.64118206923E+01  0.51100000000E-03 0.  1.
         12    1    3    3    0    0 -0.80763749805E+00  0.18872978468E+01 -0.30596378686E+02  0.30665168518E+02  0.00000000000E+00 0. -1.
</event>
<event>
 7    1  0.3014423E-011  0.5052883E+02  0.7816164E-02  0.1300439E+00
        -11   -1    0    0    0    0  0.00000000000E+00  0.00000000000E+00  0.45593999997E+02  0.45594000000E+02  0.51100000000E-03 0.  1.
         11   -1    0    0    0    0 -0.00000000000E+00 -0.00000000000E+00 -0.45593999997E+02  0.45594000000E+02  0.51100000000E-03 0. -1.
    9900012    2    1    2    0    0  0.31200003048E+02  0.18083391611E+02 -0.18780801783E+02  0.50528834269E+02  0.29999922244E+02 0.  0.
        -12    1    1    2    0    0 -0.31200003048E+02 -0.18083391611E+02  0.18780801783E+02  0.40659165731E+02  0.00000000000E+00 0.  1.
         11    1    3    3    0    0  0.11894611448E+02  0.85274012496E+01 -0.36256845791E+01  0.15077928985E+02  0.51100000000E-03 0.  1.
        -11    1    3    3    0    0  0.11789698846E+02 -0.97030701284E+00  0.38692157892E+01  0.12446257496E+02  0.51100000000E-03 0. -1.
         12    1    3    3    0    0  0.75156927543E+01  0.10526297374E+02 -0.19024332993E+02  0.23004647787E+02  0.00000000000E+00 0. -1.
</event>
<event>
 7    1  0.3014423E-011  0.5052886E+02  0.7816164E-02  0.1300439E+00
        -11   -1    0    0    0    0  0.00000000000E+00  0.00000000000E+00  0.45593999997E+02  0.45594000000E+02  0.51100000000E-03 0.  1.
         11   -1    0    0    0    0 -0.00000000000E+00 -0.00000000000E+00 -0.45593999997E+02  0.45594000000E+02  0.51100000000E-03 0. -1.
    9900012    2    1    2    0    0  0.26162404335E+02 -0.99806634839E+01 -0.29480171096E+02  0.50528861642E+02  0.30000005447E+02 0.  0.
        -12    1    1    2    0    0 -0.26162404335E+02  0.99806634839E+01  0.29480171096E+02  0.40659138358E+02  0.00000000000E+00 0.  1.
         11    1    3    3    0    0  0.34709558164E+01  0.19042158702E+01 -0.42317629253E+01  0.57949452178E+01  0.51100000000E-03 0. -1.
        -11    1    3    3    0    0 -0.50277258709E+01  0.24723424098E+01 -0.26614960484E+01  0.62027466417E+01  0.51100000000E-03 0.  1.
         12    1    3    3    0    0  0.27719174390E+02 -0.14357221764E+02 -0.22586912122E+02  0.38531169783E+02  0.00000000000E+00 0. -1.
</event>
<event>
 7    1  0.3014423E-011  0.5052887E+02  0.7816164E-02  0.1300439E+00
        -11   -1    0    0    0    0  0.00000000000E+00  0.00000000000E+00  0.45593999997E+02  0.45594000000E+02  0.51100000000E-03 0.  1.
         11   -1    0    0    0    0 -0.00000000000E+00 -0.00000000000E+00 -0.45593999997E+02  0.45594000000E+02  0.51100000000E-03 0. -1.
    9900012    2    1    2    0    0 -0.16654887569E+02  0.81887837085E+01 -0.36176285814E+02  0.50528866784E+02  0.30000021078E+02 0.  0.
        -12    1    1    2    0    0  0.16654887569E+02 -0.81887837085E+01  0.36176285814E+02  0.40659133216E+02  0.00000000000E+00 0.  1.
         11    1    3    3    0    0 -0.68484755825E+01 -0.17480121858E+00  0.26386474193E+00  0.68557857415E+01  0.51100000000E-03 0. -1.
        -11    1    3    3    0    0 -0.69024840731E+01 -0.36914255101E+01 -0.36892522246E+01  0.86534092076E+01  0.51100000000E-03 0.  1.
         12    1    3    3    0    0 -0.29039279137E+01  0.12055010437E+02 -0.32750898331E+02  0.35019671835E+02  0.00000000000E+00 0. -1.
</event>
<event>
 7    1  0.3014423E-011  0.5052885E+02  0.7816164E-02  0.1300439E+00
        -11   -1    0    0    0    0  0.00000000000E+00  0.00000000000E+00  0.45593999997E+02  0.45594000000E+02  0.51100000000E-03 0.  1.
         11   -1    0    0    0    0 -0.00000000000E+00 -0.00000000000E+00 -0.45593999997E+02  0.45594000000E+02  0.51100000000E-03 0. -1.
    9900012    2    1    2    0    0 -0.32649749278E+01  0.20299494844E+02 -0.35077579522E+02  0.50528854198E+02  0.29999982820E+02 0.  0.
        -12    1    1    2    0    0  0.32649749278E+01 -0.20299494844E+02  0.35077579522E+02  0.40659145802E+02  0.00000000000E+00 0.  1.
         11    1    3    3    0    0  0.17714233065E+01  0.15943719030E+02 -0.25944365853E+02  0.30503282394E+02  0.51100000000E-03 0. -1.
        -11    1    3    3    0    0 -0.60903559955E+01  0.76127420249E+01 -0.12069786722E+02  0.15515348178E+02  0.51100000000E-03 0.  1.
         12    1    3    3    0    0  0.10539577612E+01 -0.32569662108E+01  0.29365730532E+01  0.45102236261E+01  0.00000000000E+00 0. -1.
</event>
<event>
 7    1  0.3014423E-011  0.5052886E+02  0.7816164E-02  0.1300439E+00
        -11   -1    0    0    0    0  0.00000000000E+00  0.00000000000E+00  0.45593999997E+02  0.45594000000E+02  0.51100000000E-03 0.  1.
         11   -1    0    0    0    0 -0.00000000000E+00 -0.00000000000E+00 -0.45593999997E+02  0.45594000000E+02  0.51100000000E-03 0. -1.
    9900012    2    1    2    0    0  0.10658775101E+02 -0.39209933930E+02  0.14619342791E+01  0.50528860102E+02  0.30000000765E+02 0.  0.
        -12    1    1    2    0    0 -0.10658775101E+02  0.39209933930E+02 -0.14619342791E+01  0.40659139898E+02  0.00000000000E+00 0.  1.
         11    1    3    3    0    0  0.16573338305E+02 -0.15002479421E+02 -0.75118772793E+01  0.23583431300E+02  0.51100000000E-03 0. -1.
        -11    1    3    3    0    0  0.89737183610E+00 -0.25109341767E+01  0.94697916040E+00  0.28296353905E+01  0.51100000000E-03 0.  1.
         12    1    3    3    0    0 -0.68119350403E+01 -0.21696520332E+02  0.80268323980E+01  0.24115793412E+02  0.00000000000E+00 0. -1.
</event>
<event>
 7    1  0.3014423E-011  0.5052886E+02  0.7816164E-02  0.1300439E+00
        -11   -1    0    0    0    0  0.00000000000E+00  0.00000000000E+00  0.45593999997E+02  0.45594000000E+02  0.51100000000E-03 0.  1.
         11   -1    0    0    0    0 -0.00000000000E+00 -0.00000000000E+00 -0.45593999997E+02  0.45594000000E+02  0.51100000000E-03 0. -1.
    9900012    2    1    2    0    0  0.83666927601E+01 -0.39007060488E+02 -0.78494333732E+01  0.50528856871E+02  0.29999990947E+02 0.  0.
        -12    1    1    2    0    0 -0.83666927601E+01  0.39007060488E+02  0.78494333732E+01  0.40659143129E+02  0.00000000000E+00 0.  1.
         11    1    3    3    0    0  0.80421145213E+01 -0.47195749020E+01 -0.88170806520E+01  0.12833195421E+02  0.51100000000E-03 0. -1.
        -11    1    3    3    0    0  0.46120704582E+01 -0.30505902891E+02 -0.25917677363E+01  0.30961242956E+02  0.51100000000E-03 0.  1.
        -12    1    3    3    0    0 -0.42874922194E+01 -0.37815826950E+01  0.35594150152E+01  0.67344184946E+01  0.00000000000E+00 0.  1.
</event>
<event>
 7    1  0.3014423E-011  0.5052886E+02  0.7816164E-02  0.1300439E+00
        -11   -1    0    0    0    0  0.00000000000E+00  0.00000000000E+00  0.45593999997E+02  0.45594000000E+02  0.51100000000E-03 0.  1.
         11   -1    0    0    0    0 -0.00000000000E+00 -0.00000000000E+00 -0.45593999997E+02  0.45594000000E+02  0.51100000000E-03 0. -1.
    9900012    2    1    2    0    0  0.26786609174E+02  0.30516145258E+02 -0.20995240761E+01  0.50528861374E+02  0.30000004633E+02 0.  0.
        -12    1    1    2    0    0 -0.26786609174E+02 -0.30516145258E+02  0.20995240761E+01  0.40659138626E+02  0.00000000000E+00 0.  1.
         11    1    3    3    0    0  0.90237547089E+01  0.10955778135E+01  0.10689275525E+00  0.90906471779E+01  0.51100000000E-03 0. -1.
        -11    1    3    3    0    0  0.28307729371E+01 -0.34589221734E+01  0.23344196963E+01  0.50425126279E+01  0.51100000000E-03 0.  1.
         12    1    3    3    0    0  0.14932081528E+02  0.32879489618E+02 -0.45408365276E+01  0.36395701568E+02  0.00000000000E+00 0. -1.
</event>
<event>
 7    1  0.3014423E-011  0.5052886E+02  0.7816164E-02  0.1300439E+00
        -11   -1    0    0    0    0  0.00000000000E+00  0.00000000000E+00  0.45593999997E+02  0.45594000000E+02  0.51100000000E-03 0. -1.
         11   -1    0    0    0    0 -0.00000000000E+00 -0.00000000000E+00 -0.45593999997E+02  0.45594000000E+02  0.51100000000E-03 0.  1.
    9900012    2    1    2    0    0 -0.24758973557E+02  0.92243371173E+01  0.30904218817E+02  0.50528857024E+02  0.29999991410E+02 0.  0.
        -12    1    1    2    0    0  0.24758973557E+02 -0.92243371173E+01 -0.30904218817E+02  0.40659142976E+02  0.00000000000E+00 0.  1.
         11    1    3    3    0    0 -0.18569046791E+02  0.28037361450E+01  0.22265961209E+02  0.29128052869E+02  0.51100000000E-03 0. -1.
        -11    1    3    3    0    0 -0.82171361696E+01  0.81661489691E+01 -0.77899951043E+00  0.11610949845E+02  0.51100000000E-03 0.  1.
         12    1    3    3    0    0  0.20272094036E+01 -0.17455479968E+01  0.94172571186E+01  0.97898543102E+01  0.00000000000E+00 0. -1.
</event>
<event>
 7    1  0.3014423E-011  0.5052884E+02  0.7816164E-02  0.1300439E+00
        -11   -1    0    0    0    0  0.00000000000E+00  0.00000000000E+00  0.45593999997E+02  0.45594000000E+02  0.51100000000E-03 0.  1.
         11   -1    0    0    0    0 -0.00000000000E+00 -0.00000000000E+00 -0.45593999997E+02  0.45594000000E+02  0.51100000000E-03 0. -1.
    9900012    2    1    2    0    0  0.99415504447E+01 -0.11938271266E+02 -0.37574065111E+02  0.50528842175E+02  0.29999946275E+02 0.  0.
        -12    1    1    2    0    0 -0.99415504447E+01  0.11938271266E+02  0.37574065111E+02  0.40659157825E+02  0.00000000000E+00 0.  1.
         11    1    3    3    0    0  0.48572605740E+01 -0.80543800944E+01 -0.28062760149E+02  0.29597035771E+02  0.51100000000E-03 0. -1.
        -11    1    3    3    0    0 -0.63278957697E+01 -0.34789516262E+01 -0.39332983505E+01  0.82229073609E+01  0.51100000000E-03 0.  1.
        -12    1    3    3    0    0  0.11412185640E+02 -0.40493954512E+00 -0.55780066117E+01  0.12708899043E+02  0.00000000000E+00 0.  1.
</event>
<event>
 7    1  0.3014423E-011  0.5052886E+02  0.7816164E-02  0.1300439E+00
        -11   -1    0    0    0    0  0.00000000000E+00  0.00000000000E+00  0.45593999997E+02  0.45594000000E+02  0.51100000000E-03 0.  1.
         11   -1    0    0    0    0 -0.00000000000E+00 -0.00000000000E+00 -0.45593999997E+02  0.45594000000E+02  0.51100000000E-03 0. -1.
    9900012    2    1    2    0    0  0.38928592007E+02  0.11389703818E+02  0.28293514824E+01  0.50528857627E+02  0.29999993242E+02 0.  0.
        -12    1    1    2    0    0 -0.38928592007E+02 -0.11389703818E+02 -0.28293514824E+01  0.40659142373E+02  0.00000000000E+00 0.  1.
         11    1    3    3    0    0  0.18790421091E+02  0.10018794793E+02  0.11506873636E+01  0.21325577497E+02  0.51100000000E-03 0. -1.
        -11    1    3    3    0    0 -0.70579353923E+00  0.45967412932E+01  0.60821445953E+01  0.76564128791E+01  0.51100000000E-03 0.  1.
        -12    1    3    3    0    0  0.20843964455E+02 -0.32258322682E+01 -0.44034804765E+01  0.21546867251E+02  0.00000000000E+00 0.  1.
</event>
<event>
 7    1  0.3014423E-011  0.5052886E+02  0.7816164E-02  0.1300439E+00
        -11   -1    0    0    0    0  0.00000000000E+00  0.00000000000E+00  0.45593999997E+02  0.45594000000E+02  0.51100000000E-03 0. -1.
         11   -1    0    0    0    0 -0.00000000000E+00 -0.00000000000E+00 -0.45593999997E+02  0.45594000000E+02  0.51100000000E-03 0.  1.
    9900012    2    1    2    0    0  0.13381212868E+02 -0.56365391058E+01  0.37978126217E+02  0.50528862013E+02  0.30000006575E+02 0.  0.
        -12    1    1    2    0    0 -0.13381212868E+02  0.56365391058E+01 -0.37978126217E+02  0.40659137987E+02  0.00000000000E+00 0.  1.
         11    1    3    3    0    0  0.29701778052E+01  0.11382274348E+01  0.15621555407E+01  0.35437054169E+01  0.51100000000E-03 0. -1.
        -11    1    3    3    0    0  0.96016521033E+01  0.15037270601E+01  0.90085658646E-01  0.97191066396E+01  0.51100000000E-03 0.  1.
         12    1    3    3    0    0  0.80938295950E+00 -0.82784936007E+01  0.36325885017E+02  0.37266049957E+02  0.00000000000E+00 0. -1.
</event>
<event>
 7    1  0.3014423E-011  0.5052883E+02  0.7816164E-02  0.1300439E+00
        -11   -1    0    0    0    0  0.00000000000E+00  0.00000000000E+00  0.45593999997E+02  0.45594000000E+02  0.51100000000E-03 0.  1.
         11   -1    0    0    0    0 -0.00000000000E+00 -0.00000000000E+00 -0.45593999997E+02  0.45594000000E+02  0.51100000000E-03 0. -1.
    9900012    2    1    2    0    0 -0.27520613170E+02  0.17735694739E+02 -0.24108694112E+02  0.50528829461E+02  0.29999907630E+02 0.  0.
        -12    1    1    2    0    0  0.27520613170E+02 -0.17735694739E+02  0.24108694112E+02  0.40659170539E+02  0.00000000000E+00 0.  1.
         11    1    3    3    0    0 -0.10371280505E+02  0.18584596354E+02 -0.12597378474E+02  0.24731450132E+02  0.51100000000E-03 0. -1.
        -11    1    3    3    0    0 -0.13010350092E+02  0.65444528318E+01 -0.80890425912E+01  0.16659282178E+02  0.51100000000E-03 0.  1.
        -12    1    3    3    0    0 -0.41389825733E+01 -0.73933544474E+01 -0.34222730466E+01  0.91380971505E+01  0.00000000000E+00 0.  1.
</event>
<event>
 7    1  0.3014423E-011  0.5052887E+02  0.7816164E-02  0.1300439E+00
        -11   -1    0    0    0    0  0.00000000000E+00  0.00000000000E+00  0.45593999997E+02  0.45594000000E+02  0.51100000000E-03 0. -1.
         11   -1    0    0    0    0 -0.00000000000E+00 -0.00000000000E+00 -0.45593999997E+02  0.45594000000E+02  0.51100000000E-03 0.  1.
    9900012    2    1    2    0    0  0.11156041343E+02  0.11341175986E+02  0.37417717233E+02  0.50528867026E+02  0.30000021814E+02 0.  0.
        -12    1    1    2    0    0 -0.11156041343E+02 -0.11341175986E+02 -0.37417717233E+02  0.40659132974E+02  0.00000000000E+00 0.  1.
         11    1    3    3    0    0  0.10070738822E+02 -0.37803480850E+00  0.28736839475E+02  0.30452727858E+02  0.51100000000E-03 0. -1.
        -11    1    3    3    0    0  0.27112658445E+01 -0.13312281107E+01  0.59084788752E+01  0.66357556949E+01  0.51100000000E-03 0.  1.
        -12    1    3    3    0    0 -0.16259633233E+01  0.13050438905E+02  0.27723988836E+01  0.13440383474E+02  0.00000000000E+00 0.  1.
</event>
<event>
 7    1  0.3014423E-011  0.5052886E+02  0.7816164E-02  0.1300439E+00
        -11   -1    0    0    0    0  0.00000000000E+00  0.00000000000E+00  0.45593999997E+02  0.45594000000E+02  0.51100000000E-03 0. -1.
         11   -1    0    0    0    0 -0.00000000000E+00 -0.00000000000E+00 -0.45593999997E+02  0.45594000000E+02  0.51100000000E-03 0.  1.
    9900012    2    1    2    0    0 -0.24947417679E+02  0.28118222162E+02  0.15497026106E+02  0.50528857307E+02  0.29999992270E+02 0.  0.
        -12    1    1    2    0    0  0.24947417679E+02 -0.28118222162E+02 -0.15497026106E+02  0.40659142693E+02  0.00000000000E+00 0.  1.
         11    1    3    3    0    0 -0.12571578660E+02 -0.12418201316E+01  0.10778574230E+02  0.16606154580E+02  0.51100000000E-03 0. -1.
        -11    1    3    3    0    0  0.12440902413E+01  0.10581135047E+00 -0.24917661578E+00  0.12732029757E+01  0.51100000000E-03 0.  1.
         12    1    3    3    0    0 -0.13619929260E+02  0.29254230943E+02  0.49676284916E+01  0.32649499751E+02  0.00000000000E+00 0. -1.
</event>
<event>
 7    1  0.3014423E-011  0.5052887E+02  0.7816164E-02  0.1300439E+00
        -11   -1    0    0    0    0  0.00000000000E+00  0.00000000000E+00  0.45593999997E+02  0.45594000000E+02  0.51100000000E-03 0.  1.
         11   -1    0    0    0    0 -0.00000000000E+00 -0.00000000000E+00 -0.45593999997E+02  0.45594000000E+02  0.51100000000E-03 0. -1.
    9900012    2    1    2    0    0  0.49694251642E+01 -0.19949125717E+02 -0.35078512172E+02  0.50528870404E+02  0.30000032080E+02 0.  0.
        -12    1    1    2    0    0 -0.49694251642E+01  0.19949125717E+02  0.35078512172E+02  0.40659129596E+02  0.00000000000E+00 0.  1.
         11    1    3    3    0    0  0.43291973722E+01 -0.10174036042E+01 -0.26827806387E+02  0.27193901077E+02  0.51100000000E-03 0. -1.
        -11    1    3    3    0    0  0.24314370030E+01 -0.23284270790E+00 -0.29237540566E+01  0.38097821028E+01  0.51100000000E-03 0.  1.
        -12    1    3    3    0    0 -0.17912092110E+01 -0.18698879405E+02 -0.53269517283E+01  0.19525187225E+02  0.00000000000E+00 0.  1.
</event>
<event>
 7    1  0.3014423E-011  0.5052885E+02  0.7816164E-02  0.1300439E+00
        -11   -1    0    0    0    0  0.00000000000E+00  0.00000000000E+00  0.45593999997E+02  0.45594000000E+02  0.51100000000E-03 0.  1.
         11   -1    0    0    0    0 -0.00000000000E+00 -0.00000000000E+00 -0.45593999997E+02  0.45594000000E+02  0.51100000000E-03 0. -1.
    9900012    2    1    2    0    0  0.36746886492E+02 -0.17310837491E+02 -0.17797149647E+01  0.50528854081E+02  0.29999982464E+02 0.  0.
        -12    1    1    2    0    0 -0.36746886492E+02  0.17310837491E+02  0.17797149647E+01  0.40659145919E+02  0.00000000000E+00 0.  1.
         11    1    3    3    0    0  0.88244776870E+01 -0.63362151615E-01  0.13393177268E+01  0.89257601046E+01  0.51100000000E-03 0. -1.
        -11    1    3    3    0    0  0.22928995437E+02 -0.16827135467E+02  0.78832915213E+01  0.29513346222E+02  0.51100000000E-03 0.  1.
        -12    1    3    3    0    0  0.49934133684E+01 -0.42033987282E+00 -0.11002324213E+02  0.12089747754E+02  0.00000000000E+00 0.  1.
</event>
<event>
 7    1  0.3014423E-011  0.5052885E+02  0.7816164E-02  0.1300439E+00
        -11   -1    0    0    0    0  0.00000000000E+00  0.00000000000E+00  0.45593999997E+02  0.45594000000E+02  0.51100000000E-03 0.  1.
         11   -1    0    0    0    0 -0.00000000000E+00 -0.00000000000E+00 -0.45593999997E+02  0.45594000000E+02  0.51100000000E-03 0. -1.
    9900012    2    1    2    0    0  0.22296914417E+02 -0.17182557287E+02 -0.29338941137E+02  0.50528854233E+02  0.29999982928E+02 0.  0.
        -12    1    1    2    0    0 -0.22296914417E+02  0.17182557287E+02  0.29338941137E+02  0.40659145767E+02  0.00000000000E+00 0.  1.
         11    1    3    3    0    0 -0.39122969473E+01 -0.43059707373E+01 -0.46237820788E+01  0.74314744410E+01  0.51100000000E-03 0. -1.
        -11    1    3    3    0    0  0.17947243364E+01 -0.71826166822E+01 -0.13993439673E+02  0.15831215114E+02  0.51100000000E-03 0.  1.
         12    1    3    3    0    0  0.24414487028E+02 -0.56939698672E+01 -0.10721719385E+02  0.27266164678E+02  0.00000000000E+00 0. -1.
</event>
<event>
 7    1  0.3014423E-011  0.5052897E+02  0.7816164E-02  0.1300438E+00
        -11   -1    0    0    0    0  0.00000000000E+00  0.00000000000E+00  0.45593999997E+02  0.45594000000E+02  0.51100000000E-03 0.  1.
         11   -1    0    0    0    0 -0.00000000000E+00 -0.00000000000E+00 -0.45593999997E+02  0.45594000000E+02  0.51100000000E-03 0. -1.
    9900012    2    1    2    0    0 -0.16148501914E+02 -0.27487495728E+02 -0.25235301704E+02  0.50528966716E+02  0.30000324830E+02 0.  0.
        -12    1    1    2    0    0  0.16148501914E+02  0.27487495728E+02  0.25235301704E+02  0.40659033284E+02  0.00000000000E+00 0.  1.
         11    1    3    3    0    0 -0.16683750147E+01 -0.56862933350E+01 -0.40380601241E+01  0.71710066872E+01  0.51100000000E-03 0. -1.
        -11    1    3    3    0    0  0.81865349860E+01 -0.65582847613E+01 -0.52817850996E+01  0.11744262778E+02  0.51100000000E-03 0.  1.
         12    1    3    3    0    0 -0.22666661885E+02 -0.15242917632E+02 -0.15915456480E+02  0.31613697252E+02  0.00000000000E+00 0. -1.
</event>
<event>
 7    1  0.3014423E-011  0.5052886E+02  0.7816164E-02  0.1300439E+00
        -11   -1    0    0    0    0  0.00000000000E+00  0.00000000000E+00  0.45593999997E+02  0.45594000000E+02  0.51100000000E-03 0.  1.
         11   -1    0    0    0    0 -0.00000000000E+00 -0.00000000000E+00 -0.45593999997E+02  0.45594000000E+02  0.51100000000E-03 0. -1.
    9900012    2    1    2    0    0  0.31229626092E+02 -0.95285770885E+01 -0.24229787183E+02  0.50528856943E+02  0.29999991165E+02 0.  0.
        -12    1    1    2    0    0 -0.31229626092E+02  0.95285770885E+01  0.24229787183E+02  0.40659143057E+02  0.00000000000E+00 0.  1.
         11    1    3    3    0    0  0.20592933884E+02 -0.79938599049E+01 -0.13549699431E+02  0.25914572677E+02  0.51100000000E-03 0. -1.
        -11    1    3    3    0    0  0.68266411632E+01 -0.48651397007E+01 -0.15502604622E+02  0.17623942925E+02  0.51100000000E-03 0.  1.
        -12    1    3    3    0    0  0.38100510454E+01  0.33304225172E+01  0.48225168701E+01  0.69903413417E+01  0.00000000000E+00 0.  1.
</event>
<event>
 7    1  0.3014423E-011  0.5052895E+02  0.7816164E-02  0.1300438E+00
        -11   -1    0    0    0    0  0.00000000000E+00  0.00000000000E+00  0.45593999997E+02  0.45594000000E+02  0.51100000000E-03 0. -1.
         11   -1    0    0    0    0 -0.00000000000E+00 -0.00000000000E+00 -0.45593999997E+02  0.45594000000E+02  0.51100000000E-03 0.  1.
    9900012    2    1    2    0    0 -0.23684593236E+02 -0.93208761361E+01 -0.31706770516E+02  0.50528954447E+02  0.30000287537E+02 0.  0.
        -12    1    1    2    0    0  0.23684593236E+02  0.93208761361E+01  0.31706770516E+02  0.40659045553E+02  0.00000000000E+00 0.  1.
         11    1    3    3    0    0 -0.32136424201E-02  0.38790970535E+00 -0.79356694581E+00  0.88330800155E+00  0.51100000000E-03 0. -1.
        -11    1    3    3    0    0 -0.10273184583E+02  0.32768071094E+01 -0.28930835419E+02  0.30875055054E+02  0.51100000000E-03 0.  1.
         12    1    3    3    0    0 -0.13408195010E+02 -0.12985592951E+02 -0.19823681517E+01  0.18770591392E+02  0.00000000000E+00 0. -1.
</event>
<event>
 7    1  0.3014423E-011  0.5052883E+02  0.7816164E-02  0.1300439E+00
        -11   -1    0    0    0    0  0.00000000000E+00  0.00000000000E+00  0.45593999997E+02  0.45594000000E+02  0.51100000000E-03 0. -1.
         11   -1    0    0    0    0 -0.00000000000E+00 -0.00000000000E+00 -0.45593999997E+02  0.45594000000E+02  0.51100000000E-03 0.  1.
    9900012    2    1    2    0    0  0.35210141577E+02 -0.12530397677E+02  0.16012584440E+02  0.50528833798E+02  0.29999920812E+02 0.  0.
        -12    1    1    2    0    0 -0.35210141577E+02  0.12530397677E+02 -0.16012584440E+02  0.40659166202E+02  0.00000000000E+00 0.  1.
         11    1    3    3    0    0  0.12677157094E+02 -0.24852118443E+01  0.10208759367E+02  0.16465277343E+02  0.51100000000E-03 0. -1.
        -11    1    3    3    0    0  0.18304268417E+01  0.11641894520E+01  0.99283357098E+01  0.10162561180E+02  0.51100000000E-03 0.  1.
         12    1    3    3    0    0  0.20702557642E+02 -0.11209375284E+02 -0.41245106368E+01  0.23900995276E+02  0.00000000000E+00 0. -1.
</event>
<event>
 7    1  0.3014423E-011  0.5052886E+02  0.7816164E-02  0.1300439E+00
        -11   -1    0    0    0    0  0.00000000000E+00  0.00000000000E+00  0.45593999997E+02  0.45594000000E+02  0.51100000000E-03 0.  1.
         11   -1    0    0    0    0 -0.00000000000E+00 -0.00000000000E+00 -0.45593999997E+02  0.45594000000E+02  0.51100000000E-03 0. -1.
    9900012    2    1    2    0    0  0.11581261322E+02  0.35422421097E+02 -0.16257052031E+02  0.50528864853E+02  0.30000015206E+02 0.  0.
        -12    1    1    2    0    0 -0.11581261322E+02 -0.35422421097E+02  0.16257052031E+02  0.40659135147E+02  0.00000000000E+00 0.  1.
         11    1    3    3    0    0  0.11088547840E+01  0.25174199880E+01 -0.50161011085E+00  0.27961715420E+01  0.51100000000E-03 0. -1.
        -11    1    3    3    0    0  0.26336099180E+01  0.36381319261E+02 -0.12451887260E+02  0.38543297588E+02  0.51100000000E-03 0.  1.
        -12    1    3    3    0    0  0.78387966199E+01 -0.34763181521E+01 -0.33035546602E+01  0.91893957220E+01  0.00000000000E+00 0.  1.
</event>
<event>
 7    1  0.3014423E-011  0.5052889E+02  0.7816164E-02  0.1300439E+00
        -11   -1    0    0    0    0  0.00000000000E+00  0.00000000000E+00  0.45593999997E+02  0.45594000000E+02  0.51100000000E-03 0. -1.
         11   -1    0    0    0    0 -0.00000000000E+00 -0.00000000000E+00 -0.45593999997E+02  0.45594000000E+02  0.51100000000E-03 0.  1.
    9900012    2    1    2    0    0 -0.33925617614E+02  0.53607333708E+01  0.21759548292E+02  0.50528893583E+02  0.30000102533E+02 0.  0.
        -12    1    1    2    0    0  0.33925617614E+02 -0.53607333708E+01 -0.21759548292E+02  0.40659106417E+02  0.00000000000E+00 0.  1.
         11    1    3    3    0    0  0.67648932880E+00 -0.65474561097E+00  0.20467572652E+00  0.96344280641E+00  0.51100000000E-03 0.  1.
        -11    1    3    3    0    0 -0.13562875145E+02  0.27323308648E+01 -0.57128114445E+01  0.14968414378E+02  0.51100000000E-03 0. -1.
         12    1    3    3    0    0 -0.21039231798E+02  0.32831481170E+01  0.27267684010E+02  0.34597036398E+02  0.00000000000E+00 0. -1.
</event>
<event>
 7    1  0.3014423E-011  0.5052886E+02  0.7816164E-02  0.1300439E+00
        -11   -1    0    0    0    0  0.00000000000E+00  0.00000000000E+00  0.45593999997E+02  0.45594000000E+02  0.51100000000E-03 0.  1.
         11   -1    0    0    0    0 -0.00000000000E+00 -0.00000000000E+00 -0.45593999997E+02  0.45594000000E+02  0.51100000000E-03 0. -1.
    9900012    2    1    2    0    0 -0.40017065861E+02 -0.70972601148E+01  0.11955436547E+01  0.50528856060E+02  0.29999988481E+02 0.  0.
        -12    1    1    2    0    0  0.40017065861E+02  0.70972601148E+01 -0.11955436547E+01  0.40659143940E+02  0.00000000000E+00 0.  1.
         11    1    3    3    0    0 -0.27673790100E+01 -0.93566033710E+01 -0.24020980270E+01  0.10048606292E+02  0.51100000000E-03 0. -1.
        -11    1    3    3    0    0 -0.11898674546E+02  0.15361519958E+01 -0.59367618457E+01  0.13385938905E+02  0.51100000000E-03 0.  1.
        -12    1    3    3    0    0 -0.25351012305E+02  0.72319126038E+00  0.95344035274E+01  0.27094310862E+02  0.00000000000E+00 0.  1.
</event>
<event>
 7    1  0.3014423E-011  0.5052886E+02  0.7816164E-02  0.1300439E+00
        -11   -1    0    0    0    0  0.00000000000E+00  0.00000000000E+00  0.45593999997E+02  0.45594000000E+02  0.51100000000E-03 0.  1.
         11   -1    0    0    0    0 -0.00000000000E+00 -0.00000000000E+00 -0.45593999997E+02  0.45594000000E+02  0.51100000000E-03 0. -1.
    9900012    2    1    2    0    0 -0.23309755926E+02  0.20398256494E+02 -0.26338795711E+02  0.50528858976E+02  0.29999997343E+02 0.  0.
        -12    1    1    2    0    0  0.23309755926E+02 -0.20398256494E+02  0.26338795711E+02  0.40659141024E+02  0.00000000000E+00 0.  1.
         11    1    3    3    0    0 -0.87120586024E+01 -0.94943519736E+00 -0.92457482109E+01  0.12739122910E+02  0.51100000000E-03 0. -1.
        -11    1    3    3    0    0 -0.43282689402E+01 -0.41630007979E+01 -0.15545160439E+01  0.62033062196E+01  0.51100000000E-03 0.  1.
         12    1    3    3    0    0 -0.10269428383E+02  0.25510692490E+02 -0.15538531456E+02  0.31586429846E+02  0.00000000000E+00 0. -1.
</event>
<event>
 7    1  0.3014423E-011  0.5052887E+02  0.7816164E-02  0.1300439E+00
        -11   -1    0    0    0    0  0.00000000000E+00  0.00000000000E+00  0.45593999997E+02  0.45594000000E+02  0.51100000000E-03 0.  1.
         11   -1    0    0    0    0 -0.00000000000E+00 -0.00000000000E+00 -0.45593999997E+02  0.45594000000E+02  0.51100000000E-03 0. -1.
    9900012    2    1    2    0    0 -0.27312305851E+02 -0.18247415475E+02 -0.23963185319E+02  0.50528874665E+02  0.30000045032E+02 0.  0.
        -12    1    1    2    0    0  0.27312305851E+02  0.18247415475E+02  0.23963185319E+02  0.40659125335E+02  0.00000000000E+00 0.  1.
         11    1    3    3    0    0 -0.45588688762E+01 -0.17107927524E+02 -0.10575566146E+02  0.20622974304E+02  0.51100000000E-03 0. -1.
        -11    1    3    3    0    0 -0.77387153856E+00 -0.39370212310E+01  0.11901447400E-01  0.40123752613E+01  0.51100000000E-03 0.  1.
         12    1    3    3    0    0 -0.21979565436E+02  0.27975332804E+01 -0.13399520621E+02  0.25893525099E+02  0.00000000000E+00 0. -1.
</event>
<event>
 7    1  0.3014423E-011  0.5052885E+02  0.7816164E-02  0.1300439E+00
        -11   -1    0    0    0    0  0.00000000000E+00  0.00000000000E+00  0.45593999997E+02  0.45594000000E+02  0.51100000000E-03 0.  1.
         11   -1    0    0    0    0 -0.00000000000E+00 -0.00000000000E+00 -0.45593999997E+02  0.45594000000E+02  0.51100000000E-03 0. -1.
    9900012    2    1    2    0    0  0.16415077568E+02 -0.16226376463E+02 -0.33472615998E+02  0.50528854824E+02  0.29999984725E+02 0.  0.
        -12    1    1    2    0    0 -0.16415077568E+02  0.16226376463E+02  0.33472615998E+02  0.40659145176E+02  0.00000000000E+00 0.  1.
         11    1    3    3    0    0  0.92471621463E+01  0.16301623846E+01 -0.11395174040E+02  0.14765413263E+02  0.51100000000E-03 0. -1.
        -11    1    3    3    0    0 -0.11711877585E+01  0.40066864498E+01 -0.10508330827E+01  0.43045867980E+01  0.51100000000E-03 0.  1.
        -12    1    3    3    0    0  0.83391031797E+01 -0.21863225298E+02 -0.21026608875E+02  0.31458854764E+02  0.00000000000E+00 0.  1.
</event>
<event>
 7    1  0.3014423E-011  0.5052887E+02  0.7816164E-02  0.1300439E+00
        -11   -1    0    0    0    0  0.00000000000E+00  0.00000000000E+00  0.45593999997E+02  0.45594000000E+02  0.51100000000E-03 0.  1.
         11   -1    0    0    0    0 -0.00000000000E+00 -0.00000000000E+00 -0.45593999997E+02  0.45594000000E+02  0.51100000000E-03 0. -1.
    9900012    2    1    2    0    0 -0.12041411110E+02 -0.13278027096E+02 -0.36494703411E+02  0.50528868650E+02  0.30000026750E+02 0.  0.
        -12    1    1    2    0    0  0.12041411110E+02  0.13278027096E+02  0.36494703411E+02  0.40659131350E+02  0.00000000000E+00 0.  1.
         11    1    3    3    0    0  0.17839204995E+01 -0.19309667589E+01 -0.19918451959E+02  0.20091185473E+02  0.51100000000E-03 0. -1.
        -11    1    3    3    0    0  0.28724355752E+01 -0.58204324544E+01 -0.33799313111E+00  0.64994276446E+01  0.51100000000E-03 0.  1.
         12    1    3    3    0    0 -0.16697767185E+02 -0.55266278830E+01 -0.16238258320E+02  0.23938255533E+02  0.00000000000E+00 0. -1.
</event>
<event>
 7    1  0.3014423E-011  0.5052885E+02  0.7816164E-02  0.1300439E+00
        -11   -1    0    0    0    0  0.00000000000E+00  0.00000000000E+00  0.45593999997E+02  0.45594000000E+02  0.51100000000E-03 0.  1.
         11   -1    0    0    0    0 -0.00000000000E+00 -0.00000000000E+00 -0.45593999997E+02  0.45594000000E+02  0.51100000000E-03 0. -1.
    9900012    2    1    2    0    0 -0.10916110940E+02 -0.29731233433E+02 -0.25496251668E+02  0.50528848895E+02  0.29999966701E+02 0.  0.
        -12    1    1    2    0    0  0.10916110940E+02  0.29731233433E+02  0.25496251668E+02  0.40659151105E+02  0.00000000000E+00 0.  1.
         11    1    3    3    0    0  0.10236522780E+00  0.27632278437E+01 -0.25218063352E+01  0.37423808210E+01  0.51100000000E-03 0.  1.
        -11    1    3    3    0    0 -0.11804985218E+02 -0.22511361808E+02 -0.45591492486E+01  0.25824502485E+02  0.51100000000E-03 0. -1.
         12    1    3    3    0    0  0.78650905080E+00 -0.99830994685E+01 -0.18415296084E+02  0.20961965589E+02  0.00000000000E+00 0. -1.
</event>
<event>
 7    1  0.3014423E-011  0.5052885E+02  0.7816164E-02  0.1300439E+00
        -11   -1    0    0    0    0  0.00000000000E+00  0.00000000000E+00  0.45593999997E+02  0.45594000000E+02  0.51100000000E-03 0.  1.
         11   -1    0    0    0    0 -0.00000000000E+00 -0.00000000000E+00 -0.45593999997E+02  0.45594000000E+02  0.51100000000E-03 0. -1.
    9900012    2    1    2    0    0  0.82502843146E+01  0.99564317286E+01 -0.38548262302E+02  0.50528852806E+02  0.29999978588E+02 0.  0.
        -12    1    1    2    0    0 -0.82502843146E+01 -0.99564317286E+01  0.38548262302E+02  0.40659147194E+02  0.00000000000E+00 0.  1.
         11    1    3    3    0    0 -0.78809242291E+00 -0.49135460211E+01 -0.37714438687E+01  0.62440222040E+01  0.51100000000E-03 0. -1.
        -11    1    3    3    0    0 -0.63924512713E+01  0.84875099126E+00 -0.65386715710E+01  0.91835743410E+01  0.51100000000E-03 0.  1.
         12    1    3    3    0    0  0.15430828009E+02  0.14021226758E+02 -0.28238146863E+02  0.35101256261E+02  0.00000000000E+00 0. -1.
</event>
<event>
 7    1  0.3014423E-011  0.5052886E+02  0.7816164E-02  0.1300439E+00
        -11   -1    0    0    0    0  0.00000000000E+00  0.00000000000E+00  0.45593999997E+02  0.45594000000E+02  0.51100000000E-03 0.  1.
         11   -1    0    0    0    0 -0.00000000000E+00 -0.00000000000E+00 -0.45593999997E+02  0.45594000000E+02  0.51100000000E-03 0. -1.
    9900012    2    1    2    0    0 -0.21282501854E+02 -0.12167652432E+02 -0.32437160279E+02  0.50528855668E+02  0.29999987287E+02 0.  0.
        -12    1    1    2    0    0  0.21282501854E+02  0.12167652432E+02  0.32437160279E+02  0.40659144332E+02  0.00000000000E+00 0.  1.
         11    1    3    3    0    0 -0.21880244543E+02 -0.35680341313E+01 -0.19684974491E+02  0.29647498879E+02  0.51100000000E-03 0. -1.
        -11    1    3    3    0    0 -0.93943752387E+00 -0.11036145804E+02 -0.41809063600E+01  0.11838878128E+02  0.51100000000E-03 0.  1.
        -12    1    3    3    0    0  0.15371802137E+01  0.24365275034E+01 -0.85712794286E+01  0.90424786606E+01  0.00000000000E+00 0.  1.
</event>
<event>
 7    1  0.3014423E-011  0.5052886E+02  0.7816164E-02  0.1300439E+00
        -11   -1    0    0    0    0  0.00000000000E+00  0.00000000000E+00  0.45593999997E+02  0.45594000000E+02  0.51100000000E-03 0.  1.
         11   -1    0    0    0    0 -0.00000000000E+00 -0.00000000000E+00 -0.45593999997E+02  0.45594000000E+02  0.51100000000E-03 0. -1.
    9900012    2    1    2    0    0 -0.28969203419E+02 -0.21383656988E+02 -0.18886233429E+02  0.50528863929E+02  0.30000012398E+02 0.  0.
        -12    1    1    2    0    0  0.28969203419E+02  0.21383656988E+02  0.18886233429E+02  0.40659136071E+02  0.00000000000E+00 0.  1.
         11    1    3    3    0    0 -0.11370298688E+02 -0.91969428326E+01 -0.15081678251E+02  0.21007724028E+02  0.51100000000E-03 0. -1.
        -11    1    3    3    0    0 -0.97282768743E+01  0.80818209639E+00 -0.91853494593E+01  0.13403849230E+02  0.51100000000E-03 0.  1.
         12    1    3    3    0    0 -0.78706278574E+01 -0.12994896251E+02  0.53807942810E+01  0.16117290670E+02  0.00000000000E+00 0. -1.
</event>
<event>
 7    1  0.3014423E-011  0.5052886E+02  0.7816164E-02  0.1300439E+00
        -11   -1    0    0    0    0  0.00000000000E+00  0.00000000000E+00  0.45593999997E+02  0.45594000000E+02  0.51100000000E-03 0.  1.
         11   -1    0    0    0    0 -0.00000000000E+00 -0.00000000000E+00 -0.45593999997E+02  0.45594000000E+02  0.51100000000E-03 0. -1.
    9900012    2    1    2    0    0 -0.40336580000E+01 -0.22659163713E+02 -0.33518020410E+02  0.50528858479E+02  0.29999995832E+02 0.  0.
        -12    1    1    2    0    0  0.40336580000E+01  0.22659163713E+02  0.33518020410E+02  0.40659141521E+02  0.00000000000E+00 0.  1.
         11    1    3    3    0    0  0.55531086954E+01  0.97446435689E+00 -0.18430662634E+01  0.59315672868E+01  0.51100000000E-03 0. -1.
        -11    1    3    3    0    0 -0.26229273745E+01  0.28229523780E+01 -0.24542200730E+01  0.45685889034E+01  0.51100000000E-03 0.  1.
         12    1    3    3    0    0 -0.69638393209E+01 -0.26456580448E+02 -0.29220734074E+02  0.40028702288E+02  0.00000000000E+00 0. -1.
</event>
<event>
 7    1  0.3014423E-011  0.5052891E+02  0.7816164E-02  0.1300439E+00
        -11   -1    0    0    0    0  0.00000000000E+00  0.00000000000E+00  0.45593999997E+02  0.45594000000E+02  0.51100000000E-03 0.  1.
         11   -1    0    0    0    0 -0.00000000000E+00 -0.00000000000E+00 -0.45593999997E+02  0.45594000000E+02  0.51100000000E-03 0. -1.
    9900012    2    1    2    0    0  0.39902150448E+02  0.40795303807E-01  0.78088382126E+01  0.50528914560E+02  0.30000166296E+02 0.  0.
        -12    1    1    2    0    0 -0.39902150448E+02 -0.40795303807E-01 -0.78088382126E+01  0.40659085440E+02  0.00000000000E+00 0.  1.
         11    1    3    3    0    0  0.17693749938E+02  0.17313859066E+01 -0.37419786224E+01  0.18167798114E+02  0.51100000000E-03 0. -1.
        -11    1    3    3    0    0  0.26435254684E+01 -0.73363025840E+01  0.88890046257E+01  0.11824718432E+02  0.51100000000E-03 0.  1.
         12    1    3    3    0    0  0.19564875041E+02  0.56457119812E+01  0.26618122093E+01  0.20536398014E+02  0.00000000000E+00 0. -1.
</event>
<event>
 7    1  0.3014423E-011  0.5052881E+02  0.7816164E-02  0.1300439E+00
        -11   -1    0    0    0    0  0.00000000000E+00  0.00000000000E+00  0.45593999997E+02  0.45594000000E+02  0.51100000000E-03 0. -1.
         11   -1    0    0    0    0 -0.00000000000E+00 -0.00000000000E+00 -0.45593999997E+02  0.45594000000E+02  0.51100000000E-03 0.  1.
    9900012    2    1    2    0    0  0.39611400304E+02  0.65298425985E+01  0.64395352036E+01  0.50528812944E+02  0.29999857426E+02 0.  0.
        -12    1    1    2    0    0 -0.39611400304E+02 -0.65298425985E+01 -0.64395352036E+01  0.40659187056E+02  0.00000000000E+00 0.  1.
         11    1    3    3    0    0  0.24064001796E+02 -0.28588366568E+01  0.33990308355E+00  0.24235607355E+02  0.51100000000E-03 0.  1.
        -11    1    3    3    0    0  0.11928917724E+02 -0.32589731763E+01  0.38151381422E+01  0.12941223417E+02  0.51100000000E-03 0. -1.
        -12    1    3    3    0    0  0.36184807840E+01  0.12647652432E+02  0.22844939779E+01  0.13351982173E+02  0.00000000000E+00 0.  1.
</event>
<event>
 7    1  0.3014423E-011  0.5052884E+02  0.7816164E-02  0.1300439E+00
        -11   -1    0    0    0    0  0.00000000000E+00  0.00000000000E+00  0.45593999997E+02  0.45594000000E+02  0.51100000000E-03 0.  1.
         11   -1    0    0    0    0 -0.00000000000E+00 -0.00000000000E+00 -0.45593999997E+02  0.45594000000E+02  0.51100000000E-03 0. -1.
    9900012    2    1    2    0    0  0.11051803497E+02  0.47069940091E+01 -0.38844159926E+02  0.50528844654E+02  0.29999953810E+02 0.  0.
        -12    1    1    2    0    0 -0.11051803497E+02 -0.47069940091E+01  0.38844159926E+02  0.40659155346E+02  0.00000000000E+00 0.  1.
         11    1    3    3    0    0  0.94641086083E+01 -0.70948029954E+00 -0.18074525894E+02  0.20414729991E+02  0.51100000000E-03 0. -1.
        -11    1    3    3    0    0 -0.16567537376E+01  0.13481486627E+01  0.41444073442E+01  0.46624511000E+01  0.51100000000E-03 0.  1.
         12    1    3    3    0    0  0.32444486257E+01  0.40683256459E+01 -0.24914041376E+02  0.25451663563E+02  0.00000000000E+00 0. -1.
</event>
<event>
 7    1  0.3014423E-011  0.5052886E+02  0.7816164E-02  0.1300439E+00
        -11   -1    0    0    0    0  0.00000000000E+00  0.00000000000E+00  0.45593999997E+02  0.45594000000E+02  0.51100000000E-03 0.  1.
         11   -1    0    0    0    0 -0.00000000000E+00 -0.00000000000E+00 -0.45593999997E+02  0.45594000000E+02  0.51100000000E-03 0. -1.
    9900012    2    1    2    0    0 -0.30356441975E+00 -0.38027337814E+01 -0.40479777159E+02  0.50528864564E+02  0.30000014328E+02 0.  0.
        -12    1    1    2    0    0  0.30356441975E+00  0.38027337814E+01  0.40479777159E+02  0.40659135436E+02  0.00000000000E+00 0.  1.
         11    1    3    3    0    0  0.63004410000E+00  0.25996740366E+01 -0.47768469728E+01  0.54748084832E+01  0.51100000000E-03 0. -1.
        -11    1    3    3    0    0  0.80342646247E+01  0.89296701336E+00 -0.31863085911E+02  0.32872527165E+02  0.51100000000E-03 0.  1.
        -12    1    3    3    0    0 -0.89678731445E+01 -0.72953748314E+01 -0.38398442750E+01  0.12181528916E+02  0.00000000000E+00 0.  1.
</event>
<event>
 7    1  0.3014423E-011  0.5052886E+02  0.7816164E-02  0.1300439E+00
        -11   -1    0    0    0    0  0.00000000000E+00  0.00000000000E+00  0.45593999997E+02  0.45594000000E+02  0.51100000000E-03 0. -1.
         11   -1    0    0    0    0 -0.00000000000E+00 -0.00000000000E+00 -0.45593999997E+02  0.45594000000E+02  0.51100000000E-03 0.  1.
    9900012    2    1    2    0    0  0.33343428174E+02  0.22547038650E+02 -0.57456478653E+01  0.50528860514E+02  0.30000002019E+02 0.  0.
        -12    1    1    2    0    0 -0.33343428174E+02 -0.22547038650E+02  0.57456478653E+01  0.40659139486E+02  0.00000000000E+00 0.  1.
         11    1    3    3    0    0  0.17018465004E+02  0.20321434339E+02 -0.19705149971E+01  0.26579536759E+02  0.51100000000E-03 0. -1.
        -11    1    3    3    0    0  0.49762381970E+01  0.79253252993E+01 -0.59149387869E+01  0.11070692336E+02  0.51100000000E-03 0.  1.
        -12    1    3    3    0    0  0.11348724973E+02 -0.56997209881E+01  0.21398059186E+01  0.12878631419E+02  0.00000000000E+00 0.  1.
</event>
<event>
 7    1  0.3014423E-011  0.5052886E+02  0.7816164E-02  0.1300439E+00
        -11   -1    0    0    0    0  0.00000000000E+00  0.00000000000E+00  0.45593999997E+02  0.45594000000E+02  0.51100000000E-03 0.  1.
         11   -1    0    0    0    0 -0.00000000000E+00 -0.00000000000E+00 -0.45593999997E+02  0.45594000000E+02  0.51100000000E-03 0. -1.
    9900012    2    1    2    0    0 -0.10187570167E+02  0.64747720586E+01 -0.38825977494E+02  0.50528858500E+02  0.29999995897E+02 0.  0.
        -12    1    1    2    0    0  0.10187570167E+02 -0.64747720586E+01  0.38825977494E+02  0.40659141500E+02  0.00000000000E+00 0.  1.
         11    1    3    3    0    0 -0.30824486412E+01  0.13282276348E+01  0.73111381087E-01  0.33572345480E+01  0.51100000000E-03 0. -1.
        -11    1    3    3    0    0 -0.82563138660E+01 -0.44934471890E+01 -0.28268396141E+01  0.98157429041E+01  0.51100000000E-03 0.  1.
         12    1    3    3    0    0  0.11511923407E+01  0.96399916128E+01 -0.36072249261E+02  0.37355881048E+02  0.00000000000E+00 0. -1.
</event>
<event>
 7    1  0.3014423E-011  0.5052884E+02  0.7816164E-02  0.1300439E+00
        -11   -1    0    0    0    0  0.00000000000E+00  0.00000000000E+00  0.45593999997E+02  0.45594000000E+02  0.51100000000E-03 0.  1.
         11   -1    0    0    0    0 -0.00000000000E+00 -0.00000000000E+00 -0.45593999997E+02  0.45594000000E+02  0.51100000000E-03 0. -1.
    9900012    2    1    2    0    0  0.38019416022E+02 -0.10529888438E+02 -0.98393300772E+01  0.50528844063E+02  0.29999952013E+02 0.  0.
        -12    1    1    2    0    0 -0.38019416022E+02  0.10529888438E+02  0.98393300772E+01  0.40659155937E+02  0.00000000000E+00 0.  1.
         11    1    3    3    0    0  0.88533630475E+01 -0.40532663213E+01 -0.13709388119E+02  0.16815419352E+02  0.51100000000E-03 0. -1.
        -11    1    3    3    0    0  0.92262145564E+01 -0.78174674257E+01  0.62063702150E+01  0.13592456125E+02  0.51100000000E-03 0.  1.
         12    1    3    3    0    0  0.19939838418E+02  0.13408453091E+01 -0.23363121735E+01  0.20120968586E+02  0.00000000000E+00 0. -1.
</event>
<event>
 7    1  0.3014423E-011  0.5052887E+02  0.7816164E-02  0.1300439E+00
        -11   -1    0    0    0    0  0.00000000000E+00  0.00000000000E+00  0.45593999997E+02  0.45594000000E+02  0.51100000000E-03 0.  1.
         11   -1    0    0    0    0 -0.00000000000E+00 -0.00000000000E+00 -0.45593999997E+02  0.45594000000E+02  0.51100000000E-03 0. -1.
    9900012    2    1    2    0    0 -0.21299528976E+02  0.24780341320E+02 -0.24195651762E+02  0.50528870462E+02  0.30000032257E+02 0.  0.
        -12    1    1    2    0    0  0.21299528976E+02 -0.24780341320E+02  0.24195651762E+02  0.40659129538E+02  0.00000000000E+00 0.  1.
         11    1    3    3    0    0  0.49423023622E+00  0.19055267566E+01 -0.31458260629E+01  0.37109995454E+01  0.51100000000E-03 0. -1.
        -11    1    3    3    0    0 -0.63260944582E+01 -0.51331151528E+01 -0.10154316146E+02  0.13018390028E+02  0.51100000000E-03 0.  1.
         12    1    3    3    0    0 -0.15467664754E+02  0.28007929716E+02 -0.10895509554E+02  0.33799480889E+02  0.00000000000E+00 0. -1.
</event>
<event>
 7    1  0.3014423E-011  0.5052887E+02  0.7816164E-02  0.1300439E+00
        -11   -1    0    0    0    0  0.00000000000E+00  0.00000000000E+00  0.45593999997E+02  0.45594000000E+02  0.51100000000E-03 0. -1.
         11   -1    0    0    0    0 -0.00000000000E+00 -0.00000000000E+00 -0.45593999997E+02  0.45594000000E+02  0.51100000000E-03 0.  1.
    9900012    2    1    2    0    0  0.26974299875E+02  0.22330749087E+02 -0.20661306956E+02  0.50528870476E+02  0.30000032297E+02 0.  0.
        -12    1    1    2    0    0 -0.26974299875E+02 -0.22330749087E+02  0.20661306956E+02  0.40659129524E+02  0.00000000000E+00 0.  1.
         11    1    3    3    0    0  0.12075270662E+02  0.19982211279E+02 -0.14473865211E+02  0.27469869012E+02  0.51100000000E-03 0. -1.
        -11    1    3    3    0    0  0.56387969257E+01  0.69921990691E+01 -0.85855619942E+01  0.12425729500E+02  0.51100000000E-03 0.  1.
         12    1    3    3    0    0  0.92602322877E+01 -0.46436612605E+01  0.23981202486E+01  0.10633271964E+02  0.00000000000E+00 0. -1.
</event>
<event>
 7    1  0.3014423E-011  0.5052886E+02  0.7816164E-02  0.1300439E+00
        -11   -1    0    0    0    0  0.00000000000E+00  0.00000000000E+00  0.45593999997E+02  0.45594000000E+02  0.51100000000E-03 0.  1.
         11   -1    0    0    0    0 -0.00000000000E+00 -0.00000000000E+00 -0.45593999997E+02  0.45594000000E+02  0.51100000000E-03 0. -1.
    9900012    2    1    2    0    0 -0.36212900190E+01  0.40185100931E+02 -0.50209138533E+01  0.50528860140E+02  0.30000000880E+02 0.  0.
        -12    1    1    2    0    0  0.36212900190E+01 -0.40185100931E+02  0.50209138533E+01  0.40659139860E+02  0.00000000000E+00 0.  1.
         11    1    3    3    0    0 -0.92998838430E+01  0.11719042501E+02 -0.52213824824E+01  0.15845713361E+02  0.51100000000E-03 0. -1.
        -11    1    3    3    0    0 -0.36416260700E+01  0.15879255065E+02  0.68437656181E+01  0.17670577522E+02  0.51100000000E-03 0.  1.
         12    1    3    3    0    0  0.93202198940E+01  0.12586803366E+02 -0.66432969890E+01  0.17012569257E+02  0.00000000000E+00 0. -1.
</event>
<event>
 7    1  0.3799798E-011  0.5052886E+02  0.7816164E-02  0.1300439E+00
        -11   -1    0    0    0    0  0.00000000000E+00  0.00000000000E+00  0.45593999997E+02  0.45594000000E+02  0.51100000000E-03 0.  1.
         11   -1    0    0    0    0 -0.00000000000E+00 -0.00000000000E+00 -0.45593999997E+02  0.45594000000E+02  0.51100000000E-03 0. -1.
    9900012    2    1    2    0    0  0.90700497163E+01  0.23931200185E+02 -0.31594269909E+02  0.50528855453E+02  0.29999986636E+02 0.  0.
        -12    1    1    2    0    0 -0.90700497163E+01 -0.23931200185E+02  0.31594269909E+02  0.40659144547E+02  0.00000000000E+00 0.  1.
         11    1    3    3    0    0 -0.79364688932E+01  0.17931425440E+01 -0.52051221720E+01  0.96589955877E+01  0.51100000000E-03 0. -1.
        -11    1    3    3    0    0  0.22533410836E+01  0.49931377179E+00  0.13879455106E+01  0.26931864554E+01  0.51100000000E-03 0.  1.
         12    1    3    3    0    0  0.14753177526E+02  0.21638743869E+02 -0.27777093248E+02  0.38176673410E+02  0.00000000000E+00 0. -1.
</event>
<event>
 7    1  0.3014423E-011  0.5052892E+02  0.7816164E-02  0.1300439E+00
        -11   -1    0    0    0    0  0.00000000000E+00  0.00000000000E+00  0.45593999997E+02  0.45594000000E+02  0.51100000000E-03 0.  1.
         11   -1    0    0    0    0 -0.00000000000E+00 -0.00000000000E+00 -0.45593999997E+02  0.45594000000E+02  0.51100000000E-03 0. -1.
    9900012    2    1    2    0    0  0.16534727476E+02 -0.26232236891E+02 -0.26298917409E+02  0.50528923253E+02  0.30000192721E+02 0.  0.
        -12    1    1    2    0    0 -0.16534727476E+02  0.26232236891E+02  0.26298917409E+02  0.40659076747E+02  0.00000000000E+00 0.  1.
         11    1    3    3    0    0  0.82427859198E+01 -0.14208274128E+02 -0.17050600017E+02  0.23675758375E+02  0.51100000000E-03 0. -1.
        -11    1    3    3    0    0  0.10557074122E+02 -0.14104908117E+02 -0.54972528892E+00  0.17626753676E+02  0.51100000000E-03 0.  1.
        -12    1    3    3    0    0 -0.22651325660E+01  0.20809453540E+01 -0.86985921027E+01  0.92264112025E+01  0.00000000000E+00 0.  1.
</event>
<event>
 7    1  0.3014423E-011  0.5052885E+02  0.7816164E-02  0.1300439E+00
        -11   -1    0    0    0    0  0.00000000000E+00  0.00000000000E+00  0.45593999997E+02  0.45594000000E+02  0.51100000000E-03 0.  1.
         11   -1    0    0    0    0 -0.00000000000E+00 -0.00000000000E+00 -0.45593999997E+02  0.45594000000E+02  0.51100000000E-03 0. -1.
    9900012    2    1    2    0    0 -0.25985829617E+02 -0.30658271808E+02  0.61622969423E+01  0.50528845130E+02  0.29999955256E+02 0.  0.
        -12    1    1    2    0    0  0.25985829617E+02  0.30658271808E+02 -0.61622969423E+01  0.40659154870E+02  0.00000000000E+00 0.  1.
         11    1    3    3    0    0 -0.17875183729E+02 -0.96100514692E+01  0.84353476500E+01  0.21977951971E+02  0.51100000000E-03 0. -1.
        -11    1    3    3    0    0 -0.90015526199E+01 -0.18253777579E+02  0.47851352931E+01  0.20907555225E+02  0.51100000000E-03 0.  1.
        -12    1    3    3    0    0  0.89090673211E+00 -0.27944427604E+01 -0.70581860008E+01  0.76433379337E+01  0.00000000000E+00 0.  1.
</event>
<event>
 7    1  0.3014423E-011  0.5052885E+02  0.7816164E-02  0.1300439E+00
        -11   -1    0    0    0    0  0.00000000000E+00  0.00000000000E+00  0.45593999997E+02  0.45594000000E+02  0.51100000000E-03 0.  1.
         11   -1    0    0    0    0 -0.00000000000E+00 -0.00000000000E+00 -0.45593999997E+02  0.45594000000E+02  0.51100000000E-03 0. -1.
    9900012    2    1    2    0    0  0.86475291163E+01  0.87269992429E+01 -0.38758561480E+02  0.50528851415E+02  0.29999974362E+02 0.  0.
        -12    1    1    2    0    0 -0.86475291163E+01 -0.87269992429E+01  0.38758561480E+02  0.40659148585E+02  0.00000000000E+00 0.  1.
         11    1    3    3    0    0  0.39060710372E+01  0.49745456665E+01 -0.38642646587E+02  0.39156833772E+02  0.51100000000E-03 0. -1.
        -11    1    3    3    0    0 -0.30264240720E+00  0.71255658685E+00 -0.41577206679E+01  0.42291808580E+01  0.51100000000E-03 0.  1.
        -12    1    3    3    0    0  0.50441004863E+01  0.30398969896E+01  0.40418057747E+01  0.71428367855E+01  0.00000000000E+00 0.  1.
</event>
<event>
 7    1  0.3678329E-011  0.5052887E+02  0.7816164E-02  0.1300439E+00
        -11   -1    0    0    0    0  0.00000000000E+00  0.00000000000E+00  0.45593999997E+02  0.45594000000E+02  0.51100000000E-03 0. -1.
         11   -1    0    0    0    0 -0.00000000000E+00 -0.00000000000E+00 -0.45593999997E+02  0.45594000000E+02  0.51100000000E-03 0.  1.
    9900012    2    1    2    0    0  0.12757056686E+02 -0.14988534624E+02  0.35577603055E+02  0.50528874276E+02  0.30000043849E+02 0.  0.
        -12    1    1    2    0    0 -0.12757056686E+02  0.14988534624E+02 -0.35577603055E+02  0.40659125724E+02  0.00000000000E+00 0.  1.
         11    1    3    3    0    0 -0.14868493552E+01 -0.81553372085E+01  0.22468249926E+02  0.23948747379E+02  0.51100000000E-03 0. -1.
        -11    1    3    3    0    0 -0.28486103974E+01 -0.16315813127E+01 -0.13954710254E+01  0.35670686032E+01  0.51100000000E-03 0.  1.
         12    1    3    3    0    0  0.17092516439E+02 -0.52016161031E+01  0.14504824154E+02  0.23013058294E+02  0.00000000000E+00 0. -1.
</event>
<event>
 7    1  0.3014423E-011  0.5052885E+02  0.7816164E-02  0.1300439E+00
        -11   -1    0    0    0    0  0.00000000000E+00  0.00000000000E+00  0.45593999997E+02  0.45594000000E+02  0.51100000000E-03 0. -1.
         11   -1    0    0    0    0 -0.00000000000E+00 -0.00000000000E+00 -0.45593999997E+02  0.45594000000E+02  0.51100000000E-03 0.  1.
    9900012    2    1    2    0    0 -0.18830380676E+02 -0.19368648635E+02  0.30388128610E+02  0.50528854082E+02  0.29999982468E+02 0.  0.
        -12    1    1    2    0    0  0.18830380676E+02  0.19368648635E+02 -0.30388128610E+02  0.40659145918E+02  0.00000000000E+00 0.  1.
         11    1    3    3    0    0 -0.28865148811E+01  0.23372444058E+01  0.10316786131E+02  0.10964978609E+02  0.51100000000E-03 0. -1.
        -11    1    3    3    0    0 -0.70849857194E+01 -0.92278277217E+01  0.21238753509E+02  0.24216409271E+02  0.51100000000E-03 0.  1.
        -12    1    3    3    0    0 -0.88588800756E+01 -0.12478065319E+02 -0.11674110296E+01  0.15347466202E+02  0.00000000000E+00 0.  1.
</event>
<event>
 7    1  0.3014423E-011  0.5052886E+02  0.7816164E-02  0.1300439E+00
        -11   -1    0    0    0    0  0.00000000000E+00  0.00000000000E+00  0.45593999997E+02  0.45594000000E+02  0.51100000000E-03 0. -1.
         11   -1    0    0    0    0 -0.00000000000E+00 -0.00000000000E+00 -0.45593999997E+02  0.45594000000E+02  0.51100000000E-03 0.  1.
    9900012    2    1    2    0    0 -0.39157757539E+02  0.51892553065E+01  0.96388550648E+01  0.50528857448E+02  0.29999992699E+02 0.  0.
        -12    1    1    2    0    0  0.39157757539E+02 -0.51892553065E+01 -0.96388550648E+01  0.40659142552E+02  0.00000000000E+00 0.  1.
         11    1    3    3    0    0 -0.53367109193E+01 -0.76972220937E+01  0.51556516520E+01  0.10691513252E+02  0.51100000000E-03 0. -1.
        -11    1    3    3    0    0 -0.67242532046E+01 -0.33310557135E+01 -0.16120665914E+01  0.76753027486E+01  0.51100000000E-03 0.  1.
         12    1    3    3    0    0 -0.27096793415E+02  0.16217533114E+02  0.60952700043E+01  0.32162041448E+02  0.00000000000E+00 0. -1.
</event>
<event>
 7    1  0.3014423E-011  0.5052886E+02  0.7816164E-02  0.1300439E+00
        -11   -1    0    0    0    0  0.00000000000E+00  0.00000000000E+00  0.45593999997E+02  0.45594000000E+02  0.51100000000E-03 0.  1.
         11   -1    0    0    0    0 -0.00000000000E+00 -0.00000000000E+00 -0.45593999997E+02  0.45594000000E+02  0.51100000000E-03 0. -1.
    9900012    2    1    2    0    0  0.12337126357E+02 -0.38735669668E+02 -0.71320864145E+00  0.50528862553E+02  0.30000008215E+02 0.  0.
        -12    1    1    2    0    0 -0.12337126357E+02  0.38735669668E+02  0.71320864145E+00  0.40659137447E+02  0.00000000000E+00 0.  1.
         11    1    3    3    0    0  0.14334362809E+02 -0.18283721300E+02 -0.60965737488E+01  0.24019505270E+02  0.51100000000E-03 0. -1.
        -11    1    3    3    0    0  0.66724857699E+01 -0.58979713872E+01  0.30259883785E+01  0.94055695607E+01  0.51100000000E-03 0.  1.
         12    1    3    3    0    0 -0.86697222216E+01 -0.14553976982E+02  0.23573767288E+01  0.17103787722E+02  0.00000000000E+00 0. -1.
</event>
<event>
 7    1  0.3014423E-011  0.5052886E+02  0.7816164E-02  0.1300439E+00
        -11   -1    0    0    0    0  0.00000000000E+00  0.00000000000E+00  0.45593999997E+02  0.45594000000E+02  0.51100000000E-03 0.  1.
         11   -1    0    0    0    0 -0.00000000000E+00 -0.00000000000E+00 -0.45593999997E+02  0.45594000000E+02  0.51100000000E-03 0. -1.
    9900012    2    1    2    0    0 -0.11430891428E+02 -0.33472343497E+02 -0.20052505147E+02  0.50528855632E+02  0.29999987180E+02 0.  0.
        -12    1    1    2    0    0  0.11430891428E+02  0.33472343497E+02  0.20052505147E+02  0.40659144368E+02  0.00000000000E+00 0.  1.
         11    1    3    3    0    0 -0.44727817249E+01 -0.24079471553E+02 -0.11561223567E+02  0.27082994983E+02  0.51100000000E-03 0. -1.
        -11    1    3    3    0    0  0.33239588454E+01 -0.10749823014E+02 -0.27163864647E+01  0.11575238785E+02  0.51100000000E-03 0.  1.
         12    1    3    3    0    0 -0.10282068549E+02  0.13569510701E+01 -0.57748951150E+01  0.11870621864E+02  0.00000000000E+00 0. -1.
</event>
<event>
 7    1  0.3014423E-011  0.5052886E+02  0.7816164E-02  0.1300439E+00
        -11   -1    0    0    0    0  0.00000000000E+00  0.00000000000E+00  0.45593999997E+02  0.45594000000E+02  0.51100000000E-03 0. -1.
         11   -1    0    0    0    0 -0.00000000000E+00 -0.00000000000E+00 -0.45593999997E+02  0.45594000000E+02  0.51100000000E-03 0.  1.
    9900012    2    1    2    0    0  0.18323732142E+02  0.23426564308E+02  0.27723679718E+02  0.50528862135E+02  0.30000006945E+02 0.  0.
        -12    1    1    2    0    0 -0.18323732142E+02 -0.23426564308E+02 -0.27723679718E+02  0.40659137865E+02  0.00000000000E+00 0.  1.
         11    1    3    3    0    0  0.43100085251E+01  0.10813028124E+02  0.43248381826E+01  0.12417808835E+02  0.51100000000E-03 0. -1.
        -11    1    3    3    0    0  0.11062773969E+02  0.19256542303E+02  0.20693753752E+02  0.30355079212E+02  0.51100000000E-03 0.  1.
        -12    1    3    3    0    0  0.29509496483E+01 -0.66430061197E+01  0.27050877828E+01  0.77559740875E+01  0.00000000000E+00 0.  1.
</event>
<event>
 7    1  0.3014423E-011  0.5052886E+02  0.7816164E-02  0.1300439E+00
        -11   -1    0    0    0    0  0.00000000000E+00  0.00000000000E+00  0.45593999997E+02  0.45594000000E+02  0.51100000000E-03 0. -1.
         11   -1    0    0    0    0 -0.00000000000E+00 -0.00000000000E+00 -0.45593999997E+02  0.45594000000E+02  0.51100000000E-03 0.  1.
    9900012    2    1    2    0    0  0.25285192514E+02  0.31840585495E+02  0.40117273944E-01  0.50528862594E+02  0.30000008342E+02 0.  0.
        -12    1    1    2    0    0 -0.25285192514E+02 -0.31840585495E+02 -0.40117273944E-01  0.40659137406E+02  0.00000000000E+00 0.  1.
         11    1    3    3    0    0  0.10134358145E+02  0.62128897551E+01 -0.37258730934E+01  0.12457421270E+02  0.51100000000E-03 0. -1.
        -11    1    3    3    0    0  0.11927932658E+02  0.14825585234E+02 -0.89927558833E+01  0.21046216137E+02  0.51100000000E-03 0.  1.
         12    1    3    3    0    0  0.32229017114E+01  0.10802110506E+02  0.12758746251E+02  0.17025225188E+02  0.00000000000E+00 0. -1.
</event>
<event>
 7    1  0.3014423E-011  0.5052887E+02  0.7816164E-02  0.1300439E+00
        -11   -1    0    0    0    0  0.00000000000E+00  0.00000000000E+00  0.45593999997E+02  0.45594000000E+02  0.51100000000E-03 0.  1.
         11   -1    0    0    0    0 -0.00000000000E+00 -0.00000000000E+00 -0.45593999997E+02  0.45594000000E+02  0.51100000000E-03 0. -1.
    9900012    2    1    2    0    0 -0.21200476342E+02 -0.96887254584E+01 -0.33314161197E+02  0.50528868991E+02  0.30000027785E+02 0.  0.
        -12    1    1    2    0    0  0.21200476342E+02  0.96887254584E+01  0.33314161197E+02  0.40659131009E+02  0.00000000000E+00 0.  1.
         11    1    3    3    0    0 -0.80687413461E+01 -0.99889153026E+00 -0.18489224767E+02  0.20197866321E+02  0.51100000000E-03 0. -1.
        -11    1    3    3    0    0 -0.18736880216E+02 -0.62582088881E+01 -0.84041911755E+01  0.21467796540E+02  0.51100000000E-03 0.  1.
        -12    1    3    3    0    0  0.56051452196E+01 -0.24316250400E+01 -0.64207452549E+01  0.88632061296E+01  0.00000000000E+00 0.  1.
</event>
<event>
 7    1  0.3014423E-011  0.5052886E+02  0.7816164E-02  0.1300439E+00
        -11   -1    0    0    0    0  0.00000000000E+00  0.00000000000E+00  0.45593999997E+02  0.45594000000E+02  0.51100000000E-03 0.  1.
         11   -1    0    0    0    0 -0.00000000000E+00 -0.00000000000E+00 -0.45593999997E+02  0.45594000000E+02  0.51100000000E-03 0. -1.
    9900012    2    1    2    0    0  0.11295295400E+02 -0.10473973827E+02 -0.37628157225E+02  0.50528855370E+02  0.29999986384E+02 0.  0.
        -12    1    1    2    0    0 -0.11295295400E+02  0.10473973827E+02  0.37628157225E+02  0.40659144630E+02  0.00000000000E+00 0.  1.
         11    1    3    3    0    0  0.58207712371E+00 -0.98085091518E+00 -0.97282948316E+01  0.97949274060E+01  0.51100000000E-03 0. -1.
        -11    1    3    3    0    0  0.47014946756E+00  0.53373844898E+01 -0.20604010348E+02  0.21289292060E+02  0.51100000000E-03 0.  1.
        -12    1    3    3    0    0  0.10243068809E+02 -0.14830507401E+02 -0.72958520445E+01  0.19444635905E+02  0.00000000000E+00 0.  1.
</event>
<event>
 7    1  0.3014423E-011  0.5052889E+02  0.7816164E-02  0.1300439E+00
        -11   -1    0    0    0    0  0.00000000000E+00  0.00000000000E+00  0.45593999997E+02  0.45594000000E+02  0.51100000000E-03 0.  1.
         11   -1    0    0    0    0 -0.00000000000E+00 -0.00000000000E+00 -0.45593999997E+02  0.45594000000E+02  0.51100000000E-03 0. -1.
    9900012    2    1    2    0    0 -0.16821135602E+02  0.20336720356E+02 -0.30929437029E+02  0.50528894344E+02  0.30000104849E+02 0.  0.
        -12    1    1    2    0    0  0.16821135602E+02 -0.20336720356E+02  0.30929437029E+02  0.40659105656E+02  0.00000000000E+00 0.  1.
         11    1    3    3    0    0  0.38234382593E+01 -0.13158136054E+01  0.16179425150E+01  0.43552019253E+01  0.51100000000E-03 0. -1.
        -11    1    3    3    0    0  0.43086103514E+00  0.22085633273E+01  0.61550107648E+00  0.23328598412E+01  0.51100000000E-03 0.  1.
         12    1    3    3    0    0 -0.21075434896E+02  0.19443970634E+02 -0.33162880620E+02  0.43840832578E+02  0.00000000000E+00 0. -1.
</event>
<event>
 7    1  0.3014423E-011  0.5052875E+02  0.7816164E-02  0.1300439E+00
        -11   -1    0    0    0    0  0.00000000000E+00  0.00000000000E+00  0.45593999997E+02  0.45594000000E+02  0.51100000000E-03 0. -1.
         11   -1    0    0    0    0 -0.00000000000E+00 -0.00000000000E+00 -0.45593999997E+02  0.45594000000E+02  0.51100000000E-03 0.  1.
    9900012    2    1    2    0    0  0.39434202827E+01 -0.36074429341E+02  0.18337379347E+02  0.50528751395E+02  0.29999670338E+02 0.  0.
        -12    1    1    2    0    0 -0.39434202827E+01  0.36074429341E+02 -0.18337379347E+02  0.40659248605E+02  0.00000000000E+00 0.  1.
         11    1    3    3    0    0  0.59743218887E+01 -0.44112446420E+01  0.50735304588E+01  0.89940153935E+01  0.51100000000E-03 0. -1.
        -11    1    3    3    0    0  0.85846902461E+01 -0.74700173480E+01 -0.11521065455E+01  0.11437893843E+02  0.51100000000E-03 0.  1.
         12    1    3    3    0    0 -0.10615591852E+02 -0.24193167351E+02  0.14415955434E+02  0.30096842159E+02  0.00000000000E+00 0. -1.
</event>
<event>
 7    1  0.3014423E-011  0.5052887E+02  0.7816164E-02  0.1300439E+00
        -11   -1    0    0    0    0  0.00000000000E+00  0.00000000000E+00  0.45593999997E+02  0.45594000000E+02  0.51100000000E-03 0.  1.
         11   -1    0    0    0    0 -0.00000000000E+00 -0.00000000000E+00 -0.45593999997E+02  0.45594000000E+02  0.51100000000E-03 0. -1.
    9900012    2    1    2    0    0 -0.15136040829E+02  0.22241737420E+02 -0.30485580527E+02  0.50528865288E+02  0.30000016530E+02 0.  0.
        -12    1    1    2    0    0  0.15136040829E+02 -0.22241737420E+02  0.30485580527E+02  0.40659134712E+02  0.00000000000E+00 0.  1.
         11    1    3    3    0    0 -0.83315769472E+01 -0.88822104716E+00 -0.16320842529E+02  0.18345953564E+02  0.51100000000E-03 0. -1.
        -11    1    3    3    0    0 -0.41613993924E+00  0.51029443391E+01 -0.11861428033E+02  0.12919237153E+02  0.51100000000E-03 0.  1.
        -12    1    3    3    0    0 -0.63883239429E+01  0.18027014128E+02 -0.23033099647E+01  0.19263674571E+02  0.00000000000E+00 0.  1.
</event>
<event>
 7    1  0.3014423E-011  0.5052886E+02  0.7816164E-02  0.1300439E+00
        -11   -1    0    0    0    0  0.00000000000E+00  0.00000000000E+00  0.45593999997E+02  0.45594000000E+02  0.51100000000E-03 0. -1.
         11   -1    0    0    0    0 -0.00000000000E+00 -0.00000000000E+00 -0.45593999997E+02  0.45594000000E+02  0.51100000000E-03 0.  1.
    9900012    2    1    2    0    0 -0.27953398147E+02 -0.14170685789E+02  0.25902988529E+02  0.50528860580E+02  0.30000002218E+02 0.  0.
        -12    1    1    2    0    0  0.27953398147E+02  0.14170685789E+02 -0.25902988529E+02  0.40659139420E+02  0.00000000000E+00 0.  1.
         11    1    3    3    0    0 -0.13217259580E+02 -0.56406681243E+01  0.10544944867E+02  0.17824392001E+02  0.51100000000E-03 0. -1.
        -11    1    3    3    0    0 -0.94749293215E+01 -0.11450604760E+02  0.20131663500E+02  0.25023479186E+02  0.51100000000E-03 0.  1.
        -12    1    3    3    0    0 -0.52612092449E+01  0.29205870957E+01 -0.47736198377E+01  0.76809893931E+01  0.00000000000E+00 0.  1.
</event>
<event>
 7    1  0.3014423E-011  0.5052886E+02  0.7816164E-02  0.1300439E+00
        -11   -1    0    0    0    0  0.00000000000E+00  0.00000000000E+00  0.45593999997E+02  0.45594000000E+02  0.51100000000E-03 0.  1.
         11   -1    0    0    0    0 -0.00000000000E+00 -0.00000000000E+00 -0.45593999997E+02  0.45594000000E+02  0.51100000000E-03 0. -1.
    9900012    2    1    2    0    0 -0.33707011662E+02 -0.22348891325E+02 -0.41868595368E+01  0.50528863617E+02  0.30000011451E+02 0.  0.
        -12    1    1    2    0    0  0.33707011662E+02  0.22348891325E+02  0.41868595368E+01  0.40659136383E+02  0.00000000000E+00 0.  1.
         11    1    3    3    0    0 -0.12088946856E+02 -0.16414251860E+02 -0.10224097601E+02  0.22805755243E+02  0.51100000000E-03 0. -1.
        -11    1    3    3    0    0 -0.99787608502E+01 -0.56814898583E+01 -0.41934612749E+01  0.12224570047E+02  0.51100000000E-03 0.  1.
        -12    1    3    3    0    0 -0.11639303956E+02 -0.25314960690E+00  0.10230699339E+02  0.15498538327E+02  0.00000000000E+00 0.  1.
</event>
<event>
 7    1  0.3014423E-011  0.5052885E+02  0.7816164E-02  0.1300439E+00
        -11   -1    0    0    0    0  0.00000000000E+00  0.00000000000E+00  0.45593999997E+02  0.45594000000E+02  0.51100000000E-03 0.  1.
         11   -1    0    0    0    0 -0.00000000000E+00 -0.00000000000E+00 -0.45593999997E+02  0.45594000000E+02  0.51100000000E-03 0. -1.
    9900012    2    1    2    0    0 -0.21815672036E+02 -0.62067022792E+01 -0.33744917946E+02  0.50528853591E+02  0.29999980974E+02 0.  0.
        -12    1    1    2    0    0  0.21815672036E+02  0.62067022792E+01  0.33744917946E+02  0.40659146409E+02  0.00000000000E+00 0.  1.
         11    1    3    3    0    0 -0.84258969241E+01 -0.10952747464E+02 -0.41148404073E+01  0.14418402402E+02  0.51100000000E-03 0. -1.
        -11    1    3    3    0    0 -0.55778162695E+01 -0.46770170572E+01 -0.57503558848E+01  0.92764818737E+01  0.51100000000E-03 0.  1.
        -12    1    3    3    0    0 -0.78119588424E+01  0.94230622415E+01 -0.23879721654E+02  0.26833969315E+02  0.00000000000E+00 0.  1.
</event>
<event>
 7    1  0.3014423E-011  0.5052887E+02  0.7816164E-02  0.1300439E+00
        -11   -1    0    0    0    0  0.00000000000E+00  0.00000000000E+00  0.45593999997E+02  0.45594000000E+02  0.51100000000E-03 0.  1.
         11   -1    0    0    0    0 -0.00000000000E+00 -0.00000000000E+00 -0.45593999997E+02  0.45594000000E+02  0.51100000000E-03 0. -1.
    9900012    2    1    2    0    0  0.64993459629E+01 -0.89899702105E+01 -0.39116545158E+02  0.50528866126E+02  0.30000019075E+02 0.  0.
        -12    1    1    2    0    0 -0.64993459629E+01  0.89899702105E+01  0.39116545158E+02  0.40659133874E+02  0.00000000000E+00 0.  1.
         11    1    3    3    0    0 -0.72683254452E+01 -0.75635199908E+01 -0.24842376314E+02  0.26966257631E+02  0.51100000000E-03 0. -1.
        -11    1    3    3    0    0 -0.22205161660E+01 -0.11134869977E+01 -0.34547624903E+01  0.42551062811E+01  0.51100000000E-03 0.  1.
        -12    1    3    3    0    0  0.15988187574E+02 -0.31296322200E+00 -0.10819406354E+02  0.19307502214E+02  0.00000000000E+00 0.  1.
</event>
<event>
 7    1  0.3014423E-011  0.5052886E+02  0.7816164E-02  0.1300439E+00
        -11   -1    0    0    0    0  0.00000000000E+00  0.00000000000E+00  0.45593999997E+02  0.45594000000E+02  0.51100000000E-03 0.  1.
         11   -1    0    0    0    0 -0.00000000000E+00 -0.00000000000E+00 -0.45593999997E+02  0.45594000000E+02  0.51100000000E-03 0. -1.
    9900012    2    1    2    0    0  0.77927771237E+01 -0.38499307214E+02  0.10499594594E+02  0.50528861816E+02  0.30000005976E+02 0.  0.
        -12    1    1    2    0    0 -0.77927771237E+01  0.38499307214E+02 -0.10499594594E+02  0.40659138184E+02  0.00000000000E+00 0.  1.
         11    1    3    3    0    0  0.32199296205E+01 -0.21809857393E+02  0.14842130879E+02  0.26576807099E+02  0.51100000000E-03 0. -1.
        -11    1    3    3    0    0  0.61698615203E+01 -0.65661050857E+01  0.48082222239E+01  0.10212733640E+02  0.51100000000E-03 0.  1.
        -12    1    3    3    0    0 -0.15970140171E+01 -0.10123344734E+02 -0.91507585088E+01  0.13739321077E+02  0.00000000000E+00 0.  1.
</event>
<event>
 7    1  0.3014423E-011  0.5052886E+02  0.7816164E-02  0.1300439E+00
        -11   -1    0    0    0    0  0.00000000000E+00  0.00000000000E+00  0.45593999997E+02  0.45594000000E+02  0.51100000000E-03 0. -1.
         11   -1    0    0    0    0 -0.00000000000E+00 -0.00000000000E+00 -0.45593999997E+02  0.45594000000E+02  0.51100000000E-03 0.  1.
    9900012    2    1    2    0    0 -0.18743861357E+02 -0.33518088961E+02  0.13355549966E+02  0.50528863990E+02  0.30000012584E+02 0.  0.
        -12    1    1    2    0    0  0.18743861357E+02  0.33518088961E+02 -0.13355549966E+02  0.40659136010E+02  0.00000000000E+00 0.  1.
         11    1    3    3    0    0  0.15675479686E+01 -0.18779496565E+02  0.11427343432E+02  0.22038849245E+02  0.51100000000E-03 0. -1.
        -11    1    3    3    0    0 -0.15885758815E+02 -0.12821716844E+02  0.69136592753E+01  0.21553478624E+02  0.51100000000E-03 0.  1.
        -12    1    3    3    0    0 -0.44256505106E+01 -0.19168755517E+01 -0.49854527409E+01  0.69365361208E+01  0.00000000000E+00 0.  1.
</event>
<event>
 7    1  0.3014423E-011  0.5052886E+02  0.7816164E-02  0.1300439E+00
        -11   -1    0    0    0    0  0.00000000000E+00  0.00000000000E+00  0.45593999997E+02  0.45594000000E+02  0.51100000000E-03 0.  1.
         11   -1    0    0    0    0 -0.00000000000E+00 -0.00000000000E+00 -0.45593999997E+02  0.45594000000E+02  0.51100000000E-03 0. -1.
    9900012    2    1    2    0    0  0.14506037483E+02  0.10242813982E+01 -0.37969612870E+02  0.50528858625E+02  0.29999996276E+02 0.  0.
        -12    1    1    2    0    0 -0.14506037483E+02 -0.10242813982E+01  0.37969612870E+02  0.40659141375E+02  0.00000000000E+00 0.  1.
         11    1    3    3    0    0 -0.15772182922E+01  0.22480364897E+01 -0.70768431002E+01  0.75909811043E+01  0.51100000000E-03 0. -1.
        -11    1    3    3    0    0  0.12969933441E-01  0.97024741190E+01 -0.61952230166E+01  0.11511688006E+02  0.51100000000E-03 0.  1.
         12    1    3    3    0    0  0.16070285841E+02 -0.10926229210E+02 -0.24697546754E+02  0.31426189515E+02  0.00000000000E+00 0. -1.
</event>
<event>
 7    1  0.3014423E-011  0.5052888E+02  0.7816164E-02  0.1300439E+00
        -11   -1    0    0    0    0  0.00000000000E+00  0.00000000000E+00  0.45593999997E+02  0.45594000000E+02  0.51100000000E-03 0. -1.
         11   -1    0    0    0    0 -0.00000000000E+00 -0.00000000000E+00 -0.45593999997E+02  0.45594000000E+02  0.51100000000E-03 0.  1.
    9900012    2    1    2    0    0  0.28293496340E+01  0.33980351438E+02  0.22147106370E+02  0.50528882649E+02  0.30000069300E+02 0.  0.
        -12    1    1    2    0    0 -0.28293496340E+01 -0.33980351438E+02 -0.22147106370E+02  0.40659117351E+02  0.00000000000E+00 0.  1.
         11    1    3    3    0    0 -0.41867844267E+01  0.79651875115E+01  0.76182451258E+00  0.90307116429E+01  0.51100000000E-03 0. -1.
        -11    1    3    3    0    0 -0.31769619725E+01  0.17236083903E+02  0.16362324486E+01  0.17602639932E+02  0.51100000000E-03 0.  1.
        -12    1    3    3    0    0  0.10193096033E+02  0.87790800238E+01  0.19749049408E+02  0.23895531075E+02  0.00000000000E+00 0.  1.
</event>
<event>
 7    1  0.3014423E-011  0.5052886E+02  0.7816164E-02  0.1300439E+00
        -11   -1    0    0    0    0  0.00000000000E+00  0.00000000000E+00  0.45593999997E+02  0.45594000000E+02  0.51100000000E-03 0. -1.
         11   -1    0    0    0    0 -0.00000000000E+00 -0.00000000000E+00 -0.45593999997E+02  0.45594000000E+02  0.51100000000E-03 0.  1.
    9900012    2    1    2    0    0 -0.78907507503E+01  0.38322244378E+02 -0.11059260980E+02  0.50528860621E+02  0.30000002345E+02 0.  0.
        -12    1    1    2    0    0  0.78907507503E+01 -0.38322244378E+02  0.11059260980E+02  0.40659139379E+02  0.00000000000E+00 0.  1.
         11    1    3    3    0    0  0.15191480201E+01  0.12842658348E+02  0.26544772524E+00  0.12934919672E+02  0.51100000000E-03 0. -1.
        -11    1    3    3    0    0 -0.35308452822E+01  0.21858914092E+02 -0.17583637383E+02  0.28274782007E+02  0.51100000000E-03 0.  1.
         12    1    3    3    0    0 -0.58790534881E+01  0.36206719379E+01  0.62589286779E+01  0.93191589424E+01  0.00000000000E+00 0. -1.
</event>
<event>
 7    1  0.3014423E-011  0.5052886E+02  0.7816164E-02  0.1300439E+00
        -11   -1    0    0    0    0  0.00000000000E+00  0.00000000000E+00  0.45593999997E+02  0.45594000000E+02  0.51100000000E-03 0.  1.
         11   -1    0    0    0    0 -0.00000000000E+00 -0.00000000000E+00 -0.45593999997E+02  0.45594000000E+02  0.51100000000E-03 0. -1.
    9900012    2    1    2    0    0 -0.35790832506E+02  0.17026866907E+02  0.90701589924E+01  0.50528859917E+02  0.30000000205E+02 0.  0.
        -12    1    1    2    0    0  0.35790832506E+02 -0.17026866907E+02 -0.90701589924E+01  0.40659140083E+02  0.00000000000E+00 0.  1.
         11    1    3    3    0    0 -0.10013635382E+02  0.15653481917E+02  0.26788603850E+01  0.18774468911E+02  0.51100000000E-03 0. -1.
        -11    1    3    3    0    0 -0.63097050055E+01  0.43942374983E+01 -0.48319578538E+01  0.90812728959E+01  0.51100000000E-03 0.  1.
         12    1    3    3    0    0 -0.19467492118E+02 -0.30208525082E+01  0.11223256461E+02  0.22673118110E+02  0.00000000000E+00 0. -1.
</event>
<event>
 7    1  0.3014423E-011  0.5052886E+02  0.7816164E-02  0.1300439E+00
        -11   -1    0    0    0    0  0.00000000000E+00  0.00000000000E+00  0.45593999997E+02  0.45594000000E+02  0.51100000000E-03 0.  1.
         11   -1    0    0    0    0 -0.00000000000E+00 -0.00000000000E+00 -0.45593999997E+02  0.45594000000E+02  0.51100000000E-03 0. -1.
    9900012    2    1    2    0    0 -0.19211928084E+02 -0.30734703727E+02 -0.18424040347E+02  0.50528862569E+02  0.30000008265E+02 0.  0.
        -12    1    1    2    0    0  0.19211928084E+02  0.30734703727E+02  0.18424040347E+02  0.40659137431E+02  0.00000000000E+00 0.  1.
         11    1    3    3    0    0 -0.10683960065E+02 -0.10127166329E+02  0.11670455255E+01  0.14767142447E+02  0.51100000000E-03 0. -1.
        -11    1    3    3    0    0  0.47022973343E+01  0.72024307527E+00 -0.23003238605E+01  0.52841120760E+01  0.51100000000E-03 0.  1.
        -12    1    3    3    0    0 -0.13230265354E+02 -0.21327780473E+02 -0.17290762012E+02  0.30477608046E+02  0.00000000000E+00 0.  1.
</event>
<event>
 7    1  0.3014423E-011  0.5052887E+02  0.7816164E-02  0.1300439E+00
        -11   -1    0    0    0    0  0.00000000000E+00  0.00000000000E+00  0.45593999997E+02  0.45594000000E+02  0.51100000000E-03 0. -1.
         11   -1    0    0    0    0 -0.00000000000E+00 -0.00000000000E+00 -0.45593999997E+02  0.45594000000E+02  0.51100000000E-03 0.  1.
    9900012    2    1    2    0    0  0.14564348388E+02 -0.25820795111E+02  0.27826809652E+02  0.50528867698E+02  0.30000023855E+02 0.  0.
        -12    1    1    2    0    0 -0.14564348388E+02  0.25820795111E+02 -0.27826809652E+02  0.40659132302E+02  0.00000000000E+00 0.  1.
         11    1    3    3    0    0 -0.46941448509E+01 -0.14187014559E+02  0.90056945216E+01  0.17447318191E+02  0.51100000000E-03 0. -1.
        -11    1    3    3    0    0  0.16929063482E+01 -0.71760225470E+01  0.11228705131E+02  0.13432983685E+02  0.51100000000E-03 0.  1.
        -12    1    3    3    0    0  0.17565586891E+02 -0.44577580044E+01  0.75924099992E+01  0.19648565822E+02  0.00000000000E+00 0.  1.
</event>
<event>
 7    1  0.3014423E-011  0.5052887E+02  0.7816164E-02  0.1300439E+00
        -11   -1    0    0    0    0  0.00000000000E+00  0.00000000000E+00  0.45593999997E+02  0.45594000000E+02  0.51100000000E-03 0.  1.
         11   -1    0    0    0    0 -0.00000000000E+00 -0.00000000000E+00 -0.45593999997E+02  0.45594000000E+02  0.51100000000E-03 0. -1.
    9900012    2    1    2    0    0  0.83487951696E+01  0.32882150252E+02 -0.22410423304E+02  0.50528865004E+02  0.30000015665E+02 0.  0.
        -12    1    1    2    0    0 -0.83487951696E+01 -0.32882150252E+02  0.22410423304E+02  0.40659134996E+02  0.00000000000E+00 0.  1.
         11    1    3    3    0    0  0.11258990081E+01 -0.12842589277E+01  0.78777386644E+00  0.18808395720E+01  0.51100000000E-03 0. -1.
        -11    1    3    3    0    0  0.14476719593E+02  0.13222008699E+02 -0.57275190456E+01  0.20425508534E+02  0.51100000000E-03 0.  1.
         12    1    3    3    0    0 -0.72538234315E+01  0.20944400481E+02 -0.17470678124E+02  0.28222516897E+02  0.00000000000E+00 0. -1.
</event>
<event>
 7    1  0.3014423E-011  0.5052885E+02  0.7816164E-02  0.1300439E+00
        -11   -1    0    0    0    0  0.00000000000E+00  0.00000000000E+00  0.45593999997E+02  0.45594000000E+02  0.51100000000E-03 0. -1.
         11   -1    0    0    0    0 -0.00000000000E+00 -0.00000000000E+00 -0.45593999997E+02  0.45594000000E+02  0.51100000000E-03 0.  1.
    9900012    2    1    2    0    0  0.24125557697E+02 -0.27164337657E+02  0.18254395569E+02  0.50528846883E+02  0.29999960587E+02 0.  0.
        -12    1    1    2    0    0 -0.24125557697E+02  0.27164337657E+02 -0.18254395569E+02  0.40659153117E+02  0.00000000000E+00 0.  1.
         11    1    3    3    0    0  0.98760328785E-02 -0.50307471643E+00  0.64707957649E+01  0.64903297141E+01  0.51100000000E-03 0.  1.
        -11    1    3    3    0    0 -0.14558080534E+01 -0.25416746491E+01  0.81964176476E+01  0.87040651207E+01  0.51100000000E-03 0. -1.
         12    1    3    3    0    0  0.25571489717E+02 -0.24119588292E+02  0.35871821570E+01  0.35334452049E+02  0.00000000000E+00 0. -1.
</event>
<event>
 7    1  0.3014423E-011  0.5052886E+02  0.7816164E-02  0.1300439E+00
        -11   -1    0    0    0    0  0.00000000000E+00  0.00000000000E+00  0.45593999997E+02  0.45594000000E+02  0.51100000000E-03 0.  1.
         11   -1    0    0    0    0 -0.00000000000E+00 -0.00000000000E+00 -0.45593999997E+02  0.45594000000E+02  0.51100000000E-03 0. -1.
    9900012    2    1    2    0    0  0.14673084476E+02 -0.36181234736E+01 -0.37746196134E+02  0.50528861445E+02  0.30000004847E+02 0.  0.
        -12    1    1    2    0    0 -0.14673084476E+02  0.36181234736E+01  0.37746196134E+02  0.40659138555E+02  0.00000000000E+00 0.  1.
         11    1    3    3    0    0  0.16905882455E+02 -0.68156947879E+01 -0.14702769463E+02  0.23418667493E+02  0.51100000000E-03 0. -1.
        -11    1    3    3    0    0 -0.25473519565E+01  0.38640330095E+01 -0.61404096184E+00  0.46687042799E+01  0.51100000000E-03 0.  1.
        -12    1    3    3    0    0  0.31455397781E+00 -0.66646169525E+00 -0.22429385709E+02  0.22441489672E+02  0.00000000000E+00 0.  1.
</event>
<event>
 7    1  0.3014423E-011  0.5052886E+02  0.7816164E-02  0.1300439E+00
        -11   -1    0    0    0    0  0.00000000000E+00  0.00000000000E+00  0.45593999997E+02  0.45594000000E+02  0.51100000000E-03 0. -1.
         11   -1    0    0    0    0 -0.00000000000E+00 -0.00000000000E+00 -0.45593999997E+02  0.45594000000E+02  0.51100000000E-03 0.  1.
    9900012    2    1    2    0    0  0.34767635193E+02  0.20929342290E+02 -0.25179407515E+01  0.50528857717E+02  0.29999993517E+02 0.  0.
        -12    1    1    2    0    0 -0.34767635193E+02 -0.20929342290E+02  0.25179407515E+01  0.40659142283E+02  0.00000000000E+00 0.  1.
         11    1    3    3    0    0 -0.35377598610E+01 -0.23741828720E+01 -0.64818270427E-01  0.42610668633E+01  0.51100000000E-03 0. -1.
        -11    1    3    3    0    0  0.43248979282E+01  0.86578237539E+00  0.27786337228E+01  0.52129767731E+01  0.51100000000E-03 0.  1.
        -12    1    3    3    0    0  0.33980497125E+02  0.22437742786E+02 -0.52317562039E+01  0.41054814081E+02  0.00000000000E+00 0.  1.
</event>
<event>
 7    1  0.3014423E-011  0.5052886E+02  0.7816164E-02  0.1300439E+00
        -11   -1    0    0    0    0  0.00000000000E+00  0.00000000000E+00  0.45593999997E+02  0.45594000000E+02  0.51100000000E-03 0.  1.
         11   -1    0    0    0    0 -0.00000000000E+00 -0.00000000000E+00 -0.45593999997E+02  0.45594000000E+02  0.51100000000E-03 0. -1.
    9900012    2    1    2    0    0 -0.25489928091E+01 -0.19323735298E+02 -0.35682785505E+02  0.50528864598E+02  0.30000014433E+02 0.  0.
        -12    1    1    2    0    0  0.25489928091E+01  0.19323735298E+02  0.35682785505E+02  0.40659135402E+02  0.00000000000E+00 0.  1.
         11    1    3    3    0    0 -0.11195441985E+01  0.28491264671E+00 -0.12086514163E+02  0.12141597066E+02  0.51100000000E-03 0. -1.
        -11    1    3    3    0    0 -0.24196231162E+01 -0.13354318516E+02 -0.27696846587E+02  0.30843276580E+02  0.51100000000E-03 0.  1.
        -12    1    3    3    0    0  0.99017450564E+00 -0.62543294289E+01  0.41005752450E+01  0.75439909529E+01  0.00000000000E+00 0.  1.
</event>
<event>
 7    1  0.3014423E-011  0.5052885E+02  0.7816164E-02  0.1300439E+00
        -11   -1    0    0    0    0  0.00000000000E+00  0.00000000000E+00  0.45593999997E+02  0.45594000000E+02  0.51100000000E-03 0.  1.
         11   -1    0    0    0    0 -0.00000000000E+00 -0.00000000000E+00 -0.45593999997E+02  0.45594000000E+02  0.51100000000E-03 0. -1.
    9900012    2    1    2    0    0 -0.55342897463E+01  0.19640698461E+02 -0.35167895601E+02  0.50528852444E+02  0.29999977488E+02 0.  0.
        -12    1    1    2    0    0  0.55342897463E+01 -0.19640698461E+02  0.35167895601E+02  0.40659147556E+02  0.00000000000E+00 0.  1.
         11    1    3    3    0    0 -0.43355745239E+01  0.13896909351E+02 -0.21740834533E+01  0.14718965150E+02  0.51100000000E-03 0. -1.
        -11    1    3    3    0    0 -0.33590058267E+01 -0.12019864726E+00 -0.14629968848E+01  0.36657506741E+01  0.51100000000E-03 0.  1.
        -12    1    3    3    0    0  0.21602906042E+01  0.58639877567E+01 -0.31530815262E+02  0.32144136620E+02  0.00000000000E+00 0.  1.
</event>
<event>
 7    1  0.3014423E-011  0.5052885E+02  0.7816164E-02  0.1300439E+00
        -11   -1    0    0    0    0  0.00000000000E+00  0.00000000000E+00  0.45593999997E+02  0.45594000000E+02  0.51100000000E-03 0.  1.
         11   -1    0    0    0    0 -0.00000000000E+00 -0.00000000000E+00 -0.45593999997E+02  0.45594000000E+02  0.51100000000E-03 0. -1.
    9900012    2    1    2    0    0 -0.22964423478E+02  0.11693576147E+02 -0.31449354742E+02  0.50528851183E+02  0.29999973657E+02 0.  0.
        -12    1    1    2    0    0  0.22964423478E+02 -0.11693576147E+02  0.31449354742E+02  0.40659148817E+02  0.00000000000E+00 0.  1.
         11    1    3    3    0    0 -0.47340429511E+01  0.12048927646E+00 -0.10063870144E+02  0.11122372178E+02  0.51100000000E-03 0. -1.
        -11    1    3    3    0    0 -0.19485498405E+02  0.11848871443E+02 -0.26018640777E+02  0.34598411390E+02  0.51100000000E-03 0.  1.
        -12    1    3    3    0    0  0.12551178783E+01 -0.27578457212E+00  0.46331561785E+01  0.48080676153E+01  0.00000000000E+00 0.  1.
</event>
<event>
 7    1  0.3014423E-011  0.5052887E+02  0.7816164E-02  0.1300439E+00
        -11   -1    0    0    0    0  0.00000000000E+00  0.00000000000E+00  0.45593999997E+02  0.45594000000E+02  0.51100000000E-03 0.  1.
         11   -1    0    0    0    0 -0.00000000000E+00 -0.00000000000E+00 -0.45593999997E+02  0.45594000000E+02  0.51100000000E-03 0. -1.
    9900012    2    1    2    0    0  0.12802959432E+02 -0.18957083458E+01 -0.38544199741E+02  0.50528870471E+02  0.30000032284E+02 0.  0.
        -12    1    1    2    0    0 -0.12802959432E+02  0.18957083458E+01  0.38544199741E+02  0.40659129529E+02  0.00000000000E+00 0.  1.
         11    1    3    3    0    0 -0.81048027686E-01  0.13179688160E+01 -0.17250498287E+02  0.17300962459E+02  0.51100000000E-03 0. -1.
        -11    1    3    3    0    0  0.12397166012E+02  0.37733842141E+01 -0.22648830345E+02  0.26094015977E+02  0.51100000000E-03 0.  1.
        -12    1    3    3    0    0  0.48684144774E+00 -0.69870613759E+01  0.13551288904E+01  0.71338920356E+01  0.00000000000E+00 0.  1.
</event>
<event>
 7    1  0.3014423E-011  0.5052886E+02  0.7816164E-02  0.1300439E+00
        -11   -1    0    0    0    0  0.00000000000E+00  0.00000000000E+00  0.45593999997E+02  0.45594000000E+02  0.51100000000E-03 0.  1.
         11   -1    0    0    0    0 -0.00000000000E+00 -0.00000000000E+00 -0.45593999997E+02  0.45594000000E+02  0.51100000000E-03 0. -1.
    9900012    2    1    2    0    0 -0.17279483879E+02  0.26972799392E+02 -0.25041022561E+02  0.50528864728E+02  0.30000014827E+02 0.  0.
        -12    1    1    2    0    0  0.17279483879E+02 -0.26972799392E+02  0.25041022561E+02  0.40659135272E+02  0.00000000000E+00 0.  1.
         11    1    3    3    0    0  0.14705324489E+01  0.14221509483E+02 -0.64409644934E+01  0.15681193243E+02  0.51100000000E-03 0. -1.
        -11    1    3    3    0    0 -0.26521618944E+01  0.68788620957E+01  0.23911392516E+01  0.77505002179E+01  0.51100000000E-03 0.  1.
        -12    1    3    3    0    0 -0.16097854434E+02  0.58724278134E+01 -0.20991197319E+02  0.27097171267E+02  0.00000000000E+00 0.  1.
</event>
<event>
 7    1  0.3014423E-011  0.5052886E+02  0.7816164E-02  0.1300439E+00
        -11   -1    0    0    0    0  0.00000000000E+00  0.00000000000E+00  0.45593999997E+02  0.45594000000E+02  0.51100000000E-03 0.  1.
         11   -1    0    0    0    0 -0.00000000000E+00 -0.00000000000E+00 -0.45593999997E+02  0.45594000000E+02  0.51100000000E-03 0. -1.
    9900012    2    1    2    0    0 -0.40559325975E+02 -0.27483355725E+01 -0.74373945160E+00  0.50528863015E+02  0.30000009620E+02 0.  0.
        -12    1    1    2    0    0  0.40559325975E+02  0.27483355725E+01  0.74373945160E+00  0.40659136985E+02  0.00000000000E+00 0.  1.
         11    1    3    3    0    0 -0.10734145830E+02  0.10961996890E+02  0.60328601203E+01  0.16485832221E+02  0.51100000000E-03 0. -1.
        -11    1    3    3    0    0 -0.71212244310E+01 -0.24814946133E+01 -0.40712757086E+01  0.85700022794E+01  0.51100000000E-03 0.  1.
        -12    1    3    3    0    0 -0.22703955714E+02 -0.11228837849E+02 -0.27053238633E+01  0.25473028515E+02  0.00000000000E+00 0.  1.
</event>
<event>
 7    1  0.3014423E-011  0.5052886E+02  0.7816164E-02  0.1300439E+00
        -11   -1    0    0    0    0  0.00000000000E+00  0.00000000000E+00  0.45593999997E+02  0.45594000000E+02  0.51100000000E-03 0.  1.
         11   -1    0    0    0    0 -0.00000000000E+00 -0.00000000000E+00 -0.45593999997E+02  0.45594000000E+02  0.51100000000E-03 0. -1.
    9900012    2    1    2    0    0 -0.88831920630E+01 -0.24782050730E+02 -0.30985551638E+02  0.50528861422E+02  0.30000004778E+02 0.  0.
        -12    1    1    2    0    0  0.88831920630E+01  0.24782050730E+02  0.30985551638E+02  0.40659138578E+02  0.00000000000E+00 0.  1.
         11    1    3    3    0    0 -0.57407168062E+01 -0.15229129169E+02 -0.31779643562E+02  0.35704732878E+02  0.51100000000E-03 0. -1.
        -11    1    3    3    0    0  0.68121829669E-01 -0.52437248993E+01 -0.47697998740E+01  0.70888844328E+01  0.51100000000E-03 0.  1.
        -12    1    3    3    0    0 -0.32105970865E+01 -0.43091966612E+01  0.55638917980E+01  0.77352441110E+01  0.00000000000E+00 0.  1.
</event>
<event>
 7    1  0.3014423E-011  0.5052886E+02  0.7816164E-02  0.1300439E+00
        -11   -1    0    0    0    0  0.00000000000E+00  0.00000000000E+00  0.45593999997E+02  0.45594000000E+02  0.51100000000E-03 0.  1.
         11   -1    0    0    0    0 -0.00000000000E+00 -0.00000000000E+00 -0.45593999997E+02  0.45594000000E+02  0.51100000000E-03 0. -1.
    9900012    2    1    2    0    0 -0.25608317894E+01  0.38114895136E+02 -0.13923446257E+02  0.50528862695E+02  0.30000008649E+02 0.  0.
        -12    1    1    2    0    0  0.25608317894E+01 -0.38114895136E+02  0.13923446257E+02  0.40659137305E+02  0.00000000000E+00 0.  1.
         11    1    3    3    0    0 -0.12415008680E+02  0.11410227013E+02 -0.20700198629E+01  0.16988546244E+02  0.51100000000E-03 0. -1.
        -11    1    3    3    0    0 -0.91647097819E+00 -0.66164577567E+00 -0.23931115157E+01  0.26466350663E+01  0.51100000000E-03 0.  1.
         12    1    3    3    0    0  0.10770647868E+02  0.27366313899E+02 -0.94603148784E+01  0.30893681385E+02  0.00000000000E+00 0. -1.
</event>
<event>
 7    1  0.3014423E-011  0.5052887E+02  0.7816164E-02  0.1300439E+00
        -11   -1    0    0    0    0  0.00000000000E+00  0.00000000000E+00  0.45593999997E+02  0.45594000000E+02  0.51100000000E-03 0.  1.
         11   -1    0    0    0    0 -0.00000000000E+00 -0.00000000000E+00 -0.45593999997E+02  0.45594000000E+02  0.51100000000E-03 0. -1.
    9900012    2    1    2    0    0 -0.64714929521E+01  0.18753025501E+02 -0.35490968907E+02  0.50528867441E+02  0.30000023074E+02 0.  0.
        -12    1    1    2    0    0  0.64714929521E+01 -0.18753025501E+02  0.35490968907E+02  0.40659132559E+02  0.00000000000E+00 0.  1.
         11    1    3    3    0    0 -0.66465421307E+01 -0.36108146974E+01 -0.15463583214E+02  0.17214439031E+02  0.51100000000E-03 0. -1.
        -11    1    3    3    0    0  0.10210830244E+01 -0.46420382420E-01 -0.76131615323E+01  0.76814708340E+01  0.51100000000E-03 0.  1.
         12    1    3    3    0    0 -0.84603384591E+00  0.22410260581E+02 -0.12414224161E+02  0.25632957576E+02  0.00000000000E+00 0. -1.
</event>
<event>
 7    1  0.3014423E-011  0.5052886E+02  0.7816164E-02  0.1300439E+00
        -11   -1    0    0    0    0  0.00000000000E+00  0.00000000000E+00  0.45593999997E+02  0.45594000000E+02  0.51100000000E-03 0.  1.
         11   -1    0    0    0    0 -0.00000000000E+00 -0.00000000000E+00 -0.45593999997E+02  0.45594000000E+02  0.51100000000E-03 0. -1.
    9900012    2    1    2    0    0 -0.20929660080E+02 -0.21723600971E+02 -0.27261698881E+02  0.50528859133E+02  0.29999997821E+02 0.  0.
        -12    1    1    2    0    0  0.20929660080E+02  0.21723600971E+02  0.27261698881E+02  0.40659140867E+02  0.00000000000E+00 0.  1.
         11    1    3    3    0    0 -0.12954588815E+02 -0.12082557938E+02 -0.74446325962E+01  0.19215413928E+02  0.51100000000E-03 0. -1.
        -11    1    3    3    0    0 -0.11050531483E+02 -0.95401485870E+01 -0.39127314336E+01  0.15114170459E+02  0.51100000000E-03 0.  1.
        -12    1    3    3    0    0  0.30754602186E+01 -0.10089444624E+00 -0.15904334851E+02  0.16199274746E+02  0.00000000000E+00 0.  1.
</event>
<event>
 7    1  0.3014423E-011  0.5052889E+02  0.7816164E-02  0.1300439E+00
        -11   -1    0    0    0    0  0.00000000000E+00  0.00000000000E+00  0.45593999997E+02  0.45594000000E+02  0.51100000000E-03 0.  1.
         11   -1    0    0    0    0 -0.00000000000E+00 -0.00000000000E+00 -0.45593999997E+02  0.45594000000E+02  0.51100000000E-03 0. -1.
    9900012    2    1    2    0    0 -0.17200739247E+02  0.25003991694E+02 -0.27057307668E+02  0.50528893646E+02  0.30000102727E+02 0.  0.
        -12    1    1    2    0    0  0.17200739247E+02 -0.25003991694E+02  0.27057307668E+02  0.40659106354E+02  0.00000000000E+00 0.  1.
         11    1    3    3    0    0 -0.13725863046E+02  0.14883086948E+02 -0.27299968223E+02  0.33988142913E+02  0.51100000000E-03 0. -1.
        -11    1    3    3    0    0 -0.73425168660E+01  0.76721770732E+01 -0.28755273110E+01  0.11001977665E+02  0.51100000000E-03 0.  1.
         12    1    3    3    0    0  0.38676406648E+01  0.24487276725E+01  0.31181878664E+01  0.55387730678E+01  0.00000000000E+00 0. -1.
</event>
<event>
 7    1  0.3014423E-011  0.5052887E+02  0.7816164E-02  0.1300439E+00
        -11   -1    0    0    0    0  0.00000000000E+00  0.00000000000E+00  0.45593999997E+02  0.45594000000E+02  0.51100000000E-03 0.  1.
         11   -1    0    0    0    0 -0.00000000000E+00 -0.00000000000E+00 -0.45593999997E+02  0.45594000000E+02  0.51100000000E-03 0. -1.
    9900012    2    1    2    0    0  0.32492834494E+01 -0.25928014459E+02 -0.31150366300E+02  0.50528866987E+02  0.30000021695E+02 0.  0.
        -12    1    1    2    0    0 -0.32492834494E+01  0.25928014459E+02  0.31150366300E+02  0.40659133013E+02  0.00000000000E+00 0.  1.
         11    1    3    3    0    0  0.66706258960E+01 -0.19881362827E+02 -0.19622235765E+02  0.28719296203E+02  0.51100000000E-03 0. -1.
        -11    1    3    3    0    0 -0.17587143024E+01 -0.10445283754E+02 -0.13104443305E+02  0.16850028585E+02  0.51100000000E-03 0.  1.
        -12    1    3    3    0    0 -0.16626281442E+01  0.43986321214E+01  0.15763127708E+01  0.49595422003E+01  0.00000000000E+00 0.  1.
</event>
<event>
 7    1  0.3430781E-011  0.5052883E+02  0.7816164E-02  0.1300439E+00
        -11   -1    0    0    0    0  0.00000000000E+00  0.00000000000E+00  0.45593999997E+02  0.45594000000E+02  0.51100000000E-03 0. -1.
         11   -1    0    0    0    0 -0.00000000000E+00 -0.00000000000E+00 -0.45593999997E+02  0.45594000000E+02  0.51100000000E-03 0.  1.
    9900012    2    1    2    0    0  0.30968055211E+01  0.34093390329E+02  0.21936687503E+02  0.50528834647E+02  0.29999923393E+02 0.  0.
        -12    1    1    2    0    0 -0.30968055211E+01 -0.34093390329E+02 -0.21936687503E+02  0.40659165353E+02  0.00000000000E+00 0.  1.
         11    1    3    3    0    0  0.23516147707E+01  0.90578907209E+01  0.18676449385E+02  0.20889835764E+02  0.51100000000E-03 0. -1.
        -11    1    3    3    0    0  0.16815141298E+01 -0.10782785529E+01 -0.21707989436E+01  0.29500072408E+01  0.51100000000E-03 0.  1.
         12    1    3    3    0    0 -0.93632337944E+00  0.26113778161E+02  0.54310370615E+01  0.26688991642E+02  0.00000000000E+00 0. -1.
</event>
<event>
 7    1  0.3014423E-011  0.5052885E+02  0.7816164E-02  0.1300439E+00
        -11   -1    0    0    0    0  0.00000000000E+00  0.00000000000E+00  0.45593999997E+02  0.45594000000E+02  0.51100000000E-03 0. -1.
         11   -1    0    0    0    0 -0.00000000000E+00 -0.00000000000E+00 -0.45593999997E+02  0.45594000000E+02  0.51100000000E-03 0.  1.
    9900012    2    1    2    0    0  0.25218368778E+02  0.28903934218E+02  0.13481935337E+02  0.50528854442E+02  0.29999983561E+02 0.  0.
        -12    1    1    2    0    0 -0.25218368778E+02 -0.28903934218E+02 -0.13481935337E+02  0.40659145558E+02  0.00000000000E+00 0.  1.
         11    1    3    3    0    0  0.57997364007E+01  0.14043019182E+02  0.71338072942E+01  0.16784949712E+02  0.51100000000E-03 0. -1.
        -11    1    3    3    0    0 -0.19597834265E+01  0.10702481672E+02 -0.56175933340E+00  0.10894927206E+02  0.51100000000E-03 0.  1.
        -12    1    3    3    0    0  0.21378415804E+02  0.41584333638E+01  0.69098873763E+01  0.22848977523E+02  0.00000000000E+00 0.  1.
</event>
<event>
 7    1  0.3014423E-011  0.5052878E+02  0.7816164E-02  0.1300439E+00
        -11   -1    0    0    0    0  0.00000000000E+00  0.00000000000E+00  0.45593999997E+02  0.45594000000E+02  0.51100000000E-03 0.  1.
         11   -1    0    0    0    0 -0.00000000000E+00 -0.00000000000E+00 -0.45593999997E+02  0.45594000000E+02  0.51100000000E-03 0. -1.
    9900012    2    1    2    0    0 -0.10440088230E+02 -0.19094501912E+02 -0.34344965477E+02  0.50528780884E+02  0.29999759973E+02 0.  0.
        -12    1    1    2    0    0  0.10440088230E+02  0.19094501912E+02  0.34344965477E+02  0.40659219116E+02  0.00000000000E+00 0.  1.
         11    1    3    3    0    0  0.27706100250E+01  0.87723453690E+00 -0.34131129624E+01  0.44827626190E+01  0.51100000000E-03 0. -1.
        -11    1    3    3    0    0  0.69330150561E+01 -0.33716143973E+01 -0.46427435512E+01  0.89994193899E+01  0.51100000000E-03 0.  1.
         12    1    3    3    0    0 -0.20143713311E+02 -0.16600122051E+02 -0.26289108964E+02  0.37046598875E+02  0.00000000000E+00 0. -1.
</event>
<event>
 7    1  0.3014423E-011  0.5052885E+02  0.7816164E-02  0.1300439E+00
        -11   -1    0    0    0    0  0.00000000000E+00  0.00000000000E+00  0.45593999997E+02  0.45594000000E+02  0.51100000000E-03 0. -1.
         11   -1    0    0    0    0 -0.00000000000E+00 -0.00000000000E+00 -0.45593999997E+02  0.45594000000E+02  0.51100000000E-03 0.  1.
    9900012    2    1    2    0    0 -0.18964383296E+02 -0.34869801907E+02  0.88099487843E+01  0.50528854455E+02  0.29999983603E+02 0.  0.
        -12    1    1    2    0    0  0.18964383296E+02  0.34869801907E+02 -0.88099487843E+01  0.40659145545E+02  0.00000000000E+00 0.  1.
         11    1    3    3    0    0  0.31602613997E+00 -0.72715642749E+01  0.49395720169E+01  0.87962998753E+01  0.51100000000E-03 0. -1.
        -11    1    3    3    0    0 -0.39278092468E+00  0.45550474977E-01 -0.66320092913E+01  0.66437865108E+01  0.51100000000E-03 0.  1.
        -12    1    3    3    0    0 -0.18887628511E+02 -0.27643788107E+02  0.10502386059E+02  0.35088768069E+02  0.00000000000E+00 0.  1.
</event>
<event>
 7    1  0.3014423E-011  0.5052887E+02  0.7816164E-02  0.1300439E+00
        -11   -1    0    0    0    0  0.00000000000E+00  0.00000000000E+00  0.45593999997E+02  0.45594000000E+02  0.51100000000E-03 0.  1.
         11   -1    0    0    0    0 -0.00000000000E+00 -0.00000000000E+00 -0.45593999997E+02  0.45594000000E+02  0.51100000000E-03 0. -1.
    9900012    2    1    2    0    0  0.14543985623E+02 -0.37815132366E+02  0.34137181401E+01  0.50528865415E+02  0.30000016914E+02 0.  0.
        -12    1    1    2    0    0 -0.14543985623E+02  0.37815132366E+02 -0.34137181401E+01  0.40659134585E+02  0.00000000000E+00 0.  1.
         11    1    3    3    0    0  0.15426074988E+02 -0.11770946961E+02 -0.31877573895E+01  0.19664200450E+02  0.51100000000E-03 0. -1.
        -11    1    3    3    0    0  0.62561350019E+01 -0.19204034362E+02  0.34637307540E+01  0.20492232478E+02  0.51100000000E-03 0.  1.
        -12    1    3    3    0    0 -0.71382243672E+01 -0.68401510433E+01  0.31377447755E+01  0.10372432487E+02  0.00000000000E+00 0.  1.
</event>
<event>
 7    1  0.3014423E-011  0.5052886E+02  0.7816164E-02  0.1300439E+00
        -11   -1    0    0    0    0  0.00000000000E+00  0.00000000000E+00  0.45593999997E+02  0.45594000000E+02  0.51100000000E-03 0.  1.
         11   -1    0    0    0    0 -0.00000000000E+00 -0.00000000000E+00 -0.45593999997E+02  0.45594000000E+02  0.51100000000E-03 0. -1.
    9900012    2    1    2    0    0 -0.43904247624E+01 -0.32042551196E+02 -0.24640714043E+02  0.50528859511E+02  0.29999998970E+02 0.  0.
        -12    1    1    2    0    0  0.43904247624E+01  0.32042551196E+02  0.24640714043E+02  0.40659140489E+02  0.00000000000E+00 0.  1.
         11    1    3    3    0    0 -0.33205509712E+01 -0.10127060923E+02 -0.40242399453E+01  0.11392011635E+02  0.51100000000E-03 0. -1.
        -11    1    3    3    0    0 -0.98622580822E+01 -0.13766376766E+02 -0.20801720488E+01  0.17061781260E+02  0.51100000000E-03 0.  1.
        -12    1    3    3    0    0  0.87923842911E+01 -0.81491135071E+01 -0.18536302049E+02  0.22075066616E+02  0.00000000000E+00 0.  1.
</event>
<event>
 7    1  0.3014423E-011  0.5052882E+02  0.7816164E-02  0.1300439E+00
        -11   -1    0    0    0    0  0.00000000000E+00  0.00000000000E+00  0.45593999997E+02  0.45594000000E+02  0.51100000000E-03 0. -1.
         11   -1    0    0    0    0 -0.00000000000E+00 -0.00000000000E+00 -0.45593999997E+02  0.45594000000E+02  0.51100000000E-03 0.  1.
    9900012    2    1    2    0    0  0.21851284228E+02  0.34203791921E+02  0.24064375224E+01  0.50528819663E+02  0.29999877847E+02 0.  0.
        -12    1    1    2    0    0 -0.21851284228E+02 -0.34203791921E+02 -0.24064375224E+01  0.40659180337E+02  0.00000000000E+00 0.  1.
         11    1    3    3    0    0  0.77492954426E+01 -0.51708141987E+00 -0.19413556031E+01  0.80054865493E+01  0.51100000000E-03 0. -1.
        -11    1    3    3    0    0  0.28573518508E+01 -0.17987509612E+01 -0.17906698129E+01  0.38218402975E+01  0.51100000000E-03 0.  1.
         12    1    3    3    0    0  0.11244636934E+02  0.36519624302E+02  0.61384629385E+01  0.38701492816E+02  0.00000000000E+00 0. -1.
</event>
<event>
 7    1  0.3014423E-011  0.5052885E+02  0.7816164E-02  0.1300439E+00
        -11   -1    0    0    0    0  0.00000000000E+00  0.00000000000E+00  0.45593999997E+02  0.45594000000E+02  0.51100000000E-03 0.  1.
         11   -1    0    0    0    0 -0.00000000000E+00 -0.00000000000E+00 -0.45593999997E+02  0.45594000000E+02  0.51100000000E-03 0. -1.
    9900012    2    1    2    0    0 -0.37640748833E+02  0.15076953058E+02 -0.30043135759E+01  0.50528851136E+02  0.29999973514E+02 0.  0.
        -12    1    1    2    0    0  0.37640748833E+02 -0.15076953058E+02  0.30043135759E+01  0.40659148864E+02  0.00000000000E+00 0.  1.
         11    1    3    3    0    0 -0.65198971678E+00 -0.13588463482E+01  0.32470747970E+01  0.35798113061E+01  0.51100000000E-03 0. -1.
        -11    1    3    3    0    0 -0.12798627766E+02  0.12247618352E+01  0.78705182865E+01  0.15074812523E+02  0.51100000000E-03 0.  1.
         12    1    3    3    0    0 -0.24190131350E+02  0.15211037571E+02 -0.14121906659E+02  0.31874227307E+02  0.00000000000E+00 0. -1.
</event>
<event>
 7    1  0.3014423E-011  0.5052886E+02  0.7816164E-02  0.1300439E+00
        -11   -1    0    0    0    0  0.00000000000E+00  0.00000000000E+00  0.45593999997E+02  0.45594000000E+02  0.51100000000E-03 0.  1.
         11   -1    0    0    0    0 -0.00000000000E+00 -0.00000000000E+00 -0.45593999997E+02  0.45594000000E+02  0.51100000000E-03 0. -1.
    9900012    2    1    2    0    0 -0.38417310597E+02 -0.12752463990E+02 -0.38276010767E+01  0.50528860544E+02  0.30000002109E+02 0.  0.
        -12    1    1    2    0    0  0.38417310597E+02  0.12752463990E+02  0.38276010767E+01  0.40659139456E+02  0.00000000000E+00 0.  1.
         11    1    3    3    0    0 -0.26548846377E+02 -0.33962197423E+01 -0.89143903408E+00  0.26780033911E+02  0.51100000000E-03 0. -1.
        -11    1    3    3    0    0 -0.10535542547E+02  0.20726371419E+01  0.24973638540E+01  0.11024078554E+02  0.51100000000E-03 0.  1.
        -12    1    3    3    0    0 -0.13329216734E+01 -0.11428881390E+02 -0.54335258967E+01  0.12724748079E+02  0.00000000000E+00 0.  1.
</event>
<event>
 7    1  0.3014423E-011  0.5052891E+02  0.7816164E-02  0.1300439E+00
        -11   -1    0    0    0    0  0.00000000000E+00  0.00000000000E+00  0.45593999997E+02  0.45594000000E+02  0.51100000000E-03 0.  1.
         11   -1    0    0    0    0 -0.00000000000E+00 -0.00000000000E+00 -0.45593999997E+02  0.45594000000E+02  0.51100000000E-03 0. -1.
    9900012    2    1    2    0    0 -0.33833125940E+02 -0.21691773746E+02 -0.61602090361E+01  0.50528909571E+02  0.30000151132E+02 0.  0.
        -12    1    1    2    0    0  0.33833125940E+02  0.21691773746E+02  0.61602090361E+01  0.40659090429E+02  0.00000000000E+00 0.  1.
         11    1    3    3    0    0 -0.24563946673E+02 -0.92228968405E+01 -0.91252899637E+01  0.27779852762E+02  0.51100000000E-03 0. -1.
        -11    1    3    3    0    0 -0.77446480069E+01  0.17504797450E+01 -0.74472277251E+00  0.79748582657E+01  0.51100000000E-03 0.  1.
         12    1    3    3    0    0 -0.15245312601E+01 -0.14219356650E+02  0.37098037002E+01  0.14774198543E+02  0.00000000000E+00 0. -1.
</event>
<event>
 7    1  0.3014423E-011  0.5052886E+02  0.7816164E-02  0.1300439E+00
        -11   -1    0    0    0    0  0.00000000000E+00  0.00000000000E+00  0.45593999997E+02  0.45594000000E+02  0.51100000000E-03 0.  1.
         11   -1    0    0    0    0 -0.00000000000E+00 -0.00000000000E+00 -0.45593999997E+02  0.45594000000E+02  0.51100000000E-03 0. -1.
    9900012    2    1    2    0    0 -0.28779895247E+02 -0.28682813459E+02 -0.14763453426E+01  0.50528858913E+02  0.29999997152E+02 0.  0.
        -12    1    1    2    0    0  0.28779895247E+02  0.28682813459E+02  0.14763453426E+01  0.40659141087E+02  0.00000000000E+00 0.  1.
         11    1    3    3    0    0 -0.76084027137E+01 -0.23251624017E+02 -0.52904365366E+01  0.25030272277E+02  0.51100000000E-03 0. -1.
        -11    1    3    3    0    0  0.10057387408E+01  0.12360457110E+01 -0.95091504706E+00  0.18556829207E+01  0.51100000000E-03 0.  1.
         12    1    3    3    0    0 -0.22177231275E+02 -0.66672351529E+01  0.47650062410E+01  0.23642903715E+02  0.00000000000E+00 0. -1.
</event>
<event>
 7    1  0.3014423E-011  0.5052886E+02  0.7816164E-02  0.1300439E+00
        -11   -1    0    0    0    0  0.00000000000E+00  0.00000000000E+00  0.45593999997E+02  0.45594000000E+02  0.51100000000E-03 0.  1.
         11   -1    0    0    0    0 -0.00000000000E+00 -0.00000000000E+00 -0.45593999997E+02  0.45594000000E+02  0.51100000000E-03 0. -1.
    9900012    2    1    2    0    0  0.20015981121E+02 -0.13905167269E+02 -0.32544927149E+02  0.50528862526E+02  0.30000008134E+02 0.  0.
        -12    1    1    2    0    0 -0.20015981121E+02  0.13905167269E+02  0.32544927149E+02  0.40659137474E+02  0.00000000000E+00 0.  1.
         11    1    3    3    0    0  0.55670877488E+01  0.49750083673E+01 -0.31746350171E+01  0.81130439423E+01  0.51100000000E-03 0. -1.
        -11    1    3    3    0    0 -0.18962539083E+01 -0.11898595725E+02 -0.73353577612E+01  0.14106021156E+02  0.51100000000E-03 0.  1.
         12    1    3    3    0    0  0.16345147280E+02 -0.69815799107E+01 -0.22034934371E+02  0.28309797427E+02  0.00000000000E+00 0. -1.
</event>
<event>
 7    1  0.3014423E-011  0.5052885E+02  0.7816164E-02  0.1300439E+00
        -11   -1    0    0    0    0  0.00000000000E+00  0.00000000000E+00  0.45593999997E+02  0.45594000000E+02  0.51100000000E-03 0.  1.
         11   -1    0    0    0    0 -0.00000000000E+00 -0.00000000000E+00 -0.45593999997E+02  0.45594000000E+02  0.51100000000E-03 0. -1.
    9900012    2    1    2    0    0  0.98795019163E+01  0.16277688913E+02 -0.35924900640E+02  0.50528853422E+02  0.29999980461E+02 0.  0.
        -12    1    1    2    0    0 -0.98795019163E+01 -0.16277688913E+02  0.35924900640E+02  0.40659146578E+02  0.00000000000E+00 0.  1.
         11    1    3    3    0    0  0.63718896909E+01 -0.48904766039E+00 -0.31575882800E+01  0.71281491184E+01  0.51100000000E-03 0. -1.
        -11    1    3    3    0    0  0.78104270543E+01  0.36192097481E+00 -0.16937473045E+01  0.80001586081E+01  0.51100000000E-03 0.  1.
         12    1    3    3    0    0 -0.43028148289E+01  0.16404815599E+02 -0.31073565055E+02  0.35400545695E+02  0.00000000000E+00 0. -1.
</event>
<event>
 7    1  0.3014423E-011  0.5052885E+02  0.7816164E-02  0.1300439E+00
        -11   -1    0    0    0    0  0.00000000000E+00  0.00000000000E+00  0.45593999997E+02  0.45594000000E+02  0.51100000000E-03 0. -1.
         11   -1    0    0    0    0 -0.00000000000E+00 -0.00000000000E+00 -0.45593999997E+02  0.45594000000E+02  0.51100000000E-03 0.  1.
    9900012    2    1    2    0    0 -0.12121949534E+02 -0.38635142721E+02  0.36810866031E+01  0.50528852048E+02  0.29999976285E+02 0.  0.
        -12    1    1    2    0    0  0.12121949534E+02  0.38635142721E+02 -0.36810866031E+01  0.40659147952E+02  0.00000000000E+00 0.  1.
         11    1    3    3    0    0 -0.79318860689E+01 -0.21755907509E+02  0.10902162033E+02  0.25594754646E+02  0.51100000000E-03 0. -1.
        -11    1    3    3    0    0 -0.82158901546E+01 -0.14774673855E+02 -0.61466862362E+00  0.16916549776E+02  0.51100000000E-03 0.  1.
        -12    1    3    3    0    0  0.40258266891E+01 -0.21045613567E+01 -0.66064068059E+01  0.80175476251E+01  0.00000000000E+00 0.  1.
</event>
<event>
 7    1  0.3014423E-011  0.5052897E+02  0.7816164E-02  0.1300438E+00
        -11   -1    0    0    0    0  0.00000000000E+00  0.00000000000E+00  0.45593999997E+02  0.45594000000E+02  0.51100000000E-03 0. -1.
         11   -1    0    0    0    0 -0.00000000000E+00 -0.00000000000E+00 -0.45593999997E+02  0.45594000000E+02  0.51100000000E-03 0.  1.
    9900012    2    1    2    0    0 -0.85458046704E+01  0.79112931158E+01  0.38955582885E+02  0.50528969341E+02  0.30000332808E+02 0.  0.
        -12    1    1    2    0    0  0.85458046704E+01 -0.79112931158E+01 -0.38955582885E+02  0.40659030659E+02  0.00000000000E+00 0.  1.
         11    1    3    3    0    0 -0.12179061156E+02  0.50487055167E+01  0.14895695585E+02  0.19892227257E+02  0.51100000000E-03 0. -1.
        -11    1    3    3    0    0 -0.38316890813E+01  0.85041110204E+01  0.14644120514E+02  0.17362373437E+02  0.51100000000E-03 0.  1.
        -12    1    3    3    0    0  0.74649455665E+01 -0.56415234214E+01  0.94157667850E+01  0.13274368647E+02  0.00000000000E+00 0.  1.
</event>
<event>
 7    1  0.3014423E-011  0.5052885E+02  0.7816164E-02  0.1300439E+00
        -11   -1    0    0    0    0  0.00000000000E+00  0.00000000000E+00  0.45593999997E+02  0.45594000000E+02  0.51100000000E-03 0.  1.
         11   -1    0    0    0    0 -0.00000000000E+00 -0.00000000000E+00 -0.45593999997E+02  0.45594000000E+02  0.51100000000E-03 0. -1.
    9900012    2    1    2    0    0  0.18432972099E+02 -0.18637791334E+02 -0.31080935830E+02  0.50528852219E+02  0.29999976804E+02 0.  0.
        -12    1    1    2    0    0 -0.18432972099E+02  0.18637791334E+02  0.31080935830E+02  0.40659147781E+02  0.00000000000E+00 0.  1.
         11    1    3    3    0    0 -0.46430018473E+00 -0.16710992641E+02 -0.87809120504E+01  0.18883253597E+02  0.51100000000E-03 0. -1.
        -11    1    3    3    0    0  0.11014849584E+02 -0.51498516799E+01 -0.67265356218E+01  0.13895832664E+02  0.51100000000E-03 0.  1.
        -12    1    3    3    0    0  0.78824226989E+01  0.32230529865E+01 -0.15573488158E+02  0.17749765958E+02  0.00000000000E+00 0.  1.
</event>
<event>
 7    1  0.3014423E-011  0.5052872E+02  0.7816164E-02  0.1300439E+00
        -11   -1    0    0    0    0  0.00000000000E+00  0.00000000000E+00  0.45593999997E+02  0.45594000000E+02  0.51100000000E-03 0. -1.
         11   -1    0    0    0    0 -0.00000000000E+00 -0.00000000000E+00 -0.45593999997E+02  0.45594000000E+02  0.51100000000E-03 0.  1.
    9900012    2    1    2    0    0  0.26733583620E+02 -0.30628197329E+02  0.63703447646E+00  0.50528723350E+02  0.29999585092E+02 0.  0.
        -12    1    1    2    0    0 -0.26733583620E+02  0.30628197329E+02 -0.63703447646E+00  0.40659276650E+02  0.00000000000E+00 0.  1.
         11    1    3    3    0    0  0.47139408362E+01 -0.35463136662E+01 -0.84352846330E+01  0.10293279649E+02  0.51100000000E-03 0. -1.
        -11    1    3    3    0    0  0.10068568064E+02 -0.73176206843E+01 -0.47457619464E+01  0.13320881805E+02  0.51100000000E-03 0.  1.
         12    1    3    3    0    0  0.11951074719E+02 -0.19764262979E+02  0.13818081056E+02  0.26914561897E+02  0.00000000000E+00 0. -1.
</event>
<event>
 7    1  0.3014423E-011  0.5052886E+02  0.7816164E-02  0.1300439E+00
        -11   -1    0    0    0    0  0.00000000000E+00  0.00000000000E+00  0.45593999997E+02  0.45594000000E+02  0.51100000000E-03 0.  1.
         11   -1    0    0    0    0 -0.00000000000E+00 -0.00000000000E+00 -0.45593999997E+02  0.45594000000E+02  0.51100000000E-03 0. -1.
    9900012    2    1    2    0    0 -0.78884351168E+01  0.37237299353E+02 -0.14294118143E+02  0.50528859759E+02  0.29999999722E+02 0.  0.
        -12    1    1    2    0    0  0.78884351168E+01 -0.37237299353E+02  0.14294118143E+02  0.40659140241E+02  0.00000000000E+00 0.  1.
         11    1    3    3    0    0 -0.65226473652E+00  0.81175905470E+01  0.49286384376E+01  0.95190442107E+01  0.51100000000E-03 0. -1.
        -11    1    3    3    0    0 -0.58535506680E+01  0.93351593723E+01  0.28042429521E+01  0.11369830022E+02  0.51100000000E-03 0.  1.
        -12    1    3    3    0    0 -0.13826197123E+01  0.19784549433E+02 -0.22026999533E+02  0.29639985526E+02  0.00000000000E+00 0.  1.
</event>
<event>
 7    1  0.3014423E-011  0.5052889E+02  0.7816164E-02  0.1300439E+00
        -11   -1    0    0    0    0  0.00000000000E+00  0.00000000000E+00  0.45593999997E+02  0.45594000000E+02  0.51100000000E-03 0. -1.
         11   -1    0    0    0    0 -0.00000000000E+00 -0.00000000000E+00 -0.45593999997E+02  0.45594000000E+02  0.51100000000E-03 0.  1.
    9900012    2    1    2    0    0 -0.37080450294E+02  0.19949765665E+01 -0.16559700942E+02  0.50528887605E+02  0.30000084363E+02 0.  0.
        -12    1    1    2    0    0  0.37080450294E+02 -0.19949765665E+01  0.16559700942E+02  0.40659112395E+02  0.00000000000E+00 0.  1.
         11    1    3    3    0    0 -0.91128737341E+01  0.27256049277E+01 -0.48474790962E+01  0.10675740900E+02  0.51100000000E-03 0. -1.
        -11    1    3    3    0    0 -0.12324727335E+02 -0.11410218058E+02 -0.12436146665E+02  0.20898557944E+02  0.51100000000E-03 0.  1.
         12    1    3    3    0    0 -0.15642849225E+02  0.10679589696E+02  0.72392481861E+00  0.18954588761E+02  0.00000000000E+00 0. -1.
</event>
<event>
 7    1  0.3014423E-011  0.5052888E+02  0.7816164E-02  0.1300439E+00
        -11   -1    0    0    0    0  0.00000000000E+00  0.00000000000E+00  0.45593999997E+02  0.45594000000E+02  0.51100000000E-03 0.  1.
         11   -1    0    0    0    0 -0.00000000000E+00 -0.00000000000E+00 -0.45593999997E+02  0.45594000000E+02  0.51100000000E-03 0. -1.
    9900012    2    1    2    0    0 -0.52518964562E+01 -0.34943992018E+02 -0.20112165596E+02  0.50528878029E+02  0.30000055256E+02 0.  0.
        -12    1    1    2    0    0  0.52518964562E+01  0.34943992018E+02  0.20112165596E+02  0.40659121971E+02  0.00000000000E+00 0.  1.
         11    1    3    3    0    0 -0.38641713793E+01 -0.58505675156E+01 -0.10342628391E+02  0.12495236012E+02  0.51100000000E-03 0. -1.
        -11    1    3    3    0    0 -0.81501183250E+01 -0.76519823886E+01  0.37592803019E+01  0.11794467001E+02  0.51100000000E-03 0.  1.
        -12    1    3    3    0    0  0.67623932481E+01 -0.21441442114E+02 -0.13528817506E+02  0.26239175015E+02  0.00000000000E+00 0.  1.
</event>
<event>
 7    1  0.3014423E-011  0.5052886E+02  0.7816164E-02  0.1300439E+00
        -11   -1    0    0    0    0  0.00000000000E+00  0.00000000000E+00  0.45593999997E+02  0.45594000000E+02  0.51100000000E-03 0.  1.
         11   -1    0    0    0    0 -0.00000000000E+00 -0.00000000000E+00 -0.45593999997E+02  0.45594000000E+02  0.51100000000E-03 0. -1.
    9900012    2    1    2    0    0  0.89523994634E+01 -0.83032655794E+00 -0.39652623809E+02  0.50528862364E+02  0.30000007642E+02 0.  0.
        -12    1    1    2    0    0 -0.89523994634E+01  0.83032655794E+00  0.39652623809E+02  0.40659137636E+02  0.00000000000E+00 0.  1.
         11    1    3    3    0    0  0.59062212118E+01 -0.23825831983E+01 -0.21163284058E+01  0.67111100336E+01  0.51100000000E-03 0. -1.
        -11    1    3    3    0    0  0.11320515245E+01  0.19049425611E+01  0.27234098347E+01  0.35110266595E+01  0.51100000000E-03 0.  1.
        -12    1    3    3    0    0  0.19141267270E+01 -0.35268592074E+00 -0.40259705238E+02  0.40306725671E+02  0.00000000000E+00 0.  1.
</event>
<event>
 7    1  0.3014423E-011  0.5052885E+02  0.7816164E-02  0.1300439E+00
        -11   -1    0    0    0    0  0.00000000000E+00  0.00000000000E+00  0.45593999997E+02  0.45594000000E+02  0.51100000000E-03 0.  1.
         11   -1    0    0    0    0 -0.00000000000E+00 -0.00000000000E+00 -0.45593999997E+02  0.45594000000E+02  0.51100000000E-03 0. -1.
    9900012    2    1    2    0    0  0.13421512216E+01  0.57104021662E+01 -0.40233767226E+02  0.50528854805E+02  0.29999984664E+02 0.  0.
        -12    1    1    2    0    0 -0.13421512216E+01 -0.57104021662E+01  0.40233767226E+02  0.40659145195E+02  0.00000000000E+00 0.  1.
         11    1    3    3    0    0  0.33612318483E+00  0.85516275389E+01 -0.26075645100E+02  0.27444172059E+02  0.51100000000E-03 0. -1.
        -11    1    3    3    0    0 -0.22300553022E+01  0.56361975148E+01 -0.12455773584E+02  0.13852298181E+02  0.51100000000E-03 0.  1.
         12    1    3    3    0    0  0.32360833390E+01 -0.84774228874E+01 -0.17023485429E+01  0.92323845647E+01  0.00000000000E+00 0. -1.
</event>
<event>
 7    1  0.3014423E-011  0.5052886E+02  0.7816164E-02  0.1300439E+00
        -11   -1    0    0    0    0  0.00000000000E+00  0.00000000000E+00  0.45593999997E+02  0.45594000000E+02  0.51100000000E-03 0.  1.
         11   -1    0    0    0    0 -0.00000000000E+00 -0.00000000000E+00 -0.45593999997E+02  0.45594000000E+02  0.51100000000E-03 0. -1.
    9900012    2    1    2    0    0  0.31169088122E+02  0.25569586071E+02 -0.52773366859E+01  0.50528855043E+02  0.29999985388E+02 0.  0.
        -12    1    1    2    0    0 -0.31169088122E+02 -0.25569586071E+02  0.52773366859E+01  0.40659144957E+02  0.00000000000E+00 0.  1.
         11    1    3    3    0    0  0.97463396662E+01  0.49618371499E+01 -0.59634014525E+01  0.12456850402E+02  0.51100000000E-03 0. -1.
        -11    1    3    3    0    0  0.29419935832E+01  0.94477870550E+01 -0.99260726334E+01  0.14015809811E+02  0.51100000000E-03 0.  1.
         12    1    3    3    0    0  0.18480754872E+02  0.11159961866E+02  0.10612137400E+02  0.24056194830E+02  0.00000000000E+00 0. -1.
</event>
<event>
 7    1  0.3014423E-011  0.5052886E+02  0.7816164E-02  0.1300439E+00
        -11   -1    0    0    0    0  0.00000000000E+00  0.00000000000E+00  0.45593999997E+02  0.45594000000E+02  0.51100000000E-03 0.  1.
         11   -1    0    0    0    0 -0.00000000000E+00 -0.00000000000E+00 -0.45593999997E+02  0.45594000000E+02  0.51100000000E-03 0. -1.
    9900012    2    1    2    0    0  0.12139160966E+02 -0.21644429383E+02 -0.32207528204E+02  0.50528862955E+02  0.30000009437E+02 0.  0.
        -12    1    1    2    0    0 -0.12139160966E+02  0.21644429383E+02  0.32207528204E+02  0.40659137045E+02  0.00000000000E+00 0.  1.
         11    1    3    3    0    0 -0.27517911934E+01 -0.13386234625E+02 -0.85160885705E+01  0.16102403454E+02  0.51100000000E-03 0. -1.
        -11    1    3    3    0    0  0.98905203746E+01 -0.11028947070E+02 -0.24522269480E+02  0.28649638173E+02  0.51100000000E-03 0.  1.
        -12    1    3    3    0    0  0.50004317851E+01  0.27707523125E+01  0.83082984619E+00  0.57768213273E+01  0.00000000000E+00 0.  1.
</event>
<event>
 7    1  0.3014423E-011  0.5052886E+02  0.7816164E-02  0.1300439E+00
        -11   -1    0    0    0    0  0.00000000000E+00  0.00000000000E+00  0.45593999997E+02  0.45594000000E+02  0.51100000000E-03 0.  1.
         11   -1    0    0    0    0 -0.00000000000E+00 -0.00000000000E+00 -0.45593999997E+02  0.45594000000E+02  0.51100000000E-03 0. -1.
    9900012    2    1    2    0    0 -0.30425540993E+01 -0.13033804888E+02 -0.38393082759E+02  0.50528855775E+02  0.29999987615E+02 0.  0.
        -12    1    1    2    0    0  0.30425540993E+01  0.13033804888E+02  0.38393082759E+02  0.40659144225E+02  0.00000000000E+00 0.  1.
         11    1    3    3    0    0  0.81739868331E+01 -0.20482906234E+00 -0.13761840756E+02  0.16007631834E+02  0.51100000000E-03 0. -1.
        -11    1    3    3    0    0  0.35331173756E+01 -0.52356919795E+01 -0.23431672656E+01  0.67369000282E+01  0.51100000000E-03 0.  1.
         12    1    3    3    0    0 -0.14749658308E+02 -0.75932838460E+01 -0.22288074738E+02  0.27784323913E+02  0.00000000000E+00 0. -1.
</event>
<event>
 7    1  0.3014423E-011  0.5052886E+02  0.7816164E-02  0.1300439E+00
        -11   -1    0    0    0    0  0.00000000000E+00  0.00000000000E+00  0.45593999997E+02  0.45594000000E+02  0.51100000000E-03 0.  1.
         11   -1    0    0    0    0 -0.00000000000E+00 -0.00000000000E+00 -0.45593999997E+02  0.45594000000E+02  0.51100000000E-03 0. -1.
    9900012    2    1    2    0    0 -0.81818072548E+01  0.28899184952E+02 -0.27405492744E+02  0.50528857198E+02  0.29999991940E+02 0.  0.
        -12    1    1    2    0    0  0.81818072548E+01 -0.28899184952E+02  0.27405492744E+02  0.40659142802E+02  0.00000000000E+00 0.  1.
         11    1    3    3    0    0 -0.56068452899E+01 -0.10193704977E+01 -0.10331566549E+02  0.11799029534E+02  0.51100000000E-03 0. -1.
        -11    1    3    3    0    0 -0.97765597839E+01  0.13788813189E+02 -0.10402747062E+02  0.19847660745E+02  0.51100000000E-03 0.  1.
         12    1    3    3    0    0  0.72015978190E+01  0.16129742261E+02 -0.66711791326E+01  0.18882166919E+02  0.00000000000E+00 0. -1.
</event>
<event>
 7    1  0.3014423E-011  0.5052885E+02  0.7816164E-02  0.1300439E+00
        -11   -1    0    0    0    0  0.00000000000E+00  0.00000000000E+00  0.45593999997E+02  0.45594000000E+02  0.51100000000E-03 0.  1.
         11   -1    0    0    0    0 -0.00000000000E+00 -0.00000000000E+00 -0.45593999997E+02  0.45594000000E+02  0.51100000000E-03 0. -1.
    9900012    2    1    2    0    0  0.18439810721E+02 -0.12506743715E+02 -0.34010599852E+02  0.50528853918E+02  0.29999981970E+02 0.  0.
        -12    1    1    2    0    0 -0.18439810721E+02  0.12506743715E+02  0.34010599852E+02  0.40659146082E+02  0.00000000000E+00 0.  1.
         11    1    3    3    0    0 -0.23180245836E+01  0.11559942078E+01 -0.11862547761E+02  0.12142059143E+02  0.51100000000E-03 0. -1.
        -11    1    3    3    0    0  0.79495074230E+01  0.12300609402E+01  0.91084872086E+00  0.80955150446E+01  0.51100000000E-03 0.  1.
        -12    1    3    3    0    0  0.12808327882E+02 -0.14892798863E+02 -0.23058900812E+02  0.30291279731E+02  0.00000000000E+00 0.  1.
</event>
<event>
 7    1  0.3014423E-011  0.5052888E+02  0.7816164E-02  0.1300439E+00
        -11   -1    0    0    0    0  0.00000000000E+00  0.00000000000E+00  0.45593999997E+02  0.45594000000E+02  0.51100000000E-03 0.  1.
         11   -1    0    0    0    0 -0.00000000000E+00 -0.00000000000E+00 -0.45593999997E+02  0.45594000000E+02  0.51100000000E-03 0. -1.
    9900012    2    1    2    0    0 -0.19303219943E+02 -0.35784275179E+02  0.18756397106E+00  0.50528882566E+02  0.30000069049E+02 0.  0.
        -12    1    1    2    0    0  0.19303219943E+02  0.35784275179E+02 -0.18756397106E+00  0.40659117434E+02  0.00000000000E+00 0.  1.
         11    1    3    3    0    0 -0.20958632984E+01 -0.19087130873E+01 -0.44935191605E+01  0.53129599398E+01  0.51100000000E-03 0.  1.
        -11    1    3    3    0    0  0.58363454343E+00 -0.10287811370E+02 -0.80190891553E+01  0.13057008969E+02  0.51100000000E-03 0. -1.
        -12    1    3    3    0    0 -0.17790991188E+02 -0.23587750721E+02  0.12700172287E+02  0.32158913658E+02  0.00000000000E+00 0.  1.
</event>
<event>
 7    1  0.3014423E-011  0.5052887E+02  0.7816164E-02  0.1300439E+00
        -11   -1    0    0    0    0  0.00000000000E+00  0.00000000000E+00  0.45593999997E+02  0.45594000000E+02  0.51100000000E-03 0.  1.
         11   -1    0    0    0    0 -0.00000000000E+00 -0.00000000000E+00 -0.45593999997E+02  0.45594000000E+02  0.51100000000E-03 0. -1.
    9900012    2    1    2    0    0  0.25352001816E+02  0.31724809397E+02 -0.19943887256E+01  0.50528866785E+02  0.30000021081E+02 0.  0.
        -12    1    1    2    0    0 -0.25352001816E+02 -0.31724809397E+02  0.19943887256E+01  0.40659133215E+02  0.00000000000E+00 0.  1.
         11    1    3    3    0    0  0.79717240365E+01  0.17132281552E+02  0.95009687542E+01  0.21150221342E+02  0.51100000000E-03 0. -1.
        -11    1    3    3    0    0  0.87907188768E+01  0.71999385617E+01  0.22296267514E+01  0.11579597980E+02  0.51100000000E-03 0.  1.
         12    1    3    3    0    0  0.85895589025E+01  0.73925892832E+01 -0.13724984231E+02  0.17799047463E+02  0.00000000000E+00 0. -1.
</event>
<event>
 7    1  0.3331573E-011  0.5052884E+02  0.7816164E-02  0.1300439E+00
        -11   -1    0    0    0    0  0.00000000000E+00  0.00000000000E+00  0.45593999997E+02  0.45594000000E+02  0.51100000000E-03 0.  1.
         11   -1    0    0    0    0 -0.00000000000E+00 -0.00000000000E+00 -0.45593999997E+02  0.45594000000E+02  0.51100000000E-03 0. -1.
    9900012    2    1    2    0    0 -0.23921748839E+02  0.99338558887E+00 -0.32862292339E+02  0.50528841866E+02  0.29999945335E+02 0.  0.
        -12    1    1    2    0    0  0.23921748839E+02 -0.99338558887E+00  0.32862292339E+02  0.40659158134E+02  0.00000000000E+00 0.  1.
         11    1    3    3    0    0 -0.16937815818E+02 -0.59636203790E+01 -0.13790035798E+02  0.22641101128E+02  0.51100000000E-03 0. -1.
        -11    1    3    3    0    0 -0.69413785554E+00 -0.22979444596E+01  0.25743594470E+01  0.35199009823E+01  0.51100000000E-03 0.  1.
         12    1    3    3    0    0 -0.62897951648E+01  0.92549504274E+01 -0.21646615987E+02  0.24367839755E+02  0.00000000000E+00 0. -1.
</event>
<event>
 7    1  0.3014423E-011  0.5052885E+02  0.7816164E-02  0.1300439E+00
        -11   -1    0    0    0    0  0.00000000000E+00  0.00000000000E+00  0.45593999997E+02  0.45594000000E+02  0.51100000000E-03 0.  1.
         11   -1    0    0    0    0 -0.00000000000E+00 -0.00000000000E+00 -0.45593999997E+02  0.45594000000E+02  0.51100000000E-03 0. -1.
    9900012    2    1    2    0    0 -0.21234302037E+02  0.23076332938E+00 -0.34673010105E+02  0.50528850175E+02  0.29999970593E+02 0.  0.
        -12    1    1    2    0    0  0.21234302037E+02 -0.23076332938E+00  0.34673010105E+02  0.40659149825E+02  0.00000000000E+00 0.  1.
         11    1    3    3    0    0 -0.12652185234E+02  0.20061010952E+01 -0.40322440867E+01  0.13429863195E+02  0.51100000000E-03 0. -1.
        -11    1    3    3    0    0  0.18674957797E+01  0.70147657817E+01 -0.10401816677E+02  0.12684331670E+02  0.51100000000E-03 0.  1.
        -12    1    3    3    0    0 -0.10449612583E+02 -0.87901035476E+01 -0.20238949341E+02  0.24414655311E+02  0.00000000000E+00 0.  1.
</event>
<event>
 7    1  0.3014423E-011  0.5052886E+02  0.7816164E-02  0.1300439E+00
        -11   -1    0    0    0    0  0.00000000000E+00  0.00000000000E+00  0.45593999997E+02  0.45594000000E+02  0.51100000000E-03 0.  1.
         11   -1    0    0    0    0 -0.00000000000E+00 -0.00000000000E+00 -0.45593999997E+02  0.45594000000E+02  0.51100000000E-03 0. -1.
    9900012    2    1    2    0    0  0.13630513186E+02  0.29745885545E+02 -0.24136221668E+02  0.50528858433E+02  0.29999995693E+02 0.  0.
        -12    1    1    2    0    0 -0.13630513186E+02 -0.29745885545E+02  0.24136221668E+02  0.40659141567E+02  0.00000000000E+00 0.  1.
         11    1    3    3    0    0 -0.24647411105E+01  0.18573643934E+01  0.52255803294E+00  0.31301467043E+01  0.51100000000E-03 0. -1.
        -11    1    3    3    0    0 -0.84237097248E+00  0.61644712808E+00  0.41407384945E+01  0.42702823628E+01  0.51100000000E-03 0.  1.
         12    1    3    3    0    0  0.16937625269E+02  0.27272074023E+02 -0.28799518196E+02  0.43128429366E+02  0.00000000000E+00 0. -1.
</event>
<event>
 7    1  0.3014423E-011  0.5052885E+02  0.7816164E-02  0.1300439E+00
        -11   -1    0    0    0    0  0.00000000000E+00  0.00000000000E+00  0.45593999997E+02  0.45594000000E+02  0.51100000000E-03 0.  1.
         11   -1    0    0    0    0 -0.00000000000E+00 -0.00000000000E+00 -0.45593999997E+02  0.45594000000E+02  0.51100000000E-03 0. -1.
    9900012    2    1    2    0    0 -0.11101523336E+02  0.36078316401E+02 -0.15108859549E+02  0.50528851317E+02  0.29999974063E+02 0.  0.
        -12    1    1    2    0    0  0.11101523336E+02 -0.36078316401E+02  0.15108859549E+02  0.40659148683E+02  0.00000000000E+00 0.  1.
         11    1    3    3    0    0 -0.43101300663E+01  0.86754623652E+01 -0.60756597701E+01  0.11434793848E+02  0.51100000000E-03 0. -1.
        -11    1    3    3    0    0 -0.12443413654E+02  0.26989481084E+02 -0.16215615017E+01  0.29764073890E+02  0.51100000000E-03 0.  1.
        -12    1    3    3    0    0  0.56520203843E+01  0.41337295176E+00 -0.74116382777E+01  0.93299835788E+01  0.00000000000E+00 0.  1.
</event>
<event>
 7    1  0.3014423E-011  0.5052886E+02  0.7816164E-02  0.1300439E+00
        -11   -1    0    0    0    0  0.00000000000E+00  0.00000000000E+00  0.45593999997E+02  0.45594000000E+02  0.51100000000E-03 0.  1.
         11   -1    0    0    0    0 -0.00000000000E+00 -0.00000000000E+00 -0.45593999997E+02  0.45594000000E+02  0.51100000000E-03 0. -1.
    9900012    2    1    2    0    0 -0.35674388716E+02 -0.16354666544E+02 -0.10631499694E+02  0.50528856947E+02  0.29999991177E+02 0.  0.
        -12    1    1    2    0    0  0.35674388716E+02  0.16354666544E+02  0.10631499694E+02  0.40659143053E+02  0.00000000000E+00 0.  1.
         11    1    3    3    0    0 -0.10865209342E+02 -0.13449030974E+02 -0.10812112990E+01  0.17323343393E+02  0.51100000000E-03 0. -1.
        -11    1    3    3    0    0 -0.19978632074E+02 -0.10653137101E+02 -0.74651674038E+01  0.23840381588E+02  0.51100000000E-03 0.  1.
        -12    1    3    3    0    0 -0.48305473004E+01  0.77475015308E+01 -0.20851209917E+01  0.93651319660E+01  0.00000000000E+00 0.  1.
</event>
<event>
 7    1  0.3014423E-011  0.5052885E+02  0.7816164E-02  0.1300439E+00
        -11   -1    0    0    0    0  0.00000000000E+00  0.00000000000E+00  0.45593999997E+02  0.45594000000E+02  0.51100000000E-03 0. -1.
         11   -1    0    0    0    0 -0.00000000000E+00 -0.00000000000E+00 -0.45593999997E+02  0.45594000000E+02  0.51100000000E-03 0.  1.
    9900012    2    1    2    0    0 -0.16033855936E+02 -0.80805694953E+01  0.36479945153E+02  0.50528849272E+02  0.29999967849E+02 0.  0.
        -12    1    1    2    0    0  0.16033855936E+02  0.80805694953E+01 -0.36479945153E+02  0.40659150728E+02  0.00000000000E+00 0.  1.
         11    1    3    3    0    0 -0.50024525219E-01 -0.77529066491E+01  0.28299976984E+01  0.82534205755E+01  0.51100000000E-03 0. -1.
        -11    1    3    3    0    0 -0.97694849391E+01 -0.81176953733E+01  0.86635858150E+01  0.15375224668E+02  0.51100000000E-03 0.  1.
         12    1    3    3    0    0 -0.62143464718E+01  0.77900325271E+01  0.24986361639E+02  0.26900204029E+02  0.00000000000E+00 0. -1.
</event>
<event>
 7    1  0.3014423E-011  0.5052887E+02  0.7816164E-02  0.1300439E+00
        -11   -1    0    0    0    0  0.00000000000E+00  0.00000000000E+00  0.45593999997E+02  0.45594000000E+02  0.51100000000E-03 0.  1.
         11   -1    0    0    0    0 -0.00000000000E+00 -0.00000000000E+00 -0.45593999997E+02  0.45594000000E+02  0.51100000000E-03 0. -1.
    9900012    2    1    2    0    0  0.86228323247E+01  0.19822870023E+01 -0.39684789934E+02  0.50528865096E+02  0.30000015946E+02 0.  0.
        -12    1    1    2    0    0 -0.86228323247E+01 -0.19822870023E+01  0.39684789934E+02  0.40659134904E+02  0.00000000000E+00 0.  1.
         11    1    3    3    0    0  0.88506683278E+01  0.53724150671E+00 -0.34963404912E+02  0.36070245932E+02  0.51100000000E-03 0. -1.
        -11    1    3    3    0    0 -0.79885959757E+00  0.18294926621E+01 -0.94609773332E+01  0.96692974108E+01  0.51100000000E-03 0.  1.
        -12    1    3    3    0    0  0.57102359445E+00 -0.38444716649E+00  0.47395923119E+01  0.47893217528E+01  0.00000000000E+00 0.  1.
</event>
<event>
 7    1  0.3014423E-011  0.5052885E+02  0.7816164E-02  0.1300439E+00
        -11   -1    0    0    0    0  0.00000000000E+00  0.00000000000E+00  0.45593999997E+02  0.45594000000E+02  0.51100000000E-03 0. -1.
         11   -1    0    0    0    0 -0.00000000000E+00 -0.00000000000E+00 -0.45593999997E+02  0.45594000000E+02  0.51100000000E-03 0.  1.
    9900012    2    1    2    0    0  0.38079280857E+02 -0.10709088596E+02  0.94047977665E+01  0.50528850598E+02  0.29999971876E+02 0.  0.
        -12    1    1    2    0    0 -0.38079280857E+02  0.10709088596E+02 -0.94047977665E+01  0.40659149402E+02  0.00000000000E+00 0.  1.
         11    1    3    3    0    0  0.73213502401E+01  0.47165835201E+00 -0.98070666159E+00  0.74017847007E+01  0.51100000000E-03 0. -1.
        -11    1    3    3    0    0  0.17836789160E+02  0.72886114336E+01  0.37480251404E+01  0.19629635679E+02  0.51100000000E-03 0.  1.
        -12    1    3    3    0    0  0.12921141456E+02 -0.18469358381E+02  0.66374792876E+01  0.23497430218E+02  0.00000000000E+00 0.  1.
</event>
<event>
 7    1  0.3014423E-011  0.5052885E+02  0.7816164E-02  0.1300439E+00
        -11   -1    0    0    0    0  0.00000000000E+00  0.00000000000E+00  0.45593999997E+02  0.45594000000E+02  0.51100000000E-03 0. -1.
         11   -1    0    0    0    0 -0.00000000000E+00 -0.00000000000E+00 -0.45593999997E+02  0.45594000000E+02  0.51100000000E-03 0.  1.
    9900012    2    1    2    0    0 -0.25385624060E+02  0.26592728019E+02 -0.17365587957E+02  0.50528846818E+02  0.29999960388E+02 0.  0.
        -12    1    1    2    0    0  0.25385624060E+02 -0.26592728019E+02  0.17365587957E+02  0.40659153182E+02  0.00000000000E+00 0.  1.
         11    1    3    3    0    0 -0.14493502625E+02  0.58310646442E+01  0.37392297532E+00  0.15626987933E+02  0.51100000000E-03 0. -1.
        -11    1    3    3    0    0 -0.95181075750E+01  0.83071780914E+01  0.64904504778E+00  0.12650092466E+02  0.51100000000E-03 0.  1.
        -12    1    3    3    0    0 -0.13740138601E+01  0.12454485283E+02 -0.18388555980E+02  0.22251766419E+02  0.00000000000E+00 0.  1.
</event>
<event>
 7    1  0.3014423E-011  0.5052890E+02  0.7816164E-02  0.1300439E+00
        -11   -1    0    0    0    0  0.00000000000E+00  0.00000000000E+00  0.45593999997E+02  0.45594000000E+02  0.51100000000E-03 0.  1.
         11   -1    0    0    0    0 -0.00000000000E+00 -0.00000000000E+00 -0.45593999997E+02  0.45594000000E+02  0.51100000000E-03 0. -1.
    9900012    2    1    2    0    0  0.36017859048E+02  0.16497590949E+02  0.91490674941E+01  0.50528903680E+02  0.30000133226E+02 0.  0.
        -12    1    1    2    0    0 -0.36017859048E+02 -0.16497590949E+02 -0.91490674941E+01  0.40659096320E+02  0.00000000000E+00 0.  1.
         11    1    3    3    0    0  0.27140762362E+01 -0.51251700162E+01  0.91254840245E+00  0.58708025311E+01  0.51100000000E-03 0. -1.
        -11    1    3    3    0    0  0.16997614862E+02  0.10621047736E+01 -0.38862028222E+00  0.17035198958E+02  0.51100000000E-03 0.  1.
         12    1    3    3    0    0  0.16306167950E+02  0.20560656192E+02  0.86251393738E+01  0.27622902191E+02  0.00000000000E+00 0. -1.
</event>
<event>
 7    1  0.3014423E-011  0.5052886E+02  0.7816164E-02  0.1300439E+00
        -11   -1    0    0    0    0  0.00000000000E+00  0.00000000000E+00  0.45593999997E+02  0.45594000000E+02  0.51100000000E-03 0.  1.
         11   -1    0    0    0    0 -0.00000000000E+00 -0.00000000000E+00 -0.45593999997E+02  0.45594000000E+02  0.51100000000E-03 0. -1.
    9900012    2    1    2    0    0  0.97073377937E+01 -0.72464182742E+01 -0.38812657770E+02  0.50528863412E+02  0.30000010828E+02 0.  0.
        -12    1    1    2    0    0 -0.97073377937E+01  0.72464182742E+01  0.38812657770E+02  0.40659136588E+02  0.00000000000E+00 0.  1.
         11    1    3    3    0    0  0.34059060730E+01  0.67519140275E+01 -0.11361567154E+02  0.13648214084E+02  0.51100000000E-03 0. -1.
        -11    1    3    3    0    0 -0.46595022512E+01  0.14931865434E+01 -0.98470681515E+01  0.10995695463E+02  0.51100000000E-03 0.  1.
        -12    1    3    3    0    0  0.10960933972E+02 -0.15491518845E+02 -0.17604022465E+02  0.25884953865E+02  0.00000000000E+00 0.  1.
</event>
<event>
 7    1  0.3014423E-011  0.5052886E+02  0.7816164E-02  0.1300439E+00
        -11   -1    0    0    0    0  0.00000000000E+00  0.00000000000E+00  0.45593999997E+02  0.45594000000E+02  0.51100000000E-03 0.  1.
         11   -1    0    0    0    0 -0.00000000000E+00 -0.00000000000E+00 -0.45593999997E+02  0.45594000000E+02  0.51100000000E-03 0. -1.
    9900012    2    1    2    0    0 -0.35944978411E+02  0.10482576064E+02 -0.15850539226E+02  0.50528862433E+02  0.30000007852E+02 0.  0.
        -12    1    1    2    0    0  0.35944978411E+02 -0.10482576064E+02  0.15850539226E+02  0.40659137567E+02  0.00000000000E+00 0.  1.
         11    1    3    3    0    0 -0.48055504000E+01  0.83630530362E+00  0.29219529054E+00  0.48865222353E+01  0.51100000000E-03 0. -1.
        -11    1    3    3    0    0 -0.26197987849E+01  0.12794709714E+02 -0.75080700812E+00  0.13081729770E+02  0.51100000000E-03 0.  1.
         12    1    3    3    0    0 -0.28519629226E+02 -0.31484389535E+01 -0.15391927509E+02  0.32560610428E+02  0.00000000000E+00 0. -1.
</event>
<event>
 7    1  0.3014423E-011  0.5052886E+02  0.7816164E-02  0.1300439E+00
        -11   -1    0    0    0    0  0.00000000000E+00  0.00000000000E+00  0.45593999997E+02  0.45594000000E+02  0.51100000000E-03 0. -1.
         11   -1    0    0    0    0 -0.00000000000E+00 -0.00000000000E+00 -0.45593999997E+02  0.45594000000E+02  0.51100000000E-03 0.  1.
    9900012    2    1    2    0    0 -0.36797531731E+02 -0.25080738572E+01  0.17111902161E+02  0.50528856237E+02  0.29999989017E+02 0.  0.
        -12    1    1    2    0    0  0.36797531731E+02  0.25080738572E+01 -0.17111902161E+02  0.40659143763E+02  0.00000000000E+00 0.  1.
         11    1    3    3    0    0 -0.18704963744E+02  0.28206396704E+01  0.14516230112E+02  0.23844341336E+02  0.51100000000E-03 0. -1.
        -11    1    3    3    0    0 -0.33672978801E+01  0.79724511405E+00  0.88891969923E+01  0.95389788874E+01  0.51100000000E-03 0.  1.
        -12    1    3    3    0    0 -0.14725270107E+02 -0.61259586416E+01 -0.62935249424E+01  0.17145536014E+02  0.00000000000E+00 0.  1.
</event>
<event>
 7    1  0.3014423E-011  0.5052886E+02  0.7816164E-02  0.1300439E+00
        -11   -1    0    0    0    0  0.00000000000E+00  0.00000000000E+00  0.45593999997E+02  0.45594000000E+02  0.51100000000E-03 0.  1.
         11   -1    0    0    0    0 -0.00000000000E+00 -0.00000000000E+00 -0.45593999997E+02  0.45594000000E+02  0.51100000000E-03 0. -1.
    9900012    2    1    2    0    0 -0.18130183321E+02 -0.14971283216E+02 -0.33171111205E+02  0.50528862196E+02  0.30000007131E+02 0.  0.
        -12    1    1    2    0    0  0.18130183321E+02  0.14971283216E+02  0.33171111205E+02  0.40659137804E+02  0.00000000000E+00 0.  1.
         11    1    3    3    0    0  0.19780885354E+01 -0.60844553575E+01 -0.55638450369E+01  0.84787854736E+01  0.51100000000E-03 0. -1.
        -11    1    3    3    0    0 -0.56365840522E+01 -0.81459917036E+01  0.10259543737E+01  0.99589579400E+01  0.51100000000E-03 0.  1.
        -12    1    3    3    0    0 -0.14471687804E+02 -0.74083615519E+00 -0.28633220542E+02  0.32091118782E+02  0.00000000000E+00 0.  1.
</event>
<event>
 7    1  0.3014423E-011  0.5052886E+02  0.7816164E-02  0.1300439E+00
        -11   -1    0    0    0    0  0.00000000000E+00  0.00000000000E+00  0.45593999997E+02  0.45594000000E+02  0.51100000000E-03 0.  1.
         11   -1    0    0    0    0 -0.00000000000E+00 -0.00000000000E+00 -0.45593999997E+02  0.45594000000E+02  0.51100000000E-03 0. -1.
    9900012    2    1    2    0    0 -0.20260578465E+02 -0.20898004378E+02 -0.28389225539E+02  0.50528858919E+02  0.29999997172E+02 0.  0.
        -12    1    1    2    0    0  0.20260578465E+02  0.20898004378E+02  0.28389225539E+02  0.40659141081E+02  0.00000000000E+00 0.  1.
         11    1    3    3    0    0 -0.46244339574E-01 -0.85227841190E+01 -0.31322094827E+01  0.90802381127E+01  0.51100000000E-03 0. -1.
        -11    1    3    3    0    0 -0.17095653216E+01 -0.76402539559E+01  0.20788891928E+01  0.81004860741E+01  0.51100000000E-03 0.  1.
        -12    1    3    3    0    0 -0.18504768804E+02 -0.47349663029E+01 -0.27335905249E+02  0.33348134733E+02  0.00000000000E+00 0.  1.
</event>
<event>
 7    1  0.3014423E-011  0.5052885E+02  0.7816164E-02  0.1300439E+00
        -11   -1    0    0    0    0  0.00000000000E+00  0.00000000000E+00  0.45593999997E+02  0.45594000000E+02  0.51100000000E-03 0.  1.
         11   -1    0    0    0    0 -0.00000000000E+00 -0.00000000000E+00 -0.45593999997E+02  0.45594000000E+02  0.51100000000E-03 0. -1.
    9900012    2    1    2    0    0 -0.68566638295E+01  0.16748803340E+02 -0.36409201942E+02  0.50528852957E+02  0.29999979047E+02 0.  0.
        -12    1    1    2    0    0  0.68566638295E+01 -0.16748803340E+02  0.36409201942E+02  0.40659147043E+02  0.00000000000E+00 0.  1.
         11    1    3    3    0    0 -0.88931526665E+01 -0.29805088482E+01 -0.10854947117E+02  0.14345782465E+02  0.51100000000E-03 0. -1.
        -11    1    3    3    0    0 -0.54863618464E+01  0.41434414126E+01 -0.24133557538E+01  0.72864641154E+01  0.51100000000E-03 0.  1.
        -12    1    3    3    0    0  0.75228506834E+01  0.15585870776E+02 -0.23140899071E+02  0.28896606376E+02  0.00000000000E+00 0.  1.
</event>
<event>
 7    1  0.3014423E-011  0.5052887E+02  0.7816164E-02  0.1300439E+00
        -11   -1    0    0    0    0  0.00000000000E+00  0.00000000000E+00  0.45593999997E+02  0.45594000000E+02  0.51100000000E-03 0. -1.
         11   -1    0    0    0    0 -0.00000000000E+00 -0.00000000000E+00 -0.45593999997E+02  0.45594000000E+02  0.51100000000E-03 0.  1.
    9900012    2    1    2    0    0 -0.27630725518E+02  0.22381746568E+02  0.19717136343E+02  0.50528867722E+02  0.30000023926E+02 0.  0.
        -12    1    1    2    0    0  0.27630725518E+02 -0.22381746568E+02 -0.19717136343E+02  0.40659132278E+02  0.00000000000E+00 0.  1.
         11    1    3    3    0    0 -0.15882457422E+02  0.20073078050E+02  0.13814899715E+02  0.29086635600E+02  0.51100000000E-03 0. -1.
        -11    1    3    3    0    0 -0.58356125424E+01  0.27484750121E+01 -0.55738596427E+01  0.85250454670E+01  0.51100000000E-03 0.  1.
         12    1    3    3    0    0 -0.59126555540E+01 -0.43980649398E+00  0.11476096271E+02  0.12917186654E+02  0.00000000000E+00 0. -1.
</event>
<event>
 7    1  0.3014423E-011  0.5052886E+02  0.7816164E-02  0.1300439E+00
        -11   -1    0    0    0    0  0.00000000000E+00  0.00000000000E+00  0.45593999997E+02  0.45594000000E+02  0.51100000000E-03 0.  1.
         11   -1    0    0    0    0 -0.00000000000E+00 -0.00000000000E+00 -0.45593999997E+02  0.45594000000E+02  0.51100000000E-03 0. -1.
    9900012    2    1    2    0    0 -0.34654830244E+02 -0.97067236836E+01 -0.18920569587E+02  0.50528859608E+02  0.29999999265E+02 0.  0.
        -12    1    1    2    0    0  0.34654830244E+02  0.97067236836E+01  0.18920569587E+02  0.40659140392E+02  0.00000000000E+00 0.  1.
         11    1    3    3    0    0 -0.97194756709E+01  0.24902957974E+01 -0.92635041955E+01  0.13655851885E+02  0.51100000000E-03 0. -1.
        -11    1    3    3    0    0 -0.13743156175E+02  0.38196251768E+01 -0.98462883568E+01  0.17332434128E+02  0.51100000000E-03 0.  1.
        -12    1    3    3    0    0 -0.11192198399E+02 -0.16016644658E+02  0.18922296573E+00  0.19540573595E+02  0.00000000000E+00 0.  1.
</event>
<event>
 7    1  0.3014423E-011  0.5052886E+02  0.7816164E-02  0.1300439E+00
        -11   -1    0    0    0    0  0.00000000000E+00  0.00000000000E+00  0.45593999997E+02  0.45594000000E+02  0.51100000000E-03 0. -1.
         11   -1    0    0    0    0 -0.00000000000E+00 -0.00000000000E+00 -0.45593999997E+02  0.45594000000E+02  0.51100000000E-03 0.  1.
    9900012    2    1    2    0    0 -0.94498099389E+01  0.34946026551E+02 -0.18510589456E+02  0.50528860786E+02  0.30000002846E+02 0.  0.
        -12    1    1    2    0    0  0.94498099389E+01 -0.34946026551E+02  0.18510589456E+02  0.40659139214E+02  0.00000000000E+00 0.  1.
         11    1    3    3    0    0 -0.63468154644E+01  0.72666474546E+01  0.34866736760E+01  0.10258807209E+02  0.51100000000E-03 0. -1.
        -11    1    3    3    0    0  0.72955241192E+01  0.62438237384E+01 -0.39572538907E+01  0.10386041867E+02  0.51100000000E-03 0.  1.
         12    1    3    3    0    0 -0.10398518594E+02  0.21435555358E+02 -0.18040009242E+02  0.29884011710E+02  0.00000000000E+00 0. -1.
</event>
<event>
 7    1  0.3014423E-011  0.5052886E+02  0.7816164E-02  0.1300439E+00
        -11   -1    0    0    0    0  0.00000000000E+00  0.00000000000E+00  0.45593999997E+02  0.45594000000E+02  0.51100000000E-03 0.  1.
         11   -1    0    0    0    0 -0.00000000000E+00 -0.00000000000E+00 -0.45593999997E+02  0.45594000000E+02  0.51100000000E-03 0. -1.
    9900012    2    1    2    0    0  0.86463206765E+01  0.33821678731E+01 -0.39584941671E+02  0.50528861693E+02  0.30000005602E+02 0.  0.
        -12    1    1    2    0    0 -0.86463206765E+01 -0.33821678731E+01  0.39584941671E+02  0.40659138307E+02  0.00000000000E+00 0.  1.
         11    1    3    3    0    0  0.24159262404E+01  0.71367891998E+01 -0.18640323185E+02  0.20105524325E+02  0.51100000000E-03 0. -1.
        -11    1    3    3    0    0 -0.30319837312E+01  0.38695465877E+00 -0.20001221402E+02  0.20233425738E+02  0.51100000000E-03 0.  1.
        -12    1    3    3    0    0  0.92623781673E+01 -0.41415759856E+01 -0.94339708368E+00  0.10189911629E+02  0.00000000000E+00 0.  1.
</event>
<event>
 7    1  0.3014423E-011  0.5052885E+02  0.7816164E-02  0.1300439E+00
        -11   -1    0    0    0    0  0.00000000000E+00  0.00000000000E+00  0.45593999997E+02  0.45594000000E+02  0.51100000000E-03 0.  1.
         11   -1    0    0    0    0 -0.00000000000E+00 -0.00000000000E+00 -0.45593999997E+02  0.45594000000E+02  0.51100000000E-03 0. -1.
    9900012    2    1    2    0    0 -0.32337985439E+02  0.12280841875E+02  0.21368256566E+02  0.50528846442E+02  0.29999959245E+02 0.  0.
        -12    1    1    2    0    0  0.32337985439E+02 -0.12280841875E+02 -0.21368256566E+02  0.40659153558E+02  0.00000000000E+00 0.  1.
         11    1    3    3    0    0 -0.35652457828E+02  0.33963300188E+01  0.19001487754E+02  0.40542438801E+02  0.51100000000E-03 0. -1.
        -11    1    3    3    0    0 -0.13108276704E+00  0.14254718589E+01 -0.15684003916E-01  0.14315721992E+01  0.51100000000E-03 0.  1.
         12    1    3    3    0    0  0.34455551567E+01  0.74590399969E+01  0.23824528160E+01  0.85548354417E+01  0.00000000000E+00 0. -1.
</event>
<event>
 7    1  0.3014423E-011  0.5052888E+02  0.7816164E-02  0.1300439E+00
        -11   -1    0    0    0    0  0.00000000000E+00  0.00000000000E+00  0.45593999997E+02  0.45594000000E+02  0.51100000000E-03 0. -1.
         11   -1    0    0    0    0 -0.00000000000E+00 -0.00000000000E+00 -0.45593999997E+02  0.45594000000E+02  0.51100000000E-03 0.  1.
    9900012    2    1    2    0    0 -0.21482889412E+02  0.32396348277E+01  0.34367928116E+02  0.50528877355E+02  0.30000053208E+02 0.  0.
        -12    1    1    2    0    0  0.21482889412E+02 -0.32396348277E+01 -0.34367928116E+02  0.40659122645E+02  0.00000000000E+00 0.  1.
         11    1    3    3    0    0 -0.62604925059E+01 -0.96184026393E+01  0.11442386613E+02  0.16206037376E+02  0.51100000000E-03 0. -1.
        -11    1    3    3    0    0 -0.20872918255E+01 -0.27396294168E+01 -0.25016465653E+00  0.34532505155E+01  0.51100000000E-03 0.  1.
         12    1    3    3    0    0 -0.13135105080E+02  0.15597666884E+02  0.23175706159E+02  0.30869589464E+02  0.00000000000E+00 0. -1.
</event>
<event>
 7    1  0.3014423E-011  0.5052886E+02  0.7816164E-02  0.1300439E+00
        -11   -1    0    0    0    0  0.00000000000E+00  0.00000000000E+00  0.45593999997E+02  0.45594000000E+02  0.51100000000E-03 0.  1.
         11   -1    0    0    0    0 -0.00000000000E+00 -0.00000000000E+00 -0.45593999997E+02  0.45594000000E+02  0.51100000000E-03 0. -1.
    9900012    2    1    2    0    0  0.90834292258E+00  0.44367506668E+01 -0.40406136357E+02  0.50528859593E+02  0.29999999218E+02 0.  0.
        -12    1    1    2    0    0 -0.90834292258E+00 -0.44367506668E+01  0.40406136357E+02  0.40659140407E+02  0.00000000000E+00 0.  1.
         11    1    3    3    0    0  0.26633214935E+01  0.10914490162E+02 -0.22914838058E+02  0.25520759792E+02  0.51100000000E-03 0. -1.
        -11    1    3    3    0    0 -0.19488492171E+01  0.55303113114E+01 -0.56874359706E+01  0.81687994621E+01  0.51100000000E-03 0.  1.
         12    1    3    3    0    0  0.19387064616E+00 -0.12008050807E+02 -0.11803862328E+02  0.16839300338E+02  0.00000000000E+00 0. -1.
</event>
<event>
 7    1  0.3014423E-011  0.5052886E+02  0.7816164E-02  0.1300439E+00
        -11   -1    0    0    0    0  0.00000000000E+00  0.00000000000E+00  0.45593999997E+02  0.45594000000E+02  0.51100000000E-03 0. -1.
         11   -1    0    0    0    0 -0.00000000000E+00 -0.00000000000E+00 -0.45593999997E+02  0.45594000000E+02  0.51100000000E-03 0.  1.
    9900012    2    1    2    0    0  0.19143162597E+02 -0.19989545312E+02  0.29784615333E+02  0.50528857036E+02  0.29999991447E+02 0.  0.
        -12    1    1    2    0    0 -0.19143162597E+02  0.19989545312E+02 -0.29784615333E+02  0.40659142964E+02  0.00000000000E+00 0.  1.
         11    1    3    3    0    0  0.20759902073E+01 -0.73625683654E+01  0.14368495188E+02  0.16277923777E+02  0.51100000000E-03 0. -1.
        -11    1    3    3    0    0  0.12665606078E+02 -0.16378125238E+02  0.18439639625E+02  0.27725094651E+02  0.51100000000E-03 0.  1.
        -12    1    3    3    0    0  0.44015663117E+01  0.37511482914E+01 -0.30235194791E+01  0.65258386083E+01  0.00000000000E+00 0.  1.
</event>
<event>
 7    1  0.3014423E-011  0.5052887E+02  0.7816164E-02  0.1300439E+00
        -11   -1    0    0    0    0  0.00000000000E+00  0.00000000000E+00  0.45593999997E+02  0.45594000000E+02  0.51100000000E-03 0. -1.
         11   -1    0    0    0    0 -0.00000000000E+00 -0.00000000000E+00 -0.45593999997E+02  0.45594000000E+02  0.51100000000E-03 0.  1.
    9900012    2    1    2    0    0  0.27571043211E+01  0.34082023350E+02  0.21999522718E+02  0.50528868926E+02  0.30000027587E+02 0.  0.
        -12    1    1    2    0    0 -0.27571043211E+01 -0.34082023350E+02 -0.21999522718E+02  0.40659131074E+02  0.00000000000E+00 0.  1.
         11    1    3    3    0    0 -0.57767913152E+01  0.84465605296E+01  0.26406165921E+01  0.10568280793E+02  0.51100000000E-03 0.  1.
        -11    1    3    3    0    0  0.72401929296E+01  0.18283568361E+02  0.24109476752E+02  0.31112314848E+02  0.51100000000E-03 0. -1.
         12    1    3    3    0    0  0.12937027068E+01  0.73518944596E+01 -0.47505706263E+01  0.88482732843E+01  0.00000000000E+00 0. -1.
</event>
<event>
 7    1  0.3014423E-011  0.5052891E+02  0.7816164E-02  0.1300439E+00
        -11   -1    0    0    0    0  0.00000000000E+00  0.00000000000E+00  0.45593999997E+02  0.45594000000E+02  0.51100000000E-03 0.  1.
         11   -1    0    0    0    0 -0.00000000000E+00 -0.00000000000E+00 -0.45593999997E+02  0.45594000000E+02  0.51100000000E-03 0. -1.
    9900012    2    1    2    0    0 -0.15296484673E+02 -0.33485047111E+02 -0.17260661043E+02  0.50528914385E+02  0.30000165765E+02 0.  0.
        -12    1    1    2    0    0  0.15296484673E+02  0.33485047111E+02  0.17260661043E+02  0.40659085615E+02  0.00000000000E+00 0.  1.
         11    1    3    3    0    0  0.33012683628E+00 -0.80443604858E+01 -0.67483080542E+00  0.80793636031E+01  0.51100000000E-03 0. -1.
        -11    1    3    3    0    0 -0.83750443310E+01  0.36125131372E+01 -0.34726582365E+01  0.97596605576E+01  0.51100000000E-03 0.  1.
        -12    1    3    3    0    0 -0.72515671782E+01 -0.29053199763E+02 -0.13113172001E+02  0.32689890225E+02  0.00000000000E+00 0.  1.
</event>
<event>
 7    1  0.3014423E-011  0.5052884E+02  0.7816164E-02  0.1300439E+00
        -11   -1    0    0    0    0  0.00000000000E+00  0.00000000000E+00  0.45593999997E+02  0.45594000000E+02  0.51100000000E-03 0.  1.
         11   -1    0    0    0    0 -0.00000000000E+00 -0.00000000000E+00 -0.45593999997E+02  0.45594000000E+02  0.51100000000E-03 0. -1.
    9900012    2    1    2    0    0 -0.65907219616E+01 -0.40037723926E+02 -0.25904633423E+01  0.50528838013E+02  0.29999933624E+02 0.  0.
        -12    1    1    2    0    0  0.65907219616E+01  0.40037723926E+02  0.25904633423E+01  0.40659161987E+02  0.00000000000E+00 0.  1.
         11    1    3    3    0    0 -0.36447987915E+01 -0.14826232126E+01  0.20963018363E+01  0.44583866444E+01  0.51100000000E-03 0.  1.
        -11    1    3    3    0    0 -0.57961904048E+01 -0.79919155279E+00 -0.57344939861E+01  0.81926156925E+01  0.51100000000E-03 0. -1.
         12    1    3    3    0    0  0.28502672347E+01 -0.37755909161E+02  0.10477288076E+01  0.37877835676E+02  0.00000000000E+00 0. -1.
</event>
<event>
 7    1  0.3014423E-011  0.5052885E+02  0.7816164E-02  0.1300439E+00
        -11   -1    0    0    0    0  0.00000000000E+00  0.00000000000E+00  0.45593999997E+02  0.45594000000E+02  0.51100000000E-03 0.  1.
         11   -1    0    0    0    0 -0.00000000000E+00 -0.00000000000E+00 -0.45593999997E+02  0.45594000000E+02  0.51100000000E-03 0. -1.
    9900012    2    1    2    0    0 -0.26146758131E+02 -0.30851101148E+02  0.42099076565E+01  0.50528846968E+02  0.29999960844E+02 0.  0.
        -12    1    1    2    0    0  0.26146758131E+02  0.30851101148E+02 -0.42099076565E+01  0.40659153032E+02  0.00000000000E+00 0.  1.
         11    1    3    3    0    0  0.18583646792E+01 -0.36071266555E+01 -0.16708607961E+01  0.43882408834E+01  0.51100000000E-03 0. -1.
        -11    1    3    3    0    0 -0.26218449501E+02 -0.94395591194E+01  0.32652376793E+01  0.28056623959E+02  0.51100000000E-03 0.  1.
         12    1    3    3    0    0 -0.17866733089E+01 -0.17804415373E+02  0.26155307734E+01  0.18083982125E+02  0.00000000000E+00 0. -1.
</event>
<event>
 7    1  0.3014423E-011  0.5052885E+02  0.7816164E-02  0.1300439E+00
        -11   -1    0    0    0    0  0.00000000000E+00  0.00000000000E+00  0.45593999997E+02  0.45594000000E+02  0.51100000000E-03 0. -1.
         11   -1    0    0    0    0 -0.00000000000E+00 -0.00000000000E+00 -0.45593999997E+02  0.45594000000E+02  0.51100000000E-03 0.  1.
    9900012    2    1    2    0    0 -0.17353754505E+02 -0.61900548651E+01  0.36244958960E+02  0.50528848205E+02  0.29999964605E+02 0.  0.
        -12    1    1    2    0    0  0.17353754505E+02  0.61900548651E+01 -0.36244958960E+02  0.40659151795E+02  0.00000000000E+00 0.  1.
         11    1    3    3    0    0 -0.57490508822E+01  0.17651161329E+01  0.11777856932E+02  0.13224414360E+02  0.51100000000E-03 0. -1.
        -11    1    3    3    0    0 -0.13036868573E+02 -0.10152011681E+02  0.28234562209E+02  0.32714122130E+02  0.51100000000E-03 0.  1.
        -12    1    3    3    0    0  0.14321649498E+01  0.21968406826E+01 -0.37674601808E+01  0.45903117152E+01  0.00000000000E+00 0.  1.
</event>
<event>
 7    1  0.3014423E-011  0.5052886E+02  0.7816164E-02  0.1300439E+00
        -11   -1    0    0    0    0  0.00000000000E+00  0.00000000000E+00  0.45593999997E+02  0.45594000000E+02  0.51100000000E-03 0.  1.
         11   -1    0    0    0    0 -0.00000000000E+00 -0.00000000000E+00 -0.45593999997E+02  0.45594000000E+02  0.51100000000E-03 0. -1.
    9900012    2    1    2    0    0  0.19520185983E+01 -0.20924609557E+02 -0.34806839494E+02  0.50528859118E+02  0.29999997775E+02 0.  0.
        -12    1    1    2    0    0 -0.19520185983E+01  0.20924609557E+02  0.34806839494E+02  0.40659140882E+02  0.00000000000E+00 0.  1.
         11    1    3    3    0    0  0.83920165860E-01 -0.78680664018E+01 -0.23133765146E+02  0.24435314640E+02  0.51100000000E-03 0. -1.
        -11    1    3    3    0    0 -0.51025379441E+01  0.83811546663E+00 -0.89143271932E+01  0.10305511175E+02  0.51100000000E-03 0.  1.
        -12    1    3    3    0    0  0.69706363766E+01 -0.13894658622E+02 -0.27587471549E+01  0.15788033303E+02  0.00000000000E+00 0.  1.
</event>
<event>
 7    1  0.3014423E-011  0.5052885E+02  0.7816164E-02  0.1300439E+00
        -11   -1    0    0    0    0  0.00000000000E+00  0.00000000000E+00  0.45593999997E+02  0.45594000000E+02  0.51100000000E-03 0. -1.
         11   -1    0    0    0    0 -0.00000000000E+00 -0.00000000000E+00 -0.45593999997E+02  0.45594000000E+02  0.51100000000E-03 0.  1.
    9900012    2    1    2    0    0  0.27757658119E+02 -0.29471223519E+02 -0.37584561099E+01  0.50528848604E+02  0.29999965815E+02 0.  0.
        -12    1    1    2    0    0 -0.27757658119E+02  0.29471223519E+02  0.37584561099E+01  0.40659151396E+02  0.00000000000E+00 0.  1.
         11    1    3    3    0    0  0.21713021761E+01 -0.16645709476E+02  0.68988472367E+01  0.18149057567E+02  0.51100000000E-03 0. -1.
        -11    1    3    3    0    0 -0.16325110949E+00 -0.14527481848E+01 -0.27932160821E+01  0.31526472298E+01  0.51100000000E-03 0.  1.
         12    1    3    3    0    0  0.25749607053E+02 -0.11372765858E+02 -0.78640872645E+01  0.29227143807E+02  0.00000000000E+00 0. -1.
</event>
<event>
 7    1  0.3014423E-011  0.5052888E+02  0.7816164E-02  0.1300439E+00
        -11   -1    0    0    0    0  0.00000000000E+00  0.00000000000E+00  0.45593999997E+02  0.45594000000E+02  0.51100000000E-03 0.  1.
         11   -1    0    0    0    0 -0.00000000000E+00 -0.00000000000E+00 -0.45593999997E+02  0.45594000000E+02  0.51100000000E-03 0. -1.
    9900012    2    1    2    0    0  0.14383755694E+02  0.28392118064E+02 -0.25301372841E+02  0.50528877239E+02  0.30000052856E+02 0.  0.
        -12    1    1    2    0    0 -0.14383755694E+02 -0.28392118064E+02  0.25301372841E+02  0.40659122761E+02  0.00000000000E+00 0.  1.
         11    1    3    3    0    0  0.67203310953E+01  0.92921695325E+01 -0.24556930095E+01  0.11727646527E+02  0.51100000000E-03 0.  1.
        -11    1    3    3    0    0 -0.10816879430E+01  0.36558889021E+01  0.46882731047E+01  0.60428037727E+01  0.51100000000E-03 0. -1.
         12    1    3    3    0    0  0.87451125418E+01  0.15444059629E+02 -0.27533952937E+02  0.32758426939E+02  0.00000000000E+00 0. -1.
</event>
<event>
 7    1  0.3014423E-011  0.5052886E+02  0.7816164E-02  0.1300439E+00
        -11   -1    0    0    0    0  0.00000000000E+00  0.00000000000E+00  0.45593999997E+02  0.45594000000E+02  0.51100000000E-03 0.  1.
         11   -1    0    0    0    0 -0.00000000000E+00 -0.00000000000E+00 -0.45593999997E+02  0.45594000000E+02  0.51100000000E-03 0. -1.
    9900012    2    1    2    0    0  0.25572868062E+02  0.17706509942E+02 -0.26185367722E+02  0.50528861323E+02  0.30000004476E+02 0.  0.
        -12    1    1    2    0    0 -0.25572868062E+02 -0.17706509942E+02  0.26185367722E+02  0.40659138677E+02  0.00000000000E+00 0.  1.
         11    1    3    3    0    0  0.30004180956E+00  0.94358554810E+00 -0.14096854141E+02  0.14131584332E+02  0.51100000000E-03 0. -1.
        -11    1    3    3    0    0  0.27732004351E+01 -0.85757493099E-01  0.33323370515E+01  0.43361809794E+01  0.51100000000E-03 0.  1.
        -12    1    3    3    0    0  0.22499625817E+02  0.16848681887E+02 -0.15420850632E+02  0.32061096012E+02  0.00000000000E+00 0.  1.
</event>
<event>
 7    1  0.3014423E-011  0.5052886E+02  0.7816164E-02  0.1300439E+00
        -11   -1    0    0    0    0  0.00000000000E+00  0.00000000000E+00  0.45593999997E+02  0.45594000000E+02  0.51100000000E-03 0.  1.
         11   -1    0    0    0    0 -0.00000000000E+00 -0.00000000000E+00 -0.45593999997E+02  0.45594000000E+02  0.51100000000E-03 0. -1.
    9900012    2    1    2    0    0 -0.15839676053E+02 -0.35455871031E+02 -0.12047880128E+02  0.50528861499E+02  0.30000005013E+02 0.  0.
        -12    1    1    2    0    0  0.15839676053E+02  0.35455871031E+02  0.12047880128E+02  0.40659138501E+02  0.00000000000E+00 0.  1.
         11    1    3    3    0    0 -0.41839030041E+01 -0.12740088686E+02 -0.34660376015E+00  0.13413986675E+02  0.51100000000E-03 0. -1.
        -11    1    3    3    0    0 -0.53745340303E+01 -0.25980038888E+02 -0.13562060040E+02  0.29795595471E+02  0.51100000000E-03 0.  1.
        -12    1    3    3    0    0 -0.62812390183E+01  0.32642565431E+01  0.18607836722E+01  0.73192793537E+01  0.00000000000E+00 0.  1.
</event>
<event>
 7    1  0.3014423E-011  0.5052885E+02  0.7816164E-02  0.1300439E+00
        -11   -1    0    0    0    0  0.00000000000E+00  0.00000000000E+00  0.45593999997E+02  0.45594000000E+02  0.51100000000E-03 0. -1.
         11   -1    0    0    0    0 -0.00000000000E+00 -0.00000000000E+00 -0.45593999997E+02  0.45594000000E+02  0.51100000000E-03 0.  1.
    9900012    2    1    2    0    0  0.38645596792E+02 -0.76688698427E+01  0.10043531784E+02  0.50528852852E+02  0.29999978729E+02 0.  0.
        -12    1    1    2    0    0 -0.38645596792E+02  0.76688698427E+01 -0.10043531784E+02  0.40659147148E+02  0.00000000000E+00 0.  1.
         11    1    3    3    0    0  0.23450004462E+02 -0.89220757346E+01  0.60984754267E+01  0.25820486972E+02  0.51100000000E-03 0. -1.
        -11    1    3    3    0    0  0.19555081355E+02  0.15699546959E+01  0.49295998358E+01  0.20227874810E+02  0.51100000000E-03 0.  1.
        -12    1    3    3    0    0 -0.43594890246E+01 -0.31674880396E+00 -0.98454347860E+00  0.44804910693E+01  0.00000000000E+00 0.  1.
</event>
<event>
 7    1  0.3014423E-011  0.5052890E+02  0.7816164E-02  0.1300439E+00
        -11   -1    0    0    0    0  0.00000000000E+00  0.00000000000E+00  0.45593999997E+02  0.45594000000E+02  0.51100000000E-03 0. -1.
         11   -1    0    0    0    0 -0.00000000000E+00 -0.00000000000E+00 -0.45593999997E+02  0.45594000000E+02  0.51100000000E-03 0.  1.
    9900012    2    1    2    0    0  0.24904274701E+02 -0.23486458520E+01 -0.32053446942E+02  0.50528898970E+02  0.30000118908E+02 0.  0.
        -12    1    1    2    0    0 -0.24904274701E+02  0.23486458520E+01  0.32053446942E+02  0.40659101030E+02  0.00000000000E+00 0.  1.
         11    1    3    3    0    0  0.49329403728E+01  0.14665595365E+01  0.27391141665E+01  0.58298751508E+01  0.51100000000E-03 0. -1.
        -11    1    3    3    0    0 -0.11570797161E+01  0.50170976773E+01 -0.69253504115E+01  0.86296338947E+01  0.51100000000E-03 0.  1.
        -12    1    3    3    0    0  0.21128414044E+02 -0.88323030658E+01 -0.27867210697E+02  0.36069389924E+02  0.00000000000E+00 0.  1.
</event>
<event>
 7    1  0.3014423E-011  0.5052888E+02  0.7816164E-02  0.1300439E+00
        -11   -1    0    0    0    0  0.00000000000E+00  0.00000000000E+00  0.45593999997E+02  0.45594000000E+02  0.51100000000E-03 0.  1.
         11   -1    0    0    0    0 -0.00000000000E+00 -0.00000000000E+00 -0.45593999997E+02  0.45594000000E+02  0.51100000000E-03 0. -1.
    9900012    2    1    2    0    0 -0.40442351464E+02 -0.41871549511E+01  0.21898347010E+00  0.50528880331E+02  0.30000062253E+02 0.  0.
        -12    1    1    2    0    0  0.40442351464E+02  0.41871549511E+01 -0.21898347010E+00  0.40659119669E+02  0.00000000000E+00 0.  1.
         11    1    3    3    0    0 -0.49474991436E+01 -0.46653780903E+01 -0.58506384946E+01  0.89707007283E+01  0.51100000000E-03 0. -1.
        -11    1    3    3    0    0 -0.16607503687E+02 -0.10014108282E+02  0.13316469512E+01  0.19438745517E+02  0.51100000000E-03 0.  1.
         12    1    3    3    0    0 -0.18887348633E+02  0.10492331421E+02  0.47379750136E+01  0.22119434086E+02  0.00000000000E+00 0. -1.
</event>
<event>
 7    1  0.3014423E-011  0.5052886E+02  0.7816164E-02  0.1300439E+00
        -11   -1    0    0    0    0  0.00000000000E+00  0.00000000000E+00  0.45593999997E+02  0.45594000000E+02  0.51100000000E-03 0. -1.
         11   -1    0    0    0    0 -0.00000000000E+00 -0.00000000000E+00 -0.45593999997E+02  0.45594000000E+02  0.51100000000E-03 0.  1.
    9900012    2    1    2    0    0 -0.24174598695E+01 -0.19711567955E+02  0.35479229277E+02  0.50528859164E+02  0.29999997913E+02 0.  0.
        -12    1    1    2    0    0  0.24174598695E+01  0.19711567955E+02 -0.35479229277E+02  0.40659140836E+02  0.00000000000E+00 0.  1.
         11    1    3    3    0    0  0.57457737999E+01 -0.31565657358E+01  0.87031945342E+01  0.10896027678E+02  0.51100000000E-03 0. -1.
        -11    1    3    3    0    0  0.30176211034E+01  0.42118388126E+01  0.77867880298E+01  0.93530578630E+01  0.51100000000E-03 0.  1.
         12    1    3    3    0    0 -0.11180854773E+02 -0.20766841031E+02  0.18989246713E+02  0.30279773622E+02  0.00000000000E+00 0. -1.
</event>
<event>
 7    1  0.3014423E-011  0.5052883E+02  0.7816164E-02  0.1300439E+00
        -11   -1    0    0    0    0  0.00000000000E+00  0.00000000000E+00  0.45593999997E+02  0.45594000000E+02  0.51100000000E-03 0. -1.
         11   -1    0    0    0    0 -0.00000000000E+00 -0.00000000000E+00 -0.45593999997E+02  0.45594000000E+02  0.51100000000E-03 0.  1.
    9900012    2    1    2    0    0  0.10177347917E+00 -0.39858172553E+02  0.80301970913E+01  0.50528827082E+02  0.29999900397E+02 0.  0.
        -12    1    1    2    0    0 -0.10177347917E+00  0.39858172553E+02 -0.80301970913E+01  0.40659172918E+02  0.00000000000E+00 0.  1.
         11    1    3    3    0    0  0.14840170556E+01 -0.17461031518E+02  0.25504912163E+01  0.17708611859E+02  0.51100000000E-03 0. -1.
        -11    1    3    3    0    0 -0.88284922270E+01 -0.22835291105E+02  0.19269540589E+01  0.24558215469E+02  0.51100000000E-03 0.  1.
        -12    1    3    3    0    0  0.74462486506E+01  0.43815006957E+00  0.35527518161E+01  0.82619997529E+01  0.00000000000E+00 0.  1.
</event>
<event>
 7    1  0.3014423E-011  0.5052886E+02  0.7816164E-02  0.1300439E+00
        -11   -1    0    0    0    0  0.00000000000E+00  0.00000000000E+00  0.45593999997E+02  0.45594000000E+02  0.51100000000E-03 0. -1.
         11   -1    0    0    0    0 -0.00000000000E+00 -0.00000000000E+00 -0.45593999997E+02  0.45594000000E+02  0.51100000000E-03 0.  1.
    9900012    2    1    2    0    0  0.37915231561E+02  0.12726024645E+02 -0.73245604754E+01  0.50528859899E+02  0.30000000149E+02 0.  0.
        -12    1    1    2    0    0 -0.37915231561E+02 -0.12726024645E+02  0.73245604754E+01  0.40659140101E+02  0.00000000000E+00 0.  1.
         11    1    3    3    0    0 -0.28591307367E+00 -0.29035554439E+01 -0.25014029614E+01  0.38430973886E+01  0.51100000000E-03 0. -1.
        -11    1    3    3    0    0  0.12324314784E+02 -0.26186392069E+01 -0.79021093120E+01  0.14872435511E+02  0.51100000000E-03 0.  1.
         12    1    3    3    0    0  0.25876829851E+02  0.18248219296E+02  0.30789517980E+01  0.31813327000E+02  0.00000000000E+00 0. -1.
</event>
<event>
 7    1  0.3014423E-011  0.5052886E+02  0.7816164E-02  0.1300439E+00
        -11   -1    0    0    0    0  0.00000000000E+00  0.00000000000E+00  0.45593999997E+02  0.45594000000E+02  0.51100000000E-03 0. -1.
         11   -1    0    0    0    0 -0.00000000000E+00 -0.00000000000E+00 -0.45593999997E+02  0.45594000000E+02  0.51100000000E-03 0.  1.
    9900012    2    1    2    0    0  0.19219579344E+02  0.34500174990E+02 -0.96701106251E+01  0.50528863954E+02  0.30000012475E+02 0.  0.
        -12    1    1    2    0    0 -0.19219579344E+02 -0.34500174990E+02  0.96701106251E+01  0.40659136046E+02  0.00000000000E+00 0.  1.
         11    1    3    3    0    0 -0.56901895270E+00  0.60312086425E+01  0.51541186483E+01  0.79538795289E+01  0.51100000000E-03 0. -1.
        -11    1    3    3    0    0  0.20207651737E+02  0.30141313025E+02 -0.16769395538E+02  0.39975749731E+02  0.51100000000E-03 0.  1.
         12    1    3    3    0    0 -0.41905344037E+00 -0.16723466778E+01  0.19451662648E+01  0.25992346939E+01  0.00000000000E+00 0. -1.
</event>
<event>
 7    1  0.3014423E-011  0.5052886E+02  0.7816164E-02  0.1300439E+00
        -11   -1    0    0    0    0  0.00000000000E+00  0.00000000000E+00  0.45593999997E+02  0.45594000000E+02  0.51100000000E-03 0. -1.
         11   -1    0    0    0    0 -0.00000000000E+00 -0.00000000000E+00 -0.45593999997E+02  0.45594000000E+02  0.51100000000E-03 0.  1.
    9900012    2    1    2    0    0 -0.34704896826E+02  0.20212614601E+02  0.63392397138E+01  0.50528860648E+02  0.30000002425E+02 0.  0.
        -12    1    1    2    0    0  0.34704896826E+02 -0.20212614601E+02 -0.63392397138E+01  0.40659139352E+02  0.00000000000E+00 0.  1.
         11    1    3    3    0    0 -0.12741275840E+02  0.16259495252E+01 -0.39452639082E+00  0.12850660420E+02  0.51100000000E-03 0. -1.
        -11    1    3    3    0    0  0.22782758160E+01  0.85414883077E+01  0.72493229194E+01  0.11432420840E+02  0.51100000000E-03 0.  1.
         12    1    3    3    0    0 -0.24241896802E+02  0.10045176768E+02 -0.51555681476E+00  0.26245779388E+02  0.00000000000E+00 0. -1.
</event>
<event>
 7    1  0.3014423E-011  0.5052886E+02  0.7816164E-02  0.1300439E+00
        -11   -1    0    0    0    0  0.00000000000E+00  0.00000000000E+00  0.45593999997E+02  0.45594000000E+02  0.51100000000E-03 0. -1.
         11   -1    0    0    0    0 -0.00000000000E+00 -0.00000000000E+00 -0.45593999997E+02  0.45594000000E+02  0.51100000000E-03 0.  1.
    9900012    2    1    2    0    0 -0.29443214093E+02 -0.28099952094E+01  0.27899228161E+02  0.50528857594E+02  0.29999993142E+02 0.  0.
        -12    1    1    2    0    0  0.29443214093E+02  0.28099952094E+01 -0.27899228161E+02  0.40659142406E+02  0.00000000000E+00 0.  1.
         11    1    3    3    0    0 -0.10326956960E+02 -0.24368377477E+01  0.14910122229E+02  0.18300162934E+02  0.51100000000E-03 0. -1.
        -11    1    3    3    0    0 -0.72428452102E+01  0.10245564966E+02  0.99471896123E+01  0.16011776593E+02  0.51100000000E-03 0.  1.
        -12    1    3    3    0    0 -0.11873411923E+02 -0.10618722428E+02  0.30419163194E+01  0.16216918067E+02  0.00000000000E+00 0.  1.
</event>
<event>
 7    1  0.3014423E-011  0.5052885E+02  0.7816164E-02  0.1300439E+00
        -11   -1    0    0    0    0  0.00000000000E+00  0.00000000000E+00  0.45593999997E+02  0.45594000000E+02  0.51100000000E-03 0.  1.
         11   -1    0    0    0    0 -0.00000000000E+00 -0.00000000000E+00 -0.45593999997E+02  0.45594000000E+02  0.51100000000E-03 0. -1.
    9900012    2    1    2    0    0  0.16186791801E+02  0.60280522317E+00 -0.37293310780E+02  0.50528848116E+02  0.29999964334E+02 0.  0.
        -12    1    1    2    0    0 -0.16186791801E+02 -0.60280522317E+00  0.37293310780E+02  0.40659151884E+02  0.00000000000E+00 0.  1.
         11    1    3    3    0    0  0.12193049954E+01 -0.99389050747E+00 -0.25301101952E+02  0.25349956277E+02  0.51100000000E-03 0.  1.
        -11    1    3    3    0    0  0.13079058892E+02 -0.32657099577E+00 -0.15800027879E+02  0.20513637204E+02  0.51100000000E-03 0. -1.
         12    1    3    3    0    0  0.18884279134E+01  0.19232667264E+01  0.38078190504E+01  0.46652546345E+01  0.00000000000E+00 0. -1.
</event>
<event>
 7    1  0.3014423E-011  0.5052886E+02  0.7816164E-02  0.1300439E+00
        -11   -1    0    0    0    0  0.00000000000E+00  0.00000000000E+00  0.45593999997E+02  0.45594000000E+02  0.51100000000E-03 0.  1.
         11   -1    0    0    0    0 -0.00000000000E+00 -0.00000000000E+00 -0.45593999997E+02  0.45594000000E+02  0.51100000000E-03 0. -1.
    9900012    2    1    2    0    0  0.62600418481E+01  0.13856818456E+02 -0.37708963004E+02  0.50528862866E+02  0.30000009167E+02 0.  0.
        -12    1    1    2    0    0 -0.62600418481E+01 -0.13856818456E+02  0.37708963004E+02  0.40659137134E+02  0.00000000000E+00 0.  1.
         11    1    3    3    0    0 -0.25542910524E+01  0.13753632256E+02 -0.34602321326E+02  0.37323014943E+02  0.51100000000E-03 0. -1.
        -11    1    3    3    0    0 -0.18612555297E+01  0.75307918275E+00 -0.12081846280E+01  0.23433119209E+01  0.51100000000E-03 0.  1.
        -12    1    3    3    0    0  0.10675588430E+02 -0.64989298241E+00 -0.18984570493E+01  0.10862536002E+02  0.00000000000E+00 0.  1.
</event>
<event>
 7    1  0.3014423E-011  0.5052887E+02  0.7816164E-02  0.1300439E+00
        -11   -1    0    0    0    0  0.00000000000E+00  0.00000000000E+00  0.45593999997E+02  0.45594000000E+02  0.51100000000E-03 0.  1.
         11   -1    0    0    0    0 -0.00000000000E+00 -0.00000000000E+00 -0.45593999997E+02  0.45594000000E+02  0.51100000000E-03 0. -1.
    9900012    2    1    2    0    0  0.37736136249E+01  0.49616197641E+01 -0.40178435920E+02  0.50528873799E+02  0.30000042400E+02 0.  0.
        -12    1    1    2    0    0 -0.37736136249E+01 -0.49616197641E+01  0.40178435920E+02  0.40659126201E+02  0.00000000000E+00 0.  1.
         11    1    3    3    0    0  0.61625555290E+01  0.42025843252E+01 -0.94625504455E-01  0.74597426166E+01  0.51100000000E-03 0. -1.
        -11    1    3    3    0    0 -0.63537443942E+01  0.32082400929E+01 -0.82504634023E+01  0.10896468186E+02  0.51100000000E-03 0.  1.
        -12    1    3    3    0    0  0.39648024901E+01 -0.24492046540E+01 -0.31833347013E+02  0.32172662996E+02  0.00000000000E+00 0.  1.
</event>
<event>
 7    1  0.3014423E-011  0.5052887E+02  0.7816164E-02  0.1300439E+00
        -11   -1    0    0    0    0  0.00000000000E+00  0.00000000000E+00  0.45593999997E+02  0.45594000000E+02  0.51100000000E-03 0.  1.
         11   -1    0    0    0    0 -0.00000000000E+00 -0.00000000000E+00 -0.45593999997E+02  0.45594000000E+02  0.51100000000E-03 0. -1.
    9900012    2    1    2    0    0  0.21605244366E+02  0.15563958063E+02 -0.30726886315E+02  0.50528869201E+02  0.30000028423E+02 0.  0.
        -12    1    1    2    0    0 -0.21605244366E+02 -0.15563958063E+02  0.30726886315E+02  0.40659130799E+02  0.00000000000E+00 0.  1.
         11    1    3    3    0    0  0.67878799991E+01 -0.19185834031E+01 -0.20424874561E+02  0.21608604265E+02  0.51100000000E-03 0.  1.
        -11    1    3    3    0    0  0.80283548507E+01  0.36414475972E+01 -0.10229080481E+02  0.13503655430E+02  0.51100000000E-03 0. -1.
        -12    1    3    3    0    0  0.67890095163E+01  0.13841093869E+02 -0.72931272577E-01  0.15416609506E+02  0.00000000000E+00 0.  1.
</event>
<event>
 7    1  0.3014423E-011  0.5052886E+02  0.7816164E-02  0.1300439E+00
        -11   -1    0    0    0    0  0.00000000000E+00  0.00000000000E+00  0.45593999997E+02  0.45594000000E+02  0.51100000000E-03 0. -1.
         11   -1    0    0    0    0 -0.00000000000E+00 -0.00000000000E+00 -0.45593999997E+02  0.45594000000E+02  0.51100000000E-03 0.  1.
    9900012    2    1    2    0    0  0.47172333182E+01  0.39274770296E+02 -0.94024411635E+01  0.50528858693E+02  0.29999996482E+02 0.  0.
        -12    1    1    2    0    0 -0.47172333182E+01 -0.39274770296E+02  0.94024411635E+01  0.40659141307E+02  0.00000000000E+00 0.  1.
         11    1    3    3    0    0  0.14790470024E+02  0.22535869392E+02 -0.35715216751E+01  0.27191527727E+02  0.51100000000E-03 0. -1.
        -11    1    3    3    0    0 -0.59283510120E-01  0.10553434032E+02 -0.45670132960E+01  0.11499395423E+02  0.51100000000E-03 0.  1.
         12    1    3    3    0    0 -0.10013953196E+02  0.61854668728E+01 -0.12639061924E+01  0.11837935543E+02  0.00000000000E+00 0. -1.
</event>
<event>
 7    1  0.3014423E-011  0.5052886E+02  0.7816164E-02  0.1300439E+00
        -11   -1    0    0    0    0  0.00000000000E+00  0.00000000000E+00  0.45593999997E+02  0.45594000000E+02  0.51100000000E-03 0.  1.
         11   -1    0    0    0    0 -0.00000000000E+00 -0.00000000000E+00 -0.45593999997E+02  0.45594000000E+02  0.51100000000E-03 0. -1.
    9900012    2    1    2    0    0 -0.32080649773E+01  0.39301696473E+02 -0.99121419610E+01  0.50528860993E+02  0.30000003474E+02 0.  0.
        -12    1    1    2    0    0  0.32080649773E+01 -0.39301696473E+02  0.99121419610E+01  0.40659139007E+02  0.00000000000E+00 0.  1.
         11    1    3    3    0    0  0.13815450316E+01  0.93959718960E+01 -0.94992240262E+01  0.13432356901E+02  0.51100000000E-03 0. -1.
        -11    1    3    3    0    0  0.18005603889E+01  0.14192128100E+02 -0.10146719690E+02  0.17538940631E+02  0.51100000000E-03 0.  1.
        -12    1    3    3    0    0 -0.63901703979E+01  0.15713596476E+02  0.97338017551E+01  0.19557563461E+02  0.00000000000E+00 0.  1.
</event>
<event>
 7    1  0.3014423E-011  0.5052886E+02  0.7816164E-02  0.1300439E+00
        -11   -1    0    0    0    0  0.00000000000E+00  0.00000000000E+00  0.45593999997E+02  0.45594000000E+02  0.51100000000E-03 0. -1.
         11   -1    0    0    0    0 -0.00000000000E+00 -0.00000000000E+00 -0.45593999997E+02  0.45594000000E+02  0.51100000000E-03 0.  1.
    9900012    2    1    2    0    0 -0.11349315716E+02  0.11558037306E+02  0.37293036799E+02  0.50528858503E+02  0.29999995906E+02 0.  0.
        -12    1    1    2    0    0  0.11349315716E+02 -0.11558037306E+02 -0.37293036799E+02  0.40659141497E+02  0.00000000000E+00 0.  1.
         11    1    3    3    0    0 -0.11634663085E+00  0.22823915795E+01 -0.16938070452E+01  0.28446142846E+01  0.51100000000E-03 0. -1.
        -11    1    3    3    0    0 -0.14324360034E+02  0.28745205670E+01  0.96755955430E+01  0.17523336105E+02  0.51100000000E-03 0.  1.
         12    1    3    3    0    0  0.30913909483E+01  0.64011251590E+01  0.29311248301E+02  0.30160908114E+02  0.00000000000E+00 0. -1.
</event>
<event>
 7    1  0.3014423E-011  0.5052879E+02  0.7816164E-02  0.1300439E+00
        -11   -1    0    0    0    0  0.00000000000E+00  0.00000000000E+00  0.45593999997E+02  0.45594000000E+02  0.51100000000E-03 0.  1.
         11   -1    0    0    0    0 -0.00000000000E+00 -0.00000000000E+00 -0.45593999997E+02  0.45594000000E+02  0.51100000000E-03 0. -1.
    9900012    2    1    2    0    0  0.29437349230E+02  0.16070680119E+02 -0.22985800866E+02  0.50528790334E+02  0.29999788699E+02 0.  0.
        -12    1    1    2    0    0 -0.29437349230E+02 -0.16070680119E+02  0.22985800866E+02  0.40659209666E+02  0.00000000000E+00 0.  1.
         11    1    3    3    0    0  0.21844885979E+02  0.50633949170E+01 -0.23224490871E+02  0.32283339170E+02  0.51100000000E-03 0. -1.
        -11    1    3    3    0    0  0.32874303586E+01 -0.83206887970E+00 -0.37264121899E+01  0.50384208889E+01  0.51100000000E-03 0.  1.
        -12    1    3    3    0    0  0.43050328931E+01  0.11839354081E+02  0.39651021942E+01  0.13207030275E+02  0.00000000000E+00 0.  1.
</event>
<event>
 7    1  0.3014423E-011  0.5052887E+02  0.7816164E-02  0.1300439E+00
        -11   -1    0    0    0    0  0.00000000000E+00  0.00000000000E+00  0.45593999997E+02  0.45594000000E+02  0.51100000000E-03 0.  1.
         11   -1    0    0    0    0 -0.00000000000E+00 -0.00000000000E+00 -0.45593999997E+02  0.45594000000E+02  0.51100000000E-03 0. -1.
    9900012    2    1    2    0    0  0.36096071630E+02  0.10614636394E+02 -0.15413243810E+02  0.50528868459E+02  0.30000026169E+02 0.  0.
        -12    1    1    2    0    0 -0.36096071630E+02 -0.10614636394E+02  0.15413243810E+02  0.40659131541E+02  0.00000000000E+00 0.  1.
         11    1    3    3    0    0  0.17575082232E+02  0.89123047542E+01 -0.59500994882E+01  0.20584372123E+02  0.51100000000E-03 0. -1.
        -11    1    3    3    0    0  0.52965581457E+01 -0.37875710063E+01  0.60111125059E+01  0.88618675311E+01  0.51100000000E-03 0.  1.
         12    1    3    3    0    0  0.13224431252E+02  0.54899026456E+01 -0.15474256827E+02  0.21082628806E+02  0.00000000000E+00 0. -1.
</event>
<event>
 7    1  0.3014423E-011  0.5052883E+02  0.7816164E-02  0.1300439E+00
        -11   -1    0    0    0    0  0.00000000000E+00  0.00000000000E+00  0.45593999997E+02  0.45594000000E+02  0.51100000000E-03 0. -1.
         11   -1    0    0    0    0 -0.00000000000E+00 -0.00000000000E+00 -0.45593999997E+02  0.45594000000E+02  0.51100000000E-03 0.  1.
    9900012    2    1    2    0    0 -0.25617349399E+02 -0.27720499646E+00  0.31572816969E+02  0.50528828781E+02  0.29999905563E+02 0.  0.
        -12    1    1    2    0    0  0.25617349399E+02  0.27720499646E+00 -0.31572816969E+02  0.40659171219E+02  0.00000000000E+00 0.  1.
         11    1    3    3    0    0  0.16637987093E+01 -0.17640591855E+01  0.39007667553E+01  0.45930504564E+01  0.51100000000E-03 0. -1.
        -11    1    3    3    0    0 -0.30111691689E+02 -0.28637658320E+01  0.18672726640E+02  0.35546952774E+02  0.51100000000E-03 0.  1.
         12    1    3    3    0    0  0.28305435806E+01  0.43506200211E+01  0.89993235737E+01  0.10388825550E+02  0.00000000000E+00 0. -1.
</event>
<event>
 7    1  0.3014423E-011  0.5052889E+02  0.7816164E-02  0.1300439E+00
        -11   -1    0    0    0    0  0.00000000000E+00  0.00000000000E+00  0.45593999997E+02  0.45594000000E+02  0.51100000000E-03 0. -1.
         11   -1    0    0    0    0 -0.00000000000E+00 -0.00000000000E+00 -0.45593999997E+02  0.45594000000E+02  0.51100000000E-03 0.  1.
    9900012    2    1    2    0    0 -0.42344750717E+01 -0.10647995957E+02  0.39010932375E+02  0.50528887346E+02  0.30000083576E+02 0.  0.
        -12    1    1    2    0    0  0.42344750717E+01  0.10647995957E+02 -0.39010932375E+02  0.40659112654E+02  0.00000000000E+00 0.  1.
         11    1    3    3    0    0 -0.35075758660E+01 -0.11929838600E+02  0.40574640839E+02  0.42437313970E+02  0.51100000000E-03 0. -1.
        -11    1    3    3    0    0 -0.21367683830E+01  0.95477865924E+00  0.27092588761E+01  0.35801487860E+01  0.51100000000E-03 0.  1.
         12    1    3    3    0    0  0.14098691773E+01  0.32706398394E+00 -0.42729673397E+01  0.45114245901E+01  0.00000000000E+00 0. -1.
</event>
<event>
 7    1  0.3014423E-011  0.5052886E+02  0.7816164E-02  0.1300439E+00
        -11   -1    0    0    0    0  0.00000000000E+00  0.00000000000E+00  0.45593999997E+02  0.45594000000E+02  0.51100000000E-03 0. -1.
         11   -1    0    0    0    0 -0.00000000000E+00 -0.00000000000E+00 -0.45593999997E+02  0.45594000000E+02  0.51100000000E-03 0.  1.
    9900012    2    1    2    0    0  0.26404551042E+01 -0.34477378922E+02  0.21389346222E+02  0.50528858441E+02  0.29999995719E+02 0.  0.
        -12    1    1    2    0    0 -0.26404551042E+01  0.34477378922E+02 -0.21389346222E+02  0.40659141559E+02  0.00000000000E+00 0.  1.
         11    1    3    3    0    0 -0.23231922213E+01 -0.88946640964E+01  0.64241028673E+01  0.11215229351E+02  0.51100000000E-03 0. -1.
        -11    1    3    3    0    0  0.93618727506E+01 -0.12995313097E+02 -0.36391261579E+01  0.16424556717E+02  0.51100000000E-03 0.  1.
         12    1    3    3    0    0 -0.43982254250E+01 -0.12587401728E+02  0.18604369513E+02  0.22889072374E+02  0.00000000000E+00 0. -1.
</event>
<event>
 7    1  0.3014423E-011  0.5052884E+02  0.7816164E-02  0.1300439E+00
        -11   -1    0    0    0    0  0.00000000000E+00  0.00000000000E+00  0.45593999997E+02  0.45594000000E+02  0.51100000000E-03 0.  1.
         11   -1    0    0    0    0 -0.00000000000E+00 -0.00000000000E+00 -0.45593999997E+02  0.45594000000E+02  0.51100000000E-03 0. -1.
    9900012    2    1    2    0    0  0.17969389695E+02  0.35899288499E+02 -0.64427598793E+01  0.50528843151E+02  0.29999949243E+02 0.  0.
        -12    1    1    2    0    0 -0.17969389695E+02 -0.35899288499E+02  0.64427598793E+01  0.40659156849E+02  0.00000000000E+00 0.  1.
         11    1    3    3    0    0  0.81003560645E+01  0.86850761078E+01 -0.10037482565E+02  0.15549835107E+02  0.51100000000E-03 0. -1.
        -11    1    3    3    0    0  0.96378312318E+01  0.24477731669E+01 -0.55397805803E-01  0.99439656831E+01  0.51100000000E-03 0.  1.
         12    1    3    3    0    0  0.23120239885E+00  0.24766439225E+02  0.36501204912E+01  0.25035042361E+02  0.00000000000E+00 0. -1.
</event>
<event>
 7    1  0.3014423E-011  0.5052887E+02  0.7816164E-02  0.1300439E+00
        -11   -1    0    0    0    0  0.00000000000E+00  0.00000000000E+00  0.45593999997E+02  0.45594000000E+02  0.51100000000E-03 0. -1.
         11   -1    0    0    0    0 -0.00000000000E+00 -0.00000000000E+00 -0.45593999997E+02  0.45594000000E+02  0.51100000000E-03 0.  1.
    9900012    2    1    2    0    0 -0.14762787415E+02  0.65079440657E+01  0.37321198940E+02  0.50528866727E+02  0.30000020903E+02 0.  0.
        -12    1    1    2    0    0  0.14762787415E+02 -0.65079440657E+01 -0.37321198940E+02  0.40659133273E+02  0.00000000000E+00 0.  1.
         11    1    3    3    0    0 -0.34438532677E+01  0.78739471842E+01  0.24018364071E+01  0.89234515730E+01  0.51100000000E-03 0.  1.
        -11    1    3    3    0    0 -0.15092429225E+02 -0.27599798212E+01  0.15633420835E+02  0.21904400375E+02  0.51100000000E-03 0. -1.
         12    1    3    3    0    0  0.37734950780E+01  0.13939767028E+01  0.19285941698E+02  0.19701014779E+02  0.00000000000E+00 0. -1.
</event>
<event>
 7    1  0.3014423E-011  0.5052886E+02  0.7816164E-02  0.1300439E+00
        -11   -1    0    0    0    0  0.00000000000E+00  0.00000000000E+00  0.45593999997E+02  0.45594000000E+02  0.51100000000E-03 0.  1.
         11   -1    0    0    0    0 -0.00000000000E+00 -0.00000000000E+00 -0.45593999997E+02  0.45594000000E+02  0.51100000000E-03 0. -1.
    9900012    2    1    2    0    0  0.15786133914E+02  0.13715230677E+02 -0.34869124059E+02  0.50528863399E+02  0.30000010788E+02 0.  0.
        -12    1    1    2    0    0 -0.15786133914E+02 -0.13715230677E+02  0.34869124059E+02  0.40659136601E+02  0.00000000000E+00 0.  1.
         11    1    3    3    0    0  0.38887040814E+01 -0.50523253279E+01 -0.10408003952E+02  0.12205513393E+02  0.51100000000E-03 0. -1.
        -11    1    3    3    0    0  0.27951540095E+01  0.45562647996E+01  0.29711451192E+01  0.61155652593E+01  0.51100000000E-03 0.  1.
         12    1    3    3    0    0  0.91022758235E+01  0.14211291205E+02 -0.27432265226E+02  0.32207784747E+02  0.00000000000E+00 0. -1.
</event>
<event>
 7    1  0.3014423E-011  0.5052887E+02  0.7816164E-02  0.1300439E+00
        -11   -1    0    0    0    0  0.00000000000E+00  0.00000000000E+00  0.45593999997E+02  0.45594000000E+02  0.51100000000E-03 0. -1.
         11   -1    0    0    0    0 -0.00000000000E+00 -0.00000000000E+00 -0.45593999997E+02  0.45594000000E+02  0.51100000000E-03 0.  1.
    9900012    2    1    2    0    0  0.17471960645E+02 -0.32824511212E+02 -0.16445276761E+02  0.50528867288E+02  0.30000022610E+02 0.  0.
        -12    1    1    2    0    0 -0.17471960645E+02  0.32824511212E+02  0.16445276761E+02  0.40659132712E+02  0.00000000000E+00 0.  1.
         11    1    3    3    0    0  0.91816032353E+01 -0.15638530719E+01 -0.80245210735E+01  0.12293917729E+02  0.51100000000E-03 0.  1.
        -11    1    3    3    0    0  0.84249108806E+01 -0.29729105917E+01 -0.30589101341E+01  0.94432119642E+01  0.51100000000E-03 0. -1.
         12    1    3    3    0    0 -0.13455347108E+00 -0.28287747549E+02 -0.53618455535E+01  0.28791737595E+02  0.00000000000E+00 0. -1.
</event>
<event>
 7    1  0.3014423E-011  0.5052885E+02  0.7816164E-02  0.1300439E+00
        -11   -1    0    0    0    0  0.00000000000E+00  0.00000000000E+00  0.45593999997E+02  0.45594000000E+02  0.51100000000E-03 0.  1.
         11   -1    0    0    0    0 -0.00000000000E+00 -0.00000000000E+00 -0.45593999997E+02  0.45594000000E+02  0.51100000000E-03 0. -1.
    9900012    2    1    2    0    0  0.22156801353E+01 -0.27018229908E+02 -0.30303007186E+02  0.50528853054E+02  0.29999979344E+02 0.  0.
        -12    1    1    2    0    0 -0.22156801353E+01  0.27018229908E+02  0.30303007186E+02  0.40659146946E+02  0.00000000000E+00 0.  1.
         11    1    3    3    0    0 -0.36212464175E+01 -0.10197205979E+02 -0.14412798945E+02  0.18022907897E+02  0.51100000000E-03 0. -1.
        -11    1    3    3    0    0  0.29981414657E+01 -0.12341717585E+02 -0.21383292833E+02  0.24870706822E+02  0.51100000000E-03 0.  1.
        -12    1    3    3    0    0  0.28387850872E+01 -0.44793063441E+01  0.54930845916E+01  0.76352383346E+01  0.00000000000E+00 0.  1.
</event>
<event>
 7    1  0.3014423E-011  0.5052886E+02  0.7816164E-02  0.1300439E+00
        -11   -1    0    0    0    0  0.00000000000E+00  0.00000000000E+00  0.45593999997E+02  0.45594000000E+02  0.51100000000E-03 0.  1.
         11   -1    0    0    0    0 -0.00000000000E+00 -0.00000000000E+00 -0.45593999997E+02  0.45594000000E+02  0.51100000000E-03 0. -1.
    9900012    2    1    2    0    0  0.82543741478E+01 -0.28922966330E+02 -0.27358599394E+02  0.50528860379E+02  0.30000001609E+02 0.  0.
        -12    1    1    2    0    0 -0.82543741478E+01  0.28922966330E+02  0.27358599394E+02  0.40659139621E+02  0.00000000000E+00 0.  1.
         11    1    3    3    0    0 -0.53894846179E+01 -0.10376242718E+02 -0.53705154631E+01  0.12866833099E+02  0.51100000000E-03 0. -1.
        -11    1    3    3    0    0 -0.11994756294E+01 -0.14170211680E+02 -0.60720786033E+01  0.15462980944E+02  0.51100000000E-03 0.  1.
         12    1    3    3    0    0  0.14843334395E+02 -0.43765119314E+01 -0.15916005328E+02  0.22199046336E+02  0.00000000000E+00 0. -1.
</event>
<event>
 7    1  0.3014423E-011  0.5052886E+02  0.7816164E-02  0.1300439E+00
        -11   -1    0    0    0    0  0.00000000000E+00  0.00000000000E+00  0.45593999997E+02  0.45594000000E+02  0.51100000000E-03 0.  1.
         11   -1    0    0    0    0 -0.00000000000E+00 -0.00000000000E+00 -0.45593999997E+02  0.45594000000E+02  0.51100000000E-03 0. -1.
    9900012    2    1    2    0    0 -0.12964202883E+02  0.26838253218E+02 -0.27655077843E+02  0.50528859297E+02  0.29999998320E+02 0.  0.
        -12    1    1    2    0    0  0.12964202883E+02 -0.26838253218E+02  0.27655077843E+02  0.40659140703E+02  0.00000000000E+00 0.  1.
         11    1    3    3    0    0 -0.94647369856E+01  0.29990667094E+02 -0.18750733792E+02  0.36614360256E+02  0.51100000000E-03 0. -1.
        -11    1    3    3    0    0  0.19757654148E+01  0.22540835750E+01 -0.24570822719E+01  0.38757960846E+01  0.51100000000E-03 0.  1.
         12    1    3    3    0    0 -0.54752313119E+01 -0.54064974512E+01 -0.64472617783E+01  0.10038702956E+02  0.00000000000E+00 0. -1.
</event>
<event>
 7    1  0.3014423E-011  0.5052885E+02  0.7816164E-02  0.1300439E+00
        -11   -1    0    0    0    0  0.00000000000E+00  0.00000000000E+00  0.45593999997E+02  0.45594000000E+02  0.51100000000E-03 0. -1.
         11   -1    0    0    0    0 -0.00000000000E+00 -0.00000000000E+00 -0.45593999997E+02  0.45594000000E+02  0.51100000000E-03 0.  1.
    9900012    2    1    2    0    0 -0.43369540066E+01  0.32593666548E+02  0.23916727258E+02  0.50528854512E+02  0.29999983774E+02 0.  0.
        -12    1    1    2    0    0  0.43369540066E+01 -0.32593666548E+02 -0.23916727258E+02  0.40659145488E+02  0.00000000000E+00 0.  1.
         11    1    3    3    0    0 -0.59745247879E+01  0.13052415485E+02  0.30405877051E+00  0.14358027316E+02  0.51100000000E-03 0. -1.
        -11    1    3    3    0    0  0.48557245884E+01 -0.12846140105E+01  0.75108719152E+00  0.50786244855E+01  0.51100000000E-03 0.  1.
        -12    1    3    3    0    0 -0.32181538072E+01  0.20825865074E+02  0.22861581296E+02  0.31092202710E+02  0.00000000000E+00 0.  1.
</event>
<event>
 7    1  0.3014423E-011  0.5052886E+02  0.7816164E-02  0.1300439E+00
        -11   -1    0    0    0    0  0.00000000000E+00  0.00000000000E+00  0.45593999997E+02  0.45594000000E+02  0.51100000000E-03 0.  1.
         11   -1    0    0    0    0 -0.00000000000E+00 -0.00000000000E+00 -0.45593999997E+02  0.45594000000E+02  0.51100000000E-03 0. -1.
    9900012    2    1    2    0    0  0.22714084427E+02 -0.29969643629E+02 -0.15461446045E+02  0.50528862227E+02  0.30000007227E+02 0.  0.
        -12    1    1    2    0    0 -0.22714084427E+02  0.29969643629E+02  0.15461446045E+02  0.40659137773E+02  0.00000000000E+00 0.  1.
         11    1    3    3    0    0  0.60497038680E+00 -0.86349565650E+01 -0.48527834874E+01  0.99236067982E+01  0.51100000000E-03 0. -1.
        -11    1    3    3    0    0  0.71846544823E+01 -0.22945436226E+02 -0.81897695278E+01  0.25400484814E+02  0.51100000000E-03 0.  1.
        -12    1    3    3    0    0  0.14924459558E+02  0.16107491620E+01 -0.24188930298E+01  0.15204770615E+02  0.00000000000E+00 0.  1.
</event>
<event>
 7    1  0.3014423E-011  0.5052885E+02  0.7816164E-02  0.1300439E+00
        -11   -1    0    0    0    0  0.00000000000E+00  0.00000000000E+00  0.45593999997E+02  0.45594000000E+02  0.51100000000E-03 0. -1.
         11   -1    0    0    0    0 -0.00000000000E+00 -0.00000000000E+00 -0.45593999997E+02  0.45594000000E+02  0.51100000000E-03 0.  1.
    9900012    2    1    2    0    0 -0.19023587512E+01 -0.29310717624E+02  0.28114569912E+02  0.50528853701E+02  0.29999981310E+02 0.  0.
        -12    1    1    2    0    0  0.19023587512E+01  0.29310717624E+02 -0.28114569912E+02  0.40659146299E+02  0.00000000000E+00 0.  1.
         11    1    3    3    0    0  0.24292736167E+01 -0.13235107490E+02  0.10165245564E+02  0.16864212351E+02  0.51100000000E-03 0. -1.
        -11    1    3    3    0    0 -0.11500865363E+02 -0.86505954694E+01  0.18368785634E+02  0.23334845017E+02  0.51100000000E-03 0.  1.
         12    1    3    3    0    0  0.71692329950E+01 -0.74250146641E+01 -0.41946128618E+00  0.10329796332E+02  0.00000000000E+00 0. -1.
</event>
<event>
 7    1  0.3014423E-011  0.5052887E+02  0.7816164E-02  0.1300439E+00
        -11   -1    0    0    0    0  0.00000000000E+00  0.00000000000E+00  0.45593999997E+02  0.45594000000E+02  0.51100000000E-03 0.  1.
         11   -1    0    0    0    0 -0.00000000000E+00 -0.00000000000E+00 -0.45593999997E+02  0.45594000000E+02  0.51100000000E-03 0. -1.
    9900012    2    1    2    0    0 -0.19738244131E+02  0.26029847242E+02 -0.24207722251E+02  0.50528867626E+02  0.30000023636E+02 0.  0.
        -12    1    1    2    0    0  0.19738244131E+02 -0.26029847242E+02  0.24207722251E+02  0.40659132374E+02  0.00000000000E+00 0.  1.
         11    1    3    3    0    0 -0.13847591531E+02  0.10719720683E+02  0.44384065283E+00  0.17517568254E+02  0.51100000000E-03 0. -1.
        -11    1    3    3    0    0  0.28429262673E+00 -0.15137248059E+00  0.17605181380E+01  0.17897374950E+01  0.51100000000E-03 0.  1.
         12    1    3    3    0    0 -0.61749452264E+01  0.15461499039E+02 -0.26412081042E+02  0.31221561877E+02  0.00000000000E+00 0. -1.
</event>
<event>
 7    1  0.3014423E-011  0.5052885E+02  0.7816164E-02  0.1300439E+00
        -11   -1    0    0    0    0  0.00000000000E+00  0.00000000000E+00  0.45593999997E+02  0.45594000000E+02  0.51100000000E-03 0.  1.
         11   -1    0    0    0    0 -0.00000000000E+00 -0.00000000000E+00 -0.45593999997E+02  0.45594000000E+02  0.51100000000E-03 0. -1.
    9900012    2    1    2    0    0 -0.16694157241E+02  0.35815182922E+02 -0.95783244110E+01  0.50528849588E+02  0.29999968807E+02 0.  0.
        -12    1    1    2    0    0  0.16694157241E+02 -0.35815182922E+02  0.95783244110E+01  0.40659150412E+02  0.00000000000E+00 0.  1.
         11    1    3    3    0    0 -0.32603298171E+01  0.77911415484E+01 -0.58556352860E+01  0.10277164103E+02  0.51100000000E-03 0. -1.
        -11    1    3    3    0    0 -0.11142309482E+02  0.45560404106E+01 -0.10222462436E+02  0.15792634465E+02  0.51100000000E-03 0.  1.
        -12    1    3    3    0    0 -0.22915179417E+01  0.23468000963E+02  0.64997733112E+01  0.24459051020E+02  0.00000000000E+00 0.  1.
</event>
<event>
 7    1  0.3014423E-011  0.5052887E+02  0.7816164E-02  0.1300439E+00
        -11   -1    0    0    0    0  0.00000000000E+00  0.00000000000E+00  0.45593999997E+02  0.45594000000E+02  0.51100000000E-03 0.  1.
         11   -1    0    0    0    0 -0.00000000000E+00 -0.00000000000E+00 -0.45593999997E+02  0.45594000000E+02  0.51100000000E-03 0. -1.
    9900012    2    1    2    0    0 -0.12446974429E+01 -0.20001445241E+02 -0.35377361162E+02  0.50528871059E+02  0.30000034072E+02 0.  0.
        -12    1    1    2    0    0  0.12446974429E+01  0.20001445241E+02  0.35377361162E+02  0.40659128941E+02  0.00000000000E+00 0.  1.
         11    1    3    3    0    0  0.67607126541E+01 -0.15508011970E+02 -0.34959000778E+02  0.38837319765E+02  0.51100000000E-03 0. -1.
        -11    1    3    3    0    0 -0.22821413049E+01 -0.16805076811E+01 -0.35862082160E+01  0.45709041372E+01  0.51100000000E-03 0.  1.
        -12    1    3    3    0    0 -0.57232687921E+01 -0.28129255894E+01  0.31678478327E+01  0.71206471567E+01  0.00000000000E+00 0.  1.
</event>
<event>
 7    1  0.3014423E-011  0.5052886E+02  0.7816164E-02  0.1300439E+00
        -11   -1    0    0    0    0  0.00000000000E+00  0.00000000000E+00  0.45593999997E+02  0.45594000000E+02  0.51100000000E-03 0.  1.
         11   -1    0    0    0    0 -0.00000000000E+00 -0.00000000000E+00 -0.45593999997E+02  0.45594000000E+02  0.51100000000E-03 0. -1.
    9900012    2    1    2    0    0  0.49254028409E+01  0.17793312295E+02 -0.36225743339E+02  0.50528855444E+02  0.29999986608E+02 0.  0.
        -12    1    1    2    0    0 -0.49254028409E+01 -0.17793312295E+02  0.36225743339E+02  0.40659144556E+02  0.00000000000E+00 0.  1.
         11    1    3    3    0    0  0.77634670465E+01  0.23568113578E+02 -0.26597841353E+02  0.36375439009E+02  0.51100000000E-03 0. -1.
        -11    1    3    3    0    0  0.15024391072E+01  0.12888992600E+01 -0.11218211072E+01  0.22753169957E+01  0.51100000000E-03 0.  1.
        -12    1    3    3    0    0 -0.43405033128E+01 -0.70637005433E+01 -0.85060808791E+01  0.11878099440E+02  0.00000000000E+00 0.  1.
</event>
<event>
 7    1  0.3014423E-011  0.5052886E+02  0.7816164E-02  0.1300439E+00
        -11   -1    0    0    0    0  0.00000000000E+00  0.00000000000E+00  0.45593999997E+02  0.45594000000E+02  0.51100000000E-03 0. -1.
         11   -1    0    0    0    0 -0.00000000000E+00 -0.00000000000E+00 -0.45593999997E+02  0.45594000000E+02  0.51100000000E-03 0.  1.
    9900012    2    1    2    0    0 -0.39006173326E+02  0.80579484603E+01  0.81702814587E+01  0.50528860928E+02  0.30000003277E+02 0.  0.
        -12    1    1    2    0    0  0.39006173326E+02 -0.80579484603E+01 -0.81702814587E+01  0.40659139072E+02  0.00000000000E+00 0.  1.
         11    1    3    3    0    0  0.16842657888E+01 -0.33418682008E+01  0.37766142586E+01  0.53167330042E+01  0.51100000000E-03 0. -1.
        -11    1    3    3    0    0 -0.61912916413E+01 -0.24770937560E+01 -0.29777010819E+01  0.73030671404E+01  0.51100000000E-03 0.  1.
         12    1    3    3    0    0 -0.34499147474E+02  0.13876910417E+02  0.73713682820E+01  0.37909060784E+02  0.00000000000E+00 0. -1.
</event>
<event>
 7    1  0.3014423E-011  0.5052886E+02  0.7816164E-02  0.1300439E+00
        -11   -1    0    0    0    0  0.00000000000E+00  0.00000000000E+00  0.45593999997E+02  0.45594000000E+02  0.51100000000E-03 0.  1.
         11   -1    0    0    0    0 -0.00000000000E+00 -0.00000000000E+00 -0.45593999997E+02  0.45594000000E+02  0.51100000000E-03 0. -1.
    9900012    2    1    2    0    0  0.33722454189E+02  0.25466160477E+01 -0.22571587399E+02  0.50528859238E+02  0.29999998139E+02 0.  0.
        -12    1    1    2    0    0 -0.33722454189E+02 -0.25466160477E+01  0.22571587399E+02  0.40659140762E+02  0.00000000000E+00 0.  1.
         11    1    3    3    0    0  0.12366755749E+02  0.72990584809E+01 -0.41896423527E+01  0.14958810306E+02  0.51100000000E-03 0. -1.
        -11    1    3    3    0    0  0.17516473353E+02 -0.75525788404E+01 -0.22346965513E+02  0.29381204090E+02  0.51100000000E-03 0.  1.
         12    1    3    3    0    0  0.38392250877E+01  0.28001364072E+01  0.39650204672E+01  0.61888448420E+01  0.00000000000E+00 0. -1.
</event>
<event>
 7    1  0.3014423E-011  0.5052886E+02  0.7816164E-02  0.1300439E+00
        -11   -1    0    0    0    0  0.00000000000E+00  0.00000000000E+00  0.45593999997E+02  0.45594000000E+02  0.51100000000E-03 0.  1.
         11   -1    0    0    0    0 -0.00000000000E+00 -0.00000000000E+00 -0.45593999997E+02  0.45594000000E+02  0.51100000000E-03 0. -1.
    9900012    2    1    2    0    0  0.28108304077E+02  0.18153718575E+02 -0.23098303541E+02  0.50528857330E+02  0.29999992340E+02 0.  0.
        -12    1    1    2    0    0 -0.28108304077E+02 -0.18153718575E+02  0.23098303541E+02  0.40659142670E+02  0.00000000000E+00 0.  1.
         11    1    3    3    0    0  0.30079977860E+02  0.55195520336E+01 -0.17481276614E+02  0.35225921635E+02  0.51100000000E-03 0. -1.
        -11    1    3    3    0    0  0.86064453658E+00  0.20353612933E+01 -0.34856005468E+01  0.41270832370E+01  0.51100000000E-03 0.  1.
        -12    1    3    3    0    0 -0.28323183193E+01  0.10598805248E+02 -0.21314263809E+01  0.11175852458E+02  0.00000000000E+00 0.  1.
</event>
<event>
 7    1  0.3492875E-011  0.5052886E+02  0.7816164E-02  0.1300439E+00
        -11   -1    0    0    0    0  0.00000000000E+00  0.00000000000E+00  0.45593999997E+02  0.45594000000E+02  0.51100000000E-03 0. -1.
         11   -1    0    0    0    0 -0.00000000000E+00 -0.00000000000E+00 -0.45593999997E+02  0.45594000000E+02  0.51100000000E-03 0.  1.
    9900012    2    1    2    0    0  0.11029807263E+02  0.30177836794E+02  0.24915996000E+02  0.50528864021E+02  0.30000012680E+02 0.  0.
        -12    1    1    2    0    0 -0.11029807263E+02 -0.30177836794E+02 -0.24915996000E+02  0.40659135979E+02  0.00000000000E+00 0.  1.
         11    1    3    3    0    0 -0.74670542296E+01  0.26292115495E+01  0.10075846368E+02  0.12813755598E+02  0.51100000000E-03 0. -1.
        -11    1    3    3    0    0  0.80877256699E+00  0.17424429973E+01 -0.14828648572E+01  0.24267486705E+01  0.51100000000E-03 0.  1.
         12    1    3    3    0    0  0.17688088925E+02  0.25806182248E+02  0.16323014490E+02  0.35288359753E+02  0.00000000000E+00 0. -1.
</event>
<event>
 7    1  0.3014423E-011  0.5052886E+02  0.7816164E-02  0.1300439E+00
        -11   -1    0    0    0    0  0.00000000000E+00  0.00000000000E+00  0.45593999997E+02  0.45594000000E+02  0.51100000000E-03 0.  1.
         11   -1    0    0    0    0 -0.00000000000E+00 -0.00000000000E+00 -0.45593999997E+02  0.45594000000E+02  0.51100000000E-03 0. -1.
    9900012    2    1    2    0    0  0.12540867321E+02 -0.37007070716E+02  0.11241403176E+02  0.50528858574E+02  0.29999996120E+02 0.  0.
        -12    1    1    2    0    0 -0.12540867321E+02  0.37007070716E+02 -0.11241403176E+02  0.40659141426E+02  0.00000000000E+00 0.  1.
         11    1    3    3    0    0  0.51412087244E+01 -0.31897716245E+02  0.32045851803E+01  0.32467917938E+02  0.51100000000E-03 0. -1.
        -11    1    3    3    0    0  0.67581203635E+01 -0.90853334586E+01  0.31995928653E+01  0.11766599750E+02  0.51100000000E-03 0.  1.
        -12    1    3    3    0    0  0.64153823357E+00  0.39759789880E+01  0.48372251308E+01  0.62943408856E+01  0.00000000000E+00 0.  1.
</event>
<event>
 7    1  0.3014423E-011  0.5052884E+02  0.7816164E-02  0.1300439E+00
        -11   -1    0    0    0    0  0.00000000000E+00  0.00000000000E+00  0.45593999997E+02  0.45594000000E+02  0.51100000000E-03 0.  1.
         11   -1    0    0    0    0 -0.00000000000E+00 -0.00000000000E+00 -0.45593999997E+02  0.45594000000E+02  0.51100000000E-03 0. -1.
    9900012    2    1    2    0    0  0.17071305901E+02 -0.12560065188E+02 -0.34698455115E+02  0.50528837317E+02  0.29999931509E+02 0.  0.
        -12    1    1    2    0    0 -0.17071305901E+02  0.12560065188E+02  0.34698455115E+02  0.40659162683E+02  0.00000000000E+00 0.  1.
         11    1    3    3    0    0  0.72177981206E+01 -0.68421519835E+01 -0.10028320169E+02  0.14123698494E+02  0.51100000000E-03 0. -1.
        -11    1    3    3    0    0  0.17001827290E+02 -0.43294482304E+01 -0.10428463216E+02  0.20409779482E+02  0.51100000000E-03 0.  1.
        -12    1    3    3    0    0 -0.71483195098E+01 -0.13884649741E+01 -0.14241671730E+02  0.15995359341E+02  0.00000000000E+00 0.  1.
</event>
<event>
 7    1  0.3014423E-011  0.5052884E+02  0.7816164E-02  0.1300439E+00
        -11   -1    0    0    0    0  0.00000000000E+00  0.00000000000E+00  0.45593999997E+02  0.45594000000E+02  0.51100000000E-03 0.  1.
         11   -1    0    0    0    0 -0.00000000000E+00 -0.00000000000E+00 -0.45593999997E+02  0.45594000000E+02  0.51100000000E-03 0. -1.
    9900012    2    1    2    0    0 -0.17378323298E+02  0.14736106378E+02 -0.33675040850E+02  0.50528839555E+02  0.29999938313E+02 0.  0.
        -12    1    1    2    0    0  0.17378323298E+02 -0.14736106378E+02  0.33675040850E+02  0.40659160445E+02  0.00000000000E+00 0.  1.
         11    1    3    3    0    0  0.14478355076E+01  0.29236993388E+01 -0.14046024571E+02  0.14419953259E+02  0.51100000000E-03 0. -1.
        -11    1    3    3    0    0 -0.83892681132E+00  0.81072400086E+01 -0.15153726493E+02  0.17206584950E+02  0.51100000000E-03 0.  1.
         12    1    3    3    0    0 -0.17987231994E+02  0.37051670307E+01 -0.44752897858E+01  0.18902301347E+02  0.00000000000E+00 0. -1.
</event>
<event>
 7    1  0.3014423E-011  0.5052886E+02  0.7816164E-02  0.1300439E+00
        -11   -1    0    0    0    0  0.00000000000E+00  0.00000000000E+00  0.45593999997E+02  0.45594000000E+02  0.51100000000E-03 0.  1.
         11   -1    0    0    0    0 -0.00000000000E+00 -0.00000000000E+00 -0.45593999997E+02  0.45594000000E+02  0.51100000000E-03 0. -1.
    9900012    2    1    2    0    0  0.30296760639E+02 -0.23684658723E+02 -0.13202594445E+02  0.50528864936E+02  0.30000015460E+02 0.  0.
        -12    1    1    2    0    0 -0.30296760639E+02  0.23684658723E+02  0.13202594445E+02  0.40659135064E+02  0.00000000000E+00 0.  1.
         11    1    3    3    0    0  0.81754399812E+01  0.56442197084E+01 -0.43474613373E+01  0.10844143827E+02  0.51100000000E-03 0. -1.
        -11    1    3    3    0    0  0.14655062601E+01 -0.13213679641E+01  0.24020895296E+01  0.31086582740E+01  0.51100000000E-03 0.  1.
        -12    1    3    3    0    0  0.20655814397E+02 -0.28007510468E+02 -0.11257222637E+02  0.36576062835E+02  0.00000000000E+00 0.  1.
</event>
<event>
 7    1  0.3014423E-011  0.5052886E+02  0.7816164E-02  0.1300439E+00
        -11   -1    0    0    0    0  0.00000000000E+00  0.00000000000E+00  0.45593999997E+02  0.45594000000E+02  0.51100000000E-03 0.  1.
         11   -1    0    0    0    0 -0.00000000000E+00 -0.00000000000E+00 -0.45593999997E+02  0.45594000000E+02  0.51100000000E-03 0. -1.
    9900012    2    1    2    0    0  0.30750969519E+02 -0.18952430060E+02 -0.18664114001E+02  0.50528857326E+02  0.29999992327E+02 0.  0.
        -12    1    1    2    0    0 -0.30750969519E+02  0.18952430060E+02  0.18664114001E+02  0.40659142674E+02  0.00000000000E+00 0.  1.
         11    1    3    3    0    0 -0.27942889109E+00  0.17428808693E+01 -0.89423287671E+01  0.91148756585E+01  0.51100000000E-03 0.  1.
        -11    1    3    3    0    0  0.18553419331E+02 -0.95563591699E+01 -0.12692449688E+02  0.24426453873E+02  0.51100000000E-03 0. -1.
        -12    1    3    3    0    0  0.12476979080E+02 -0.11138951760E+02  0.29706644544E+01  0.16987527794E+02  0.00000000000E+00 0.  1.
</event>
<event>
 7    1  0.3014423E-011  0.5052887E+02  0.7816164E-02  0.1300439E+00
        -11   -1    0    0    0    0  0.00000000000E+00  0.00000000000E+00  0.45593999997E+02  0.45594000000E+02  0.51100000000E-03 0.  1.
         11   -1    0    0    0    0 -0.00000000000E+00 -0.00000000000E+00 -0.45593999997E+02  0.45594000000E+02  0.51100000000E-03 0. -1.
    9900012    2    1    2    0    0 -0.22932983413E+02 -0.80373039101E+01 -0.32598235177E+02  0.50528869180E+02  0.30000028361E+02 0.  0.
        -12    1    1    2    0    0  0.22932983413E+02  0.80373039101E+01  0.32598235177E+02  0.40659130820E+02  0.00000000000E+00 0.  1.
         11    1    3    3    0    0 -0.16140028399E+02 -0.80427950284E+01 -0.17208491989E+02  0.24926276604E+02  0.51100000000E-03 0. -1.
        -11    1    3    3    0    0 -0.25720882070E+01 -0.10270524099E+01  0.44779735017E+01  0.52652370640E+01  0.51100000000E-03 0.  1.
         12    1    3    3    0    0 -0.42208668073E+01  0.10325435282E+01 -0.19867716690E+02  0.20337355512E+02  0.00000000000E+00 0. -1.
</event>
<event>
 7    1  0.3014423E-011  0.5052889E+02  0.7816164E-02  0.1300439E+00
        -11   -1    0    0    0    0  0.00000000000E+00  0.00000000000E+00  0.45593999997E+02  0.45594000000E+02  0.51100000000E-03 0.  1.
         11   -1    0    0    0    0 -0.00000000000E+00 -0.00000000000E+00 -0.45593999997E+02  0.45594000000E+02  0.51100000000E-03 0. -1.
    9900012    2    1    2    0    0  0.39358652450E+02  0.40748637652E+00 -0.10192804701E+02  0.50528894802E+02  0.30000106241E+02 0.  0.
        -12    1    1    2    0    0 -0.39358652450E+02 -0.40748637652E+00  0.10192804701E+02  0.40659105198E+02  0.00000000000E+00 0.  1.
         11    1    3    3    0    0  0.55724228866E+01 -0.44006198815E+01 -0.62495670233E+01  0.94590930013E+01  0.51100000000E-03 0. -1.
        -11    1    3    3    0    0  0.18794436998E+02 -0.26815316406E+01 -0.12016371818E+02  0.22468081047E+02  0.51100000000E-03 0.  1.
        -12    1    3    3    0    0  0.14991792565E+02  0.74896378986E+01  0.80731341400E+01  0.18601720754E+02  0.00000000000E+00 0.  1.
</event>
<event>
 7    1  0.3014423E-011  0.5052886E+02  0.7816164E-02  0.1300439E+00
        -11   -1    0    0    0    0  0.00000000000E+00  0.00000000000E+00  0.45593999997E+02  0.45594000000E+02  0.51100000000E-03 0. -1.
         11   -1    0    0    0    0 -0.00000000000E+00 -0.00000000000E+00 -0.45593999997E+02  0.45594000000E+02  0.51100000000E-03 0.  1.
    9900012    2    1    2    0    0 -0.27036676236E+02 -0.22467598623E+02  0.20430137341E+02  0.50528863738E+02  0.30000011817E+02 0.  0.
        -12    1    1    2    0    0  0.27036676236E+02  0.22467598623E+02 -0.20430137341E+02  0.40659136262E+02  0.00000000000E+00 0.  1.
         11    1    3    3    0    0 -0.52434848968E+00  0.41410955610E+01  0.38189921000E+01  0.56575891248E+01  0.51100000000E-03 0. -1.
        -11    1    3    3    0    0 -0.72852331450E+01  0.45309451493E+00  0.74584613684E+01  0.10435926545E+02  0.51100000000E-03 0.  1.
         12    1    3    3    0    0 -0.19227094602E+02 -0.27061788699E+02  0.91526838731E+01  0.34435348067E+02  0.00000000000E+00 0. -1.
</event>
<event>
 7    1  0.3014423E-011  0.5052886E+02  0.7816164E-02  0.1300439E+00
        -11   -1    0    0    0    0  0.00000000000E+00  0.00000000000E+00  0.45593999997E+02  0.45594000000E+02  0.51100000000E-03 0. -1.
         11   -1    0    0    0    0 -0.00000000000E+00 -0.00000000000E+00 -0.45593999997E+02  0.45594000000E+02  0.51100000000E-03 0.  1.
    9900012    2    1    2    0    0 -0.19784173757E+02  0.90337842536E+00  0.35509658535E+02  0.50528862367E+02  0.30000007650E+02 0.  0.
        -12    1    1    2    0    0  0.19784173757E+02 -0.90337842536E+00 -0.35509658535E+02  0.40659137633E+02  0.00000000000E+00 0.  1.
         11    1    3    3    0    0 -0.42644502947E+01 -0.57989430440E+01  0.94087084543E+01  0.11846394886E+02  0.51100000000E-03 0. -1.
        -11    1    3    3    0    0 -0.14445814250E+02  0.61757049081E+01  0.30400288526E+02  0.34219854225E+02  0.51100000000E-03 0.  1.
        -12    1    3    3    0    0 -0.10739092127E+01  0.52661656121E+00 -0.42993384460E+01  0.44626132561E+01  0.00000000000E+00 0.  1.
</event>
<event>
 7    1  0.3014423E-011  0.5052886E+02  0.7816164E-02  0.1300439E+00
        -11   -1    0    0    0    0  0.00000000000E+00  0.00000000000E+00  0.45593999997E+02  0.45594000000E+02  0.51100000000E-03 0. -1.
         11   -1    0    0    0    0 -0.00000000000E+00 -0.00000000000E+00 -0.45593999997E+02  0.45594000000E+02  0.51100000000E-03 0.  1.
    9900012    2    1    2    0    0 -0.13893524126E+02  0.57480509287E+00  0.38207394591E+02  0.50528863082E+02  0.30000009823E+02 0.  0.
        -12    1    1    2    0    0  0.13893524126E+02 -0.57480509287E+00 -0.38207394591E+02  0.40659136918E+02  0.00000000000E+00 0.  1.
         11    1    3    3    0    0 -0.16005673605E+02  0.47229926305E+00  0.10146380280E+02  0.18956626472E+02  0.51100000000E-03 0. -1.
        -11    1    3    3    0    0 -0.61600941541E+01 -0.43868121005E-01  0.10879976979E+02  0.12502903012E+02  0.51100000000E-03 0.  1.
        -12    1    3    3    0    0  0.82722436336E+01  0.14637395082E+00  0.17181037331E+02  0.19069333597E+02  0.00000000000E+00 0.  1.
</event>
<event>
 7    1  0.3014423E-011  0.5052884E+02  0.7816164E-02  0.1300439E+00
        -11   -1    0    0    0    0  0.00000000000E+00  0.00000000000E+00  0.45593999997E+02  0.45594000000E+02  0.51100000000E-03 0.  1.
         11   -1    0    0    0    0 -0.00000000000E+00 -0.00000000000E+00 -0.45593999997E+02  0.45594000000E+02  0.51100000000E-03 0. -1.
    9900012    2    1    2    0    0 -0.15004368590E+02  0.30158406344E+02 -0.22770744295E+02  0.50528839338E+02  0.29999937652E+02 0.  0.
        -12    1    1    2    0    0  0.15004368590E+02 -0.30158406344E+02  0.22770744295E+02  0.40659160662E+02  0.00000000000E+00 0.  1.
         11    1    3    3    0    0  0.68188144088E+01  0.97092594382E+01 -0.82505924269E+01  0.14451236087E+02  0.51100000000E-03 0. -1.
        -11    1    3    3    0    0 -0.11086151688E+01  0.20320954098E+01 -0.69779734248E+01  0.73519081010E+01  0.51100000000E-03 0.  1.
        -12    1    3    3    0    0 -0.20714567830E+02  0.18417051496E+02 -0.75421784429E+01  0.28725695150E+02  0.00000000000E+00 0.  1.
</event>
<event>
 7    1  0.3014423E-011  0.5052882E+02  0.7816164E-02  0.1300439E+00
        -11   -1    0    0    0    0  0.00000000000E+00  0.00000000000E+00  0.45593999997E+02  0.45594000000E+02  0.51100000000E-03 0.  1.
         11   -1    0    0    0    0 -0.00000000000E+00 -0.00000000000E+00 -0.45593999997E+02  0.45594000000E+02  0.51100000000E-03 0. -1.
    9900012    2    1    2    0    0 -0.22595575589E+02 -0.90176732937E+01 -0.32577449961E+02  0.50528822515E+02  0.29999886516E+02 0.  0.
        -12    1    1    2    0    0  0.22595575589E+02  0.90176732937E+01  0.32577449961E+02  0.40659177485E+02  0.00000000000E+00 0.  1.
         11    1    3    3    0    0 -0.11843489447E+02  0.19022703614E+01 -0.77452513698E+01  0.14278508110E+02  0.51100000000E-03 0.  1.
        -11    1    3    3    0    0 -0.14586198415E+02 -0.14067692517E+02 -0.23661684106E+02  0.31153369833E+02  0.51100000000E-03 0. -1.
        -12    1    3    3    0    0  0.38341122723E+01  0.31477488615E+01 -0.11705144844E+01  0.50969445720E+01  0.00000000000E+00 0.  1.
</event>
<event>
 7    1  0.3014423E-011  0.5052887E+02  0.7816164E-02  0.1300439E+00
        -11   -1    0    0    0    0  0.00000000000E+00  0.00000000000E+00  0.45593999997E+02  0.45594000000E+02  0.51100000000E-03 0.  1.
         11   -1    0    0    0    0 -0.00000000000E+00 -0.00000000000E+00 -0.45593999997E+02  0.45594000000E+02  0.51100000000E-03 0. -1.
    9900012    2    1    2    0    0  0.12378802122E+02  0.12934563486E+02 -0.36505162654E+02  0.50528873412E+02  0.30000041222E+02 0.  0.
        -12    1    1    2    0    0 -0.12378802122E+02 -0.12934563486E+02  0.36505162654E+02  0.40659126588E+02  0.00000000000E+00 0.  1.
         11    1    3    3    0    0  0.13112860596E+02  0.54644989273E+01 -0.87033465616E+01  0.16660015101E+02  0.51100000000E-03 0. -1.
        -11    1    3    3    0    0 -0.29235630111E+01 -0.48385816058E+01 -0.38165220373E+01  0.68209188060E+01  0.51100000000E-03 0.  1.
         12    1    3    3    0    0  0.21895045370E+01  0.12308646165E+02 -0.23985294055E+02  0.27047939504E+02  0.00000000000E+00 0. -1.
</event>
<event>
 7    1  0.3014423E-011  0.5052888E+02  0.7816164E-02  0.1300439E+00
        -11   -1    0    0    0    0  0.00000000000E+00  0.00000000000E+00  0.45593999997E+02  0.45594000000E+02  0.51100000000E-03 0.  1.
         11   -1    0    0    0    0 -0.00000000000E+00 -0.00000000000E+00 -0.45593999997E+02  0.45594000000E+02  0.51100000000E-03 0. -1.
    9900012    2    1    2    0    0  0.40423477546E+01  0.72222389432E+01 -0.39807825430E+02  0.50528877085E+02  0.30000052387E+02 0.  0.
        -12    1    1    2    0    0 -0.40423477546E+01 -0.72222389432E+01  0.39807825430E+02  0.40659122915E+02  0.00000000000E+00 0.  1.
         11    1    3    3    0    0  0.10869338707E+02  0.18913659561E+01 -0.25051079271E+02  0.27372912925E+02  0.51100000000E-03 0. -1.
        -11    1    3    3    0    0 -0.54151162191E+01 -0.39272057533E+01 -0.11380502130E+02  0.13200843067E+02  0.51100000000E-03 0.  1.
         12    1    3    3    0    0 -0.14118747336E+01  0.92580787403E+01 -0.33762440302E+01  0.99551210930E+01  0.00000000000E+00 0. -1.
</event>
<event>
 7    1  0.3014423E-011  0.5052886E+02  0.7816164E-02  0.1300439E+00
        -11   -1    0    0    0    0  0.00000000000E+00  0.00000000000E+00  0.45593999997E+02  0.45594000000E+02  0.51100000000E-03 0. -1.
         11   -1    0    0    0    0 -0.00000000000E+00 -0.00000000000E+00 -0.45593999997E+02  0.45594000000E+02  0.51100000000E-03 0.  1.
    9900012    2    1    2    0    0 -0.38907738393E+01  0.40419327442E+02  0.20749359314E+01  0.50528861900E+02  0.30000006231E+02 0.  0.
        -12    1    1    2    0    0  0.38907738393E+01 -0.40419327442E+02 -0.20749359314E+01  0.40659138100E+02  0.00000000000E+00 0.  1.
         11    1    3    3    0    0  0.49262977087E+01 -0.16248335069E+01  0.18119847398E+01  0.54947049055E+01  0.51100000000E-03 0. -1.
        -11    1    3    3    0    0  0.32480491189E+01  0.42322498657E+01 -0.24806161629E+00  0.53407206285E+01  0.51100000000E-03 0.  1.
         12    1    3    3    0    0 -0.12065120667E+02  0.37811911083E+02  0.51101280788E+00  0.39693436366E+02  0.00000000000E+00 0. -1.
</event>
<event>
 7    1  0.3014423E-011  0.5052886E+02  0.7816164E-02  0.1300439E+00
        -11   -1    0    0    0    0  0.00000000000E+00  0.00000000000E+00  0.45593999997E+02  0.45594000000E+02  0.51100000000E-03 0.  1.
         11   -1    0    0    0    0 -0.00000000000E+00 -0.00000000000E+00 -0.45593999997E+02  0.45594000000E+02  0.51100000000E-03 0. -1.
    9900012    2    1    2    0    0  0.48609586404E+01 -0.90375076392E+01 -0.39342854539E+02  0.50528859988E+02  0.30000000420E+02 0.  0.
        -12    1    1    2    0    0 -0.48609586404E+01  0.90375076392E+01  0.39342854539E+02  0.40659140012E+02  0.00000000000E+00 0.  1.
         11    1    3    3    0    0  0.49814643278E+01  0.39878408881E+01 -0.20273360728E+02  0.21253870642E+02  0.51100000000E-03 0. -1.
        -11    1    3    3    0    0  0.11717474445E+01  0.59360278933E-01  0.32029607545E+01  0.34110809976E+01  0.51100000000E-03 0.  1.
         12    1    3    3    0    0 -0.12922531319E+01 -0.13084708806E+02 -0.22272454565E+02  0.25863908348E+02  0.00000000000E+00 0. -1.
</event>
<event>
 7    1  0.3014423E-011  0.5052886E+02  0.7816164E-02  0.1300439E+00
        -11   -1    0    0    0    0  0.00000000000E+00  0.00000000000E+00  0.45593999997E+02  0.45594000000E+02  0.51100000000E-03 0.  1.
         11   -1    0    0    0    0 -0.00000000000E+00 -0.00000000000E+00 -0.45593999997E+02  0.45594000000E+02  0.51100000000E-03 0. -1.
    9900012    2    1    2    0    0 -0.30207048512E+02  0.14133627974E+02 -0.23258119222E+02  0.50528864135E+02  0.30000013025E+02 0.  0.
        -12    1    1    2    0    0  0.30207048512E+02 -0.14133627974E+02  0.23258119222E+02  0.40659135865E+02  0.00000000000E+00 0.  1.
         11    1    3    3    0    0 -0.21431182870E+02  0.16759865001E+02 -0.12882449367E+02  0.30102261975E+02  0.51100000000E-03 0. -1.
        -11    1    3    3    0    0 -0.44449886314E+01  0.50292060089E+01 -0.94378174605E+01  0.11581158651E+02  0.51100000000E-03 0.  1.
        -12    1    3    3    0    0 -0.43308770108E+01 -0.76554430362E+01 -0.93785239474E+00  0.88454435093E+01  0.00000000000E+00 0.  1.
</event>
<event>
 7    1  0.3014423E-011  0.5052886E+02  0.7816164E-02  0.1300439E+00
        -11   -1    0    0    0    0  0.00000000000E+00  0.00000000000E+00  0.45593999997E+02  0.45594000000E+02  0.51100000000E-03 0. -1.
         11   -1    0    0    0    0 -0.00000000000E+00 -0.00000000000E+00 -0.45593999997E+02  0.45594000000E+02  0.51100000000E-03 0.  1.
    9900012    2    1    2    0    0  0.82587620266E+01  0.20425605766E+02  0.34172400777E+02  0.50528862085E+02  0.30000006793E+02 0.  0.
        -12    1    1    2    0    0 -0.82587620266E+01 -0.20425605766E+02 -0.34172400777E+02  0.40659137915E+02  0.00000000000E+00 0.  1.
         11    1    3    3    0    0  0.46894928223E+00  0.45572835848E+01  0.97776356365E+01  0.10797726891E+02  0.51100000000E-03 0. -1.
        -11    1    3    3    0    0 -0.45342136801E+01  0.17236972962E+02  0.90095637989E+01  0.19971093377E+02  0.51100000000E-03 0.  1.
        -12    1    3    3    0    0  0.12324026424E+02 -0.13686507806E+01  0.15385201342E+02  0.19760041817E+02  0.00000000000E+00 0.  1.
</event>
<event>
 7    1  0.3014423E-011  0.5052874E+02  0.7816164E-02  0.1300439E+00
        -11   -1    0    0    0    0  0.00000000000E+00  0.00000000000E+00  0.45593999997E+02  0.45594000000E+02  0.51100000000E-03 0. -1.
         11   -1    0    0    0    0 -0.00000000000E+00 -0.00000000000E+00 -0.45593999997E+02  0.45594000000E+02  0.51100000000E-03 0.  1.
    9900012    2    1    2    0    0 -0.14773443899E+02 -0.19544711193E+02  0.32448811039E+02  0.50528736380E+02  0.29999624699E+02 0.  0.
        -12    1    1    2    0    0  0.14773443899E+02  0.19544711193E+02 -0.32448811039E+02  0.40659263620E+02  0.00000000000E+00 0.  1.
         11    1    3    3    0    0 -0.26220603367E+01 -0.10981737369E+02  0.11073065086E+02  0.15814124279E+02  0.51100000000E-03 0.  1.
        -11    1    3    3    0    0 -0.10097585168E+01 -0.14031806208E+02  0.15657659688E+02  0.21049311269E+02  0.51100000000E-03 0. -1.
         12    1    3    3    0    0 -0.11141625045E+02  0.54688323840E+01  0.57180862646E+01  0.13665300832E+02  0.00000000000E+00 0. -1.
</event>
<event>
 7    1  0.3014423E-011  0.5052887E+02  0.7816164E-02  0.1300439E+00
        -11   -1    0    0    0    0  0.00000000000E+00  0.00000000000E+00  0.45593999997E+02  0.45594000000E+02  0.51100000000E-03 0.  1.
         11   -1    0    0    0    0 -0.00000000000E+00 -0.00000000000E+00 -0.45593999997E+02  0.45594000000E+02  0.51100000000E-03 0. -1.
    9900012    2    1    2    0    0  0.66602509450E+01 -0.37915919864E+02  0.13083928550E+02  0.50528866856E+02  0.30000021295E+02 0.  0.
        -12    1    1    2    0    0 -0.66602509450E+01  0.37915919864E+02 -0.13083928550E+02  0.40659133144E+02  0.00000000000E+00 0.  1.
         11    1    3    3    0    0  0.30618521634E+01  0.10176861768E+01 -0.38797328239E+00  0.32497918940E+01  0.51100000000E-03 0. -1.
        -11    1    3    3    0    0 -0.33194742878E+01 -0.27852535473E+01  0.92736250299E+01  0.10236047495E+02  0.51100000000E-03 0.  1.
         12    1    3    3    0    0  0.69178730694E+01 -0.36148352493E+02  0.41982768021E+01  0.37043027466E+02  0.00000000000E+00 0. -1.
</event>
<event>
 7    1  0.3014423E-011  0.5052884E+02  0.7816164E-02  0.1300439E+00
        -11   -1    0    0    0    0  0.00000000000E+00  0.00000000000E+00  0.45593999997E+02  0.45594000000E+02  0.51100000000E-03 0. -1.
         11   -1    0    0    0    0 -0.00000000000E+00 -0.00000000000E+00 -0.45593999997E+02  0.45594000000E+02  0.51100000000E-03 0.  1.
    9900012    2    1    2    0    0  0.39582786543E+02  0.18404175040E+00 -0.92917407730E+01  0.50528839797E+02  0.29999939046E+02 0.  0.
        -12    1    1    2    0    0 -0.39582786543E+02 -0.18404175040E+00  0.92917407730E+01  0.40659160203E+02  0.00000000000E+00 0.  1.
         11    1    3    3    0    0  0.86838161978E+01 -0.45733333925E+01 -0.73106150849E+01  0.12238020071E+02  0.51100000000E-03 0. -1.
        -11    1    3    3    0    0 -0.21929910673E+01 -0.32886170958E+01 -0.15104150884E+01  0.42314969248E+01  0.51100000000E-03 0.  1.
        -12    1    3    3    0    0  0.33091961412E+02  0.80459922387E+01 -0.47071059971E+00  0.34059322801E+02  0.00000000000E+00 0.  1.
</event>
<event>
 7    1  0.3014423E-011  0.5052888E+02  0.7816164E-02  0.1300439E+00
        -11   -1    0    0    0    0  0.00000000000E+00  0.00000000000E+00  0.45593999997E+02  0.45594000000E+02  0.51100000000E-03 0.  1.
         11   -1    0    0    0    0 -0.00000000000E+00 -0.00000000000E+00 -0.45593999997E+02  0.45594000000E+02  0.51100000000E-03 0. -1.
    9900012    2    1    2    0    0 -0.28526906423E+02 -0.21739409031E+02 -0.19151452802E+02  0.50528875077E+02  0.30000046283E+02 0.  0.
        -12    1    1    2    0    0  0.28526906423E+02  0.21739409031E+02  0.19151452802E+02  0.40659124923E+02  0.00000000000E+00 0.  1.
         11    1    3    3    0    0  0.26449502686E+01 -0.24800717302E+00  0.61202916989E+00  0.27261418611E+01  0.51100000000E-03 0.  1.
        -11    1    3    3    0    0 -0.23011643746E+01  0.53091662123E+00 -0.98971824750E+01  0.10175040597E+02  0.51100000000E-03 0. -1.
         12    1    3    3    0    0 -0.28870692317E+02 -0.22022318480E+02 -0.98662994969E+01  0.37627692619E+02  0.00000000000E+00 0. -1.
</event>
<event>
 7    1  0.3014423E-011  0.5052886E+02  0.7816164E-02  0.1300439E+00
        -11   -1    0    0    0    0  0.00000000000E+00  0.00000000000E+00  0.45593999997E+02  0.45594000000E+02  0.51100000000E-03 0.  1.
         11   -1    0    0    0    0 -0.00000000000E+00 -0.00000000000E+00 -0.45593999997E+02  0.45594000000E+02  0.51100000000E-03 0. -1.
    9900012    2    1    2    0    0  0.20434270621E+02 -0.60411632718E+01 -0.34628174264E+02  0.50528861761E+02  0.30000005808E+02 0.  0.
        -12    1    1    2    0    0 -0.20434270621E+02  0.60411632718E+01  0.34628174264E+02  0.40659138239E+02  0.00000000000E+00 0.  1.
         11    1    3    3    0    0  0.26052266719E+01 -0.10446160271E+02 -0.21701468816E+02  0.24225259946E+02  0.51100000000E-03 0. -1.
        -11    1    3    3    0    0  0.63626466964E+01 -0.45017253004E+01 -0.74612426776E+01  0.10789761175E+02  0.51100000000E-03 0.  1.
        -12    1    3    3    0    0  0.11466397253E+02  0.89067222999E+01 -0.54654627702E+01  0.15513840639E+02  0.00000000000E+00 0.  1.
</event>
<event>
 7    1  0.3014423E-011  0.5052886E+02  0.7816164E-02  0.1300439E+00
        -11   -1    0    0    0    0  0.00000000000E+00  0.00000000000E+00  0.45593999997E+02  0.45594000000E+02  0.51100000000E-03 0.  1.
         11   -1    0    0    0    0 -0.00000000000E+00 -0.00000000000E+00 -0.45593999997E+02  0.45594000000E+02  0.51100000000E-03 0. -1.
    9900012    2    1    2    0    0  0.30208488857E+02 -0.16898629419E+02 -0.21331885921E+02  0.50528857950E+02  0.29999994225E+02 0.  0.
        -12    1    1    2    0    0 -0.30208488857E+02  0.16898629419E+02  0.21331885921E+02  0.40659142050E+02  0.00000000000E+00 0.  1.
         11    1    3    3    0    0  0.38065204128E+01  0.75373766360E+00 -0.63375253161E+01  0.74311469850E+01  0.51100000000E-03 0. -1.
        -11    1    3    3    0    0  0.80940209909E+01  0.58630043727E+01 -0.62886400603E+00  0.10014163284E+02  0.51100000000E-03 0.  1.
         12    1    3    3    0    0  0.18307947454E+02 -0.23515371456E+02 -0.14365496599E+02  0.33083547681E+02  0.00000000000E+00 0. -1.
</event>
<event>
 7    1  0.3014423E-011  0.5052888E+02  0.7816164E-02  0.1300439E+00
        -11   -1    0    0    0    0  0.00000000000E+00  0.00000000000E+00  0.45593999997E+02  0.45594000000E+02  0.51100000000E-03 0.  1.
         11   -1    0    0    0    0 -0.00000000000E+00 -0.00000000000E+00 -0.45593999997E+02  0.45594000000E+02  0.51100000000E-03 0. -1.
    9900012    2    1    2    0    0 -0.33133507791E+02 -0.78091371938E+01 -0.22234038631E+02  0.50528875119E+02  0.30000046411E+02 0.  0.
        -12    1    1    2    0    0  0.33133507791E+02  0.78091371938E+01  0.22234038631E+02  0.40659124881E+02  0.00000000000E+00 0.  1.
         11    1    3    3    0    0 -0.29244949751E+02 -0.95142424192E+01 -0.18221259135E+02  0.35746358968E+02  0.51100000000E-03 0. -1.
        -11    1    3    3    0    0 -0.72888676089E+01  0.22631035889E+01 -0.68986485719E+01  0.10287885169E+02  0.51100000000E-03 0.  1.
        -12    1    3    3    0    0  0.34003095685E+01 -0.55799836355E+00  0.28858690761E+01  0.44946309815E+01  0.00000000000E+00 0.  1.
</event>
<event>
 7    1  0.3014423E-011  0.5052886E+02  0.7816164E-02  0.1300439E+00
        -11   -1    0    0    0    0  0.00000000000E+00  0.00000000000E+00  0.45593999997E+02  0.45594000000E+02  0.51100000000E-03 0.  1.
         11   -1    0    0    0    0 -0.00000000000E+00 -0.00000000000E+00 -0.45593999997E+02  0.45594000000E+02  0.51100000000E-03 0. -1.
    9900012    2    1    2    0    0 -0.37683759343E+02  0.10916020453E+02 -0.10674275669E+02  0.50528863489E+02  0.30000011062E+02 0.  0.
        -12    1    1    2    0    0  0.37683759343E+02 -0.10916020453E+02  0.10674275669E+02  0.40659136511E+02  0.00000000000E+00 0.  1.
         11    1    3    3    0    0 -0.30383335508E+02  0.15128226690E+02 -0.11049017849E+02  0.35694412939E+02  0.51100000000E-03 0. -1.
        -11    1    3    3    0    0 -0.10481363671E+02 -0.14739421000E+01  0.80610496721E+00  0.10615144615E+02  0.51100000000E-03 0.  1.
        -12    1    3    3    0    0  0.31809398359E+01 -0.27382641369E+01 -0.43136278723E+00  0.42193059355E+01  0.00000000000E+00 0.  1.
</event>
<event>
 7    1  0.3014423E-011  0.5052886E+02  0.7816164E-02  0.1300439E+00
        -11   -1    0    0    0    0  0.00000000000E+00  0.00000000000E+00  0.45593999997E+02  0.45594000000E+02  0.51100000000E-03 0.  1.
         11   -1    0    0    0    0 -0.00000000000E+00 -0.00000000000E+00 -0.45593999997E+02  0.45594000000E+02  0.51100000000E-03 0. -1.
    9900012    2    1    2    0    0  0.39352566948E+02  0.42724452513E+01 -0.92891106838E+01  0.50528857226E+02  0.29999992025E+02 0.  0.
        -12    1    1    2    0    0 -0.39352566948E+02 -0.42724452513E+01  0.92891106838E+01  0.40659142774E+02  0.00000000000E+00 0.  1.
         11    1    3    3    0    0  0.19152623184E+01  0.98208034165E+01  0.11897962982E+00  0.10006526166E+02  0.51100000000E-03 0. -1.
        -11    1    3    3    0    0  0.13426468158E+02 -0.53529929292E+01 -0.78787262914E+01  0.16462044488E+02  0.51100000000E-03 0.  1.
        -12    1    3    3    0    0  0.24010836471E+02 -0.19536523597E+00 -0.15293640222E+01  0.24060286572E+02  0.00000000000E+00 0.  1.
</event>
<event>
 7    1  0.3014423E-011  0.5052886E+02  0.7816164E-02  0.1300439E+00
        -11   -1    0    0    0    0  0.00000000000E+00  0.00000000000E+00  0.45593999997E+02  0.45594000000E+02  0.51100000000E-03 0.  1.
         11   -1    0    0    0    0 -0.00000000000E+00 -0.00000000000E+00 -0.45593999997E+02  0.45594000000E+02  0.51100000000E-03 0. -1.
    9900012    2    1    2    0    0 -0.23477022458E+02  0.11040905562E+02 -0.31306445654E+02  0.50528859348E+02  0.29999998473E+02 0.  0.
        -12    1    1    2    0    0  0.23477022458E+02 -0.11040905562E+02  0.31306445654E+02  0.40659140652E+02  0.00000000000E+00 0.  1.
         11    1    3    3    0    0 -0.61998926450E+01  0.63558581641E+01 -0.11250755971E+02  0.14332310072E+02  0.51100000000E-03 0. -1.
        -11    1    3    3    0    0  0.50537285765E+01  0.55734255083E+01 -0.30701159615E+01  0.81258142176E+01  0.51100000000E-03 0.  1.
        -12    1    3    3    0    0 -0.22330858389E+02 -0.88837810996E+00 -0.16985573721E+02  0.28070735058E+02  0.00000000000E+00 0.  1.
</event>
<event>
 7    1  0.3014423E-011  0.5052886E+02  0.7816164E-02  0.1300439E+00
        -11   -1    0    0    0    0  0.00000000000E+00  0.00000000000E+00  0.45593999997E+02  0.45594000000E+02  0.51100000000E-03 0. -1.
         11   -1    0    0    0    0 -0.00000000000E+00 -0.00000000000E+00 -0.45593999997E+02  0.45594000000E+02  0.51100000000E-03 0.  1.
    9900012    2    1    2    0    0 -0.12569698335E+02  0.32546786323E+02  0.20877618977E+02  0.50528860925E+02  0.30000003268E+02 0.  0.
        -12    1    1    2    0    0  0.12569698335E+02 -0.32546786323E+02 -0.20877618977E+02  0.40659139075E+02  0.00000000000E+00 0.  1.
         11    1    3    3    0    0  0.43909282240E+01 -0.11225838331E+01  0.23960468993E+01  0.51265471943E+01  0.51100000000E-03 0. -1.
        -11    1    3    3    0    0 -0.16219746409E+01 -0.20397661323E+01  0.11149689213E+01  0.28345376283E+01  0.51100000000E-03 0.  1.
        -12    1    3    3    0    0 -0.15338651918E+02  0.35709136288E+02  0.17366603156E+02  0.42567776102E+02  0.00000000000E+00 0.  1.
</event>
<event>
 7    1  0.3014423E-011  0.5052886E+02  0.7816164E-02  0.1300439E+00
        -11   -1    0    0    0    0  0.00000000000E+00  0.00000000000E+00  0.45593999997E+02  0.45594000000E+02  0.51100000000E-03 0.  1.
         11   -1    0    0    0    0 -0.00000000000E+00 -0.00000000000E+00 -0.45593999997E+02  0.45594000000E+02  0.51100000000E-03 0. -1.
    9900012    2    1    2    0    0  0.33008021690E+02  0.59392934288E+01 -0.22986102029E+02  0.50528860944E+02  0.30000003325E+02 0.  0.
        -12    1    1    2    0    0 -0.33008021690E+02 -0.59392934288E+01  0.22986102029E+02  0.40659139056E+02  0.00000000000E+00 0.  1.
         11    1    3    3    0    0  0.19363130323E+02  0.35412298221E+01 -0.83882380095E+01  0.21397047968E+02  0.51100000000E-03 0. -1.
        -11    1    3    3    0    0  0.12650318764E+02  0.10794889688E+02 -0.11023204690E+02  0.19951722986E+02  0.51100000000E-03 0.  1.
        -12    1    3    3    0    0  0.99457260223E+00 -0.83968260814E+01 -0.35746593299E+01  0.91800899901E+01  0.00000000000E+00 0.  1.
</event>
<event>
 7    1  0.3014423E-011  0.5052885E+02  0.7816164E-02  0.1300439E+00
        -11   -1    0    0    0    0  0.00000000000E+00  0.00000000000E+00  0.45593999997E+02  0.45594000000E+02  0.51100000000E-03 0.  1.
         11   -1    0    0    0    0 -0.00000000000E+00 -0.00000000000E+00 -0.45593999997E+02  0.45594000000E+02  0.51100000000E-03 0. -1.
    9900012    2    1    2    0    0  0.23468459533E+02 -0.23798454704E+02 -0.23152345167E+02  0.50528854339E+02  0.29999983249E+02 0.  0.
        -12    1    1    2    0    0 -0.23468459533E+02  0.23798454704E+02  0.23152345167E+02  0.40659145661E+02  0.00000000000E+00 0.  1.
         11    1    3    3    0    0  0.24183831154E+02 -0.16053394476E+02 -0.12410928179E+02  0.31568976892E+02  0.51100000000E-03 0. -1.
        -11    1    3    3    0    0  0.59695233328E+01 -0.10623189343E+01 -0.31274876267E+01  0.68223829748E+01  0.51100000000E-03 0.  1.
         12    1    3    3    0    0 -0.66848949537E+01 -0.66827412939E+01 -0.76139293612E+01  0.12137494472E+02  0.00000000000E+00 0. -1.
</event>
<event>
 7    1  0.3014423E-011  0.5052891E+02  0.7816164E-02  0.1300439E+00
        -11   -1    0    0    0    0  0.00000000000E+00  0.00000000000E+00  0.45593999997E+02  0.45594000000E+02  0.51100000000E-03 0.  1.
         11   -1    0    0    0    0 -0.00000000000E+00 -0.00000000000E+00 -0.45593999997E+02  0.45594000000E+02  0.51100000000E-03 0. -1.
    9900012    2    1    2    0    0  0.15008384389E+02 -0.31558202278E+02 -0.20784364510E+02  0.50528910720E+02  0.30000154623E+02 0.  0.
        -12    1    1    2    0    0 -0.15008384389E+02  0.31558202278E+02  0.20784364510E+02  0.40659089280E+02  0.00000000000E+00 0.  1.
         11    1    3    3    0    0  0.58383531338E+01  0.12653814631E+01 -0.13939876594E+01  0.61343915279E+01  0.51100000000E-03 0. -1.
        -11    1    3    3    0    0  0.11869558391E+02 -0.83764257345E+01 -0.11612054877E+02  0.18598138165E+02  0.51100000000E-03 0.  1.
         12    1    3    3    0    0 -0.26995271350E+01 -0.24447158007E+02 -0.77783219743E+01  0.25796381027E+02  0.00000000000E+00 0. -1.
</event>
<event>
 7    1  0.3014423E-011  0.5052886E+02  0.7816164E-02  0.1300439E+00
        -11   -1    0    0    0    0  0.00000000000E+00  0.00000000000E+00  0.45593999997E+02  0.45594000000E+02  0.51100000000E-03 0.  1.
         11   -1    0    0    0    0 -0.00000000000E+00 -0.00000000000E+00 -0.45593999997E+02  0.45594000000E+02  0.51100000000E-03 0. -1.
    9900012    2    1    2    0    0  0.19497190648E+02  0.13084879147E+02 -0.33193545295E+02  0.50528856444E+02  0.29999989647E+02 0.  0.
        -12    1    1    2    0    0 -0.19497190648E+02 -0.13084879147E+02  0.33193545295E+02  0.40659143556E+02  0.00000000000E+00 0.  1.
         11    1    3    3    0    0 -0.23907534724E+01  0.90729821183E+01 -0.14256362893E+02  0.17066885770E+02  0.51100000000E-03 0. -1.
        -11    1    3    3    0    0 -0.13633291118E+01  0.17718215493E+01  0.12738279761E+01  0.25730635133E+01  0.51100000000E-03 0.  1.
         12    1    3    3    0    0  0.23251273233E+02  0.22400754791E+01 -0.20211010378E+02  0.30888907161E+02  0.00000000000E+00 0. -1.
</event>
<event>
 7    1  0.3014423E-011  0.5052886E+02  0.7816164E-02  0.1300439E+00
        -11   -1    0    0    0    0  0.00000000000E+00  0.00000000000E+00  0.45593999997E+02  0.45594000000E+02  0.51100000000E-03 0.  1.
         11   -1    0    0    0    0 -0.00000000000E+00 -0.00000000000E+00 -0.45593999997E+02  0.45594000000E+02  0.51100000000E-03 0. -1.
    9900012    2    1    2    0    0 -0.39270503170E+02 -0.68533947337E+01  0.80015351199E+01  0.50528855852E+02  0.29999987848E+02 0.  0.
        -12    1    1    2    0    0  0.39270503170E+02  0.68533947337E+01 -0.80015351199E+01  0.40659144148E+02  0.00000000000E+00 0.  1.
         11    1    3    3    0    0 -0.81126340744E+01 -0.37312496430E+01 -0.45847959979E+01  0.10037799068E+02  0.51100000000E-03 0. -1.
        -11    1    3    3    0    0 -0.23568426665E+02 -0.77771407380E+00 -0.22231295229E+01  0.23685816005E+02  0.51100000000E-03 0.  1.
        -12    1    3    3    0    0 -0.75894424298E+01 -0.23444310169E+01  0.14809460641E+02  0.16805240779E+02  0.00000000000E+00 0.  1.
</event>
<event>
 7    1  0.3014423E-011  0.5052887E+02  0.7816164E-02  0.1300439E+00
        -11   -1    0    0    0    0  0.00000000000E+00  0.00000000000E+00  0.45593999997E+02  0.45594000000E+02  0.51100000000E-03 0.  1.
         11   -1    0    0    0    0 -0.00000000000E+00 -0.00000000000E+00 -0.45593999997E+02  0.45594000000E+02  0.51100000000E-03 0. -1.
    9900012    2    1    2    0    0  0.52224613060E+01 -0.18578046665E+01 -0.40279519634E+02  0.50528865206E+02  0.30000016279E+02 0.  0.
        -12    1    1    2    0    0 -0.52224613060E+01  0.18578046665E+01  0.40279519634E+02  0.40659134794E+02  0.00000000000E+00 0.  1.
         11    1    3    3    0    0 -0.28304563353E+01 -0.50228954449E+01 -0.11760896368E+02  0.13098077926E+02  0.51100000000E-03 0. -1.
        -11    1    3    3    0    0  0.41926074361E+01 -0.87439732272E+01 -0.20179507207E+02  0.22388558156E+02  0.51100000000E-03 0.  1.
        -12    1    3    3    0    0  0.38603102052E+01  0.11909064006E+02 -0.83391160590E+01  0.15042229124E+02  0.00000000000E+00 0.  1.
</event>
<event>
 7    1  0.3014423E-011  0.5052886E+02  0.7816164E-02  0.1300439E+00
        -11   -1    0    0    0    0  0.00000000000E+00  0.00000000000E+00  0.45593999997E+02  0.45594000000E+02  0.51100000000E-03 0.  1.
         11   -1    0    0    0    0 -0.00000000000E+00 -0.00000000000E+00 -0.45593999997E+02  0.45594000000E+02  0.51100000000E-03 0. -1.
    9900012    2    1    2    0    0 -0.92511551042E+01 -0.89290121166E+01 -0.38572721283E+02  0.50528856437E+02  0.29999989625E+02 0.  0.
        -12    1    1    2    0    0  0.92511551042E+01  0.89290121166E+01  0.38572721283E+02  0.40659143563E+02  0.00000000000E+00 0.  1.
         11    1    3    3    0    0  0.44028964398E+01  0.38873223572E+01 -0.72488960469E+01  0.93296980834E+01  0.51100000000E-03 0. -1.
        -11    1    3    3    0    0  0.20931439071E+01  0.21495544471E+01  0.94124435104E-01  0.30017820386E+01  0.51100000000E-03 0.  1.
         12    1    3    3    0    0 -0.15747195451E+02 -0.14965888921E+02 -0.31417949671E+02  0.38197376315E+02  0.00000000000E+00 0. -1.
</event>
<event>
 7    1  0.3014423E-011  0.5052886E+02  0.7816164E-02  0.1300439E+00
        -11   -1    0    0    0    0  0.00000000000E+00  0.00000000000E+00  0.45593999997E+02  0.45594000000E+02  0.51100000000E-03 0. -1.
         11   -1    0    0    0    0 -0.00000000000E+00 -0.00000000000E+00 -0.45593999997E+02  0.45594000000E+02  0.51100000000E-03 0.  1.
    9900012    2    1    2    0    0 -0.15564287043E+02 -0.14623256155E+01  0.37533717080E+02  0.50528863939E+02  0.30000012430E+02 0.  0.
        -12    1    1    2    0    0  0.15564287043E+02  0.14623256155E+01 -0.37533717080E+02  0.40659136061E+02  0.00000000000E+00 0.  1.
         11    1    3    3    0    0 -0.11058991563E+02  0.22881641332E+01  0.12906012512E+02  0.17149406658E+02  0.51100000000E-03 0.  1.
        -11    1    3    3    0    0  0.21961199990E+01 -0.97769944079E+01  0.38562619993E+01  0.10737007012E+02  0.51100000000E-03 0. -1.
         12    1    3    3    0    0 -0.67014154784E+01  0.60265046592E+01  0.20771442569E+02  0.22642450270E+02  0.00000000000E+00 0. -1.
</event>
<event>
 7    1  0.3014423E-011  0.5052886E+02  0.7816164E-02  0.1300439E+00
        -11   -1    0    0    0    0  0.00000000000E+00  0.00000000000E+00  0.45593999997E+02  0.45594000000E+02  0.51100000000E-03 0.  1.
         11   -1    0    0    0    0 -0.00000000000E+00 -0.00000000000E+00 -0.45593999997E+02  0.45594000000E+02  0.51100000000E-03 0. -1.
    9900012    2    1    2    0    0 -0.21392241419E+02  0.14429448552E+02 -0.31421780652E+02  0.50528864768E+02  0.30000014950E+02 0.  0.
        -12    1    1    2    0    0  0.21392241419E+02 -0.14429448552E+02  0.31421780652E+02  0.40659135232E+02  0.00000000000E+00 0.  1.
         11    1    3    3    0    0 -0.61249126742E+01 -0.46324388015E+01  0.18969482833E+00  0.76817985463E+01  0.51100000000E-03 0. -1.
        -11    1    3    3    0    0 -0.45467077868E+01  0.49522579826E+01 -0.13377318360E+00  0.67242327704E+01  0.51100000000E-03 0.  1.
         12    1    3    3    0    0 -0.10720620958E+02  0.14109629370E+02 -0.31477702297E+02  0.36122833452E+02  0.00000000000E+00 0. -1.
</event>
<event>
 7    1  0.3014423E-011  0.5052886E+02  0.7816164E-02  0.1300439E+00
        -11   -1    0    0    0    0  0.00000000000E+00  0.00000000000E+00  0.45593999997E+02  0.45594000000E+02  0.51100000000E-03 0.  1.
         11   -1    0    0    0    0 -0.00000000000E+00 -0.00000000000E+00 -0.45593999997E+02  0.45594000000E+02  0.51100000000E-03 0. -1.
    9900012    2    1    2    0    0 -0.14874283717E+02 -0.14698928765E+02 -0.34869221577E+02  0.50528862818E+02  0.30000009023E+02 0.  0.
        -12    1    1    2    0    0  0.14874283717E+02  0.14698928765E+02  0.34869221577E+02  0.40659137182E+02  0.00000000000E+00 0.  1.
         11    1    3    3    0    0 -0.13025634633E+01 -0.14032913065E+02 -0.54333801464E+01  0.15104335164E+02  0.51100000000E-03 0. -1.
        -11    1    3    3    0    0 -0.49357928295E+01 -0.23751694983E+01 -0.88665189225E+00  0.55488406754E+01  0.51100000000E-03 0.  1.
        -12    1    3    3    0    0 -0.86359274244E+01  0.17091537977E+01 -0.28549189539E+02  0.29875686979E+02  0.00000000000E+00 0.  1.
</event>
<event>
 7    1  0.3014423E-011  0.5052886E+02  0.7816164E-02  0.1300439E+00
        -11   -1    0    0    0    0  0.00000000000E+00  0.00000000000E+00  0.45593999997E+02  0.45594000000E+02  0.51100000000E-03 0.  1.
         11   -1    0    0    0    0 -0.00000000000E+00 -0.00000000000E+00 -0.45593999997E+02  0.45594000000E+02  0.51100000000E-03 0. -1.
    9900012    2    1    2    0    0 -0.32633913805E+02 -0.57703725914E+01 -0.23556237791E+02  0.50528857499E+02  0.29999992854E+02 0.  0.
        -12    1    1    2    0    0  0.32633913805E+02  0.57703725914E+01  0.23556237791E+02  0.40659142501E+02  0.00000000000E+00 0.  1.
         11    1    3    3    0    0 -0.42330779127E+01 -0.65786030950E+01 -0.29965669006E+01  0.83771343995E+01  0.51100000000E-03 0. -1.
        -11    1    3    3    0    0 -0.88902333930E+00 -0.44837562501E+01 -0.12024908827E+02  0.12864403024E+02  0.51100000000E-03 0.  1.
         12    1    3    3    0    0 -0.27511812553E+02  0.52919867537E+01 -0.85347620631E+01  0.29287320076E+02  0.00000000000E+00 0. -1.
</event>
<event>
 7    1  0.3014423E-011  0.5052885E+02  0.7816164E-02  0.1300439E+00
        -11   -1    0    0    0    0  0.00000000000E+00  0.00000000000E+00  0.45593999997E+02  0.45594000000E+02  0.51100000000E-03 0. -1.
         11   -1    0    0    0    0 -0.00000000000E+00 -0.00000000000E+00 -0.45593999997E+02  0.45594000000E+02  0.51100000000E-03 0.  1.
    9900012    2    1    2    0    0 -0.14524442215E+02 -0.37068487250E+02  0.82543383398E+01  0.50528852566E+02  0.29999977859E+02 0.  0.
        -12    1    1    2    0    0  0.14524442215E+02  0.37068487250E+02 -0.82543383398E+01  0.40659147434E+02  0.00000000000E+00 0.  1.
         11    1    3    3    0    0 -0.14136678077E+02 -0.35549123538E+02  0.18565978372E+00  0.38257291085E+02  0.51100000000E-03 0. -1.
        -11    1    3    3    0    0 -0.45438941329E+01  0.20361726129E-01  0.26102607284E+01  0.52403100883E+01  0.51100000000E-03 0.  1.
        -12    1    3    3    0    0  0.41561299952E+01 -0.15397254382E+01  0.54584178277E+01  0.70312513925E+01  0.00000000000E+00 0.  1.
</event>
<event>
 7    1  0.3014423E-011  0.5052886E+02  0.7816164E-02  0.1300439E+00
        -11   -1    0    0    0    0  0.00000000000E+00  0.00000000000E+00  0.45593999997E+02  0.45594000000E+02  0.51100000000E-03 0.  1.
         11   -1    0    0    0    0 -0.00000000000E+00 -0.00000000000E+00 -0.45593999997E+02  0.45594000000E+02  0.51100000000E-03 0. -1.
    9900012    2    1    2    0    0 -0.10463250477E+02 -0.94734359528E+00 -0.39278351887E+02  0.50528855919E+02  0.29999988052E+02 0.  0.
        -12    1    1    2    0    0  0.10463250477E+02  0.94734359528E+00  0.39278351887E+02  0.40659144081E+02  0.00000000000E+00 0.  1.
         11    1    3    3    0    0  0.28740567587E+01  0.10616121068E+00 -0.22106039670E+02  0.22292340895E+02  0.51100000000E-03 0. -1.
        -11    1    3    3    0    0 -0.23784031837E+01  0.78896750663E+01 -0.56312789454E+01  0.99807353025E+01  0.51100000000E-03 0.  1.
         12    1    3    3    0    0 -0.10958904052E+02 -0.89431798723E+01 -0.11541033272E+02  0.18255779721E+02  0.00000000000E+00 0. -1.
</event>
<event>
 7    1  0.3014423E-011  0.5052886E+02  0.7816164E-02  0.1300439E+00
        -11   -1    0    0    0    0  0.00000000000E+00  0.00000000000E+00  0.45593999997E+02  0.45594000000E+02  0.51100000000E-03 0.  1.
         11   -1    0    0    0    0 -0.00000000000E+00 -0.00000000000E+00 -0.45593999997E+02  0.45594000000E+02  0.51100000000E-03 0. -1.
    9900012    2    1    2    0    0  0.18928296122E+02 -0.27006660908E+02 -0.23780787502E+02  0.50528856112E+02  0.29999988637E+02 0.  0.
        -12    1    1    2    0    0 -0.18928296122E+02  0.27006660908E+02  0.23780787502E+02  0.40659143888E+02  0.00000000000E+00 0.  1.
         11    1    3    3    0    0  0.72598141294E+00 -0.37162017880E+01 -0.44535941735E+01  0.58456570259E+01  0.51100000000E-03 0. -1.
        -11    1    3    3    0    0  0.21458843454E+02 -0.24893716905E+02 -0.95067522593E+01  0.34213410273E+02  0.51100000000E-03 0.  1.
        -12    1    3    3    0    0 -0.32565287446E+01  0.16032577850E+01 -0.98204410692E+01  0.10469788813E+02  0.00000000000E+00 0.  1.
</event>
<event>
 7    1  0.3014423E-011  0.5052886E+02  0.7816164E-02  0.1300439E+00
        -11   -1    0    0    0    0  0.00000000000E+00  0.00000000000E+00  0.45593999997E+02  0.45594000000E+02  0.51100000000E-03 0.  1.
         11   -1    0    0    0    0 -0.00000000000E+00 -0.00000000000E+00 -0.45593999997E+02  0.45594000000E+02  0.51100000000E-03 0. -1.
    9900012    2    1    2    0    0  0.27490746544E+02  0.29954851871E+02 -0.36281304002E+00  0.50528856755E+02  0.29999990591E+02 0.  0.
        -12    1    1    2    0    0 -0.27490746544E+02 -0.29954851871E+02  0.36281304002E+00  0.40659143245E+02  0.00000000000E+00 0.  1.
         11    1    3    3    0    0  0.22591702000E+02  0.22649562187E+02  0.25857448318E+01  0.32094761926E+02  0.51100000000E-03 0. -1.
        -11    1    3    3    0    0  0.86795407576E+01  0.88745242593E+01 -0.55357417217E+01  0.13591763876E+02  0.51100000000E-03 0.  1.
        -12    1    3    3    0    0 -0.37804962139E+01 -0.15692345752E+01  0.25871838500E+01  0.48423309520E+01  0.00000000000E+00 0.  1.
</event>
<event>
 7    1  0.3014423E-011  0.5052879E+02  0.7816164E-02  0.1300439E+00
        -11   -1    0    0    0    0  0.00000000000E+00  0.00000000000E+00  0.45593999997E+02  0.45594000000E+02  0.51100000000E-03 0. -1.
         11   -1    0    0    0    0 -0.00000000000E+00 -0.00000000000E+00 -0.45593999997E+02  0.45594000000E+02  0.51100000000E-03 0.  1.
    9900012    2    1    2    0    0  0.97424103935E+00 -0.29043097521E+02  0.28438012706E+02  0.50528791622E+02  0.29999792615E+02 0.  0.
        -12    1    1    2    0    0 -0.97424103935E+00  0.29043097521E+02 -0.28438012706E+02  0.40659208378E+02  0.00000000000E+00 0.  1.
         11    1    3    3    0    0  0.13784402558E+01  0.41318139829E+01  0.10105860182E+01  0.44713833083E+01  0.51100000000E-03 0. -1.
        -11    1    3    3    0    0 -0.15533052666E+01  0.11133780391E+00 -0.13347845219E+01  0.20510493262E+01  0.51100000000E-03 0.  1.
         12    1    3    3    0    0  0.11491060502E+01 -0.33286249308E+02  0.28762211210E+02  0.44006358988E+02  0.00000000000E+00 0. -1.
</event>
<event>
 7    1  0.3014423E-011  0.5052886E+02  0.7816164E-02  0.1300439E+00
        -11   -1    0    0    0    0  0.00000000000E+00  0.00000000000E+00  0.45593999997E+02  0.45594000000E+02  0.51100000000E-03 0. -1.
         11   -1    0    0    0    0 -0.00000000000E+00 -0.00000000000E+00 -0.45593999997E+02  0.45594000000E+02  0.51100000000E-03 0.  1.
    9900012    2    1    2    0    0  0.38085629120E+02  0.13936192365E+02 -0.29039889693E+01  0.50528858899E+02  0.29999997110E+02 0.  0.
        -12    1    1    2    0    0 -0.38085629120E+02 -0.13936192365E+02  0.29039889693E+01  0.40659141101E+02  0.00000000000E+00 0.  1.
         11    1    3    3    0    0  0.13696518133E+02 -0.81149292644E+01 -0.53007713244E+01  0.16779298639E+02  0.51100000000E-03 0.  1.
        -11    1    3    3    0    0  0.55801266618E+01  0.76912681744E+01 -0.19220222478E+01  0.96947196697E+01  0.51100000000E-03 0. -1.
        -12    1    3    3    0    0  0.18808984326E+02  0.14359853455E+02  0.43188046029E+01  0.24054840590E+02  0.00000000000E+00 0.  1.
</event>
<event>
 7    1  0.3014423E-011  0.5052886E+02  0.7816164E-02  0.1300439E+00
        -11   -1    0    0    0    0  0.00000000000E+00  0.00000000000E+00  0.45593999997E+02  0.45594000000E+02  0.51100000000E-03 0. -1.
         11   -1    0    0    0    0 -0.00000000000E+00 -0.00000000000E+00 -0.45593999997E+02  0.45594000000E+02  0.51100000000E-03 0.  1.
    9900012    2    1    2    0    0  0.33657744153E+02 -0.57779933110E+00  0.22803242175E+02  0.50528862685E+02  0.30000008617E+02 0.  0.
        -12    1    1    2    0    0 -0.33657744153E+02  0.57779933110E+00 -0.22803242175E+02  0.40659137315E+02  0.00000000000E+00 0.  1.
         11    1    3    3    0    0  0.72664159717E+01  0.11825579038E+01  0.70371614699E+01  0.10184345148E+02  0.51100000000E-03 0. -1.
        -11    1    3    3    0    0  0.68773819480E+01 -0.73740813798E+01  0.17254334605E+02  0.19984682174E+02  0.51100000000E-03 0.  1.
        -12    1    3    3    0    0  0.19513946233E+02  0.56137241449E+01 -0.14882539002E+01  0.20359835364E+02  0.00000000000E+00 0.  1.
</event>
<event>
 7    1  0.3014423E-011  0.5052886E+02  0.7816164E-02  0.1300439E+00
        -11   -1    0    0    0    0  0.00000000000E+00  0.00000000000E+00  0.45593999997E+02  0.45594000000E+02  0.51100000000E-03 0.  1.
         11   -1    0    0    0    0 -0.00000000000E+00 -0.00000000000E+00 -0.45593999997E+02  0.45594000000E+02  0.51100000000E-03 0. -1.
    9900012    2    1    2    0    0 -0.49179611760E+01 -0.17966842502E+02 -0.36141003368E+02  0.50528857165E+02  0.29999991838E+02 0.  0.
        -12    1    1    2    0    0  0.49179611760E+01  0.17966842502E+02  0.36141003368E+02  0.40659142835E+02  0.00000000000E+00 0.  1.
         11    1    3    3    0    0  0.30611861547E+01 -0.64703738515E+01 -0.54874247762E+01  0.90193364161E+01  0.51100000000E-03 0. -1.
        -11    1    3    3    0    0 -0.89888245744E+01 -0.15405281440E+02 -0.99654107409E+01  0.20431130046E+02  0.51100000000E-03 0.  1.
         12    1    3    3    0    0  0.10096772436E+01  0.39088127895E+01 -0.20688167851E+02  0.21078390702E+02  0.00000000000E+00 0. -1.
</event>
<event>
 7    1  0.3014423E-011  0.5052886E+02  0.7816164E-02  0.1300439E+00
        -11   -1    0    0    0    0  0.00000000000E+00  0.00000000000E+00  0.45593999997E+02  0.45594000000E+02  0.51100000000E-03 0.  1.
         11   -1    0    0    0    0 -0.00000000000E+00 -0.00000000000E+00 -0.45593999997E+02  0.45594000000E+02  0.51100000000E-03 0. -1.
    9900012    2    1    2    0    0  0.23346655176E+02 -0.23999712636E+02 -0.23067578093E+02  0.50528859901E+02  0.30000000155E+02 0.  0.
        -12    1    1    2    0    0 -0.23346655176E+02  0.23999712636E+02  0.23067578093E+02  0.40659140099E+02  0.00000000000E+00 0.  1.
         11    1    3    3    0    0  0.69414981478E+01 -0.11851770966E+02 -0.77945178756E+01  0.15792510274E+02  0.51100000000E-03 0. -1.
        -11    1    3    3    0    0  0.10141997268E+02 -0.16057096222E+02 -0.14276213150E+01  0.19045433851E+02  0.51100000000E-03 0.  1.
         12    1    3    3    0    0  0.62631597599E+01  0.39091545529E+01 -0.13845438903E+02  0.15690915777E+02  0.00000000000E+00 0. -1.
</event>
<event>
 7    1  0.3014423E-011  0.5052887E+02  0.7816164E-02  0.1300439E+00
        -11   -1    0    0    0    0  0.00000000000E+00  0.00000000000E+00  0.45593999997E+02  0.45594000000E+02  0.51100000000E-03 0.  1.
         11   -1    0    0    0    0 -0.00000000000E+00 -0.00000000000E+00 -0.45593999997E+02  0.45594000000E+02  0.51100000000E-03 0. -1.
    9900012    2    1    2    0    0  0.23902616677E+02 -0.28073058495E+02 -0.17138647646E+02  0.50528868918E+02  0.30000027562E+02 0.  0.
        -12    1    1    2    0    0 -0.23902616677E+02  0.28073058495E+02  0.17138647646E+02  0.40659131082E+02  0.00000000000E+00 0.  1.
         11    1    3    3    0    0  0.14090356739E+02 -0.28139380134E+02 -0.61819792317E+01  0.32071478526E+02  0.51100000000E-03 0. -1.
        -11    1    3    3    0    0  0.94408193203E+01 -0.25789311579E+01 -0.32680211331E+01  0.10317941546E+02  0.51100000000E-03 0.  1.
        -12    1    3    3    0    0  0.37144061731E+00  0.26452527972E+01 -0.76886472814E+01  0.81394488456E+01  0.00000000000E+00 0.  1.
</event>
<event>
 7    1  0.3014423E-011  0.5052886E+02  0.7816164E-02  0.1300439E+00
        -11   -1    0    0    0    0  0.00000000000E+00  0.00000000000E+00  0.45593999997E+02  0.45594000000E+02  0.51100000000E-03 0.  1.
         11   -1    0    0    0    0 -0.00000000000E+00 -0.00000000000E+00 -0.45593999997E+02  0.45594000000E+02  0.51100000000E-03 0. -1.
    9900012    2    1    2    0    0  0.89670953694E+00  0.31468573628E+02 -0.25731117292E+02  0.50528860667E+02  0.30000002484E+02 0.  0.
        -12    1    1    2    0    0 -0.89670953694E+00 -0.31468573628E+02  0.25731117292E+02  0.40659139333E+02  0.00000000000E+00 0.  1.
         11    1    3    3    0    0 -0.85562859587E+01  0.59671287601E+01 -0.92867940535E+01  0.13966431151E+02  0.51100000000E-03 0. -1.
        -11    1    3    3    0    0 -0.19558868791E+01 -0.20096166166E+01 -0.21105728005E+01  0.35097820782E+01  0.51100000000E-03 0.  1.
         12    1    3    3    0    0  0.11408882375E+02  0.27511061484E+02 -0.14333750439E+02  0.33052647438E+02  0.00000000000E+00 0. -1.
</event>
<event>
 7    1  0.3014423E-011  0.5052884E+02  0.7816164E-02  0.1300439E+00
        -11   -1    0    0    0    0  0.00000000000E+00  0.00000000000E+00  0.45593999997E+02  0.45594000000E+02  0.51100000000E-03 0.  1.
         11   -1    0    0    0    0 -0.00000000000E+00 -0.00000000000E+00 -0.45593999997E+02  0.45594000000E+02  0.51100000000E-03 0. -1.
    9900012    2    1    2    0    0 -0.84115620058E+00  0.17757804260E+00 -0.40650067677E+02  0.50528842607E+02  0.29999947589E+02 0.  0.
        -12    1    1    2    0    0  0.84115620058E+00 -0.17757804260E+00  0.40650067677E+02  0.40659157393E+02  0.00000000000E+00 0.  1.
         11    1    3    3    0    0 -0.55725355618E+01 -0.19970947801E+01 -0.91947325060E+01  0.10935476499E+02  0.51100000000E-03 0. -1.
        -11    1    3    3    0    0 -0.85100198233E+01  0.31513331903E+01 -0.20358184264E+02  0.22289167886E+02  0.51100000000E-03 0.  1.
         12    1    3    3    0    0  0.13241399184E+02 -0.97666036766E+00 -0.11097150907E+02  0.17304198222E+02  0.00000000000E+00 0. -1.
</event>
<event>
 7    1  0.3476055E-011  0.5052886E+02  0.7816164E-02  0.1300439E+00
        -11   -1    0    0    0    0  0.00000000000E+00  0.00000000000E+00  0.45593999997E+02  0.45594000000E+02  0.51100000000E-03 0. -1.
         11   -1    0    0    0    0 -0.00000000000E+00 -0.00000000000E+00 -0.45593999997E+02  0.45594000000E+02  0.51100000000E-03 0.  1.
    9900012    2    1    2    0    0  0.61871441364E+01  0.24080433011E+02  0.32171686621E+02  0.50528862938E+02  0.30000009386E+02 0.  0.
        -12    1    1    2    0    0 -0.61871441364E+01 -0.24080433011E+02 -0.32171686621E+02  0.40659137062E+02  0.00000000000E+00 0.  1.
         11    1    3    3    0    0 -0.20958960108E+01  0.21294940377E+01  0.40192321965E+01  0.50081685929E+01  0.51100000000E-03 0. -1.
        -11    1    3    3    0    0  0.97562668224E+00  0.41818480005E+01 -0.53741921876E+01  0.68790727612E+01  0.51100000000E-03 0.  1.
         12    1    3    3    0    0  0.73074134649E+01  0.17769090973E+02  0.33526646613E+02  0.38641621584E+02  0.00000000000E+00 0. -1.
</event>
<event>
 7    1  0.3014423E-011  0.5052887E+02  0.7816164E-02  0.1300439E+00
        -11   -1    0    0    0    0  0.00000000000E+00  0.00000000000E+00  0.45593999997E+02  0.45594000000E+02  0.51100000000E-03 0. -1.
         11   -1    0    0    0    0 -0.00000000000E+00 -0.00000000000E+00 -0.45593999997E+02  0.45594000000E+02  0.51100000000E-03 0.  1.
    9900012    2    1    2    0    0  0.29905455306E+02 -0.25164740548E+02  0.11205536635E+02  0.50528874638E+02  0.30000044950E+02 0.  0.
        -12    1    1    2    0    0 -0.29905455306E+02  0.25164740548E+02 -0.11205536635E+02  0.40659125362E+02  0.00000000000E+00 0.  1.
         11    1    3    3    0    0  0.95887381542E+00 -0.13087898167E+02  0.48416456900E+01  0.13987639210E+02  0.51100000000E-03 0. -1.
        -11    1    3    3    0    0  0.12577440926E+02 -0.29089672489E+00  0.99679680336E+01  0.16051075606E+02  0.51100000000E-03 0.  1.
        -12    1    3    3    0    0  0.16369140565E+02 -0.11785945656E+02 -0.36040770891E+01  0.20490159822E+02  0.00000000000E+00 0.  1.
</event>
<event>
 7    1  0.3014423E-011  0.5052886E+02  0.7816164E-02  0.1300439E+00
        -11   -1    0    0    0    0  0.00000000000E+00  0.00000000000E+00  0.45593999997E+02  0.45594000000E+02  0.51100000000E-03 0. -1.
         11   -1    0    0    0    0 -0.00000000000E+00 -0.00000000000E+00 -0.45593999997E+02  0.45594000000E+02  0.51100000000E-03 0.  1.
    9900012    2    1    2    0    0  0.33673355925E+02 -0.22775471501E+02 -0.74063275924E+00  0.50528861565E+02  0.30000005213E+02 0.  0.
        -12    1    1    2    0    0 -0.33673355925E+02  0.22775471501E+02  0.74063275924E+00  0.40659138435E+02  0.00000000000E+00 0.  1.
         11    1    3    3    0    0  0.12335777658E+02 -0.57143761718E+01  0.72546514741E+01  0.15409590317E+02  0.51100000000E-03 0.  1.
        -11    1    3    3    0    0  0.72487684524E+01 -0.18445116469E+02 -0.26848220789E+01  0.19999380878E+02  0.51100000000E-03 0. -1.
         12    1    3    3    0    0  0.14088809815E+02  0.13840211399E+01 -0.53104621544E+01  0.15119890370E+02  0.00000000000E+00 0. -1.
</event>
<event>
 7    1  0.3014423E-011  0.5052888E+02  0.7816164E-02  0.1300439E+00
        -11   -1    0    0    0    0  0.00000000000E+00  0.00000000000E+00  0.45593999997E+02  0.45594000000E+02  0.51100000000E-03 0.  1.
         11   -1    0    0    0    0 -0.00000000000E+00 -0.00000000000E+00 -0.45593999997E+02  0.45594000000E+02  0.51100000000E-03 0. -1.
    9900012    2    1    2    0    0 -0.24019897330E+02  0.28939533417E+02 -0.15450306622E+02  0.50528880029E+02  0.30000061336E+02 0.  0.
        -12    1    1    2    0    0  0.24019897330E+02 -0.28939533417E+02  0.15450306622E+02  0.40659119971E+02  0.00000000000E+00 0.  1.
         11    1    3    3    0    0  0.15158742343E+01  0.10100306168E+02 -0.45411283667E+01  0.11177473171E+02  0.51100000000E-03 0. -1.
        -11    1    3    3    0    0 -0.58328298437E+01  0.17003647495E+02 -0.61468597088E+01  0.18998152980E+02  0.51100000000E-03 0.  1.
        -12    1    3    3    0    0 -0.19702941721E+02  0.18355797539E+01 -0.47623185460E+01  0.20353253878E+02  0.00000000000E+00 0.  1.
</event>
<event>
 7    1  0.3014423E-011  0.5052886E+02  0.7816164E-02  0.1300439E+00
        -11   -1    0    0    0    0  0.00000000000E+00  0.00000000000E+00  0.45593999997E+02  0.45594000000E+02  0.51100000000E-03 0.  1.
         11   -1    0    0    0    0 -0.00000000000E+00 -0.00000000000E+00 -0.45593999997E+02  0.45594000000E+02  0.51100000000E-03 0. -1.
    9900012    2    1    2    0    0 -0.37071632569E+02 -0.12337051973E+02 -0.11254181697E+02  0.50528863285E+02  0.30000010442E+02 0.  0.
        -12    1    1    2    0    0  0.37071632569E+02  0.12337051973E+02  0.11254181697E+02  0.40659136715E+02  0.00000000000E+00 0.  1.
         11    1    3    3    0    0 -0.68062065727E+01 -0.64445956703E+01 -0.10556907304E+02  0.14117561877E+02  0.51100000000E-03 0. -1.
        -11    1    3    3    0    0 -0.17437870786E+02 -0.71142866130E+01  0.84165263037E+01  0.20628386433E+02  0.51100000000E-03 0.  1.
         12    1    3    3    0    0 -0.12827555210E+02  0.12218303100E+01 -0.91138006971E+01  0.15782914975E+02  0.00000000000E+00 0. -1.
</event>
<event>
 7    1  0.3014423E-011  0.5052887E+02  0.7816164E-02  0.1300439E+00
        -11   -1    0    0    0    0  0.00000000000E+00  0.00000000000E+00  0.45593999997E+02  0.45594000000E+02  0.51100000000E-03 0.  1.
         11   -1    0    0    0    0 -0.00000000000E+00 -0.00000000000E+00 -0.45593999997E+02  0.45594000000E+02  0.51100000000E-03 0. -1.
    9900012    2    1    2    0    0  0.35606865444E+02 -0.17809161424E+02  0.82553100661E+01  0.50528865213E+02  0.30000016300E+02 0.  0.
        -12    1    1    2    0    0 -0.35606865444E+02  0.17809161424E+02 -0.82553100661E+01  0.40659134787E+02  0.00000000000E+00 0.  1.
         11    1    3    3    0    0  0.15215202317E+02 -0.24415159215E+01  0.13367962913E+02  0.20400142506E+02  0.51100000000E-03 0. -1.
        -11    1    3    3    0    0 -0.24093437371E+01 -0.11240445377E+01 -0.13519771689E+01  0.29826591982E+01  0.51100000000E-03 0.  1.
         12    1    3    3    0    0  0.22801006864E+02 -0.14243600965E+02 -0.37606756781E+01  0.27146063509E+02  0.00000000000E+00 0. -1.
</event>
<event>
 7    1  0.3014423E-011  0.5052886E+02  0.7816164E-02  0.1300439E+00
        -11   -1    0    0    0    0  0.00000000000E+00  0.00000000000E+00  0.45593999997E+02  0.45594000000E+02  0.51100000000E-03 0.  1.
         11   -1    0    0    0    0 -0.00000000000E+00 -0.00000000000E+00 -0.45593999997E+02  0.45594000000E+02  0.51100000000E-03 0. -1.
    9900012    2    1    2    0    0 -0.29831578981E+02  0.16106533584E+02 -0.22445982412E+02  0.50528860129E+02  0.30000000848E+02 0.  0.
        -12    1    1    2    0    0  0.29831578981E+02 -0.16106533584E+02  0.22445982412E+02  0.40659139871E+02  0.00000000000E+00 0.  1.
         11    1    3    3    0    0 -0.20273797278E+02  0.91578130803E+01 -0.13678048194E+01  0.22288187158E+02  0.51100000000E-03 0. -1.
        -11    1    3    3    0    0 -0.71020848079E+01 -0.18861366406E+01 -0.29366462429E+01  0.79133438863E+01  0.51100000000E-03 0.  1.
         12    1    3    3    0    0 -0.24556968953E+01  0.88348571441E+01 -0.18141531350E+02  0.20327329085E+02  0.00000000000E+00 0. -1.
</event>
<event>
 7    1  0.3014423E-011  0.5052884E+02  0.7816164E-02  0.1300439E+00
        -11   -1    0    0    0    0  0.00000000000E+00  0.00000000000E+00  0.45593999997E+02  0.45594000000E+02  0.51100000000E-03 0.  1.
         11   -1    0    0    0    0 -0.00000000000E+00 -0.00000000000E+00 -0.45593999997E+02  0.45594000000E+02  0.51100000000E-03 0. -1.
    9900012    2    1    2    0    0 -0.38088468497E+02 -0.34173263512E+01 -0.13811519866E+02  0.50528835807E+02  0.29999926920E+02 0.  0.
        -12    1    1    2    0    0  0.38088468497E+02  0.34173263512E+01  0.13811519866E+02  0.40659164193E+02  0.00000000000E+00 0.  1.
         11    1    3    3    0    0 -0.22621030921E+02  0.46760524491E+01 -0.15035397627E+02  0.27561561794E+02  0.51100000000E-03 0. -1.
        -11    1    3    3    0    0 -0.76470277419E+01 -0.39884237975E+01 -0.68398406430E+01  0.11007632714E+02  0.51100000000E-03 0.  1.
        -12    1    3    3    0    0 -0.78204098335E+01 -0.41049550028E+01  0.80637184035E+01  0.11959641300E+02  0.00000000000E+00 0.  1.
</event>
<event>
 7    1  0.3014423E-011  0.5052886E+02  0.7816164E-02  0.1300439E+00
        -11   -1    0    0    0    0  0.00000000000E+00  0.00000000000E+00  0.45593999997E+02  0.45594000000E+02  0.51100000000E-03 0. -1.
         11   -1    0    0    0    0 -0.00000000000E+00 -0.00000000000E+00 -0.45593999997E+02  0.45594000000E+02  0.51100000000E-03 0.  1.
    9900012    2    1    2    0    0  0.26596372863E+01  0.84419271273E+01  0.39684077109E+02  0.50528858591E+02  0.29999996173E+02 0.  0.
        -12    1    1    2    0    0 -0.26596372863E+01 -0.84419271273E+01 -0.39684077109E+02  0.40659141409E+02  0.00000000000E+00 0.  1.
         11    1    3    3    0    0  0.74771766138E+01  0.89035496017E+01  0.16803942255E+02  0.20434134217E+02  0.51100000000E-03 0. -1.
        -11    1    3    3    0    0 -0.30887817625E+01 -0.15968590749E+01 -0.27178648101E+01  0.44133118028E+01  0.51100000000E-03 0.  1.
        -12    1    3    3    0    0 -0.17287575650E+01  0.11352366005E+01  0.25597999664E+02  0.25681412572E+02  0.00000000000E+00 0.  1.
</event>
<event>
 7    1  0.3014423E-011  0.5052885E+02  0.7816164E-02  0.1300439E+00
        -11   -1    0    0    0    0  0.00000000000E+00  0.00000000000E+00  0.45593999997E+02  0.45594000000E+02  0.51100000000E-03 0.  1.
         11   -1    0    0    0    0 -0.00000000000E+00 -0.00000000000E+00 -0.45593999997E+02  0.45594000000E+02  0.51100000000E-03 0. -1.
    9900012    2    1    2    0    0  0.60121674567E+01 -0.22003793516E+02 -0.33657882856E+02  0.50528853859E+02  0.29999981789E+02 0.  0.
        -12    1    1    2    0    0 -0.60121674567E+01  0.22003793516E+02  0.33657882856E+02  0.40659146141E+02  0.00000000000E+00 0.  1.
         11    1    3    3    0    0 -0.22975644471E+01 -0.48246102395E+00 -0.72178027442E+00  0.24561225649E+01  0.51100000000E-03 0. -1.
        -11    1    3    3    0    0 -0.57168543705E+01 -0.13190160914E+02 -0.41124957301E+01  0.14952437601E+02  0.51100000000E-03 0.  1.
        -12    1    3    3    0    0  0.14026586274E+02 -0.83311715785E+01 -0.28823606851E+02  0.33120293693E+02  0.00000000000E+00 0.  1.
</event>
<event>
 7    1  0.3014423E-011  0.5052886E+02  0.7816164E-02  0.1300439E+00
        -11   -1    0    0    0    0  0.00000000000E+00  0.00000000000E+00  0.45593999997E+02  0.45594000000E+02  0.51100000000E-03 0.  1.
         11   -1    0    0    0    0 -0.00000000000E+00 -0.00000000000E+00 -0.45593999997E+02  0.45594000000E+02  0.51100000000E-03 0. -1.
    9900012    2    1    2    0    0  0.84684290190E+01 -0.23420630154E+01 -0.39698437897E+02  0.50528861781E+02  0.30000005869E+02 0.  0.
        -12    1    1    2    0    0 -0.84684290190E+01  0.23420630154E+01  0.39698437897E+02  0.40659138219E+02  0.00000000000E+00 0.  1.
         11    1    3    3    0    0 -0.40642943030E+01  0.38277234960E+01 -0.25203555884E+02  0.25814515002E+02  0.51100000000E-03 0. -1.
        -11    1    3    3    0    0  0.43922315441E+00 -0.25286878999E+01  0.24716248800E+01  0.35631600137E+01  0.51100000000E-03 0.  1.
        -12    1    3    3    0    0  0.12093500168E+02 -0.36410986115E+01 -0.16966506893E+02  0.21151186765E+02  0.00000000000E+00 0.  1.
</event>
<event>
 7    1  0.3014423E-011  0.5052886E+02  0.7816164E-02  0.1300439E+00
        -11   -1    0    0    0    0  0.00000000000E+00  0.00000000000E+00  0.45593999997E+02  0.45594000000E+02  0.51100000000E-03 0.  1.
         11   -1    0    0    0    0 -0.00000000000E+00 -0.00000000000E+00 -0.45593999997E+02  0.45594000000E+02  0.51100000000E-03 0. -1.
    9900012    2    1    2    0    0  0.26071829969E+02  0.31157417617E+02 -0.16250510992E+01  0.50528858573E+02  0.29999996119E+02 0.  0.
        -12    1    1    2    0    0 -0.26071829969E+02 -0.31157417617E+02  0.16250510992E+01  0.40659141427E+02  0.00000000000E+00 0.  1.
         11    1    3    3    0    0  0.24036263848E+02  0.32127034239E+02 -0.88732046848E+01  0.41092846949E+02  0.51100000000E-03 0. -1.
        -11    1    3    3    0    0  0.34728058087E+01  0.98769762819E+00  0.44758944054E+01  0.57506136872E+01  0.51100000000E-03 0.  1.
        -12    1    3    3    0    0 -0.14372396878E+01 -0.19573142498E+01  0.27722591802E+01  0.36853979371E+01  0.00000000000E+00 0.  1.
</event>
<event>
 7    1  0.3014423E-011  0.5052886E+02  0.7816164E-02  0.1300439E+00
        -11   -1    0    0    0    0  0.00000000000E+00  0.00000000000E+00  0.45593999997E+02  0.45594000000E+02  0.51100000000E-03 0.  1.
         11   -1    0    0    0    0 -0.00000000000E+00 -0.00000000000E+00 -0.45593999997E+02  0.45594000000E+02  0.51100000000E-03 0. -1.
    9900012    2    1    2    0    0  0.25666907080E+02 -0.27795727465E+02 -0.14892050358E+02  0.50528858983E+02  0.29999997365E+02 0.  0.
        -12    1    1    2    0    0 -0.25666907080E+02  0.27795727465E+02  0.14892050358E+02  0.40659141017E+02  0.00000000000E+00 0.  1.
         11    1    3    3    0    0  0.78565774871E+01 -0.14832028376E+02 -0.49981866478E+01  0.17512759508E+02  0.51100000000E-03 0. -1.
        -11    1    3    3    0    0 -0.47708590860E+00 -0.96257047310E+00  0.59251108870E+01  0.60217183730E+01  0.51100000000E-03 0.  1.
        -12    1    3    3    0    0  0.18287415502E+02 -0.12001128616E+02 -0.15818974597E+02  0.26994381102E+02  0.00000000000E+00 0.  1.
</event>
<event>
 7    1  0.3014423E-011  0.5052886E+02  0.7816164E-02  0.1300439E+00
        -11   -1    0    0    0    0  0.00000000000E+00  0.00000000000E+00  0.45593999997E+02  0.45594000000E+02  0.51100000000E-03 0.  1.
         11   -1    0    0    0    0 -0.00000000000E+00 -0.00000000000E+00 -0.45593999997E+02  0.45594000000E+02  0.51100000000E-03 0. -1.
    9900012    2    1    2    0    0  0.22262483571E+02 -0.31341279708E+02 -0.13239022291E+02  0.50528859580E+02  0.29999999180E+02 0.  0.
        -12    1    1    2    0    0 -0.22262483571E+02  0.31341279708E+02  0.13239022291E+02  0.40659140420E+02  0.00000000000E+00 0.  1.
         11    1    3    3    0    0 -0.48835241994E+01 -0.40368359727E+01 -0.34591503553E+01  0.72187654567E+01  0.51100000000E-03 0. -1.
        -11    1    3    3    0    0  0.14936162878E+01  0.10308430437E+01 -0.43382142983E+01  0.47025132169E+01  0.51100000000E-03 0.  1.
         12    1    3    3    0    0  0.25652391483E+02 -0.28335286779E+02 -0.54416576374E+01  0.38607580907E+02  0.00000000000E+00 0. -1.
</event>
<event>
 7    1  0.3014423E-011  0.5052887E+02  0.7816164E-02  0.1300439E+00
        -11   -1    0    0    0    0  0.00000000000E+00  0.00000000000E+00  0.45593999997E+02  0.45594000000E+02  0.51100000000E-03 0. -1.
         11   -1    0    0    0    0 -0.00000000000E+00 -0.00000000000E+00 -0.45593999997E+02  0.45594000000E+02  0.51100000000E-03 0.  1.
    9900012    2    1    2    0    0  0.48023127407E+01  0.37945690663E+02  0.13792289998E+02  0.50528869279E+02  0.30000028661E+02 0.  0.
        -12    1    1    2    0    0 -0.48023127407E+01 -0.37945690663E+02 -0.13792289998E+02  0.40659130721E+02  0.00000000000E+00 0.  1.
         11    1    3    3    0    0  0.34197179965E+01  0.48332830938E+01  0.96374124755E+01  0.11310827385E+02  0.51100000000E-03 0. -1.
        -11    1    3    3    0    0  0.72173430551E+01  0.25623949258E+01  0.25589659682E+01  0.80749127313E+01  0.51100000000E-03 0.  1.
        -12    1    3    3    0    0 -0.58347483109E+01  0.30550012644E+02  0.15959115543E+01  0.31143129163E+02  0.00000000000E+00 0.  1.
</event>
<event>
 7    1  0.3014423E-011  0.5052886E+02  0.7816164E-02  0.1300439E+00
        -11   -1    0    0    0    0  0.00000000000E+00  0.00000000000E+00  0.45593999997E+02  0.45594000000E+02  0.51100000000E-03 0. -1.
         11   -1    0    0    0    0 -0.00000000000E+00 -0.00000000000E+00 -0.45593999997E+02  0.45594000000E+02  0.51100000000E-03 0.  1.
    9900012    2    1    2    0    0 -0.29112259269E+01  0.40345465924E+02  0.41150774608E+01  0.50528859336E+02  0.29999998437E+02 0.  0.
        -12    1    1    2    0    0  0.29112259269E+01 -0.40345465924E+02 -0.41150774608E+01  0.40659140664E+02  0.00000000000E+00 0.  1.
         11    1    3    3    0    0  0.80458677337E+00  0.27450578896E+02  0.14840305376E+01  0.27502436047E+02  0.51100000000E-03 0. -1.
        -11    1    3    3    0    0 -0.21704624747E+01  0.12136073477E+02 -0.63597137827E+01  0.13872315829E+02  0.51100000000E-03 0.  1.
        -12    1    3    3    0    0 -0.15453502255E+01  0.75881355142E+00  0.89907607059E+01  0.91541074604E+01  0.00000000000E+00 0.  1.
</event>
<event>
 7    1  0.3014423E-011  0.5052886E+02  0.7816164E-02  0.1300439E+00
        -11   -1    0    0    0    0  0.00000000000E+00  0.00000000000E+00  0.45593999997E+02  0.45594000000E+02  0.51100000000E-03 0. -1.
         11   -1    0    0    0    0 -0.00000000000E+00 -0.00000000000E+00 -0.45593999997E+02  0.45594000000E+02  0.51100000000E-03 0.  1.
    9900012    2    1    2    0    0  0.37712861623E+02  0.11129903738E+01 -0.15154780550E+02  0.50528855236E+02  0.29999985976E+02 0.  0.
        -12    1    1    2    0    0 -0.37712861623E+02 -0.11129903738E+01  0.15154780550E+02  0.40659144764E+02  0.00000000000E+00 0.  1.
         11    1    3    3    0    0  0.21518140156E+02  0.60489193167E+01 -0.16734094292E+02  0.27922207877E+02  0.51100000000E-03 0. -1.
        -11    1    3    3    0    0  0.42659454836E+01  0.50221721713E+01  0.24822881103E+01  0.70414670852E+01  0.51100000000E-03 0.  1.
         12    1    3    3    0    0  0.11928775983E+02 -0.99581011143E+01 -0.90297436903E+00  0.15565180274E+02  0.00000000000E+00 0. -1.
</event>
<event>
 7    1  0.3014423E-011  0.5052886E+02  0.7816164E-02  0.1300439E+00
        -11   -1    0    0    0    0  0.00000000000E+00  0.00000000000E+00  0.45593999997E+02  0.45594000000E+02  0.51100000000E-03 0. -1.
         11   -1    0    0    0    0 -0.00000000000E+00 -0.00000000000E+00 -0.45593999997E+02  0.45594000000E+02  0.51100000000E-03 0.  1.
    9900012    2    1    2    0    0 -0.39345949205E+02 -0.93403790948E+01 -0.42212913167E+01  0.50528859566E+02  0.29999999136E+02 0.  0.
        -12    1    1    2    0    0  0.39345949205E+02  0.93403790948E+01  0.42212913167E+01  0.40659140434E+02  0.00000000000E+00 0.  1.
         11    1    3    3    0    0 -0.92203796037E+00 -0.47827376259E+01 -0.21660869125E+01  0.53307284655E+01  0.51100000000E-03 0.  1.
        -11    1    3    3    0    0 -0.16226970009E+02  0.93130650405E+01 -0.32807495340E+01  0.18995027083E+02  0.51100000000E-03 0. -1.
         12    1    3    3    0    0 -0.22196941236E+02 -0.13870706509E+02  0.12255451299E+01  0.26203104018E+02  0.00000000000E+00 0. -1.
</event>
<event>
 7    1  0.3014423E-011  0.5052885E+02  0.7816164E-02  0.1300439E+00
        -11   -1    0    0    0    0  0.00000000000E+00  0.00000000000E+00  0.45593999997E+02  0.45594000000E+02  0.51100000000E-03 0. -1.
         11   -1    0    0    0    0 -0.00000000000E+00 -0.00000000000E+00 -0.45593999997E+02  0.45594000000E+02  0.51100000000E-03 0.  1.
    9900012    2    1    2    0    0  0.33823140064E+02  0.60317030723E+01  0.21743516457E+02  0.50528846619E+02  0.29999959783E+02 0.  0.
        -12    1    1    2    0    0 -0.33823140064E+02 -0.60317030723E+01 -0.21743516457E+02  0.40659153381E+02  0.00000000000E+00 0.  1.
         11    1    3    3    0    0  0.13951195845E+02 -0.69672735269E+00  0.12602898955E+02  0.18813674730E+02  0.51100000000E-03 0. -1.
        -11    1    3    3    0    0  0.91156277944E+01  0.10961787645E+01  0.15495253913E+02  0.18011084700E+02  0.51100000000E-03 0.  1.
        -12    1    3    3    0    0  0.10756316424E+02  0.56322516604E+01 -0.63546364103E+01  0.13704087189E+02  0.00000000000E+00 0.  1.
</event>
<event>
 7    1  0.3014423E-011  0.5052886E+02  0.7816164E-02  0.1300439E+00
        -11   -1    0    0    0    0  0.00000000000E+00  0.00000000000E+00  0.45593999997E+02  0.45594000000E+02  0.51100000000E-03 0.  1.
         11   -1    0    0    0    0 -0.00000000000E+00 -0.00000000000E+00 -0.45593999997E+02  0.45594000000E+02  0.51100000000E-03 0. -1.
    9900012    2    1    2    0    0 -0.10657132228E+01  0.39886645596E+02  0.78157327896E+01  0.50528856863E+02  0.29999990921E+02 0.  0.
        -12    1    1    2    0    0  0.10657132228E+01 -0.39886645596E+02 -0.78157327896E+01  0.40659143137E+02  0.00000000000E+00 0.  1.
         11    1    3    3    0    0 -0.46422965975E-01  0.23916482276E+00  0.62913715494E+00  0.67466193391E+00  0.51100000000E-03 0. -1.
        -11    1    3    3    0    0 -0.13210423630E+02  0.11782259832E+02  0.80063703903E+01  0.19427786964E+02  0.51100000000E-03 0.  1.
         12    1    3    3    0    0  0.12191133373E+02  0.27865220941E+02 -0.81977475559E+00  0.30426407965E+02  0.00000000000E+00 0. -1.
</event>
<event>
 7    1  0.3014423E-011  0.5052883E+02  0.7816164E-02  0.1300439E+00
        -11   -1    0    0    0    0  0.00000000000E+00  0.00000000000E+00  0.45593999997E+02  0.45594000000E+02  0.51100000000E-03 0.  1.
         11   -1    0    0    0    0 -0.00000000000E+00 -0.00000000000E+00 -0.45593999997E+02  0.45594000000E+02  0.51100000000E-03 0. -1.
    9900012    2    1    2    0    0  0.20341285515E+02 -0.30279443359E+02 -0.17959823152E+02  0.50528833331E+02  0.29999919394E+02 0.  0.
        -12    1    1    2    0    0 -0.20341285515E+02  0.30279443359E+02  0.17959823152E+02  0.40659166669E+02  0.00000000000E+00 0.  1.
         11    1    3    3    0    0  0.31129924385E+01  0.16059906803E+01 -0.24466259535E+01  0.42726931560E+01  0.51100000000E-03 0. -1.
        -11    1    3    3    0    0  0.29615606132E+01  0.12384859210E+01  0.40962079168E+01  0.52041914070E+01  0.51100000000E-03 0.  1.
        -12    1    3    3    0    0  0.14266732463E+02 -0.33123919960E+02 -0.19609405115E+02  0.41051948768E+02  0.00000000000E+00 0.  1.
</event>
<event>
 7    1  0.3014423E-011  0.5052887E+02  0.7816164E-02  0.1300439E+00
        -11   -1    0    0    0    0  0.00000000000E+00  0.00000000000E+00  0.45593999997E+02  0.45594000000E+02  0.51100000000E-03 0.  1.
         11   -1    0    0    0    0 -0.00000000000E+00 -0.00000000000E+00 -0.45593999997E+02  0.45594000000E+02  0.51100000000E-03 0. -1.
    9900012    2    1    2    0    0 -0.38088638267E+02  0.12755501381E+02 -0.63022088413E+01  0.50528867978E+02  0.30000024706E+02 0.  0.
        -12    1    1    2    0    0  0.38088638267E+02 -0.12755501381E+02  0.63022088413E+01  0.40659132022E+02  0.00000000000E+00 0.  1.
         11    1    3    3    0    0  0.39214687864E+00  0.60474673898E+01 -0.77627089324E+01  0.98481110491E+01  0.51100000000E-03 0. -1.
        -11    1    3    3    0    0 -0.53958188693E+01  0.40055471692E+01 -0.26670571915E+01  0.72299698284E+01  0.51100000000E-03 0.  1.
         12    1    3    3    0    0 -0.33084966276E+02  0.27024868215E+01  0.41275572826E+01  0.33450787101E+02  0.00000000000E+00 0. -1.
</event>
<event>
 7    1  0.3014423E-011  0.5052886E+02  0.7816164E-02  0.1300439E+00
        -11   -1    0    0    0    0  0.00000000000E+00  0.00000000000E+00  0.45593999997E+02  0.45594000000E+02  0.51100000000E-03 0.  1.
         11   -1    0    0    0    0 -0.00000000000E+00 -0.00000000000E+00 -0.45593999997E+02  0.45594000000E+02  0.51100000000E-03 0. -1.
    9900012    2    1    2    0    0  0.50676030408E+01  0.39812074282E+02 -0.65179326947E+01  0.50528864424E+02  0.30000013903E+02 0.  0.
        -12    1    1    2    0    0 -0.50676030408E+01 -0.39812074282E+02  0.65179326947E+01  0.40659135576E+02  0.00000000000E+00 0.  1.
         11    1    3    3    0    0  0.46101863385E+01  0.54013687526E+00  0.72863397479E+00  0.46985608063E+01  0.51100000000E-03 0. -1.
        -11    1    3    3    0    0  0.10743555959E+02  0.17013827900E+02  0.46168908923E+00  0.20127282269E+02  0.51100000000E-03 0.  1.
        -12    1    3    3    0    0 -0.10286139257E+02  0.22258109506E+02 -0.77082557587E+01  0.25703021348E+02  0.00000000000E+00 0.  1.
</event>
<event>
 7    1  0.3014423E-011  0.5052885E+02  0.7816164E-02  0.1300439E+00
        -11   -1    0    0    0    0  0.00000000000E+00  0.00000000000E+00  0.45593999997E+02  0.45594000000E+02  0.51100000000E-03 0.  1.
         11   -1    0    0    0    0 -0.00000000000E+00 -0.00000000000E+00 -0.45593999997E+02  0.45594000000E+02  0.51100000000E-03 0. -1.
    9900012    2    1    2    0    0 -0.29836195895E+02  0.20199978033E+02 -0.18839558587E+02  0.50528847700E+02  0.29999963068E+02 0.  0.
        -12    1    1    2    0    0  0.29836195895E+02 -0.20199978033E+02  0.18839558587E+02  0.40659152300E+02  0.00000000000E+00 0.  1.
         11    1    3    3    0    0 -0.43510689465E-01  0.80531681728E+01 -0.43452951096E+01  0.91507923509E+01  0.51100000000E-03 0. -1.
        -11    1    3    3    0    0  0.61024255987E+00 -0.61278646411E+00 -0.76557822993E+01  0.77044731234E+01  0.51100000000E-03 0.  1.
         12    1    3    3    0    0 -0.30402927766E+02  0.12759596324E+02 -0.68384811781E+01  0.33673582225E+02  0.00000000000E+00 0. -1.
</event>
<event>
 7    1  0.3014423E-011  0.5052886E+02  0.7816164E-02  0.1300439E+00
        -11   -1    0    0    0    0  0.00000000000E+00  0.00000000000E+00  0.45593999997E+02  0.45594000000E+02  0.51100000000E-03 0.  1.
         11   -1    0    0    0    0 -0.00000000000E+00 -0.00000000000E+00 -0.45593999997E+02  0.45594000000E+02  0.51100000000E-03 0. -1.
    9900012    2    1    2    0    0  0.23174334282E+02  0.10857362244E+02 -0.31594835891E+02  0.50528859093E+02  0.29999997700E+02 0.  0.
        -12    1    1    2    0    0 -0.23174334282E+02 -0.10857362244E+02  0.31594835891E+02  0.40659140907E+02  0.00000000000E+00 0.  1.
         11    1    3    3    0    0  0.99800480280E+01  0.96910478103E+01 -0.41915543737E+01  0.14528829775E+02  0.51100000000E-03 0.  1.
        -11    1    3    3    0    0  0.15546257066E+02 -0.86067166973E+00 -0.28687153122E+02  0.32640153477E+02  0.51100000000E-03 0. -1.
         12    1    3    3    0    0 -0.23519708126E+01  0.20269861039E+01  0.12838716050E+01  0.33598758410E+01  0.00000000000E+00 0. -1.
</event>
<event>
 7    1  0.3014423E-011  0.5052886E+02  0.7816164E-02  0.1300439E+00
        -11   -1    0    0    0    0  0.00000000000E+00  0.00000000000E+00  0.45593999997E+02  0.45594000000E+02  0.51100000000E-03 0. -1.
         11   -1    0    0    0    0 -0.00000000000E+00 -0.00000000000E+00 -0.45593999997E+02  0.45594000000E+02  0.51100000000E-03 0.  1.
    9900012    2    1    2    0    0  0.29247193236E+02  0.19722492351E+02  0.20218564298E+02  0.50528863770E+02  0.30000011916E+02 0.  0.
        -12    1    1    2    0    0 -0.29247193236E+02 -0.19722492351E+02 -0.20218564298E+02  0.40659136230E+02  0.00000000000E+00 0.  1.
         11    1    3    3    0    0  0.22242803948E+01  0.11127993093E+02 -0.32799030501E+01  0.11812595728E+02  0.51100000000E-03 0. -1.
        -11    1    3    3    0    0  0.17482744321E+01 -0.11683483234E+01 -0.86972331816E+00  0.22755043849E+01  0.51100000000E-03 0.  1.
         12    1    3    3    0    0  0.25274638409E+02  0.97628475808E+01  0.24368190666E+02  0.36440763657E+02  0.00000000000E+00 0. -1.
</event>
<event>
 7    1  0.5435505E-011  0.5052892E+02  0.7816164E-02  0.1300439E+00
        -11   -1    0    0    0    0  0.00000000000E+00  0.00000000000E+00  0.45593999997E+02  0.45594000000E+02  0.51100000000E-03 0. -1.
         11   -1    0    0    0    0 -0.00000000000E+00 -0.00000000000E+00 -0.45593999997E+02  0.45594000000E+02  0.51100000000E-03 0.  1.
    9900012    2    1    2    0    0 -0.26171423695E+02 -0.29226464896E+02  0.10678524955E+02  0.50528922739E+02  0.30000191156E+02 0.  0.
        -12    1    1    2    0    0  0.26171423695E+02  0.29226464896E+02 -0.10678524955E+02  0.40659077261E+02  0.00000000000E+00 0.  1.
         11    1    3    3    0    0 -0.17100310820E+02 -0.13117577218E+02  0.68587448287E+00  0.21562974894E+02  0.51100000000E-03 0. -1.
        -11    1    3    3    0    0  0.23305805085E+01 -0.20141137854E+01 -0.47076485788E+01  0.56258524020E+01  0.51100000000E-03 0.  1.
         12    1    3    3    0    0 -0.11401693383E+02 -0.14094773892E+02  0.14700299051E+02  0.23340095442E+02  0.00000000000E+00 0. -1.
</event>
<event>
 7    1  0.3014423E-011  0.5052886E+02  0.7816164E-02  0.1300439E+00
        -11   -1    0    0    0    0  0.00000000000E+00  0.00000000000E+00  0.45593999997E+02  0.45594000000E+02  0.51100000000E-03 0. -1.
         11   -1    0    0    0    0 -0.00000000000E+00 -0.00000000000E+00 -0.45593999997E+02  0.45594000000E+02  0.51100000000E-03 0.  1.
    9900012    2    1    2    0    0  0.75831974715E+01  0.22309979517E+02  0.33134954580E+02  0.50528864680E+02  0.30000014681E+02 0.  0.
        -12    1    1    2    0    0 -0.75831974715E+01 -0.22309979517E+02 -0.33134954580E+02  0.40659135320E+02  0.00000000000E+00 0.  1.
         11    1    3    3    0    0  0.13480170407E+02  0.16146135824E+02  0.22875790589E+02  0.31075947155E+02  0.51100000000E-03 0. -1.
        -11    1    3    3    0    0  0.30292472837E+01  0.42002472754E+01 -0.65210357258E+00  0.52195455368E+01  0.51100000000E-03 0.  1.
        -12    1    3    3    0    0 -0.89262202195E+01  0.19635964176E+01  0.10911267564E+02  0.14233371988E+02  0.00000000000E+00 0.  1.
</event>
<event>
 7    1  0.3014423E-011  0.5052887E+02  0.7816164E-02  0.1300439E+00
        -11   -1    0    0    0    0  0.00000000000E+00  0.00000000000E+00  0.45593999997E+02  0.45594000000E+02  0.51100000000E-03 0.  1.
         11   -1    0    0    0    0 -0.00000000000E+00 -0.00000000000E+00 -0.45593999997E+02  0.45594000000E+02  0.51100000000E-03 0. -1.
    9900012    2    1    2    0    0  0.16187190812E+02  0.29647995004E+02  0.22630429984E+02  0.50528866765E+02  0.30000021020E+02 0.  0.
        -12    1    1    2    0    0 -0.16187190812E+02 -0.29647995004E+02 -0.22630429984E+02  0.40659133235E+02  0.00000000000E+00 0.  1.
         11    1    3    3    0    0  0.81462334612E+00  0.11286283298E+02  0.12760864886E+02  0.17055306352E+02  0.51100000000E-03 0. -1.
        -11    1    3    3    0    0  0.41890172435E+01  0.27190685191E+01  0.13059209105E+02  0.13981564354E+02  0.51100000000E-03 0.  1.
        -12    1    3    3    0    0  0.11183550222E+02  0.15642643187E+02 -0.31896440070E+01  0.19491996059E+02  0.00000000000E+00 0.  1.
</event>
<event>
 7    1  0.3014423E-011  0.5052889E+02  0.7816164E-02  0.1300439E+00
        -11   -1    0    0    0    0  0.00000000000E+00  0.00000000000E+00  0.45593999997E+02  0.45594000000E+02  0.51100000000E-03 0.  1.
         11   -1    0    0    0    0 -0.00000000000E+00 -0.00000000000E+00 -0.45593999997E+02  0.45594000000E+02  0.51100000000E-03 0. -1.
    9900012    2    1    2    0    0 -0.14719790718E+02  0.35929515862E+02 -0.12064858563E+02  0.50528890799E+02  0.30000094072E+02 0.  0.
        -12    1    1    2    0    0  0.14719790718E+02 -0.35929515862E+02  0.12064858563E+02  0.40659109201E+02  0.00000000000E+00 0.  1.
         11    1    3    3    0    0  0.30129798720E+01  0.20273160619E+02 -0.73297626315E+00  0.20508933265E+02  0.51100000000E-03 0. -1.
        -11    1    3    3    0    0 -0.84474698698E+01 -0.17174230521E+00  0.61657055307E-02  0.84492177684E+01  0.51100000000E-03 0.  1.
         12    1    3    3    0    0 -0.92853007205E+01  0.15828097548E+02 -0.11338048005E+02  0.21570739766E+02  0.00000000000E+00 0. -1.
</event>
<event>
 7    1  0.3014423E-011  0.5052884E+02  0.7816164E-02  0.1300439E+00
        -11   -1    0    0    0    0  0.00000000000E+00  0.00000000000E+00  0.45593999997E+02  0.45594000000E+02  0.51100000000E-03 0.  1.
         11   -1    0    0    0    0 -0.00000000000E+00 -0.00000000000E+00 -0.45593999997E+02  0.45594000000E+02  0.51100000000E-03 0. -1.
    9900012    2    1    2    0    0 -0.32602115175E+01 -0.38647902833E+01 -0.40343546960E+02  0.50528839109E+02  0.29999936956E+02 0.  0.
        -12    1    1    2    0    0  0.32602115175E+01  0.38647902833E+01  0.40343546960E+02  0.40659160891E+02  0.00000000000E+00 0.  1.
         11    1    3    3    0    0  0.30933462093E+01 -0.34428642848E-01 -0.65942347720E+01  0.72838114055E+01  0.51100000000E-03 0. -1.
        -11    1    3    3    0    0  0.59920652947E+01 -0.79834795922E+01 -0.26545395561E+02  0.28360162529E+02  0.51100000000E-03 0.  1.
        -12    1    3    3    0    0 -0.12345623021E+02  0.41531179517E+01 -0.72039166265E+01  0.14884865175E+02  0.00000000000E+00 0.  1.
</event>
<event>
 7    1  0.3014423E-011  0.5052892E+02  0.7816164E-02  0.1300439E+00
        -11   -1    0    0    0    0  0.00000000000E+00  0.00000000000E+00  0.45593999997E+02  0.45594000000E+02  0.51100000000E-03 0. -1.
         11   -1    0    0    0    0 -0.00000000000E+00 -0.00000000000E+00 -0.45593999997E+02  0.45594000000E+02  0.51100000000E-03 0.  1.
    9900012    2    1    2    0    0 -0.19457540221E+02 -0.15217637945E+02  0.32295335988E+02  0.50528916112E+02  0.30000171013E+02 0.  0.
        -12    1    1    2    0    0  0.19457540221E+02  0.15217637945E+02 -0.32295335988E+02  0.40659083888E+02  0.00000000000E+00 0.  1.
         11    1    3    3    0    0 -0.85647361979E-01 -0.34054274877E+01  0.54838105183E+01  0.64557300057E+01  0.51100000000E-03 0. -1.
        -11    1    3    3    0    0 -0.99421676152E+01 -0.19602046693E+02  0.21473920741E+02  0.30728101206E+02  0.51100000000E-03 0.  1.
        -12    1    3    3    0    0 -0.94297252436E+01  0.77898362362E+01  0.53376047287E+01  0.13345084900E+02  0.00000000000E+00 0.  1.
</event>
<event>
 7    1  0.3014423E-011  0.5052887E+02  0.7816164E-02  0.1300439E+00
        -11   -1    0    0    0    0  0.00000000000E+00  0.00000000000E+00  0.45593999997E+02  0.45594000000E+02  0.51100000000E-03 0. -1.
         11   -1    0    0    0    0 -0.00000000000E+00 -0.00000000000E+00 -0.45593999997E+02  0.45594000000E+02  0.51100000000E-03 0.  1.
    9900012    2    1    2    0    0  0.46935358335E+01  0.15083132166E+02  0.37465115455E+02  0.50528867808E+02  0.30000024189E+02 0.  0.
        -12    1    1    2    0    0 -0.46935358335E+01 -0.15083132166E+02 -0.37465115455E+02  0.40659132192E+02  0.00000000000E+00 0.  1.
         11    1    3    3    0    0  0.15099585753E+02  0.10933185724E+02  0.18781528595E+02  0.26462763586E+02  0.51100000000E-03 0. -1.
        -11    1    3    3    0    0  0.18912591965E+01  0.17040206019E+01  0.41806621397E+01  0.48947404168E+01  0.51100000000E-03 0.  1.
         12    1    3    3    0    0 -0.12297309116E+02  0.24459258409E+01  0.14502924721E+02  0.19171363806E+02  0.00000000000E+00 0. -1.
</event>
<event>
 7    1  0.3014423E-011  0.5052891E+02  0.7816164E-02  0.1300439E+00
        -11   -1    0    0    0    0  0.00000000000E+00  0.00000000000E+00  0.45593999997E+02  0.45594000000E+02  0.51100000000E-03 0.  1.
         11   -1    0    0    0    0 -0.00000000000E+00 -0.00000000000E+00 -0.45593999997E+02  0.45594000000E+02  0.51100000000E-03 0. -1.
    9900012    2    1    2    0    0 -0.39342603596E+02  0.12608836644E+01 -0.10184865693E+02  0.50528907849E+02  0.30000145898E+02 0.  0.
        -12    1    1    2    0    0  0.39342603596E+02 -0.12608836644E+01  0.10184865693E+02  0.40659092151E+02  0.00000000000E+00 0.  1.
         11    1    3    3    0    0 -0.32341132502E+02  0.26772508152E+01 -0.10991638002E+02  0.34262700268E+02  0.51100000000E-03 0. -1.
        -11    1    3    3    0    0 -0.73417367917E+01  0.51449223959E+01  0.28140928426E+01  0.93962995039E+01  0.51100000000E-03 0.  1.
        -12    1    3    3    0    0  0.34026569798E+00 -0.65612895467E+01 -0.20073205335E+01  0.68699080769E+01  0.00000000000E+00 0.  1.
</event>
<event>
 7    1  0.3014423E-011  0.5052886E+02  0.7816164E-02  0.1300439E+00
        -11   -1    0    0    0    0  0.00000000000E+00  0.00000000000E+00  0.45593999997E+02  0.45594000000E+02  0.51100000000E-03 0.  1.
         11   -1    0    0    0    0 -0.00000000000E+00 -0.00000000000E+00 -0.45593999997E+02  0.45594000000E+02  0.51100000000E-03 0. -1.
    9900012    2    1    2    0    0  0.16767355851E+02 -0.64839212797E+01 -0.36468891768E+02  0.50528861739E+02  0.30000005741E+02 0.  0.
        -12    1    1    2    0    0 -0.16767355851E+02  0.64839212797E+01  0.36468891768E+02  0.40659138261E+02  0.00000000000E+00 0.  1.
         11    1    3    3    0    0  0.69323702384E+01 -0.61018045156E+01 -0.16041201569E+02  0.18509725106E+02  0.51100000000E-03 0. -1.
        -11    1    3    3    0    0  0.12319053550E+02  0.32973247860E+01 -0.23418880566E+02  0.26665997044E+02  0.51100000000E-03 0.  1.
        -12    1    3    3    0    0 -0.24840679379E+01 -0.36794415501E+01  0.29911903673E+01  0.53531395885E+01  0.00000000000E+00 0.  1.
</event>
<event>
 7    1  0.3014423E-011  0.5052882E+02  0.7816164E-02  0.1300439E+00
        -11   -1    0    0    0    0  0.00000000000E+00  0.00000000000E+00  0.45593999997E+02  0.45594000000E+02  0.51100000000E-03 0. -1.
         11   -1    0    0    0    0 -0.00000000000E+00 -0.00000000000E+00 -0.45593999997E+02  0.45594000000E+02  0.51100000000E-03 0.  1.
    9900012    2    1    2    0    0 -0.39746399279E+00 -0.38256651894E+02  0.13763690481E+02  0.50528824314E+02  0.29999891985E+02 0.  0.
        -12    1    1    2    0    0  0.39746399279E+00  0.38256651894E+02 -0.13763690481E+02  0.40659175686E+02  0.00000000000E+00 0.  1.
         11    1    3    3    0    0 -0.44068985924E+01  0.23231064924E+01  0.60303341518E+00  0.50180901287E+01  0.51100000000E-03 0. -1.
        -11    1    3    3    0    0  0.83438305672E+01 -0.11811305446E+02  0.48733371885E+01  0.15260270655E+02  0.51100000000E-03 0.  1.
         12    1    3    3    0    0 -0.43343959676E+01 -0.28768452941E+02  0.82873198772E+01  0.30250463530E+02  0.00000000000E+00 0. -1.
</event>
<event>
 7    1  0.3014423E-011  0.5052886E+02  0.7816164E-02  0.1300439E+00
        -11   -1    0    0    0    0  0.00000000000E+00  0.00000000000E+00  0.45593999997E+02  0.45594000000E+02  0.51100000000E-03 0. -1.
         11   -1    0    0    0    0 -0.00000000000E+00 -0.00000000000E+00 -0.45593999997E+02  0.45594000000E+02  0.51100000000E-03 0.  1.
    9900012    2    1    2    0    0 -0.37833604545E+02 -0.14877634608E+02  0.66326676635E+00  0.50528861209E+02  0.30000004132E+02 0.  0.
        -12    1    1    2    0    0  0.37833604545E+02  0.14877634608E+02 -0.66326676635E+00  0.40659138791E+02  0.00000000000E+00 0.  1.
         11    1    3    3    0    0 -0.24025509726E+02 -0.19680045306E+01  0.10127499675E+01  0.24127242325E+02  0.51100000000E-03 0. -1.
        -11    1    3    3    0    0 -0.17768207266E+02 -0.95335881099E+01  0.27402451399E+01  0.20349629858E+02  0.51100000000E-03 0.  1.
        -12    1    3    3    0    0  0.39601124466E+01 -0.33760419674E+01 -0.30897283410E+01  0.60519890265E+01  0.00000000000E+00 0.  1.
</event>
<event>
 7    1  0.3014423E-011  0.5052886E+02  0.7816164E-02  0.1300439E+00
        -11   -1    0    0    0    0  0.00000000000E+00  0.00000000000E+00  0.45593999997E+02  0.45594000000E+02  0.51100000000E-03 0.  1.
         11   -1    0    0    0    0 -0.00000000000E+00 -0.00000000000E+00 -0.45593999997E+02  0.45594000000E+02  0.51100000000E-03 0. -1.
    9900012    2    1    2    0    0 -0.29676502074E+01  0.37551994608E+02 -0.15303800901E+02  0.50528861190E+02  0.30000004072E+02 0.  0.
        -12    1    1    2    0    0  0.29676502074E+01 -0.37551994608E+02  0.15303800901E+02  0.40659138810E+02  0.00000000000E+00 0.  1.
         11    1    3    3    0    0  0.80646261927E+01  0.11160182326E+02 -0.10704464111E+02  0.17440568149E+02  0.51100000000E-03 0. -1.
        -11    1    3    3    0    0  0.18102366476E+01  0.16331817042E+01 -0.45897007646E+01  0.51970753861E+01  0.51100000000E-03 0.  1.
         12    1    3    3    0    0 -0.12842513048E+02  0.24758630577E+02 -0.96360259567E-02  0.27891217655E+02  0.00000000000E+00 0. -1.
</event>
<event>
 7    1  0.3014423E-011  0.5052889E+02  0.7816164E-02  0.1300439E+00
        -11   -1    0    0    0    0  0.00000000000E+00  0.00000000000E+00  0.45593999997E+02  0.45594000000E+02  0.51100000000E-03 0. -1.
         11   -1    0    0    0    0 -0.00000000000E+00 -0.00000000000E+00 -0.45593999997E+02  0.45594000000E+02  0.51100000000E-03 0.  1.
    9900012    2    1    2    0    0 -0.12974474539E+02 -0.34909308829E+02  0.16314605851E+02  0.50528890362E+02  0.30000092744E+02 0.  0.
        -12    1    1    2    0    0  0.12974474539E+02  0.34909308829E+02 -0.16314605851E+02  0.40659109638E+02  0.00000000000E+00 0.  1.
         11    1    3    3    0    0 -0.10248504284E+02 -0.26132552105E+02  0.10541779798E+02  0.29984516690E+02  0.51100000000E-03 0. -1.
        -11    1    3    3    0    0  0.95620631274E+00 -0.76888770756E+01  0.11368707744E+02  0.13757931430E+02  0.51100000000E-03 0.  1.
        -12    1    3    3    0    0 -0.36821765681E+01 -0.10878796489E+01 -0.55958816910E+01  0.67864422423E+01  0.00000000000E+00 0.  1.
</event>
<event>
 7    1  0.3014423E-011  0.5052886E+02  0.7816164E-02  0.1300439E+00
        -11   -1    0    0    0    0  0.00000000000E+00  0.00000000000E+00  0.45593999997E+02  0.45594000000E+02  0.51100000000E-03 0.  1.
         11   -1    0    0    0    0 -0.00000000000E+00 -0.00000000000E+00 -0.45593999997E+02  0.45594000000E+02  0.51100000000E-03 0. -1.
    9900012    2    1    2    0    0  0.78226250094E+01  0.35777879815E+02 -0.17661129839E+02  0.50528860151E+02  0.30000000914E+02 0.  0.
        -12    1    1    2    0    0 -0.78226250094E+01 -0.35777879815E+02  0.17661129839E+02  0.40659139849E+02  0.00000000000E+00 0.  1.
         11    1    3    3    0    0  0.38225335542E+01  0.14484578103E+02  0.46976206645E+01  0.15699758144E+02  0.51100000000E-03 0. -1.
        -11    1    3    3    0    0  0.45076344222E+01  0.26004468849E+01  0.57761221535E+00  0.52359075830E+01  0.51100000000E-03 0.  1.
        -12    1    3    3    0    0 -0.50754296702E+00  0.18692854827E+02 -0.22936362719E+02  0.29593194424E+02  0.00000000000E+00 0.  1.
</event>
<event>
 7    1  0.3014423E-011  0.5052882E+02  0.7816164E-02  0.1300439E+00
        -11   -1    0    0    0    0  0.00000000000E+00  0.00000000000E+00  0.45593999997E+02  0.45594000000E+02  0.51100000000E-03 0. -1.
         11   -1    0    0    0    0 -0.00000000000E+00 -0.00000000000E+00 -0.45593999997E+02  0.45594000000E+02  0.51100000000E-03 0.  1.
    9900012    2    1    2    0    0  0.35012570406E+02 -0.20241787348E+02  0.41903435572E+01  0.50528818742E+02  0.29999875047E+02 0.  0.
        -12    1    1    2    0    0 -0.35012570406E+02  0.20241787348E+02 -0.41903435572E+01  0.40659181258E+02  0.00000000000E+00 0.  1.
         11    1    3    3    0    0  0.14852868682E+02  0.13990273598E+01  0.71677898562E+01  0.16551199272E+02  0.51100000000E-03 0. -1.
        -11    1    3    3    0    0 -0.22163721494E+01 -0.16437689294E+00 -0.19324085599E+01  0.29450854608E+01  0.51100000000E-03 0.  1.
        -12    1    3    3    0    0  0.22376073873E+02 -0.21476437814E+02 -0.10450377391E+01  0.31032534010E+02  0.00000000000E+00 0.  1.
</event>
<event>
 7    1  0.3014423E-011  0.5052886E+02  0.7816164E-02  0.1300439E+00
        -11   -1    0    0    0    0  0.00000000000E+00  0.00000000000E+00  0.45593999997E+02  0.45594000000E+02  0.51100000000E-03 0.  1.
         11   -1    0    0    0    0 -0.00000000000E+00 -0.00000000000E+00 -0.45593999997E+02  0.45594000000E+02  0.51100000000E-03 0. -1.
    9900012    2    1    2    0    0  0.92170538828E+01 -0.11340727944E+02 -0.37942054753E+02  0.50528859436E+02  0.29999998741E+02 0.  0.
        -12    1    1    2    0    0 -0.92170538828E+01  0.11340727944E+02  0.37942054753E+02  0.40659140564E+02  0.00000000000E+00 0.  1.
         11    1    3    3    0    0  0.14209073408E+02 -0.36137192202E+01 -0.97847949125E+01  0.17626654403E+02  0.51100000000E-03 0. -1.
        -11    1    3    3    0    0  0.41610837267E+01  0.70632781846E+00 -0.44918802637E+01  0.61636438356E+01  0.51100000000E-03 0.  1.
         12    1    3    3    0    0 -0.91531032520E+01 -0.84333365423E+01 -0.23665379576E+02  0.26738561197E+02  0.00000000000E+00 0. -1.
</event>
<event>
 7    1  0.3014423E-011  0.5052886E+02  0.7816164E-02  0.1300439E+00
        -11   -1    0    0    0    0  0.00000000000E+00  0.00000000000E+00  0.45593999997E+02  0.45594000000E+02  0.51100000000E-03 0.  1.
         11   -1    0    0    0    0 -0.00000000000E+00 -0.00000000000E+00 -0.45593999997E+02  0.45594000000E+02  0.51100000000E-03 0. -1.
    9900012    2    1    2    0    0  0.78160199981E+01 -0.39038834310E+02  0.82489242412E+01  0.50528861986E+02  0.30000006492E+02 0.  0.
        -12    1    1    2    0    0 -0.78160199981E+01  0.39038834310E+02 -0.82489242412E+01  0.40659138014E+02  0.00000000000E+00 0.  1.
         11    1    3    3    0    0 -0.83788488673E+00 -0.45175034980E+00 -0.49025641205E+01  0.49941230139E+01  0.51100000000E-03 0. -1.
        -11    1    3    3    0    0 -0.52512420738E+01 -0.16826477384E+02  0.71552451514E+01  0.19023759300E+02  0.51100000000E-03 0.  1.
         12    1    3    3    0    0  0.13905146959E+02 -0.21760606577E+02  0.59962432102E+01  0.26510979672E+02  0.00000000000E+00 0. -1.
</event>
<event>
 7    1  0.3014423E-011  0.5052885E+02  0.7816164E-02  0.1300439E+00
        -11   -1    0    0    0    0  0.00000000000E+00  0.00000000000E+00  0.45593999997E+02  0.45594000000E+02  0.51100000000E-03 0.  1.
         11   -1    0    0    0    0 -0.00000000000E+00 -0.00000000000E+00 -0.45593999997E+02  0.45594000000E+02  0.51100000000E-03 0. -1.
    9900012    2    1    2    0    0 -0.33009495917E+02  0.37000737760E+01 -0.23448861666E+02  0.50528849983E+02  0.29999970009E+02 0.  0.
        -12    1    1    2    0    0  0.33009495917E+02 -0.37000737760E+01  0.23448861666E+02  0.40659150017E+02  0.00000000000E+00 0.  1.
         11    1    3    3    0    0 -0.12408615252E+02  0.46586630462E+01 -0.17480741990E+02  0.21937484237E+02  0.51100000000E-03 0. -1.
        -11    1    3    3    0    0 -0.24321694335E+01 -0.79192102745E+01 -0.34449797195E+01  0.89720245794E+01  0.51100000000E-03 0.  1.
         12    1    3    3    0    0 -0.18168711232E+02  0.69606210043E+01 -0.25231399564E+01  0.19619341167E+02  0.00000000000E+00 0. -1.
</event>
<event>
 7    1  0.3014423E-011  0.5052886E+02  0.7816164E-02  0.1300439E+00
        -11   -1    0    0    0    0  0.00000000000E+00  0.00000000000E+00  0.45593999997E+02  0.45594000000E+02  0.51100000000E-03 0. -1.
         11   -1    0    0    0    0 -0.00000000000E+00 -0.00000000000E+00 -0.45593999997E+02  0.45594000000E+02  0.51100000000E-03 0.  1.
    9900012    2    1    2    0    0 -0.13917769772E+02  0.15433447131E+02  0.34946673531E+02  0.50528860847E+02  0.30000003031E+02 0.  0.
        -12    1    1    2    0    0  0.13917769772E+02 -0.15433447131E+02 -0.34946673531E+02  0.40659139153E+02  0.00000000000E+00 0.  1.
         11    1    3    3    0    0 -0.62206357721E+00 -0.25519595086E+01  0.12377951133E+02  0.12653581902E+02  0.51100000000E-03 0. -1.
        -11    1    3    3    0    0 -0.82276923040E+01 -0.16382531121E+01  0.12977260666E+02  0.15452769608E+02  0.51100000000E-03 0.  1.
         12    1    3    3    0    0 -0.50680138905E+01  0.19623659751E+02  0.95914617320E+01  0.22422509338E+02  0.00000000000E+00 0. -1.
</event>
<event>
 7    1  0.3014423E-011  0.5052886E+02  0.7816164E-02  0.1300439E+00
        -11   -1    0    0    0    0  0.00000000000E+00  0.00000000000E+00  0.45593999997E+02  0.45594000000E+02  0.51100000000E-03 0.  1.
         11   -1    0    0    0    0 -0.00000000000E+00 -0.00000000000E+00 -0.45593999997E+02  0.45594000000E+02  0.51100000000E-03 0. -1.
    9900012    2    1    2    0    0  0.17037037721E+02 -0.28443292173E+02 -0.23534751404E+02  0.50528855302E+02  0.29999986176E+02 0.  0.
        -12    1    1    2    0    0 -0.17037037721E+02  0.28443292173E+02  0.23534751404E+02  0.40659144698E+02  0.00000000000E+00 0.  1.
         11    1    3    3    0    0 -0.29074964893E+01 -0.43043701305E+01 -0.14185329975E+01  0.53845495802E+01  0.51100000000E-03 0. -1.
        -11    1    3    3    0    0  0.45589164722E+01 -0.18148404497E+02 -0.15582445004E+01  0.18777018703E+02  0.51100000000E-03 0.  1.
         12    1    3    3    0    0  0.15385617738E+02 -0.59905175457E+01 -0.20557973906E+02  0.26367287019E+02  0.00000000000E+00 0. -1.
</event>
<event>
 7    1  0.3014423E-011  0.5052887E+02  0.7816164E-02  0.1300439E+00
        -11   -1    0    0    0    0  0.00000000000E+00  0.00000000000E+00  0.45593999997E+02  0.45594000000E+02  0.51100000000E-03 0. -1.
         11   -1    0    0    0    0 -0.00000000000E+00 -0.00000000000E+00 -0.45593999997E+02  0.45594000000E+02  0.51100000000E-03 0.  1.
    9900012    2    1    2    0    0 -0.31456927586E+02  0.24154497769E+02  0.89547164741E+01  0.50528868150E+02  0.30000025229E+02 0.  0.
        -12    1    1    2    0    0  0.31456927586E+02 -0.24154497769E+02 -0.89547164741E+01  0.40659131850E+02  0.00000000000E+00 0.  1.
         11    1    3    3    0    0 -0.49459421183E+01 -0.23647607497E+01  0.63930142163E+01  0.84217021956E+01  0.51100000000E-03 0.  1.
        -11    1    3    3    0    0 -0.21421907598E+01  0.10796421841E+02 -0.50708675110E+01  0.12118803712E+02  0.51100000000E-03 0. -1.
         12    1    3    3    0    0 -0.24368794708E+02  0.15722836677E+02  0.76325697689E+01  0.29988362243E+02  0.00000000000E+00 0. -1.
</event>
<event>
 7    1  0.3014423E-011  0.5052892E+02  0.7816164E-02  0.1300439E+00
        -11   -1    0    0    0    0  0.00000000000E+00  0.00000000000E+00  0.45593999997E+02  0.45594000000E+02  0.51100000000E-03 0.  1.
         11   -1    0    0    0    0 -0.00000000000E+00 -0.00000000000E+00 -0.45593999997E+02  0.45594000000E+02  0.51100000000E-03 0. -1.
    9900012    2    1    2    0    0 -0.47044507741E+01 -0.24907818600E+02 -0.31790398229E+02  0.50528921013E+02  0.30000185911E+02 0.  0.
        -12    1    1    2    0    0  0.47044507741E+01  0.24907818600E+02  0.31790398229E+02  0.40659078987E+02  0.00000000000E+00 0.  1.
         11    1    3    3    0    0 -0.62280182492E+01 -0.37888603647E+00 -0.73631546362E+01  0.96513114341E+01  0.51100000000E-03 0.  1.
        -11    1    3    3    0    0 -0.52307688941E+01 -0.36612343195E+01 -0.16267133833E+02  0.17475274630E+02  0.51100000000E-03 0. -1.
         12    1    3    3    0    0  0.67543363692E+01 -0.20867698244E+02 -0.81601097593E+01  0.23402334950E+02  0.00000000000E+00 0. -1.
</event>
<event>
 7    1  0.3014423E-011  0.5052886E+02  0.7816164E-02  0.1300439E+00
        -11   -1    0    0    0    0  0.00000000000E+00  0.00000000000E+00  0.45593999997E+02  0.45594000000E+02  0.51100000000E-03 0.  1.
         11   -1    0    0    0    0 -0.00000000000E+00 -0.00000000000E+00 -0.45593999997E+02  0.45594000000E+02  0.51100000000E-03 0. -1.
    9900012    2    1    2    0    0 -0.12282562474E+01  0.21612045236E+02 -0.34417679218E+02  0.50528858894E+02  0.29999997095E+02 0.  0.
        -12    1    1    2    0    0  0.12282562474E+01 -0.21612045236E+02  0.34417679218E+02  0.40659141106E+02  0.00000000000E+00 0.  1.
         11    1    3    3    0    0  0.93495522948E+00 -0.26479270152E+00 -0.18747075336E+02  0.18772242550E+02  0.51100000000E-03 0. -1.
        -11    1    3    3    0    0 -0.59995493758E+01  0.11137397941E+01 -0.59111612376E+01  0.84956951735E+01  0.51100000000E-03 0.  1.
        -12    1    3    3    0    0  0.38363378990E+01  0.20763098143E+02 -0.97594426451E+01  0.23260921171E+02  0.00000000000E+00 0.  1.
</event>
<event>
 7    1  0.3014423E-011  0.5052886E+02  0.7816164E-02  0.1300439E+00
        -11   -1    0    0    0    0  0.00000000000E+00  0.00000000000E+00  0.45593999997E+02  0.45594000000E+02  0.51100000000E-03 0.  1.
         11   -1    0    0    0    0 -0.00000000000E+00 -0.00000000000E+00 -0.45593999997E+02  0.45594000000E+02  0.51100000000E-03 0. -1.
    9900012    2    1    2    0    0  0.25940577460E+02 -0.28103502167E+02 -0.13800204976E+02  0.50528855268E+02  0.29999986071E+02 0.  0.
        -12    1    1    2    0    0 -0.25940577460E+02  0.28103502167E+02  0.13800204976E+02  0.40659144732E+02  0.00000000000E+00 0.  1.
         11    1    3    3    0    0 -0.74927915559E+00 -0.12697459991E+01  0.28717634995E+01  0.32281109048E+01  0.51100000000E-03 0. -1.
        -11    1    3    3    0    0  0.28267517120E+01 -0.18623725026E+02 -0.49576877223E+01  0.19478509360E+02  0.51100000000E-03 0.  1.
         12    1    3    3    0    0  0.23863104903E+02 -0.82100311419E+01 -0.11714280753E+02  0.27822235003E+02  0.00000000000E+00 0. -1.
</event>
<event>
 7    1  0.3014423E-011  0.5052884E+02  0.7816164E-02  0.1300439E+00
        -11   -1    0    0    0    0  0.00000000000E+00  0.00000000000E+00  0.45593999997E+02  0.45594000000E+02  0.51100000000E-03 0. -1.
         11   -1    0    0    0    0 -0.00000000000E+00 -0.00000000000E+00 -0.45593999997E+02  0.45594000000E+02  0.51100000000E-03 0.  1.
    9900012    2    1    2    0    0  0.10824772329E+02 -0.20522014019E+02  0.33389198158E+02  0.50528839790E+02  0.29999939025E+02 0.  0.
        -12    1    1    2    0    0 -0.10824772329E+02  0.20522014019E+02 -0.33389198158E+02  0.40659160210E+02  0.00000000000E+00 0.  1.
         11    1    3    3    0    0  0.75185062349E+01 -0.13475406526E+02  0.27849605516E+01  0.15680259009E+02  0.51100000000E-03 0. -1.
        -11    1    3    3    0    0  0.11196044857E+01 -0.57888099573E+01  0.21394719166E+01  0.62722544008E+01  0.51100000000E-03 0.  1.
         12    1    3    3    0    0  0.21866616087E+01 -0.12577975357E+01  0.28464765689E+02  0.28576326380E+02  0.00000000000E+00 0. -1.
</event>
<event>
 7    1  0.3014423E-011  0.5052886E+02  0.7816164E-02  0.1300439E+00
        -11   -1    0    0    0    0  0.00000000000E+00  0.00000000000E+00  0.45593999997E+02  0.45594000000E+02  0.51100000000E-03 0. -1.
         11   -1    0    0    0    0 -0.00000000000E+00 -0.00000000000E+00 -0.45593999997E+02  0.45594000000E+02  0.51100000000E-03 0.  1.
    9900012    2    1    2    0    0 -0.32344119528E+02 -0.44457382872E+01  0.24233423518E+02  0.50528862376E+02  0.30000007677E+02 0.  0.
        -12    1    1    2    0    0  0.32344119528E+02  0.44457382872E+01 -0.24233423518E+02  0.40659137624E+02  0.00000000000E+00 0.  1.
         11    1    3    3    0    0  0.22939174674E+01 -0.49061702069E+00  0.68780763208E+01  0.72670968443E+01  0.51100000000E-03 0.  1.
        -11    1    3    3    0    0 -0.53779478684E+01 -0.70157731841E+01  0.91423381368E+01  0.12717143685E+02  0.51100000000E-03 0. -1.
         12    1    3    3    0    0 -0.29260089127E+02  0.30606519176E+01  0.82130090604E+01  0.30544621846E+02  0.00000000000E+00 0. -1.
</event>
<event>
 7    1  0.3014423E-011  0.5052886E+02  0.7816164E-02  0.1300439E+00
        -11   -1    0    0    0    0  0.00000000000E+00  0.00000000000E+00  0.45593999997E+02  0.45594000000E+02  0.51100000000E-03 0. -1.
         11   -1    0    0    0    0 -0.00000000000E+00 -0.00000000000E+00 -0.45593999997E+02  0.45594000000E+02  0.51100000000E-03 0.  1.
    9900012    2    1    2    0    0 -0.63692787788E+00  0.23105135618E+02  0.33450153920E+02  0.50528858760E+02  0.29999996688E+02 0.  0.
        -12    1    1    2    0    0  0.63692787788E+00 -0.23105135618E+02 -0.33450153920E+02  0.40659141240E+02  0.00000000000E+00 0.  1.
         11    1    3    3    0    0 -0.78671505635E+00  0.14329640152E+02  0.70414004853E+01  0.15985581895E+02  0.51100000000E-03 0. -1.
        -11    1    3    3    0    0 -0.26302148806E+01  0.45302461364E+01 -0.20576879262E+01  0.56280760689E+01  0.51100000000E-03 0.  1.
         12    1    3    3    0    0  0.27800020591E+01  0.42452493295E+01  0.28466441361E+02  0.28915200796E+02  0.00000000000E+00 0. -1.
</event>
<event>
 7    1  0.3014423E-011  0.5052886E+02  0.7816164E-02  0.1300439E+00
        -11   -1    0    0    0    0  0.00000000000E+00  0.00000000000E+00  0.45593999997E+02  0.45594000000E+02  0.51100000000E-03 0.  1.
         11   -1    0    0    0    0 -0.00000000000E+00 -0.00000000000E+00 -0.45593999997E+02  0.45594000000E+02  0.51100000000E-03 0. -1.
    9900012    2    1    2    0    0 -0.89922675459E+01  0.11631148598E+01 -0.39635240301E+02  0.50528856065E+02  0.29999988496E+02 0.  0.
        -12    1    1    2    0    0  0.89922675459E+01 -0.11631148598E+01  0.39635240301E+02  0.40659143935E+02  0.00000000000E+00 0.  1.
         11    1    3    3    0    0 -0.21755695863E+01 -0.75670044775E+01 -0.17940557879E+02  0.19592250434E+02  0.51100000000E-03 0. -1.
        -11    1    3    3    0    0  0.14745315051E+01 -0.51423599349E+01 -0.86363470235E+01  0.10158966435E+02  0.51100000000E-03 0.  1.
        -12    1    3    3    0    0 -0.82912294646E+01  0.13872479272E+02 -0.13058335399E+02  0.20777639196E+02  0.00000000000E+00 0.  1.
</event>
<event>
 7    1  0.3014423E-011  0.5052887E+02  0.7816164E-02  0.1300439E+00
        -11   -1    0    0    0    0  0.00000000000E+00  0.00000000000E+00  0.45593999997E+02  0.45594000000E+02  0.51100000000E-03 0. -1.
         11   -1    0    0    0    0 -0.00000000000E+00 -0.00000000000E+00 -0.45593999997E+02  0.45594000000E+02  0.51100000000E-03 0.  1.
    9900012    2    1    2    0    0 -0.15043721730E+02 -0.20105217210E+02  0.31978614496E+02  0.50528866861E+02  0.30000021310E+02 0.  0.
        -12    1    1    2    0    0  0.15043721730E+02  0.20105217210E+02 -0.31978614496E+02  0.40659133139E+02  0.00000000000E+00 0.  1.
         11    1    3    3    0    0 -0.67476450776E+01 -0.52158613542E+01  0.76006086047E+01  0.11423886168E+02  0.51100000000E-03 0. -1.
        -11    1    3    3    0    0 -0.21674011342E+01 -0.20553958189E+02  0.22497909115E+02  0.30550265788E+02  0.51100000000E-03 0.  1.
         12    1    3    3    0    0 -0.61286755184E+01  0.56646023336E+01  0.18800967766E+01  0.85547149045E+01  0.00000000000E+00 0. -1.
</event>
<event>
 7    1  0.3014423E-011  0.5052886E+02  0.7816164E-02  0.1300439E+00
        -11   -1    0    0    0    0  0.00000000000E+00  0.00000000000E+00  0.45593999997E+02  0.45594000000E+02  0.51100000000E-03 0. -1.
         11   -1    0    0    0    0 -0.00000000000E+00 -0.00000000000E+00 -0.45593999997E+02  0.45594000000E+02  0.51100000000E-03 0.  1.
    9900012    2    1    2    0    0 -0.27040928438E+02  0.17397546639E+02  0.24885327318E+02  0.50528856434E+02  0.29999989616E+02 0.  0.
        -12    1    1    2    0    0  0.27040928438E+02 -0.17397546639E+02 -0.24885327318E+02  0.40659143566E+02  0.00000000000E+00 0.  1.
         11    1    3    3    0    0 -0.27587292111E+01  0.10658512379E+02  0.60093466949E+01  0.12542994896E+02  0.51100000000E-03 0. -1.
        -11    1    3    3    0    0 -0.78440519454E+01  0.11072575647E+02  0.15595498394E+02  0.20672461218E+02  0.51100000000E-03 0.  1.
        -12    1    3    3    0    0 -0.16438147281E+02 -0.43335413875E+01  0.32804822292E+01  0.17313400320E+02  0.00000000000E+00 0.  1.
</event>
<event>
 7    1  0.3014423E-011  0.5052886E+02  0.7816164E-02  0.1300439E+00
        -11   -1    0    0    0    0  0.00000000000E+00  0.00000000000E+00  0.45593999997E+02  0.45594000000E+02  0.51100000000E-03 0.  1.
         11   -1    0    0    0    0 -0.00000000000E+00 -0.00000000000E+00 -0.45593999997E+02  0.45594000000E+02  0.51100000000E-03 0. -1.
    9900012    2    1    2    0    0  0.86865389480E+01  0.39705409513E+02 -0.10911168191E+01  0.50528855403E+02  0.29999986482E+02 0.  0.
        -12    1    1    2    0    0 -0.86865389480E+01 -0.39705409513E+02  0.10911168191E+01  0.40659144597E+02  0.00000000000E+00 0.  1.
         11    1    3    3    0    0  0.34550368665E+01  0.47852121913E+01 -0.95682286961E+01  0.11242176662E+02  0.51100000000E-03 0. -1.
        -11    1    3    3    0    0  0.11136777344E+01  0.60763201209E+01  0.80501009300E+01  0.10147219794E+02  0.51100000000E-03 0.  1.
         12    1    3    3    0    0  0.41178243470E+01  0.28843877201E+02  0.42701094704E+00  0.29139458946E+02  0.00000000000E+00 0. -1.
</event>
<event>
 7    1  0.3014423E-011  0.5052894E+02  0.7816164E-02  0.1300439E+00
        -11   -1    0    0    0    0  0.00000000000E+00  0.00000000000E+00  0.45593999997E+02  0.45594000000E+02  0.51100000000E-03 0. -1.
         11   -1    0    0    0    0 -0.00000000000E+00 -0.00000000000E+00 -0.45593999997E+02  0.45594000000E+02  0.51100000000E-03 0.  1.
    9900012    2    1    2    0    0 -0.48064317266E+01 -0.13094644362E+02  0.38191458564E+02  0.50528941918E+02  0.30000249452E+02 0.  0.
        -12    1    1    2    0    0  0.48064317266E+01  0.13094644362E+02 -0.38191458564E+02  0.40659058082E+02  0.00000000000E+00 0.  1.
         11    1    3    3    0    0 -0.24407056730E+01 -0.10767975331E+01  0.14505059892E+02  0.14748332103E+02  0.51100000000E-03 0.  1.
        -11    1    3    3    0    0 -0.19696028068E+01 -0.14821529469E+02  0.27338103655E+02  0.31159733355E+02  0.51100000000E-03 0. -1.
        -12    1    3    3    0    0 -0.39612324682E+00  0.28036826398E+01 -0.36517049831E+01  0.46208764596E+01  0.00000000000E+00 0.  1.
</event>
<event>
 7    1  0.3014423E-011  0.5052885E+02  0.7816164E-02  0.1300439E+00
        -11   -1    0    0    0    0  0.00000000000E+00  0.00000000000E+00  0.45593999997E+02  0.45594000000E+02  0.51100000000E-03 0. -1.
         11   -1    0    0    0    0 -0.00000000000E+00 -0.00000000000E+00 -0.45593999997E+02  0.45594000000E+02  0.51100000000E-03 0.  1.
    9900012    2    1    2    0    0  0.36943104351E+02 -0.75446830980E+01 -0.15213523177E+02  0.50528849866E+02  0.29999969653E+02 0.  0.
        -12    1    1    2    0    0 -0.36943104351E+02  0.75446830980E+01  0.15213523177E+02  0.40659150134E+02  0.00000000000E+00 0.  1.
         11    1    3    3    0    0  0.14531053635E+02 -0.11468831451E+02 -0.12861171454E+02  0.22540970388E+02  0.51100000000E-03 0. -1.
        -11    1    3    3    0    0 -0.82540794589E-01 -0.34603432740E+01 -0.25701594925E+01  0.43112073292E+01  0.51100000000E-03 0.  1.
        -12    1    3    3    0    0  0.22494591510E+02  0.73844916270E+01  0.21780776985E+00  0.23676672149E+02  0.00000000000E+00 0.  1.
</event>
<event>
 7    1  0.3014423E-011  0.5052886E+02  0.7816164E-02  0.1300439E+00
        -11   -1    0    0    0    0  0.00000000000E+00  0.00000000000E+00  0.45593999997E+02  0.45594000000E+02  0.51100000000E-03 0.  1.
         11   -1    0    0    0    0 -0.00000000000E+00 -0.00000000000E+00 -0.45593999997E+02  0.45594000000E+02  0.51100000000E-03 0. -1.
    9900012    2    1    2    0    0  0.18243051228E+02 -0.56806021378E+01 -0.35889937691E+02  0.50528858516E+02  0.29999995946E+02 0.  0.
        -12    1    1    2    0    0 -0.18243051228E+02  0.56806021378E+01  0.35889937691E+02  0.40659141484E+02  0.00000000000E+00 0.  1.
         11    1    3    3    0    0 -0.26225747357E+01 -0.83694544937E+01 -0.94673375460E+01  0.12905663378E+02  0.51100000000E-03 0.  1.
        -11    1    3    3    0    0 -0.17065398195E+01  0.20883408023E+01  0.21195792685E+00  0.27052489509E+01  0.51100000000E-03 0. -1.
         12    1    3    3    0    0  0.22572165783E+02  0.60051155353E+00 -0.26634558071E+02  0.34917946187E+02  0.00000000000E+00 0. -1.
</event>
<event>
 7    1  0.3014423E-011  0.5052885E+02  0.7816164E-02  0.1300439E+00
        -11   -1    0    0    0    0  0.00000000000E+00  0.00000000000E+00  0.45593999997E+02  0.45594000000E+02  0.51100000000E-03 0.  1.
         11   -1    0    0    0    0 -0.00000000000E+00 -0.00000000000E+00 -0.45593999997E+02  0.45594000000E+02  0.51100000000E-03 0. -1.
    9900012    2    1    2    0    0 -0.29768907673E+02  0.52797721828E+01 -0.27186438489E+02  0.50528852246E+02  0.29999976887E+02 0.  0.
        -12    1    1    2    0    0  0.29768907673E+02 -0.52797721828E+01  0.27186438489E+02  0.40659147754E+02  0.00000000000E+00 0.  1.
         11    1    3    3    0    0 -0.24502122795E+02 -0.86523249276E+01 -0.15333668602E+02  0.30171810373E+02  0.51100000000E-03 0.  1.
        -11    1    3    3    0    0 -0.66878652557E+01  0.90224593498E+01 -0.65935914409E+01  0.13023354512E+02  0.51100000000E-03 0. -1.
        -12    1    3    3    0    0  0.14210803776E+01  0.49096377605E+01 -0.52591784464E+01  0.73336873611E+01  0.00000000000E+00 0.  1.
</event>
<event>
 7    1  0.3014423E-011  0.5052888E+02  0.7816164E-02  0.1300439E+00
        -11   -1    0    0    0    0  0.00000000000E+00  0.00000000000E+00  0.45593999997E+02  0.45594000000E+02  0.51100000000E-03 0.  1.
         11   -1    0    0    0    0 -0.00000000000E+00 -0.00000000000E+00 -0.45593999997E+02  0.45594000000E+02  0.51100000000E-03 0. -1.
    9900012    2    1    2    0    0 -0.38440529367E+02 -0.12515837237E+02 -0.43409223931E+01  0.50528879412E+02  0.30000059462E+02 0.  0.
        -12    1    1    2    0    0  0.38440529367E+02  0.12515837237E+02  0.43409223931E+01  0.40659120588E+02  0.00000000000E+00 0.  1.
         11    1    3    3    0    0 -0.24293447410E+02 -0.64140485845E+01  0.10232644573E+02  0.27129663130E+02  0.51100000000E-03 0. -1.
        -11    1    3    3    0    0  0.11690259467E-01 -0.31184730029E+01 -0.39952524107E+00  0.31439833351E+01  0.51100000000E-03 0.  1.
         12    1    3    3    0    0 -0.14158772216E+02 -0.29833156500E+01 -0.14174041725E+02  0.20255232947E+02  0.00000000000E+00 0. -1.
</event>
<event>
 7    1  0.3014423E-011  0.5052887E+02  0.7816164E-02  0.1300439E+00
        -11   -1    0    0    0    0  0.00000000000E+00  0.00000000000E+00  0.45593999997E+02  0.45594000000E+02  0.51100000000E-03 0.  1.
         11   -1    0    0    0    0 -0.00000000000E+00 -0.00000000000E+00 -0.45593999997E+02  0.45594000000E+02  0.51100000000E-03 0. -1.
    9900012    2    1    2    0    0 -0.76305317905E+01  0.26817703089E+02 -0.29593084182E+02  0.50528870080E+02  0.30000031097E+02 0.  0.
        -12    1    1    2    0    0  0.76305317905E+01 -0.26817703089E+02  0.29593084182E+02  0.40659129920E+02  0.00000000000E+00 0.  1.
         11    1    3    3    0    0 -0.71183962851E+01  0.14124548353E+02 -0.10876867186E+02  0.19195850382E+02  0.51100000000E-03 0. -1.
        -11    1    3    3    0    0 -0.26631711307E+01  0.11730962994E+02  0.43504901305E+00  0.12037326993E+02  0.51100000000E-03 0.  1.
         12    1    3    3    0    0  0.21510356253E+01  0.96219174251E+00 -0.19151266010E+02  0.19295692705E+02  0.00000000000E+00 0. -1.
</event>
<event>
 7    1  0.3014423E-011  0.5052884E+02  0.7816164E-02  0.1300439E+00
        -11   -1    0    0    0    0  0.00000000000E+00  0.00000000000E+00  0.45593999997E+02  0.45594000000E+02  0.51100000000E-03 0.  1.
         11   -1    0    0    0    0 -0.00000000000E+00 -0.00000000000E+00 -0.45593999997E+02  0.45594000000E+02  0.51100000000E-03 0. -1.
    9900012    2    1    2    0    0  0.12704879083E+02 -0.38394929922E+02 -0.41931812387E+01  0.50528839100E+02  0.29999936928E+02 0.  0.
        -12    1    1    2    0    0 -0.12704879083E+02  0.38394929922E+02  0.41931812387E+01  0.40659160900E+02  0.00000000000E+00 0.  1.
         11    1    3    3    0    0  0.55414758752E+01 -0.90270624606E+01  0.49685649410E+01  0.11699677319E+02  0.51100000000E-03 0. -1.
        -11    1    3    3    0    0 -0.35997063988E+01  0.17575550587E+01 -0.36851588031E+01  0.54430948556E+01  0.51100000000E-03 0.  1.
         12    1    3    3    0    0  0.10763109607E+02 -0.31125422520E+02 -0.54765873766E+01  0.33386066925E+02  0.00000000000E+00 0. -1.
</event>
<event>
 7    1  0.3014423E-011  0.5052886E+02  0.7816164E-02  0.1300439E+00
        -11   -1    0    0    0    0  0.00000000000E+00  0.00000000000E+00  0.45593999997E+02  0.45594000000E+02  0.51100000000E-03 0.  1.
         11   -1    0    0    0    0 -0.00000000000E+00 -0.00000000000E+00 -0.45593999997E+02  0.45594000000E+02  0.51100000000E-03 0. -1.
    9900012    2    1    2    0    0 -0.19947607443E+02  0.34994559418E+02 -0.55353082631E+01  0.50528857497E+02  0.29999992847E+02 0.  0.
        -12    1    1    2    0    0  0.19947607443E+02 -0.34994559418E+02  0.55353082631E+01  0.40659142503E+02  0.00000000000E+00 0.  1.
         11    1    3    3    0    0  0.41888501662E+01  0.12986755309E+02  0.16817684968E+01  0.13748840849E+02  0.51100000000E-03 0. -1.
        -11    1    3    3    0    0  0.22191556532E+00  0.12325301589E+01  0.29376036010E+01  0.31934138925E+01  0.51100000000E-03 0.  1.
         12    1    3    3    0    0 -0.24358373174E+02  0.20775273950E+02 -0.10154680361E+02  0.33586602755E+02  0.00000000000E+00 0. -1.
</event>
<event>
 7    1  0.3014423E-011  0.5052886E+02  0.7816164E-02  0.1300439E+00
        -11   -1    0    0    0    0  0.00000000000E+00  0.00000000000E+00  0.45593999997E+02  0.45594000000E+02  0.51100000000E-03 0.  1.
         11   -1    0    0    0    0 -0.00000000000E+00 -0.00000000000E+00 -0.45593999997E+02  0.45594000000E+02  0.51100000000E-03 0. -1.
    9900012    2    1    2    0    0 -0.13899954340E+02  0.37362103307E+02 -0.80018910128E+01  0.50528858913E+02  0.29999997153E+02 0.  0.
        -12    1    1    2    0    0  0.13899954340E+02 -0.37362103307E+02  0.80018910128E+01  0.40659141087E+02  0.00000000000E+00 0.  1.
         11    1    3    3    0    0 -0.10501621770E+02  0.14095209052E+02 -0.27198340114E+01  0.17786412661E+02  0.51100000000E-03 0. -1.
        -11    1    3    3    0    0 -0.11169455952E+02  0.21655060659E+02 -0.36133045951E+01  0.24632384553E+02  0.51100000000E-03 0.  1.
        -12    1    3    3    0    0  0.77711233831E+01  0.16118335955E+01 -0.16687524063E+01  0.81100616994E+01  0.00000000000E+00 0.  1.
</event>
<event>
 7    1  0.3025600E-011  0.5052886E+02  0.7816164E-02  0.1300439E+00
        -11   -1    0    0    0    0  0.00000000000E+00  0.00000000000E+00  0.45593999997E+02  0.45594000000E+02  0.51100000000E-03 0. -1.
         11   -1    0    0    0    0 -0.00000000000E+00 -0.00000000000E+00 -0.45593999997E+02  0.45594000000E+02  0.51100000000E-03 0.  1.
    9900012    2    1    2    0    0  0.51450093482E+01 -0.26579157011E+01  0.40244630212E+02  0.50528857142E+02  0.29999991769E+02 0.  0.
        -12    1    1    2    0    0 -0.51450093482E+01  0.26579157011E+01 -0.40244630212E+02  0.40659142858E+02  0.00000000000E+00 0.  1.
         11    1    3    3    0    0  0.32598813747E+01 -0.25609218968E+01 -0.14157488825E+01  0.43805813197E+01  0.51100000000E-03 0. -1.
        -11    1    3    3    0    0 -0.54988672295E+00  0.13801426400E+01 -0.19463952049E+01  0.24485962652E+01  0.51100000000E-03 0.  1.
         12    1    3    3    0    0  0.24350146964E+01 -0.14771364443E+01  0.43606774299E+02  0.43699679557E+02  0.00000000000E+00 0. -1.
</event>
<event>
 7    1  0.3014423E-011  0.5052888E+02  0.7816164E-02  0.1300439E+00
        -11   -1    0    0    0    0  0.00000000000E+00  0.00000000000E+00  0.45593999997E+02  0.45594000000E+02  0.51100000000E-03 0.  1.
         11   -1    0    0    0    0 -0.00000000000E+00 -0.00000000000E+00 -0.45593999997E+02  0.45594000000E+02  0.51100000000E-03 0. -1.
    9900012    2    1    2    0    0 -0.52511595389E+01 -0.39927953378E+02  0.55989464370E+01  0.50528876317E+02  0.30000050053E+02 0.  0.
        -12    1    1    2    0    0  0.52511595389E+01  0.39927953378E+02 -0.55989464370E+01  0.40659123683E+02  0.00000000000E+00 0.  1.
         11    1    3    3    0    0  0.19796559866E+00 -0.26158296363E+02 -0.54505015169E-01  0.26159102240E+02  0.51100000000E-03 0. -1.
        -11    1    3    3    0    0 -0.52212042337E+01 -0.48955654532E+01 -0.62627679458E+01  0.95105098370E+01  0.51100000000E-03 0.  1.
         12    1    3    3    0    0 -0.22792090385E+00 -0.88740915625E+01  0.11916219398E+02  0.14859264239E+02  0.00000000000E+00 0. -1.
</event>
<event>
 7    1  0.3014423E-011  0.5052884E+02  0.7816164E-02  0.1300439E+00
        -11   -1    0    0    0    0  0.00000000000E+00  0.00000000000E+00  0.45593999997E+02  0.45594000000E+02  0.51100000000E-03 0.  1.
         11   -1    0    0    0    0 -0.00000000000E+00 -0.00000000000E+00 -0.45593999997E+02  0.45594000000E+02  0.51100000000E-03 0. -1.
    9900012    2    1    2    0    0 -0.62379695745E+01 -0.14060605061E+02 -0.37637144026E+02  0.50528837570E+02  0.29999932278E+02 0.  0.
        -12    1    1    2    0    0  0.62379695745E+01  0.14060605061E+02  0.37637144026E+02  0.40659162430E+02  0.00000000000E+00 0.  1.
         11    1    3    3    0    0 -0.28264971801E+01 -0.79297393423E+01 -0.14979963605E+02  0.17183397865E+02  0.51100000000E-03 0. -1.
        -11    1    3    3    0    0 -0.58765610173E+01 -0.49548585603E+01 -0.27078605754E+02  0.28148454355E+02  0.51100000000E-03 0.  1.
        -12    1    3    3    0    0  0.24650886229E+01 -0.11760071588E+01  0.44214253325E+01  0.51969853499E+01  0.00000000000E+00 0.  1.
</event>
<event>
 7    1  0.3014423E-011  0.5052886E+02  0.7816164E-02  0.1300439E+00
        -11   -1    0    0    0    0  0.00000000000E+00  0.00000000000E+00  0.45593999997E+02  0.45594000000E+02  0.51100000000E-03 0.  1.
         11   -1    0    0    0    0 -0.00000000000E+00 -0.00000000000E+00 -0.45593999997E+02  0.45594000000E+02  0.51100000000E-03 0. -1.
    9900012    2    1    2    0    0 -0.49248836181E+01  0.26903323148E+02 -0.30085249779E+02  0.50528861675E+02  0.30000005548E+02 0.  0.
        -12    1    1    2    0    0  0.49248836181E+01 -0.26903323148E+02  0.30085249779E+02  0.40659138325E+02  0.00000000000E+00 0.  1.
         11    1    3    3    0    0 -0.31094926505E+01  0.91278723129E+01 -0.20221271235E+02  0.22402830359E+02  0.51100000000E-03 0. -1.
        -11    1    3    3    0    0 -0.65374340388E+01  0.61043660401E+01 -0.12393800777E+02  0.15284228032E+02  0.51100000000E-03 0.  1.
        -12    1    3    3    0    0  0.47220430711E+01  0.11671084795E+02  0.25298222326E+01  0.12841803284E+02  0.00000000000E+00 0.  1.
</event>
<event>
 7    1  0.3014423E-011  0.5052887E+02  0.7816164E-02  0.1300439E+00
        -11   -1    0    0    0    0  0.00000000000E+00  0.00000000000E+00  0.45593999997E+02  0.45594000000E+02  0.51100000000E-03 0. -1.
         11   -1    0    0    0    0 -0.00000000000E+00 -0.00000000000E+00 -0.45593999997E+02  0.45594000000E+02  0.51100000000E-03 0.  1.
    9900012    2    1    2    0    0 -0.10112747191E+02 -0.20188963227E+02  0.33812762881E+02  0.50528870329E+02  0.30000031853E+02 0.  0.
        -12    1    1    2    0    0  0.10112747191E+02  0.20188963227E+02 -0.33812762881E+02  0.40659129671E+02  0.00000000000E+00 0.  1.
         11    1    3    3    0    0 -0.38098468235E+01 -0.15517910474E+02  0.25836956780E+02  0.30378755969E+02  0.51100000000E-03 0. -1.
        -11    1    3    3    0    0 -0.33384224602E+01 -0.46744405886E+01  0.13058520033E+02  0.14266057797E+02  0.51100000000E-03 0.  1.
        -12    1    3    3    0    0 -0.29644779071E+01  0.33878361094E-02 -0.50827139314E+01  0.58840565639E+01  0.00000000000E+00 0.  1.
</event>
<event>
 7    1  0.3014423E-011  0.5052887E+02  0.7816164E-02  0.1300439E+00
        -11   -1    0    0    0    0  0.00000000000E+00  0.00000000000E+00  0.45593999997E+02  0.45594000000E+02  0.51100000000E-03 0.  1.
         11   -1    0    0    0    0 -0.00000000000E+00 -0.00000000000E+00 -0.45593999997E+02  0.45594000000E+02  0.51100000000E-03 0. -1.
    9900012    2    1    2    0    0  0.39969755476E+02 -0.35303420612E+01 -0.65665877807E+01  0.50528871345E+02  0.30000034941E+02 0.  0.
        -12    1    1    2    0    0 -0.39969755476E+02  0.35303420612E+01  0.65665877807E+01  0.40659128655E+02  0.00000000000E+00 0.  1.
         11    1    3    3    0    0  0.28711983531E+02 -0.10376581708E+02 -0.12497263578E+01  0.30555085705E+02  0.51100000000E-03 0. -1.
        -11    1    3    3    0    0  0.94142472772E+01 -0.24514684892E+01 -0.20012061657E+01  0.99318968948E+01  0.51100000000E-03 0.  1.
         12    1    3    3    0    0  0.18435246676E+01  0.92977081362E+01 -0.33156552571E+01  0.10041888745E+02  0.00000000000E+00 0. -1.
</event>
<event>
 7    1  0.3014423E-011  0.5052894E+02  0.7816164E-02  0.1300439E+00
        -11   -1    0    0    0    0  0.00000000000E+00  0.00000000000E+00  0.45593999997E+02  0.45594000000E+02  0.51100000000E-03 0.  1.
         11   -1    0    0    0    0 -0.00000000000E+00 -0.00000000000E+00 -0.45593999997E+02  0.45594000000E+02  0.51100000000E-03 0. -1.
    9900012    2    1    2    0    0  0.22855538106E+02 -0.31460544255E+02  0.11875089115E+02  0.50528939405E+02  0.30000241816E+02 0.  0.
        -12    1    1    2    0    0 -0.22855538106E+02  0.31460544255E+02 -0.11875089115E+02  0.40659060595E+02  0.00000000000E+00 0.  1.
         11    1    3    3    0    0 -0.14408555291E+01 -0.10530489771E+02 -0.99492668270E+00  0.10675071842E+02  0.51100000000E-03 0. -1.
        -11    1    3    3    0    0 -0.20508961446E+01 -0.74577398619E+01  0.50802573708E+01  0.92538140276E+01  0.51100000000E-03 0.  1.
         12    1    3    3    0    0  0.26347289780E+02 -0.13472314622E+02  0.77897584268E+01  0.30600053535E+02  0.00000000000E+00 0. -1.
</event>
<event>
 7    1  0.3014423E-011  0.5052884E+02  0.7816164E-02  0.1300439E+00
        -11   -1    0    0    0    0  0.00000000000E+00  0.00000000000E+00  0.45593999997E+02  0.45594000000E+02  0.51100000000E-03 0.  1.
         11   -1    0    0    0    0 -0.00000000000E+00 -0.00000000000E+00 -0.45593999997E+02  0.45594000000E+02  0.51100000000E-03 0. -1.
    9900012    2    1    2    0    0  0.22352390661E+02 -0.95725733000E+01 -0.32586867561E+02  0.50528837868E+02  0.29999933184E+02 0.  0.
        -12    1    1    2    0    0 -0.22352390661E+02  0.95725733000E+01  0.32586867561E+02  0.40659162132E+02  0.00000000000E+00 0.  1.
         11    1    3    3    0    0  0.72040641166E+01 -0.39294194810E+00 -0.18712415989E+02  0.20055110460E+02  0.51100000000E-03 0. -1.
        -11    1    3    3    0    0 -0.28958151372E+01 -0.13242405776E+01 -0.98960553165E+01  0.10395733236E+02  0.51100000000E-03 0.  1.
        -12    1    3    3    0    0  0.18044141681E+02 -0.78553907742E+01 -0.39783962557E+01  0.20077994173E+02  0.00000000000E+00 0.  1.
</event>
<event>
 7    1  0.3014423E-011  0.5052887E+02  0.7816164E-02  0.1300439E+00
        -11   -1    0    0    0    0  0.00000000000E+00  0.00000000000E+00  0.45593999997E+02  0.45594000000E+02  0.51100000000E-03 0.  1.
         11   -1    0    0    0    0 -0.00000000000E+00 -0.00000000000E+00 -0.45593999997E+02  0.45594000000E+02  0.51100000000E-03 0. -1.
    9900012    2    1    2    0    0 -0.21850323185E+02 -0.19526873833E+02 -0.28185627563E+02  0.50528867864E+02  0.30000024358E+02 0.  0.
        -12    1    1    2    0    0  0.21850323185E+02  0.19526873833E+02  0.28185627563E+02  0.40659132136E+02  0.00000000000E+00 0.  1.
         11    1    3    3    0    0 -0.12177652777E+01 -0.15561938052E+01 -0.10326548957E+01  0.22295891607E+01  0.51100000000E-03 0. -1.
        -11    1    3    3    0    0 -0.21376512099E+02 -0.22062390724E+02 -0.12668229749E+02  0.33229330406E+02  0.51100000000E-03 0.  1.
        -12    1    3    3    0    0  0.74395419191E+00  0.40917106968E+01 -0.14484742918E+02  0.15069948297E+02  0.00000000000E+00 0.  1.
</event>
<event>
 7    1  0.3014423E-011  0.5052887E+02  0.7816164E-02  0.1300439E+00
        -11   -1    0    0    0    0  0.00000000000E+00  0.00000000000E+00  0.45593999997E+02  0.45594000000E+02  0.51100000000E-03 0. -1.
         11   -1    0    0    0    0 -0.00000000000E+00 -0.00000000000E+00 -0.45593999997E+02  0.45594000000E+02  0.51100000000E-03 0.  1.
    9900012    2    1    2    0    0  0.28179665973E+02 -0.13403298127E+02  0.26065736366E+02  0.50528873259E+02  0.30000040757E+02 0.  0.
        -12    1    1    2    0    0 -0.28179665973E+02  0.13403298127E+02 -0.26065736366E+02  0.40659126741E+02  0.00000000000E+00 0.  1.
         11    1    3    3    0    0  0.77170878578E+01 -0.32824526412E+01  0.20999037543E+02  0.22611667748E+02  0.51100000000E-03 0. -1.
        -11    1    3    3    0    0  0.13076795157E+02  0.83459707262E+00 -0.14528629174E+01  0.13183699586E+02  0.51100000000E-03 0.  1.
         12    1    3    3    0    0  0.73857829585E+01 -0.10955442558E+02  0.65195617406E+01  0.14733505925E+02  0.00000000000E+00 0. -1.
</event>
<event>
 7    1  0.3014423E-011  0.5052887E+02  0.7816164E-02  0.1300439E+00
        -11   -1    0    0    0    0  0.00000000000E+00  0.00000000000E+00  0.45593999997E+02  0.45594000000E+02  0.51100000000E-03 0.  1.
         11   -1    0    0    0    0 -0.00000000000E+00 -0.00000000000E+00 -0.45593999997E+02  0.45594000000E+02  0.51100000000E-03 0. -1.
    9900012    2    1    2    0    0 -0.25613229919E+02 -0.50677425955E+01 -0.31168023055E+02  0.50528865441E+02  0.30000016995E+02 0.  0.
        -12    1    1    2    0    0  0.25613229919E+02  0.50677425955E+01  0.31168023055E+02  0.40659134559E+02  0.00000000000E+00 0.  1.
         11    1    3    3    0    0 -0.27193606455E+02 -0.32025314654E+01 -0.15554577698E+02  0.31491162687E+02  0.51100000000E-03 0. -1.
        -11    1    3    3    0    0 -0.12752927214E+01  0.64242798304E+00  0.11596009194E+01  0.18394998755E+01  0.51100000000E-03 0.  1.
         12    1    3    3    0    0  0.28556692568E+01 -0.25076391131E+01 -0.16773046277E+02  0.17198202878E+02  0.00000000000E+00 0. -1.
</event>
<event>
 7    1  0.3014423E-011  0.5052886E+02  0.7816164E-02  0.1300439E+00
        -11   -1    0    0    0    0  0.00000000000E+00  0.00000000000E+00  0.45593999997E+02  0.45594000000E+02  0.51100000000E-03 0.  1.
         11   -1    0    0    0    0 -0.00000000000E+00 -0.00000000000E+00 -0.45593999997E+02  0.45594000000E+02  0.51100000000E-03 0. -1.
    9900012    2    1    2    0    0  0.91330802465E+01  0.28418037078E+02 -0.27607378907E+02  0.50528863803E+02  0.30000012016E+02 0.  0.
        -12    1    1    2    0    0 -0.91330802465E+01 -0.28418037078E+02  0.27607378907E+02  0.40659136197E+02  0.00000000000E+00 0.  1.
         11    1    3    3    0    0  0.25780598148E+01  0.18361605791E+02 -0.20715984152E+02  0.27801923662E+02  0.51100000000E-03 0. -1.
        -11    1    3    3    0    0 -0.34943694266E+01  0.10353537833E+02 -0.63946803940E+01  0.12660896530E+02  0.51100000000E-03 0.  1.
        -12    1    3    3    0    0  0.10049389858E+02 -0.29710654635E+00 -0.49671436109E+00  0.10066043611E+02  0.00000000000E+00 0.  1.
</event>
<event>
 7    1  0.3014423E-011  0.5052886E+02  0.7816164E-02  0.1300439E+00
        -11   -1    0    0    0    0  0.00000000000E+00  0.00000000000E+00  0.45593999997E+02  0.45594000000E+02  0.51100000000E-03 0.  1.
         11   -1    0    0    0    0 -0.00000000000E+00 -0.00000000000E+00 -0.45593999997E+02  0.45594000000E+02  0.51100000000E-03 0. -1.
    9900012    2    1    2    0    0  0.32751893776E+02 -0.48990024396E+01 -0.23589806473E+02  0.50528859081E+02  0.29999997663E+02 0.  0.
        -12    1    1    2    0    0 -0.32751893776E+02  0.48990024396E+01  0.23589806473E+02  0.40659140919E+02  0.00000000000E+00 0.  1.
         11    1    3    3    0    0  0.12444597147E+02 -0.74402282255E+01 -0.14601685269E+02  0.20577517031E+02  0.51100000000E-03 0. -1.
        -11    1    3    3    0    0  0.19597457309E+02 -0.23218312843E+01 -0.12979350799E+02  0.23620219747E+02  0.51100000000E-03 0.  1.
        -12    1    3    3    0    0  0.70983932014E+00  0.48630570702E+01  0.39912295952E+01  0.63311223026E+01  0.00000000000E+00 0.  1.
</event>
<event>
 7    1  0.3014423E-011  0.5052887E+02  0.7816164E-02  0.1300439E+00
        -11   -1    0    0    0    0  0.00000000000E+00  0.00000000000E+00  0.45593999997E+02  0.45594000000E+02  0.51100000000E-03 0.  1.
         11   -1    0    0    0    0 -0.00000000000E+00 -0.00000000000E+00 -0.45593999997E+02  0.45594000000E+02  0.51100000000E-03 0. -1.
    9900012    2    1    2    0    0  0.15370101906E+02  0.34144485067E+02 -0.15845462704E+02  0.50528873332E+02  0.30000040980E+02 0.  0.
        -12    1    1    2    0    0 -0.15370101906E+02 -0.34144485067E+02  0.15845462704E+02  0.40659126668E+02  0.00000000000E+00 0.  1.
         11    1    3    3    0    0  0.17258209529E+00  0.98237875475E+00 -0.22954079998E+01  0.25027486378E+01  0.51100000000E-03 0. -1.
        -11    1    3    3    0    0  0.95944313948E+01  0.37251359384E+02 -0.14321848777E+02  0.41046708058E+02  0.51100000000E-03 0.  1.
        -12    1    3    3    0    0  0.56030884159E+01 -0.40892530723E+01  0.77179407273E+00  0.69794166358E+01  0.00000000000E+00 0.  1.
</event>
<event>
 7    1  0.3014423E-011  0.5052886E+02  0.7816164E-02  0.1300439E+00
        -11   -1    0    0    0    0  0.00000000000E+00  0.00000000000E+00  0.45593999997E+02  0.45594000000E+02  0.51100000000E-03 0. -1.
         11   -1    0    0    0    0 -0.00000000000E+00 -0.00000000000E+00 -0.45593999997E+02  0.45594000000E+02  0.51100000000E-03 0.  1.
    9900012    2    1    2    0    0 -0.74697579819E+01  0.14819201501E+02  0.37118189553E+02  0.50528855726E+02  0.29999987464E+02 0.  0.
        -12    1    1    2    0    0  0.74697579819E+01 -0.14819201501E+02 -0.37118189553E+02  0.40659144274E+02  0.00000000000E+00 0.  1.
         11    1    3    3    0    0 -0.53719982377E+01  0.15726192859E+02  0.11007352128E+02  0.19933221216E+02  0.51100000000E-03 0. -1.
        -11    1    3    3    0    0 -0.49868486964E+01  0.36206616985E+01  0.24076007044E+02  0.24852202447E+02  0.51100000000E-03 0.  1.
        -12    1    3    3    0    0  0.28890889523E+01 -0.45276530567E+01  0.20348303807E+01  0.57434320623E+01  0.00000000000E+00 0.  1.
</event>
<event>
 7    1  0.3014423E-011  0.5052885E+02  0.7816164E-02  0.1300439E+00
        -11   -1    0    0    0    0  0.00000000000E+00  0.00000000000E+00  0.45593999997E+02  0.45594000000E+02  0.51100000000E-03 0.  1.
         11   -1    0    0    0    0 -0.00000000000E+00 -0.00000000000E+00 -0.45593999997E+02  0.45594000000E+02  0.51100000000E-03 0. -1.
    9900012    2    1    2    0    0 -0.25854329303E+02  0.77243624438E+01 -0.30414702947E+02  0.50528852515E+02  0.29999977704E+02 0.  0.
        -12    1    1    2    0    0  0.25854329303E+02 -0.77243624438E+01  0.30414702947E+02  0.40659147485E+02  0.00000000000E+00 0.  1.
         11    1    3    3    0    0 -0.14526587142E+02  0.17485889790E+01 -0.77299559693E+01  0.16547855359E+02  0.51100000000E-03 0. -1.
        -11    1    3    3    0    0  0.23002050891E+00 -0.39107855337E+01  0.24371318573E+01  0.46137582160E+01  0.51100000000E-03 0.  1.
        -12    1    3    3    0    0 -0.11557762669E+02  0.98865589985E+01 -0.25121878835E+02  0.29367238940E+02  0.00000000000E+00 0.  1.
</event>
<event>
 7    1  0.3014423E-011  0.5052886E+02  0.7816164E-02  0.1300439E+00
        -11   -1    0    0    0    0  0.00000000000E+00  0.00000000000E+00  0.45593999997E+02  0.45594000000E+02  0.51100000000E-03 0.  1.
         11   -1    0    0    0    0 -0.00000000000E+00 -0.00000000000E+00 -0.45593999997E+02  0.45594000000E+02  0.51100000000E-03 0. -1.
    9900012    2    1    2    0    0 -0.24376054842E+02 -0.12848104582E+02 -0.29898157432E+02  0.50528860082E+02  0.30000000707E+02 0.  0.
        -12    1    1    2    0    0  0.24376054842E+02  0.12848104582E+02  0.29898157432E+02  0.40659139918E+02  0.00000000000E+00 0.  1.
         11    1    3    3    0    0 -0.10168207105E+02 -0.23474071695E+01  0.64186839541E+00  0.10455369503E+02  0.51100000000E-03 0. -1.
        -11    1    3    3    0    0 -0.40118828113E+01  0.44561321385E+01 -0.20837684341E+01  0.63477876836E+01  0.51100000000E-03 0.  1.
         12    1    3    3    0    0 -0.10195964926E+02 -0.14956829551E+02 -0.28456257393E+02  0.33725702896E+02  0.00000000000E+00 0. -1.
</event>
<event>
 7    1  0.3014423E-011  0.5052886E+02  0.7816164E-02  0.1300439E+00
        -11   -1    0    0    0    0  0.00000000000E+00  0.00000000000E+00  0.45593999997E+02  0.45594000000E+02  0.51100000000E-03 0. -1.
         11   -1    0    0    0    0 -0.00000000000E+00 -0.00000000000E+00 -0.45593999997E+02  0.45594000000E+02  0.51100000000E-03 0.  1.
    9900012    2    1    2    0    0  0.12172680299E+02  0.38184071829E+01  0.38605840510E+02  0.50528864488E+02  0.30000014099E+02 0.  0.
        -12    1    1    2    0    0 -0.12172680299E+02 -0.38184071829E+01 -0.38605840510E+02  0.40659135512E+02  0.00000000000E+00 0.  1.
         11    1    3    3    0    0 -0.87817123023E+00  0.10570285262E+02  0.17812574188E+02  0.20731375128E+02  0.51100000000E-03 0. -1.
        -11    1    3    3    0    0  0.66269113395E+01  0.41997681824E+01  0.12059402277E+02  0.14386910378E+02  0.51100000000E-03 0.  1.
        -12    1    3    3    0    0  0.64239401902E+01 -0.10951646262E+02  0.87338640447E+01  0.15410578982E+02  0.00000000000E+00 0.  1.
</event>
<event>
 7    1  0.3014423E-011  0.5052887E+02  0.7816164E-02  0.1300439E+00
        -11   -1    0    0    0    0  0.00000000000E+00  0.00000000000E+00  0.45593999997E+02  0.45594000000E+02  0.51100000000E-03 0.  1.
         11   -1    0    0    0    0 -0.00000000000E+00 -0.00000000000E+00 -0.45593999997E+02  0.45594000000E+02  0.51100000000E-03 0. -1.
    9900012    2    1    2    0    0  0.37901372533E+02 -0.26839529877E+01 -0.14472283427E+02  0.50528872721E+02  0.30000039122E+02 0.  0.
        -12    1    1    2    0    0 -0.37901372533E+02  0.26839529877E+01  0.14472283427E+02  0.40659127279E+02  0.00000000000E+00 0.  1.
         11    1    3    3    0    0  0.13006326028E+02 -0.50330203485E+01 -0.61645608753E+01  0.15247872692E+02  0.51100000000E-03 0. -1.
        -11    1    3    3    0    0  0.24525656410E+02 -0.58860544270E+01 -0.94998972047E+01  0.26951836788E+02  0.51100000000E-03 0.  1.
        -12    1    3    3    0    0  0.36939009481E+00  0.82351217878E+01  0.11921746530E+01  0.83291632416E+01  0.00000000000E+00 0.  1.
</event>
<event>
 7    1  0.3014423E-011  0.5052887E+02  0.7816164E-02  0.1300439E+00
        -11   -1    0    0    0    0  0.00000000000E+00  0.00000000000E+00  0.45593999997E+02  0.45594000000E+02  0.51100000000E-03 0. -1.
         11   -1    0    0    0    0 -0.00000000000E+00 -0.00000000000E+00 -0.45593999997E+02  0.45594000000E+02  0.51100000000E-03 0.  1.
    9900012    2    1    2    0    0 -0.24803949204E+02 -0.27814976538E+02  0.16255960566E+02  0.50528867326E+02  0.30000022724E+02 0.  0.
        -12    1    1    2    0    0  0.24803949204E+02  0.27814976538E+02 -0.16255960566E+02  0.40659132674E+02  0.00000000000E+00 0.  1.
         11    1    3    3    0    0 -0.46952432375E+01 -0.99161200132E+01  0.96594044594E+01  0.14617757692E+02  0.51100000000E-03 0. -1.
        -11    1    3    3    0    0  0.19661801732E+01 -0.79736117280E+00 -0.51857097700E+01  0.56029666600E+01  0.51100000000E-03 0.  1.
         12    1    3    3    0    0 -0.22074886140E+02 -0.17101495352E+02  0.11782265876E+02  0.30308142974E+02  0.00000000000E+00 0. -1.
</event>
<event>
 7    1  0.3014423E-011  0.5052886E+02  0.7816164E-02  0.1300439E+00
        -11   -1    0    0    0    0  0.00000000000E+00  0.00000000000E+00  0.45593999997E+02  0.45594000000E+02  0.51100000000E-03 0.  1.
         11   -1    0    0    0    0 -0.00000000000E+00 -0.00000000000E+00 -0.45593999997E+02  0.45594000000E+02  0.51100000000E-03 0. -1.
    9900012    2    1    2    0    0 -0.33568935025E+02  0.18968228275E+02 -0.12903425093E+02  0.50528862507E+02  0.30000008075E+02 0.  0.
        -12    1    1    2    0    0  0.33568935025E+02 -0.18968228275E+02  0.12903425093E+02  0.40659137493E+02  0.00000000000E+00 0.  1.
         11    1    3    3    0    0 -0.19847707537E+02  0.53362291170E+01  0.20356527783E+01  0.20653104322E+02  0.51100000000E-03 0. -1.
        -11    1    3    3    0    0 -0.67309536141E+01  0.10725464460E+01  0.25148886388E+01  0.72650366524E+01  0.51100000000E-03 0.  1.
        -12    1    3    3    0    0 -0.69902738737E+01  0.12559452712E+02 -0.17453966510E+02  0.22610721532E+02  0.00000000000E+00 0.  1.
</event>
<event>
 7    1  0.3014423E-011  0.5052881E+02  0.7816164E-02  0.1300439E+00
        -11   -1    0    0    0    0  0.00000000000E+00  0.00000000000E+00  0.45593999997E+02  0.45594000000E+02  0.51100000000E-03 0. -1.
         11   -1    0    0    0    0 -0.00000000000E+00 -0.00000000000E+00 -0.45593999997E+02  0.45594000000E+02  0.51100000000E-03 0.  1.
    9900012    2    1    2    0    0  0.15771100354E+02  0.37279326795E+02 -0.38332853384E+01  0.50528808061E+02  0.29999842581E+02 0.  0.
        -12    1    1    2    0    0 -0.15771100354E+02 -0.37279326795E+02  0.38332853384E+01  0.40659191939E+02  0.00000000000E+00 0.  1.
         11    1    3    3    0    0  0.12940045397E+02  0.15788234864E+02  0.29665750269E+01  0.20627983485E+02  0.51100000000E-03 0. -1.
        -11    1    3    3    0    0  0.14869334704E+01 -0.36495068644E+01 -0.89798845285E+00  0.40418133332E+01  0.51100000000E-03 0.  1.
        -12    1    3    3    0    0  0.13441214861E+01  0.25140598796E+02 -0.59018719124E+01  0.25859011242E+02  0.00000000000E+00 0.  1.
</event>
<event>
 7    1  0.3014423E-011  0.5052886E+02  0.7816164E-02  0.1300439E+00
        -11   -1    0    0    0    0  0.00000000000E+00  0.00000000000E+00  0.45593999997E+02  0.45594000000E+02  0.51100000000E-03 0.  1.
         11   -1    0    0    0    0 -0.00000000000E+00 -0.00000000000E+00 -0.45593999997E+02  0.45594000000E+02  0.51100000000E-03 0. -1.
    9900012    2    1    2    0    0  0.48239749976E+01  0.18866506515E+02 -0.35692429273E+02  0.50528864368E+02  0.30000013734E+02 0.  0.
        -12    1    1    2    0    0 -0.48239749976E+01 -0.18866506515E+02  0.35692429273E+02  0.40659135632E+02  0.00000000000E+00 0.  1.
         11    1    3    3    0    0 -0.27152651943E+00 -0.41691639003E-01  0.16225344277E+01  0.16456254354E+01  0.51100000000E-03 0. -1.
        -11    1    3    3    0    0 -0.51420465306E+01 -0.39802518533E+01 -0.74799016757E+01  0.99112046028E+01  0.51100000000E-03 0.  1.
         12    1    3    3    0    0  0.10237548048E+02  0.22888450008E+02 -0.29835062025E+02  0.38972034330E+02  0.00000000000E+00 0. -1.
</event>
<event>
 7    1  0.3014423E-011  0.5052886E+02  0.7816164E-02  0.1300439E+00
        -11   -1    0    0    0    0  0.00000000000E+00  0.00000000000E+00  0.45593999997E+02  0.45594000000E+02  0.51100000000E-03 0.  1.
         11   -1    0    0    0    0 -0.00000000000E+00 -0.00000000000E+00 -0.45593999997E+02  0.45594000000E+02  0.51100000000E-03 0. -1.
    9900012    2    1    2    0    0 -0.31437902393E+01  0.25932887525E+02 -0.31157140590E+02  0.50528862255E+02  0.30000007309E+02 0.  0.
        -12    1    1    2    0    0  0.31437902393E+01 -0.25932887525E+02  0.31157140590E+02  0.40659137745E+02  0.00000000000E+00 0.  1.
         11    1    3    3    0    0  0.16847800782E+01  0.17056074128E+02 -0.15666988697E+02  0.23220738223E+02  0.51100000000E-03 0. -1.
        -11    1    3    3    0    0  0.49946460318E+00  0.10458508842E+02  0.39589167744E+00  0.10477910220E+02  0.51100000000E-03 0.  1.
         12    1    3    3    0    0 -0.53280349207E+01 -0.15816954454E+01 -0.15886043571E+02  0.16830213811E+02  0.00000000000E+00 0. -1.
</event>
<event>
 7    1  0.3014423E-011  0.5052887E+02  0.7816164E-02  0.1300439E+00
        -11   -1    0    0    0    0  0.00000000000E+00  0.00000000000E+00  0.45593999997E+02  0.45594000000E+02  0.51100000000E-03 0.  1.
         11   -1    0    0    0    0 -0.00000000000E+00 -0.00000000000E+00 -0.45593999997E+02  0.45594000000E+02  0.51100000000E-03 0. -1.
    9900012    2    1    2    0    0 -0.10127613436E+02  0.10763636204E+02 -0.37877971992E+02  0.50528865965E+02  0.30000018588E+02 0.  0.
        -12    1    1    2    0    0  0.10127613436E+02 -0.10763636204E+02  0.37877971992E+02  0.40659134035E+02  0.00000000000E+00 0.  1.
         11    1    3    3    0    0  0.40050413620E+00  0.76871004689E+01 -0.18739608701E+02  0.20258944980E+02  0.51100000000E-03 0. -1.
        -11    1    3    3    0    0  0.55210247005E+01 -0.30088540966E+01 -0.51689952909E+01  0.81396209554E+01  0.51100000000E-03 0.  1.
        -12    1    3    3    0    0 -0.16049142273E+02  0.60853898314E+01 -0.13969368000E+02  0.22130300030E+02  0.00000000000E+00 0.  1.
</event>
<event>
 7    1  0.3014423E-011  0.5052886E+02  0.7816164E-02  0.1300439E+00
        -11   -1    0    0    0    0  0.00000000000E+00  0.00000000000E+00  0.45593999997E+02  0.45594000000E+02  0.51100000000E-03 0.  1.
         11   -1    0    0    0    0 -0.00000000000E+00 -0.00000000000E+00 -0.45593999997E+02  0.45594000000E+02  0.51100000000E-03 0. -1.
    9900012    2    1    2    0    0 -0.34335493973E+01 -0.16716637571E+01 -0.40479396686E+02  0.50528864775E+02  0.30000014971E+02 0.  0.
        -12    1    1    2    0    0  0.34335493973E+01  0.16716637571E+01  0.40479396686E+02  0.40659135225E+02  0.00000000000E+00 0.  1.
         11    1    3    3    0    0 -0.51266562451E+01 -0.68969368638E+00 -0.80056415344E+01  0.95314520549E+01  0.51100000000E-03 0. -1.
        -11    1    3    3    0    0 -0.64710893179E+01  0.96425688042E+01 -0.15740258057E+02  0.19560415488E+02  0.51100000000E-03 0.  1.
        -12    1    3    3    0    0  0.81641961658E+01 -0.10624538875E+02 -0.16733497095E+02  0.21436997233E+02  0.00000000000E+00 0.  1.
</event>
<event>
 7    1  0.3014423E-011  0.5052886E+02  0.7816164E-02  0.1300439E+00
        -11   -1    0    0    0    0  0.00000000000E+00  0.00000000000E+00  0.45593999997E+02  0.45594000000E+02  0.51100000000E-03 0.  1.
         11   -1    0    0    0    0 -0.00000000000E+00 -0.00000000000E+00 -0.45593999997E+02  0.45594000000E+02  0.51100000000E-03 0. -1.
    9900012    2    1    2    0    0  0.29960544282E+02 -0.27453030216E+02  0.13648008928E+01  0.50528858799E+02  0.29999996805E+02 0.  0.
        -12    1    1    2    0    0 -0.29960544282E+02  0.27453030216E+02 -0.13648008928E+01  0.40659141201E+02  0.00000000000E+00 0.  1.
         11    1    3    3    0    0  0.59479981302E+01 -0.15198792985E+01  0.80977562615E+01  0.10161809463E+02  0.51100000000E-03 0. -1.
        -11    1    3    3    0    0  0.53490934442E+01 -0.33114043328E+01  0.57228056536E+01  0.85046283952E+01  0.51100000000E-03 0.  1.
         12    1    3    3    0    0  0.18663452708E+02 -0.22621746585E+02 -0.12455761022E+02  0.31862420940E+02  0.00000000000E+00 0. -1.
</event>
<event>
 7    1  0.3014423E-011  0.5052873E+02  0.7816164E-02  0.1300439E+00
        -11   -1    0    0    0    0  0.00000000000E+00  0.00000000000E+00  0.45593999997E+02  0.45594000000E+02  0.51100000000E-03 0. -1.
         11   -1    0    0    0    0 -0.00000000000E+00 -0.00000000000E+00 -0.45593999997E+02  0.45594000000E+02  0.51100000000E-03 0.  1.
    9900012    2    1    2    0    0 -0.88008579427E+01 -0.34116811369E+02  0.20291986670E+02  0.50528725024E+02  0.29999590182E+02 0.  0.
        -12    1    1    2    0    0  0.88008579427E+01  0.34116811369E+02 -0.20291986670E+02  0.40659274976E+02  0.00000000000E+00 0.  1.
         11    1    3    3    0    0 -0.45482006438E+01  0.33945342958E+00 -0.29127586805E+01  0.54116098454E+01  0.51100000000E-03 0. -1.
        -11    1    3    3    0    0  0.29600393818E+01  0.17303750153E-01  0.40767776736E+01  0.50380798944E+01  0.51100000000E-03 0.  1.
         12    1    3    3    0    0 -0.72126966806E+01 -0.34473568549E+02  0.19127967677E+02  0.40079035285E+02  0.00000000000E+00 0. -1.
</event>
<event>
 7    1  0.3014423E-011  0.5052887E+02  0.7816164E-02  0.1300439E+00
        -11   -1    0    0    0    0  0.00000000000E+00  0.00000000000E+00  0.45593999997E+02  0.45594000000E+02  0.51100000000E-03 0. -1.
         11   -1    0    0    0    0 -0.00000000000E+00 -0.00000000000E+00 -0.45593999997E+02  0.45594000000E+02  0.51100000000E-03 0.  1.
    9900012    2    1    2    0    0  0.27180803330E+02 -0.30213205583E+02 -0.12374485134E+01  0.50528866462E+02  0.30000020097E+02 0.  0.
        -12    1    1    2    0    0 -0.27180803330E+02  0.30213205583E+02  0.12374485134E+01  0.40659133538E+02  0.00000000000E+00 0.  1.
         11    1    3    3    0    0  0.53232620182E+01  0.22378692045E+01  0.64911502333E+00  0.58108973201E+01  0.51100000000E-03 0. -1.
        -11    1    3    3    0    0  0.50536409607E+01  0.88384352883E+00 -0.51191344565E+01  0.72474826104E+01  0.51100000000E-03 0.  1.
         12    1    3    3    0    0  0.16803900351E+02 -0.33334918316E+02  0.32325709198E+01  0.37470486531E+02  0.00000000000E+00 0. -1.
</event>
<event>
 7    1  0.3014423E-011  0.5052886E+02  0.7816164E-02  0.1300439E+00
        -11   -1    0    0    0    0  0.00000000000E+00  0.00000000000E+00  0.45593999997E+02  0.45594000000E+02  0.51100000000E-03 0. -1.
         11   -1    0    0    0    0 -0.00000000000E+00 -0.00000000000E+00 -0.45593999997E+02  0.45594000000E+02  0.51100000000E-03 0.  1.
    9900012    2    1    2    0    0  0.15720905257E+02 -0.50731116742E+01  0.37152149905E+02  0.50528861215E+02  0.30000004150E+02 0.  0.
        -12    1    1    2    0    0 -0.15720905257E+02  0.50731116742E+01 -0.37152149905E+02  0.40659138785E+02  0.00000000000E+00 0.  1.
         11    1    3    3    0    0 -0.75254585545E+00  0.32976513239E+01  0.33615478644E+01  0.47687350340E+01  0.51100000000E-03 0. -1.
        -11    1    3    3    0    0  0.13517067748E+02  0.68688319635E+01  0.14289094731E+02  0.20834351479E+02  0.51100000000E-03 0.  1.
        -12    1    3    3    0    0  0.29563833643E+01 -0.15239594962E+02  0.19501507309E+02  0.24925774703E+02  0.00000000000E+00 0.  1.
</event>
<event>
 7    1  0.3014423E-011  0.5052881E+02  0.7816164E-02  0.1300439E+00
        -11   -1    0    0    0    0  0.00000000000E+00  0.00000000000E+00  0.45593999997E+02  0.45594000000E+02  0.51100000000E-03 0. -1.
         11   -1    0    0    0    0 -0.00000000000E+00 -0.00000000000E+00 -0.45593999997E+02  0.45594000000E+02  0.51100000000E-03 0.  1.
    9900012    2    1    2    0    0 -0.34526351905E+02  0.20877276475E+02  0.50239176658E+01  0.50528814106E+02  0.29999860956E+02 0.  0.
        -12    1    1    2    0    0  0.34526351905E+02 -0.20877276475E+02 -0.50239176658E+01  0.40659185894E+02  0.00000000000E+00 0.  1.
         11    1    3    3    0    0 -0.18102452741E+02  0.46079566120E+01  0.11028062097E+02  0.21692169399E+02  0.51100000000E-03 0. -1.
        -11    1    3    3    0    0  0.23143784396E+00  0.78912885011E+01  0.25882161129E+01  0.83081201600E+01  0.51100000000E-03 0.  1.
         12    1    3    3    0    0 -0.16655337008E+02  0.83780313620E+01 -0.85923605439E+01  0.20528524547E+02  0.00000000000E+00 0. -1.
</event>
<event>
 7    1  0.3014423E-011  0.5052885E+02  0.7816164E-02  0.1300439E+00
        -11   -1    0    0    0    0  0.00000000000E+00  0.00000000000E+00  0.45593999997E+02  0.45594000000E+02  0.51100000000E-03 0.  1.
         11   -1    0    0    0    0 -0.00000000000E+00 -0.00000000000E+00 -0.45593999997E+02  0.45594000000E+02  0.51100000000E-03 0. -1.
    9900012    2    1    2    0    0 -0.34918364130E+02  0.60563370306E+01 -0.19929749299E+02  0.50528852458E+02  0.29999977531E+02 0.  0.
        -12    1    1    2    0    0  0.34918364130E+02 -0.60563370306E+01  0.19929749299E+02  0.40659147542E+02  0.00000000000E+00 0.  1.
         11    1    3    3    0    0 -0.17586331921E+01 -0.37087553054E+01 -0.11835136076E+02  0.12526695606E+02  0.51100000000E-03 0. -1.
        -11    1    3    3    0    0 -0.20322719589E+02  0.24961399951E+01 -0.10571587139E+02  0.23043482837E+02  0.51100000000E-03 0.  1.
        -12    1    3    3    0    0 -0.12837011349E+02  0.72689523409E+01  0.24769739149E+01  0.14958674015E+02  0.00000000000E+00 0.  1.
</event>
<event>
 7    1  0.3014423E-011  0.5052886E+02  0.7816164E-02  0.1300439E+00
        -11   -1    0    0    0    0  0.00000000000E+00  0.00000000000E+00  0.45593999997E+02  0.45594000000E+02  0.51100000000E-03 0.  1.
         11   -1    0    0    0    0 -0.00000000000E+00 -0.00000000000E+00 -0.45593999997E+02  0.45594000000E+02  0.51100000000E-03 0. -1.
    9900012    2    1    2    0    0  0.72467452994E+01  0.31623336474E+02 -0.24507439968E+02  0.50528863992E+02  0.30000012589E+02 0.  0.
        -12    1    1    2    0    0 -0.72467452994E+01 -0.31623336474E+02  0.24507439968E+02  0.40659136008E+02  0.00000000000E+00 0.  1.
         11    1    3    3    0    0  0.15104543104E+02  0.15922375162E+02 -0.58882362056E+01  0.22723128725E+02  0.51100000000E-03 0. -1.
        -11    1    3    3    0    0  0.26687882662E+01  0.30169508272E+01 -0.50240776872E+01  0.64393928264E+01  0.51100000000E-03 0.  1.
         12    1    3    3    0    0 -0.10526586071E+02  0.12684010484E+02 -0.13595126075E+02  0.21366342440E+02  0.00000000000E+00 0. -1.
</event>
<event>
 7    1  0.3014423E-011  0.5052886E+02  0.7816164E-02  0.1300439E+00
        -11   -1    0    0    0    0  0.00000000000E+00  0.00000000000E+00  0.45593999997E+02  0.45594000000E+02  0.51100000000E-03 0.  1.
         11   -1    0    0    0    0 -0.00000000000E+00 -0.00000000000E+00 -0.45593999997E+02  0.45594000000E+02  0.51100000000E-03 0. -1.
    9900012    2    1    2    0    0 -0.38562394588E+02 -0.65831821332E+01 -0.11080107122E+02  0.50528864038E+02  0.30000012731E+02 0.  0.
        -12    1    1    2    0    0  0.38562394588E+02  0.65831821332E+01  0.11080107122E+02  0.40659135962E+02  0.00000000000E+00 0.  1.
         11    1    3    3    0    0 -0.30339121644E+02 -0.46910403635E+01 -0.68298417587E+01  0.31450197146E+02  0.51100000000E-03 0. -1.
        -11    1    3    3    0    0 -0.13211041581E+02 -0.26011252815E+01 -0.39487197041E+01  0.14031744722E+02  0.51100000000E-03 0.  1.
        -12    1    3    3    0    0  0.49877686377E+01  0.70898351186E+00 -0.30154565883E+00  0.50469221698E+01  0.00000000000E+00 0.  1.
</event>
<event>
 7    1  0.3014423E-011  0.5052886E+02  0.7816164E-02  0.1300439E+00
        -11   -1    0    0    0    0  0.00000000000E+00  0.00000000000E+00  0.45593999997E+02  0.45594000000E+02  0.51100000000E-03 0.  1.
         11   -1    0    0    0    0 -0.00000000000E+00 -0.00000000000E+00 -0.45593999997E+02  0.45594000000E+02  0.51100000000E-03 0. -1.
    9900012    2    1    2    0    0 -0.38542941469E+02 -0.11149226313E+02 -0.65804402158E+01  0.50528858618E+02  0.29999996256E+02 0.  0.
        -12    1    1    2    0    0  0.38542941469E+02  0.11149226313E+02  0.65804402158E+01  0.40659141382E+02  0.00000000000E+00 0.  1.
         11    1    3    3    0    0 -0.10581468008E+02  0.71904065603E+00 -0.49330363840E+01  0.11696979649E+02  0.51100000000E-03 0.  1.
        -11    1    3    3    0    0 -0.74770104482E+01  0.44666015138E+01 -0.80510092311E+01  0.11860647715E+02  0.51100000000E-03 0. -1.
        -12    1    3    3    0    0 -0.20484463013E+02 -0.16334868482E+02  0.64036053993E+01  0.26971231254E+02  0.00000000000E+00 0.  1.
</event>
<event>
 7    1  0.3014423E-011  0.5052889E+02  0.7816164E-02  0.1300439E+00
        -11   -1    0    0    0    0  0.00000000000E+00  0.00000000000E+00  0.45593999997E+02  0.45594000000E+02  0.51100000000E-03 0.  1.
         11   -1    0    0    0    0 -0.00000000000E+00 -0.00000000000E+00 -0.45593999997E+02  0.45594000000E+02  0.51100000000E-03 0. -1.
    9900012    2    1    2    0    0  0.82433939371E+01  0.29525573456E+02 -0.26710495882E+02  0.50528885133E+02  0.30000076850E+02 0.  0.
        -12    1    1    2    0    0 -0.82433939371E+01 -0.29525573456E+02  0.26710495882E+02  0.40659114867E+02  0.00000000000E+00 0.  1.
         11    1    3    3    0    0 -0.10006646483E+01 -0.62610782145E+00 -0.51734508030E+01  0.53064050179E+01  0.51100000000E-03 0.  1.
        -11    1    3    3    0    0  0.69795465428E+01  0.25298524531E+01 -0.15016270884E+02  0.16751197417E+02  0.51100000000E-03 0. -1.
         12    1    3    3    0    0  0.22645120425E+01  0.27621828824E+02 -0.65207741951E+01  0.28471282698E+02  0.00000000000E+00 0. -1.
</event>
<event>
 7    1  0.3014423E-011  0.5052886E+02  0.7816164E-02  0.1300439E+00
        -11   -1    0    0    0    0  0.00000000000E+00  0.00000000000E+00  0.45593999997E+02  0.45594000000E+02  0.51100000000E-03 0. -1.
         11   -1    0    0    0    0 -0.00000000000E+00 -0.00000000000E+00 -0.45593999997E+02  0.45594000000E+02  0.51100000000E-03 0.  1.
    9900012    2    1    2    0    0  0.29691862286E+02  0.13281245690E+02  0.24396055450E+02  0.50528859642E+02  0.29999999368E+02 0.  0.
        -12    1    1    2    0    0 -0.29691862286E+02 -0.13281245690E+02 -0.24396055450E+02  0.40659140358E+02  0.00000000000E+00 0.  1.
         11    1    3    3    0    0  0.83419346575E+01  0.72837916014E+01  0.93570250993E+01  0.14498117564E+02  0.51100000000E-03 0. -1.
        -11    1    3    3    0    0  0.20383124169E+02  0.12833588158E+02  0.63066608921E+01  0.24898729039E+02  0.51100000000E-03 0.  1.
        -12    1    3    3    0    0  0.96680345948E+00 -0.68361340688E+01  0.87323694591E+01  0.11132013039E+02  0.00000000000E+00 0.  1.
</event>
<event>
 7    1  0.3014423E-011  0.5052886E+02  0.7816164E-02  0.1300439E+00
        -11   -1    0    0    0    0  0.00000000000E+00  0.00000000000E+00  0.45593999997E+02  0.45594000000E+02  0.51100000000E-03 0.  1.
         11   -1    0    0    0    0 -0.00000000000E+00 -0.00000000000E+00 -0.45593999997E+02  0.45594000000E+02  0.51100000000E-03 0. -1.
    9900012    2    1    2    0    0  0.14327019532E+02  0.17528123434E+02 -0.33773760276E+02  0.50528862245E+02  0.30000007281E+02 0.  0.
        -12    1    1    2    0    0 -0.14327019532E+02 -0.17528123434E+02  0.33773760276E+02  0.40659137755E+02  0.00000000000E+00 0.  1.
         11    1    3    3    0    0  0.80455610531E+01  0.13453593441E+01 -0.26071702599E+01  0.85637831272E+01  0.51100000000E-03 0. -1.
        -11    1    3    3    0    0  0.89512715969E+01 -0.24470932453E+01 -0.10064847345E+02  0.13689948170E+02  0.51100000000E-03 0.  1.
         12    1    3    3    0    0 -0.26698131182E+01  0.18629857335E+02 -0.21101742671E+02  0.28275130949E+02  0.00000000000E+00 0. -1.
</event>
<event>
 7    1  0.3014423E-011  0.5052886E+02  0.7816164E-02  0.1300439E+00
        -11   -1    0    0    0    0  0.00000000000E+00  0.00000000000E+00  0.45593999997E+02  0.45594000000E+02  0.51100000000E-03 0.  1.
         11   -1    0    0    0    0 -0.00000000000E+00 -0.00000000000E+00 -0.45593999997E+02  0.45594000000E+02  0.51100000000E-03 0. -1.
    9900012    2    1    2    0    0 -0.21953254448E+02 -0.29284521696E+02 -0.17709796310E+02  0.50528862317E+02  0.30000007498E+02 0.  0.
        -12    1    1    2    0    0  0.21953254448E+02  0.29284521696E+02  0.17709796310E+02  0.40659137683E+02  0.00000000000E+00 0.  1.
         11    1    3    3    0    0 -0.11079207430E+02 -0.18748481450E+02  0.21817820351E+01  0.21886401419E+02  0.51100000000E-03 0. -1.
        -11    1    3    3    0    0  0.24331495630E+01 -0.44884626453E+01 -0.18674608979E+01  0.54363521023E+01  0.51100000000E-03 0.  1.
         12    1    3    3    0    0 -0.13307196581E+02 -0.60475776005E+01 -0.18024117448E+02  0.23206108796E+02  0.00000000000E+00 0. -1.
</event>
<event>
 7    1  0.3014423E-011  0.5052886E+02  0.7816164E-02  0.1300439E+00
        -11   -1    0    0    0    0  0.00000000000E+00  0.00000000000E+00  0.45593999997E+02  0.45594000000E+02  0.51100000000E-03 0.  1.
         11   -1    0    0    0    0 -0.00000000000E+00 -0.00000000000E+00 -0.45593999997E+02  0.45594000000E+02  0.51100000000E-03 0. -1.
    9900012    2    1    2    0    0 -0.36306942383E+02 -0.61303767816E+01 -0.17244990426E+02  0.50528864748E+02  0.30000014888E+02 0.  0.
        -12    1    1    2    0    0  0.36306942383E+02  0.61303767816E+01  0.17244990426E+02  0.40659135252E+02  0.00000000000E+00 0.  1.
         11    1    3    3    0    0 -0.84097438954E+01  0.45721478204E+01  0.20068611471E+01  0.97803793384E+01  0.51100000000E-03 0.  1.
        -11    1    3    3    0    0 -0.42207606744E+01 -0.73231608902E+00 -0.13849047828E+02  0.14496455896E+02  0.51100000000E-03 0. -1.
         12    1    3    3    0    0 -0.23676437813E+02 -0.99702085130E+01 -0.54028037450E+01  0.26252029514E+02  0.00000000000E+00 0. -1.
</event>
<event>
 7    1  0.3014423E-011  0.5052886E+02  0.7816164E-02  0.1300439E+00
        -11   -1    0    0    0    0  0.00000000000E+00  0.00000000000E+00  0.45593999997E+02  0.45594000000E+02  0.51100000000E-03 0.  1.
         11   -1    0    0    0    0 -0.00000000000E+00 -0.00000000000E+00 -0.45593999997E+02  0.45594000000E+02  0.51100000000E-03 0. -1.
    9900012    2    1    2    0    0 -0.22721290745E+02 -0.33574452905E+02  0.31088078464E+01  0.50528860471E+02  0.30000001887E+02 0.  0.
        -12    1    1    2    0    0  0.22721290745E+02  0.33574452905E+02 -0.31088078464E+01  0.40659139529E+02  0.00000000000E+00 0.  1.
         11    1    3    3    0    0 -0.15201081333E+02 -0.23809543064E+02  0.34163223014E+01  0.28454146850E+02  0.51100000000E-03 0. -1.
        -11    1    3    3    0    0 -0.13027897483E+02 -0.99463184329E+01  0.96475813448E+00  0.16419077980E+02  0.51100000000E-03 0.  1.
         12    1    3    3    0    0  0.55076880707E+01  0.18140859166E+00 -0.12722725895E+01  0.56556356409E+01  0.00000000000E+00 0. -1.
</event>
<event>
 7    1  0.3014423E-011  0.5052886E+02  0.7816164E-02  0.1300439E+00
        -11   -1    0    0    0    0  0.00000000000E+00  0.00000000000E+00  0.45593999997E+02  0.45594000000E+02  0.51100000000E-03 0.  1.
         11   -1    0    0    0    0 -0.00000000000E+00 -0.00000000000E+00 -0.45593999997E+02  0.45594000000E+02  0.51100000000E-03 0. -1.
    9900012    2    1    2    0    0  0.30730567634E+02  0.31225236498E+01 -0.26439512310E+02  0.50528858934E+02  0.29999997215E+02 0.  0.
        -12    1    1    2    0    0 -0.30730567634E+02 -0.31225236498E+01  0.26439512310E+02  0.40659141066E+02  0.00000000000E+00 0.  1.
         11    1    3    3    0    0  0.76854797147E+01  0.34369452457E+01 -0.15256158231E+02  0.17424969305E+02  0.51100000000E-03 0. -1.
        -11    1    3    3    0    0  0.95155570097E+00 -0.53863982303E+01 -0.87316934558E+01  0.10303456460E+02  0.51100000000E-03 0.  1.
         12    1    3    3    0    0  0.22093532218E+02  0.50719766344E+01 -0.24516606233E+01  0.22800433169E+02  0.00000000000E+00 0. -1.
</event>
<event>
 7    1  0.3014423E-011  0.5052886E+02  0.7816164E-02  0.1300439E+00
        -11   -1    0    0    0    0  0.00000000000E+00  0.00000000000E+00  0.45593999997E+02  0.45594000000E+02  0.51100000000E-03 0.  1.
         11   -1    0    0    0    0 -0.00000000000E+00 -0.00000000000E+00 -0.45593999997E+02  0.45594000000E+02  0.51100000000E-03 0. -1.
    9900012    2    1    2    0    0  0.31992669017E+02  0.23616463914E+02 -0.84792532984E+01  0.50528856193E+02  0.29999988884E+02 0.  0.
        -12    1    1    2    0    0 -0.31992669017E+02 -0.23616463914E+02  0.84792532984E+01  0.40659143807E+02  0.00000000000E+00 0.  1.
         11    1    3    3    0    0  0.15324948695E+02  0.23491707200E+02 -0.12881694289E+02  0.30865067757E+02  0.51100000000E-03 0. -1.
        -11    1    3    3    0    0  0.50267726324E+01 -0.10670009841E+01 -0.28703511387E+01  0.58860725546E+01  0.51100000000E-03 0.  1.
        -12    1    3    3    0    0  0.11640947690E+02  0.11917576982E+01  0.72727921293E+01  0.13777715881E+02  0.00000000000E+00 0.  1.
</event>
<event>
 7    1  0.3014423E-011  0.5052886E+02  0.7816164E-02  0.1300439E+00
        -11   -1    0    0    0    0  0.00000000000E+00  0.00000000000E+00  0.45593999997E+02  0.45594000000E+02  0.51100000000E-03 0. -1.
         11   -1    0    0    0    0 -0.00000000000E+00 -0.00000000000E+00 -0.45593999997E+02  0.45594000000E+02  0.51100000000E-03 0.  1.
    9900012    2    1    2    0    0 -0.19061176011E+02  0.34960949468E+02  0.82200644150E+01  0.50528857392E+02  0.29999992529E+02 0.  0.
        -12    1    1    2    0    0  0.19061176011E+02 -0.34960949468E+02 -0.82200644150E+01  0.40659142608E+02  0.00000000000E+00 0.  1.
         11    1    3    3    0    0 -0.64366628411E+01  0.12759363458E+02  0.11596825573E+02  0.18404302432E+02  0.51100000000E-03 0. -1.
        -11    1    3    3    0    0 -0.10757441743E+02  0.21329615436E+02  0.42152552869E+01  0.24257852850E+02  0.51100000000E-03 0.  1.
        -12    1    3    3    0    0 -0.18670714269E+01  0.87197057393E+00 -0.75920164445E+01  0.78667021101E+01  0.00000000000E+00 0.  1.
</event>
<event>
 7    1  0.3014423E-011  0.5052886E+02  0.7816164E-02  0.1300439E+00
        -11   -1    0    0    0    0  0.00000000000E+00  0.00000000000E+00  0.45593999997E+02  0.45594000000E+02  0.51100000000E-03 0.  1.
         11   -1    0    0    0    0 -0.00000000000E+00 -0.00000000000E+00 -0.45593999997E+02  0.45594000000E+02  0.51100000000E-03 0. -1.
    9900012    2    1    2    0    0  0.44856599779E+01  0.43067952914E+01 -0.40180795905E+02  0.50528856001E+02  0.29999988301E+02 0.  0.
        -12    1    1    2    0    0 -0.44856599779E+01 -0.43067952914E+01  0.40180795905E+02  0.40659143999E+02  0.00000000000E+00 0.  1.
         11    1    3    3    0    0  0.13303687730E+01  0.10754197147E+02 -0.80119060983E+01  0.13476397031E+02  0.51100000000E-03 0. -1.
        -11    1    3    3    0    0 -0.21798256922E+00  0.30251763053E+00  0.20131690040E+01  0.20474088544E+01  0.51100000000E-03 0.  1.
         12    1    3    3    0    0  0.33732737741E+01 -0.67499194865E+01 -0.34182058811E+02  0.35005050116E+02  0.00000000000E+00 0. -1.
</event>
<event>
 7    1  0.3014423E-011  0.5052887E+02  0.7816164E-02  0.1300439E+00
        -11   -1    0    0    0    0  0.00000000000E+00  0.00000000000E+00  0.45593999997E+02  0.45594000000E+02  0.51100000000E-03 0.  1.
         11   -1    0    0    0    0 -0.00000000000E+00 -0.00000000000E+00 -0.45593999997E+02  0.45594000000E+02  0.51100000000E-03 0. -1.
    9900012    2    1    2    0    0  0.58402061706E+01 -0.96401963021E+01 -0.39065626050E+02  0.50528873945E+02  0.30000042843E+02 0.  0.
        -12    1    1    2    0    0 -0.58402061706E+01  0.96401963021E+01  0.39065626050E+02  0.40659126055E+02  0.00000000000E+00 0.  1.
         11    1    3    3    0    0 -0.74753915774E+01 -0.46074039906E+01 -0.22086074512E+02  0.23767716305E+02  0.51100000000E-03 0. -1.
        -11    1    3    3    0    0 -0.19059588475E+01  0.21485617888E+01 -0.60390593194E+01  0.66872441718E+01  0.51100000000E-03 0.  1.
         12    1    3    3    0    0  0.15221556596E+02 -0.71813541004E+01 -0.10940492219E+02  0.20073913468E+02  0.00000000000E+00 0. -1.
</event>
<event>
 7    1  0.3014423E-011  0.5052886E+02  0.7816164E-02  0.1300439E+00
        -11   -1    0    0    0    0  0.00000000000E+00  0.00000000000E+00  0.45593999997E+02  0.45594000000E+02  0.51100000000E-03 0.  1.
         11   -1    0    0    0    0 -0.00000000000E+00 -0.00000000000E+00 -0.45593999997E+02  0.45594000000E+02  0.51100000000E-03 0. -1.
    9900012    2    1    2    0    0  0.25528237530E+02 -0.28313342298E+02 -0.14136104742E+02  0.50528859322E+02  0.29999998394E+02 0.  0.
        -12    1    1    2    0    0 -0.25528237530E+02  0.28313342298E+02  0.14136104742E+02  0.40659140678E+02  0.00000000000E+00 0.  1.
         11    1    3    3    0    0 -0.11867113165E+00 -0.67851512525E+01 -0.23860166946E+01  0.71934300779E+01  0.51100000000E-03 0. -1.
        -11    1    3    3    0    0 -0.41637538924E+01 -0.44650148921E+01  0.18697742024E+01  0.63850810717E+01  0.51100000000E-03 0.  1.
         12    1    3    3    0    0  0.29810662554E+02 -0.17063176153E+02 -0.13619862250E+02  0.36950348172E+02  0.00000000000E+00 0. -1.
</event>
<event>
 7    1  0.3014423E-011  0.5052885E+02  0.7816164E-02  0.1300439E+00
        -11   -1    0    0    0    0  0.00000000000E+00  0.00000000000E+00  0.45593999997E+02  0.45594000000E+02  0.51100000000E-03 0. -1.
         11   -1    0    0    0    0 -0.00000000000E+00 -0.00000000000E+00 -0.45593999997E+02  0.45594000000E+02  0.51100000000E-03 0.  1.
    9900012    2    1    2    0    0 -0.40932328238E+00 -0.14052625135E+02  0.38151316030E+02  0.50528846867E+02  0.29999960536E+02 0.  0.
        -12    1    1    2    0    0  0.40932328238E+00  0.14052625135E+02 -0.38151316030E+02  0.40659153133E+02  0.00000000000E+00 0.  1.
         11    1    3    3    0    0  0.42293363137E+01 -0.80214093363E+01  0.16155487640E+02  0.18526469565E+02  0.51100000000E-03 0. -1.
        -11    1    3    3    0    0  0.27228367454E+01 -0.12818908481E+02  0.14108304197E+02  0.19255713494E+02  0.51100000000E-03 0.  1.
        -12    1    3    3    0    0 -0.73614963415E+01  0.67876926823E+01  0.78875241920E+01  0.12746663807E+02  0.00000000000E+00 0.  1.
</event>
<event>
 7    1  0.3014423E-011  0.5052878E+02  0.7816164E-02  0.1300439E+00
        -11   -1    0    0    0    0  0.00000000000E+00  0.00000000000E+00  0.45593999997E+02  0.45594000000E+02  0.51100000000E-03 0.  1.
         11   -1    0    0    0    0 -0.00000000000E+00 -0.00000000000E+00 -0.45593999997E+02  0.45594000000E+02  0.51100000000E-03 0. -1.
    9900012    2    1    2    0    0 -0.28268934353E+02  0.74905688340E+01 -0.28247663806E+02  0.50528784791E+02  0.29999771850E+02 0.  0.
        -12    1    1    2    0    0  0.28268934353E+02 -0.74905688340E+01  0.28247663806E+02  0.40659215209E+02  0.00000000000E+00 0.  1.
         11    1    3    3    0    0 -0.10276154272E+02 -0.48479255063E+01 -0.30782935490E+01  0.11771899582E+02  0.51100000000E-03 0. -1.
        -11    1    3    3    0    0 -0.88153384932E+01 -0.47155390180E+00  0.27019448298E+00  0.88320756989E+01  0.51100000000E-03 0.  1.
         12    1    3    3    0    0 -0.91774415881E+01  0.12810048242E+02 -0.25439564740E+02  0.29924809510E+02  0.00000000000E+00 0. -1.
</event>
<event>
 7    1  0.3014423E-011  0.5052886E+02  0.7816164E-02  0.1300439E+00
        -11   -1    0    0    0    0  0.00000000000E+00  0.00000000000E+00  0.45593999997E+02  0.45594000000E+02  0.51100000000E-03 0.  1.
         11   -1    0    0    0    0 -0.00000000000E+00 -0.00000000000E+00 -0.45593999997E+02  0.45594000000E+02  0.51100000000E-03 0. -1.
    9900012    2    1    2    0    0  0.11699839537E+02  0.22517946666E+02 -0.31768246242E+02  0.50528860357E+02  0.30000001541E+02 0.  0.
        -12    1    1    2    0    0 -0.11699839537E+02 -0.22517946666E+02  0.31768246242E+02  0.40659139643E+02  0.00000000000E+00 0.  1.
         11    1    3    3    0    0 -0.19484401204E+00 -0.63110019428E+00 -0.10556853090E+02  0.10577494934E+02  0.51100000000E-03 0. -1.
        -11    1    3    3    0    0 -0.23636141167E+01  0.12398735950E+02 -0.17720947339E+02  0.21756546134E+02  0.51100000000E-03 0.  1.
         12    1    3    3    0    0  0.14258297665E+02  0.10750310910E+02 -0.34904458126E+01  0.18194819289E+02  0.00000000000E+00 0. -1.
</event>
<event>
 7    1  0.3014423E-011  0.5052881E+02  0.7816164E-02  0.1300439E+00
        -11   -1    0    0    0    0  0.00000000000E+00  0.00000000000E+00  0.45593999997E+02  0.45594000000E+02  0.51100000000E-03 0.  1.
         11   -1    0    0    0    0 -0.00000000000E+00 -0.00000000000E+00 -0.45593999997E+02  0.45594000000E+02  0.51100000000E-03 0. -1.
    9900012    2    1    2    0    0 -0.31847402841E+02 -0.16790240127E+02 -0.18894457151E+02  0.50528809866E+02  0.29999848070E+02 0.  0.
        -12    1    1    2    0    0  0.31847402841E+02  0.16790240127E+02  0.18894457151E+02  0.40659190134E+02  0.00000000000E+00 0.  1.
         11    1    3    3    0    0 -0.22898219322E+02 -0.18051412066E+02 -0.61237052587E+01  0.29793987515E+02  0.51100000000E-03 0. -1.
        -11    1    3    3    0    0 -0.12198406101E+02 -0.75724065292E+00 -0.11273007608E+02  0.16626942762E+02  0.51100000000E-03 0.  1.
        -12    1    3    3    0    0  0.32492225819E+01  0.20184125918E+01 -0.14977442845E+01  0.41078795892E+01  0.00000000000E+00 0.  1.
</event>
<event>
 7    1  0.3014423E-011  0.5052886E+02  0.7816164E-02  0.1300439E+00
        -11   -1    0    0    0    0  0.00000000000E+00  0.00000000000E+00  0.45593999997E+02  0.45594000000E+02  0.51100000000E-03 0.  1.
         11   -1    0    0    0    0 -0.00000000000E+00 -0.00000000000E+00 -0.45593999997E+02  0.45594000000E+02  0.51100000000E-03 0. -1.
    9900012    2    1    2    0    0 -0.31573159569E+02 -0.17897682974E+01 -0.25555776376E+02  0.50528863488E+02  0.30000011059E+02 0.  0.
        -12    1    1    2    0    0  0.31573159569E+02  0.17897682974E+01  0.25555776376E+02  0.40659136512E+02  0.00000000000E+00 0.  1.
         11    1    3    3    0    0 -0.96510710052E+01  0.21561743577E+01 -0.14493118447E+02  0.17545447899E+02  0.51100000000E-03 0. -1.
        -11    1    3    3    0    0 -0.11415564016E+01  0.41294373788E+01 -0.97506725855E+01  0.10650400003E+02  0.51100000000E-03 0.  1.
        -12    1    3    3    0    0 -0.20780532162E+02 -0.80753800338E+01 -0.13119853431E+01  0.22333015586E+02  0.00000000000E+00 0.  1.
</event>
<event>
 7    1  0.3014423E-011  0.5052888E+02  0.7816164E-02  0.1300439E+00
        -11   -1    0    0    0    0  0.00000000000E+00  0.00000000000E+00  0.45593999997E+02  0.45594000000E+02  0.51100000000E-03 0.  1.
         11   -1    0    0    0    0 -0.00000000000E+00 -0.00000000000E+00 -0.45593999997E+02  0.45594000000E+02  0.51100000000E-03 0. -1.
    9900012    2    1    2    0    0  0.26956004517E+02  0.17943291641E+02  0.24588122551E+02  0.50528884601E+02  0.30000075233E+02 0.  0.
        -12    1    1    2    0    0 -0.26956004517E+02 -0.17943291641E+02 -0.24588122551E+02  0.40659115399E+02  0.00000000000E+00 0.  1.
         11    1    3    3    0    0  0.19627188816E+02  0.18577203124E+02  0.19454763060E+02  0.33299051378E+02  0.51100000000E-03 0. -1.
        -11    1    3    3    0    0  0.66642881832E+01  0.54393936572E+01  0.67219142630E+01  0.10917136619E+02  0.51100000000E-03 0.  1.
        -12    1    3    3    0    0  0.66452751816E+00 -0.60733051399E+01 -0.15885547712E+01  0.63126966034E+01  0.00000000000E+00 0.  1.
</event>
<event>
 7    1  0.3014423E-011  0.5052885E+02  0.7816164E-02  0.1300439E+00
        -11   -1    0    0    0    0  0.00000000000E+00  0.00000000000E+00  0.45593999997E+02  0.45594000000E+02  0.51100000000E-03 0.  1.
         11   -1    0    0    0    0 -0.00000000000E+00 -0.00000000000E+00 -0.45593999997E+02  0.45594000000E+02  0.51100000000E-03 0. -1.
    9900012    2    1    2    0    0 -0.17030008943E+02 -0.33291753383E+00 -0.36919297847E+02  0.50528848605E+02  0.29999965819E+02 0.  0.
        -12    1    1    2    0    0  0.17030008943E+02  0.33291753383E+00  0.36919297847E+02  0.40659151395E+02  0.00000000000E+00 0.  1.
         11    1    3    3    0    0 -0.52296284404E+01  0.62846295960E+01 -0.26600025392E+02  0.27828167994E+02  0.51100000000E-03 0. -1.
        -11    1    3    3    0    0 -0.47008462828E+01  0.46051404107E+01 -0.14709049817E+01  0.67430583346E+01  0.51100000000E-03 0.  1.
         12    1    3    3    0    0 -0.70995342202E+01 -0.11222687541E+02 -0.88483674726E+01  0.15957622276E+02  0.00000000000E+00 0. -1.
</event>
<event>
 7    1  0.3014423E-011  0.5052884E+02  0.7816164E-02  0.1300439E+00
        -11   -1    0    0    0    0  0.00000000000E+00  0.00000000000E+00  0.45593999997E+02  0.45594000000E+02  0.51100000000E-03 0.  1.
         11   -1    0    0    0    0 -0.00000000000E+00 -0.00000000000E+00 -0.45593999997E+02  0.45594000000E+02  0.51100000000E-03 0. -1.
    9900012    2    1    2    0    0  0.12985613041E+02  0.40411749822E+01 -0.38317233279E+02  0.50528836120E+02  0.29999927870E+02 0.  0.
        -12    1    1    2    0    0 -0.12985613041E+02 -0.40411749822E+01  0.38317233279E+02  0.40659163880E+02  0.00000000000E+00 0.  1.
         11    1    3    3    0    0  0.11417541984E+02  0.10571336790E+02 -0.11275400150E+02  0.19215828770E+02  0.51100000000E-03 0. -1.
        -11    1    3    3    0    0 -0.53902786994E+01  0.87406625130E+00 -0.11699691431E+02  0.12911308071E+02  0.51100000000E-03 0.  1.
        -12    1    3    3    0    0  0.69583497558E+01 -0.74042280592E+01 -0.15342141698E+02  0.18401699279E+02  0.00000000000E+00 0.  1.
</event>
<event>
 7    1  0.3014423E-011  0.5052886E+02  0.7816164E-02  0.1300439E+00
        -11   -1    0    0    0    0  0.00000000000E+00  0.00000000000E+00  0.45593999997E+02  0.45594000000E+02  0.51100000000E-03 0. -1.
         11   -1    0    0    0    0 -0.00000000000E+00 -0.00000000000E+00 -0.45593999997E+02  0.45594000000E+02  0.51100000000E-03 0.  1.
    9900012    2    1    2    0    0  0.38870172715E+00  0.40035566348E+02 -0.70829439081E+01  0.50528858885E+02  0.29999997066E+02 0.  0.
        -12    1    1    2    0    0 -0.38870172715E+00 -0.40035566348E+02  0.70829439081E+01  0.40659141115E+02  0.00000000000E+00 0.  1.
         11    1    3    3    0    0  0.47165767744E+01  0.13953454583E+02 -0.86302257876E+01  0.17071197635E+02  0.51100000000E-03 0. -1.
        -11    1    3    3    0    0 -0.79894688494E+01  0.63899772621E+01 -0.62219597314E+01  0.11973980335E+02  0.51100000000E-03 0.  1.
         12    1    3    3    0    0  0.36615938021E+01  0.19692134502E+02  0.77692416109E+01  0.21483680915E+02  0.00000000000E+00 0. -1.
</event>
<event>
 7    1  0.3014423E-011  0.5052889E+02  0.7816164E-02  0.1300439E+00
        -11   -1    0    0    0    0  0.00000000000E+00  0.00000000000E+00  0.45593999997E+02  0.45594000000E+02  0.51100000000E-03 0.  1.
         11   -1    0    0    0    0 -0.00000000000E+00 -0.00000000000E+00 -0.45593999997E+02  0.45594000000E+02  0.51100000000E-03 0. -1.
    9900012    2    1    2    0    0 -0.33491613394E+01 -0.39362874413E+02  0.96182157821E+01  0.50528894764E+02  0.30000106124E+02 0.  0.
        -12    1    1    2    0    0  0.33491613394E+01  0.39362874413E+02 -0.96182157821E+01  0.40659105236E+02  0.00000000000E+00 0.  1.
         11    1    3    3    0    0 -0.11110559970E+02 -0.22982220352E+02  0.10336893899E+02  0.27540486032E+02  0.51100000000E-03 0. -1.
        -11    1    3    3    0    0  0.53730056680E+01 -0.65223047081E+01  0.63963804812E+01  0.10598270243E+02  0.51100000000E-03 0.  1.
         12    1    3    3    0    0  0.23883929629E+01 -0.98583493538E+01 -0.71150585982E+01  0.12390138489E+02  0.00000000000E+00 0. -1.
</event>
<event>
 7    1  0.3014423E-011  0.5052886E+02  0.7816164E-02  0.1300439E+00
        -11   -1    0    0    0    0  0.00000000000E+00  0.00000000000E+00  0.45593999997E+02  0.45594000000E+02  0.51100000000E-03 0.  1.
         11   -1    0    0    0    0 -0.00000000000E+00 -0.00000000000E+00 -0.45593999997E+02  0.45594000000E+02  0.51100000000E-03 0. -1.
    9900012    2    1    2    0    0 -0.70901952882E+01  0.39761521117E+02  0.46814738673E+01  0.50528860457E+02  0.30000001845E+02 0.  0.
        -12    1    1    2    0    0  0.70901952882E+01 -0.39761521117E+02 -0.46814738673E+01  0.40659139543E+02  0.00000000000E+00 0.  1.
         11    1    3    3    0    0 -0.83619142392E+00  0.27733411364E+01 -0.28344221736E+01  0.40527258081E+01  0.51100000000E-03 0. -1.
        -11    1    3    3    0    0  0.76725679962E+00 -0.30092284008E+01 -0.32183878236E+01  0.44723773330E+01  0.51100000000E-03 0.  1.
         12    1    3    3    0    0 -0.70212606639E+01  0.39997408382E+02  0.10734283865E+02  0.42003757316E+02  0.00000000000E+00 0. -1.
</event>
<event>
 7    1  0.3014423E-011  0.5052886E+02  0.7816164E-02  0.1300439E+00
        -11   -1    0    0    0    0  0.00000000000E+00  0.00000000000E+00  0.45593999997E+02  0.45594000000E+02  0.51100000000E-03 0.  1.
         11   -1    0    0    0    0 -0.00000000000E+00 -0.00000000000E+00 -0.45593999997E+02  0.45594000000E+02  0.51100000000E-03 0. -1.
    9900012    2    1    2    0    0  0.18958907651E+02 -0.20929151544E+02 -0.29252283068E+02  0.50528860458E+02  0.30000001848E+02 0.  0.
        -12    1    1    2    0    0 -0.18958907651E+02  0.20929151544E+02  0.29252283068E+02  0.40659139542E+02  0.00000000000E+00 0.  1.
         11    1    3    3    0    0 -0.13616298103E+01 -0.19109482144E+00 -0.16097213688E+01  0.21170158519E+01  0.51100000000E-03 0. -1.
        -11    1    3    3    0    0  0.95740745254E+01 -0.19285705144E+02 -0.33259179739E+01  0.21786763333E+02  0.51100000000E-03 0.  1.
        -12    1    3    3    0    0  0.10746462936E+02 -0.14523515784E+01 -0.24316643725E+02  0.26625081273E+02  0.00000000000E+00 0.  1.
</event>
<event>
 7    1  0.3014423E-011  0.5052886E+02  0.7816164E-02  0.1300439E+00
        -11   -1    0    0    0    0  0.00000000000E+00  0.00000000000E+00  0.45593999997E+02  0.45594000000E+02  0.51100000000E-03 0.  1.
         11   -1    0    0    0    0 -0.00000000000E+00 -0.00000000000E+00 -0.45593999997E+02  0.45594000000E+02  0.51100000000E-03 0. -1.
    9900012    2    1    2    0    0  0.35797235815E+01  0.33378901685E+02 -0.22939057332E+02  0.50528857733E+02  0.29999993566E+02 0.  0.
        -12    1    1    2    0    0 -0.35797235815E+01 -0.33378901685E+02  0.22939057332E+02  0.40659142267E+02  0.00000000000E+00 0.  1.
         11    1    3    3    0    0  0.33808133823E+01  0.14108642895E+02 -0.78786772061E+01  0.16509308230E+02  0.51100000000E-03 0. -1.
        -11    1    3    3    0    0  0.45094491005E+01  0.23622073208E+02 -0.13927102169E+02  0.27790315740E+02  0.51100000000E-03 0.  1.
        -12    1    3    3    0    0 -0.43105389013E+01 -0.43518144180E+01 -0.11332779566E+01  0.62292337630E+01  0.00000000000E+00 0.  1.
</event>
<event>
 7    1  0.3014423E-011  0.5052886E+02  0.7816164E-02  0.1300439E+00
        -11   -1    0    0    0    0  0.00000000000E+00  0.00000000000E+00  0.45593999997E+02  0.45594000000E+02  0.51100000000E-03 0. -1.
         11   -1    0    0    0    0 -0.00000000000E+00 -0.00000000000E+00 -0.45593999997E+02  0.45594000000E+02  0.51100000000E-03 0.  1.
    9900012    2    1    2    0    0 -0.33822945990E+02 -0.74088588175E+01  0.21313915872E+02  0.50528857434E+02  0.29999992657E+02 0.  0.
        -12    1    1    2    0    0  0.33822945990E+02  0.74088588175E+01 -0.21313915872E+02  0.40659142566E+02  0.00000000000E+00 0.  1.
         11    1    3    3    0    0 -0.13474149714E+01 -0.63016204391E+01  0.14062277140E+01  0.65957125398E+01  0.51100000000E-03 0. -1.
        -11    1    3    3    0    0 -0.43614589663E+01 -0.87206464614E+01  0.27598848756E+01  0.10133556326E+02  0.51100000000E-03 0.  1.
        -12    1    3    3    0    0 -0.28114072052E+02  0.76134080830E+01  0.17147803282E+02  0.33799588568E+02  0.00000000000E+00 0.  1.
</event>
<event>
 7    1  0.3014423E-011  0.5052886E+02  0.7816164E-02  0.1300439E+00
        -11   -1    0    0    0    0  0.00000000000E+00  0.00000000000E+00  0.45593999997E+02  0.45594000000E+02  0.51100000000E-03 0.  1.
         11   -1    0    0    0    0 -0.00000000000E+00 -0.00000000000E+00 -0.45593999997E+02  0.45594000000E+02  0.51100000000E-03 0. -1.
    9900012    2    1    2    0    0  0.22338577520E+02 -0.28239131520E+02 -0.18886636830E+02  0.50528860248E+02  0.30000001209E+02 0.  0.
        -12    1    1    2    0    0 -0.22338577520E+02  0.28239131520E+02  0.18886636830E+02  0.40659139752E+02  0.00000000000E+00 0.  1.
         11    1    3    3    0    0 -0.25950923438E+01 -0.11264807002E+01 -0.19488662785E+01  0.34353374032E+01  0.51100000000E-03 0. -1.
        -11    1    3    3    0    0 -0.28471791574E+01 -0.52758203942E+01  0.28023176562E+01  0.66176804466E+01  0.51100000000E-03 0.  1.
         12    1    3    3    0    0  0.27780849021E+02 -0.21836830426E+02 -0.19740088208E+02  0.40475842398E+02  0.00000000000E+00 0. -1.
</event>
<event>
 7    1  0.3014423E-011  0.5052886E+02  0.7816164E-02  0.1300439E+00
        -11   -1    0    0    0    0  0.00000000000E+00  0.00000000000E+00  0.45593999997E+02  0.45594000000E+02  0.51100000000E-03 0. -1.
         11   -1    0    0    0    0 -0.00000000000E+00 -0.00000000000E+00 -0.45593999997E+02  0.45594000000E+02  0.51100000000E-03 0.  1.
    9900012    2    1    2    0    0 -0.28505985583E+02 -0.98778610612E+01  0.27258066982E+02  0.50528861190E+02  0.30000004074E+02 0.  0.
        -12    1    1    2    0    0  0.28505985583E+02  0.98778610612E+01 -0.27258066982E+02  0.40659138810E+02  0.00000000000E+00 0.  1.
         11    1    3    3    0    0 -0.34617372575E+01  0.25014803974E+01 -0.26525441256E+01  0.50276256442E+01  0.51100000000E-03 0. -1.
        -11    1    3    3    0    0  0.11863071814E+01  0.16883258142E+01 -0.12473079675E+01  0.24111296545E+01  0.51100000000E-03 0.  1.
         12    1    3    3    0    0 -0.26230555506E+02 -0.14067667273E+02  0.31157919075E+02  0.43090105892E+02  0.00000000000E+00 0. -1.
</event>
<event>
 7    1  0.3014423E-011  0.5052887E+02  0.7816164E-02  0.1300439E+00
        -11   -1    0    0    0    0  0.00000000000E+00  0.00000000000E+00  0.45593999997E+02  0.45594000000E+02  0.51100000000E-03 0.  1.
         11   -1    0    0    0    0 -0.00000000000E+00 -0.00000000000E+00 -0.45593999997E+02  0.45594000000E+02  0.51100000000E-03 0. -1.
    9900012    2    1    2    0    0 -0.34487774765E+00  0.18972118901E+02 -0.35959765204E+02  0.50528868802E+02  0.30000027210E+02 0.  0.
        -12    1    1    2    0    0  0.34487774765E+00 -0.18972118901E+02  0.35959765204E+02  0.40659131198E+02  0.00000000000E+00 0.  1.
         11    1    3    3    0    0  0.44251977898E+01  0.39152317050E+00 -0.39517113591E+01  0.59457286180E+01  0.51100000000E-03 0. -1.
        -11    1    3    3    0    0 -0.72474946060E+01  0.76028575525E+01  0.15827087715E+00  0.10504983149E+02  0.51100000000E-03 0.  1.
         12    1    3    3    0    0  0.24774190685E+01  0.10977738178E+02 -0.32166324723E+02  0.34078157035E+02  0.00000000000E+00 0. -1.
</event>
<event>
 7    1  0.3014423E-011  0.5052886E+02  0.7816164E-02  0.1300439E+00
        -11   -1    0    0    0    0  0.00000000000E+00  0.00000000000E+00  0.45593999997E+02  0.45594000000E+02  0.51100000000E-03 0. -1.
         11   -1    0    0    0    0 -0.00000000000E+00 -0.00000000000E+00 -0.45593999997E+02  0.45594000000E+02  0.51100000000E-03 0.  1.
    9900012    2    1    2    0    0  0.17097501616E+02 -0.35851120291E+01  0.36714956902E+02  0.50528860190E+02  0.30000001033E+02 0.  0.
        -12    1    1    2    0    0 -0.17097501616E+02  0.35851120291E+01 -0.36714956902E+02  0.40659139810E+02  0.00000000000E+00 0.  1.
         11    1    3    3    0    0  0.14011332009E+02 -0.42880784974E+00  0.25453045063E+02  0.29057852709E+02  0.51100000000E-03 0. -1.
        -11    1    3    3    0    0  0.88273550077E+01 -0.44171040975E+01  0.12009733478E+02  0.15545632940E+02  0.51100000000E-03 0.  1.
        -12    1    3    3    0    0 -0.57411854007E+01  0.12607999182E+01 -0.74782163892E+00  0.59253745403E+01  0.00000000000E+00 0.  1.
</event>
<event>
 7    1  0.3014423E-011  0.5052887E+02  0.7816164E-02  0.1300439E+00
        -11   -1    0    0    0    0  0.00000000000E+00  0.00000000000E+00  0.45593999997E+02  0.45594000000E+02  0.51100000000E-03 0.  1.
         11   -1    0    0    0    0 -0.00000000000E+00 -0.00000000000E+00 -0.45593999997E+02  0.45594000000E+02  0.51100000000E-03 0. -1.
    9900012    2    1    2    0    0  0.88561224718E+01 -0.14566297171E+02 -0.36912826169E+02  0.50528872436E+02  0.30000038257E+02 0.  0.
        -12    1    1    2    0    0 -0.88561224718E+01  0.14566297171E+02  0.36912826169E+02  0.40659127564E+02  0.00000000000E+00 0.  1.
         11    1    3    3    0    0 -0.25986969315E+00 -0.12716284123E+02 -0.25256407876E+02  0.28278216939E+02  0.51100000000E-03 0. -1.
        -11    1    3    3    0    0 -0.38371379053E+01 -0.36383790102E+01 -0.60171394539E+01  0.80104554549E+01  0.51100000000E-03 0.  1.
         12    1    3    3    0    0  0.12953130070E+02  0.17883659625E+01 -0.56392788383E+01  0.14240200042E+02  0.00000000000E+00 0. -1.
</event>
<event>
 7    1  0.3014423E-011  0.5052886E+02  0.7816164E-02  0.1300439E+00
        -11   -1    0    0    0    0  0.00000000000E+00  0.00000000000E+00  0.45593999997E+02  0.45594000000E+02  0.51100000000E-03 0.  1.
         11   -1    0    0    0    0 -0.00000000000E+00 -0.00000000000E+00 -0.45593999997E+02  0.45594000000E+02  0.51100000000E-03 0. -1.
    9900012    2    1    2    0    0  0.33410682294E+02  0.22742444374E+02  0.44354422134E+01  0.50528860620E+02  0.30000002341E+02 0.  0.
        -12    1    1    2    0    0 -0.33410682294E+02 -0.22742444374E+02 -0.44354422134E+01  0.40659139380E+02  0.00000000000E+00 0.  1.
         11    1    3    3    0    0  0.11387328705E+02  0.83739710792E+01 -0.21173657464E+01  0.14292581454E+02  0.51100000000E-03 0. -1.
        -11    1    3    3    0    0  0.27181716319E+02  0.12699870444E+02  0.69618426695E+01  0.30799345203E+02  0.51100000000E-03 0.  1.
         12    1    3    3    0    0 -0.51583627293E+01  0.16686028508E+01 -0.40903470963E+00  0.54369339626E+01  0.00000000000E+00 0. -1.
</event>
<event>
 7    1  0.3014423E-011  0.5052886E+02  0.7816164E-02  0.1300439E+00
        -11   -1    0    0    0    0  0.00000000000E+00  0.00000000000E+00  0.45593999997E+02  0.45594000000E+02  0.51100000000E-03 0.  1.
         11   -1    0    0    0    0 -0.00000000000E+00 -0.00000000000E+00 -0.45593999997E+02  0.45594000000E+02  0.51100000000E-03 0. -1.
    9900012    2    1    2    0    0 -0.18038999187E+02 -0.36272363067E+02 -0.34750228333E+01  0.50528860833E+02  0.30000002988E+02 0.  0.
        -12    1    1    2    0    0  0.18038999187E+02  0.36272363067E+02  0.34750228333E+01  0.40659139167E+02  0.00000000000E+00 0.  1.
         11    1    3    3    0    0 -0.50387817512E+01 -0.18769533268E+02 -0.13685538258E+01  0.19482239103E+02  0.51100000000E-03 0. -1.
        -11    1    3    3    0    0 -0.19267029025E+02 -0.13324440806E+02 -0.20400806042E+01  0.23514273524E+02  0.51100000000E-03 0.  1.
        -12    1    3    3    0    0  0.62668115894E+01 -0.41783889928E+01 -0.66388403329E-01  0.75323482058E+01  0.00000000000E+00 0.  1.
</event>
<event>
 7    1  0.3014423E-011  0.5052885E+02  0.7816164E-02  0.1300439E+00
        -11   -1    0    0    0    0  0.00000000000E+00  0.00000000000E+00  0.45593999997E+02  0.45594000000E+02  0.51100000000E-03 0.  1.
         11   -1    0    0    0    0 -0.00000000000E+00 -0.00000000000E+00 -0.45593999997E+02  0.45594000000E+02  0.51100000000E-03 0. -1.
    9900012    2    1    2    0    0  0.30527730174E+02  0.87826567329E+01 -0.25378914295E+02  0.50528847775E+02  0.29999963297E+02 0.  0.
        -12    1    1    2    0    0 -0.30527730174E+02 -0.87826567329E+01  0.25378914295E+02  0.40659152225E+02  0.00000000000E+00 0.  1.
         11    1    3    3    0    0  0.49693356416E+01  0.84627108370E+01 -0.84231738939E+01  0.12932966796E+02  0.51100000000E-03 0. -1.
        -11    1    3    3    0    0 -0.32738299033E+01  0.32000018191E+01 -0.21909191046E+01  0.50752439017E+01  0.51100000000E-03 0.  1.
         12    1    3    3    0    0  0.28832224436E+02 -0.28800559232E+01 -0.14764821296E+02  0.32520637078E+02  0.00000000000E+00 0. -1.
</event>
<event>
 7    1  0.3014423E-011  0.5052886E+02  0.7816164E-02  0.1300439E+00
        -11   -1    0    0    0    0  0.00000000000E+00  0.00000000000E+00  0.45593999997E+02  0.45594000000E+02  0.51100000000E-03 0.  1.
         11   -1    0    0    0    0 -0.00000000000E+00 -0.00000000000E+00 -0.45593999997E+02  0.45594000000E+02  0.51100000000E-03 0. -1.
    9900012    2    1    2    0    0  0.68922561424E+01  0.36939344849E+02 -0.15528921740E+02  0.50528858310E+02  0.29999995318E+02 0.  0.
        -12    1    1    2    0    0 -0.68922561424E+01 -0.36939344849E+02  0.15528921740E+02  0.40659141690E+02  0.00000000000E+00 0.  1.
         11    1    3    3    0    0 -0.54199504151E+01  0.42437955622E+01 -0.72223137054E+01  0.99773482848E+01  0.51100000000E-03 0. -1.
        -11    1    3    3    0    0 -0.27026063682E+01  0.37615289279E+01 -0.63969574858E+01  0.78977367893E+01  0.51100000000E-03 0.  1.
         12    1    3    3    0    0  0.15014812926E+02  0.28934020359E+02 -0.19096505490E+01  0.32653773236E+02  0.00000000000E+00 0. -1.
</event>
<event>
 7    1  0.3014423E-011  0.5052887E+02  0.7816164E-02  0.1300439E+00
        -11   -1    0    0    0    0  0.00000000000E+00  0.00000000000E+00  0.45593999997E+02  0.45594000000E+02  0.51100000000E-03 0.  1.
         11   -1    0    0    0    0 -0.00000000000E+00 -0.00000000000E+00 -0.45593999997E+02  0.45594000000E+02  0.51100000000E-03 0. -1.
    9900012    2    1    2    0    0  0.10184065049E+02  0.22229601207E+02 -0.32485293481E+02  0.50528872571E+02  0.30000038667E+02 0.  0.
        -12    1    1    2    0    0 -0.10184065049E+02 -0.22229601207E+02  0.32485293481E+02  0.40659127429E+02  0.00000000000E+00 0.  1.
         11    1    3    3    0    0  0.33820835659E+01 -0.89589708853E+00 -0.11686180653E+02  0.12198685969E+02  0.51100000000E-03 0. -1.
        -11    1    3    3    0    0  0.33162833669E+00  0.18765107688E+02 -0.23498870908E+02  0.30073845416E+02  0.51100000000E-03 0.  1.
        -12    1    3    3    0    0  0.64703531460E+01  0.43603906082E+01  0.26997580808E+01  0.82563411864E+01  0.00000000000E+00 0.  1.
</event>
<event>
 7    1  0.3014423E-011  0.5052886E+02  0.7816164E-02  0.1300439E+00
        -11   -1    0    0    0    0  0.00000000000E+00  0.00000000000E+00  0.45593999997E+02  0.45594000000E+02  0.51100000000E-03 0. -1.
         11   -1    0    0    0    0 -0.00000000000E+00 -0.00000000000E+00 -0.45593999997E+02  0.45594000000E+02  0.51100000000E-03 0.  1.
    9900012    2    1    2    0    0  0.23076829395E+01  0.21953596128E+02  0.34144981556E+02  0.50528861434E+02  0.30000004814E+02 0.  0.
        -12    1    1    2    0    0 -0.23076829395E+01 -0.21953596128E+02 -0.34144981556E+02  0.40659138566E+02  0.00000000000E+00 0.  1.
         11    1    3    3    0    0 -0.98486977981E+00  0.73559252413E+01 -0.28131529881E+01  0.79368403433E+01  0.51100000000E-03 0. -1.
        -11    1    3    3    0    0 -0.30172136504E+01  0.13559851736E+02  0.19054141658E+02  0.23580361997E+02  0.51100000000E-03 0.  1.
         12    1    3    3    0    0  0.63097663697E+01  0.10378191505E+01  0.17903992886E+02  0.19011659094E+02  0.00000000000E+00 0. -1.
</event>
<event>
 7    1  0.3014423E-011  0.5052885E+02  0.7816164E-02  0.1300439E+00
        -11   -1    0    0    0    0  0.00000000000E+00  0.00000000000E+00  0.45593999997E+02  0.45594000000E+02  0.51100000000E-03 0. -1.
         11   -1    0    0    0    0 -0.00000000000E+00 -0.00000000000E+00 -0.45593999997E+02  0.45594000000E+02  0.51100000000E-03 0.  1.
    9900012    2    1    2    0    0 -0.26962983150E+02  0.13625107896E+02  0.27212501154E+02  0.50528852879E+02  0.29999978811E+02 0.  0.
        -12    1    1    2    0    0  0.26962983150E+02 -0.13625107896E+02 -0.27212501154E+02  0.40659147121E+02  0.00000000000E+00 0.  1.
         11    1    3    3    0    0 -0.37754626223E+01 -0.14495518086E+01  0.42726220919E+01  0.58830789779E+01  0.51100000000E-03 0. -1.
        -11    1    3    3    0    0 -0.65604772840E+00 -0.44240817652E+00  0.16527680143E+02  0.16546610976E+02  0.51100000000E-03 0.  1.
        -12    1    3    3    0    0 -0.22531472800E+02  0.15517067881E+02  0.64121989193E+01  0.28099162925E+02  0.00000000000E+00 0.  1.
</event>
<event>
 7    1  0.3014423E-011  0.5052886E+02  0.7816164E-02  0.1300439E+00
        -11   -1    0    0    0    0  0.00000000000E+00  0.00000000000E+00  0.45593999997E+02  0.45594000000E+02  0.51100000000E-03 0. -1.
         11   -1    0    0    0    0 -0.00000000000E+00 -0.00000000000E+00 -0.45593999997E+02  0.45594000000E+02  0.51100000000E-03 0.  1.
    9900012    2    1    2    0    0  0.70731411595E+01  0.16452570082E+02  0.36502733139E+02  0.50528856935E+02  0.29999991139E+02 0.  0.
        -12    1    1    2    0    0 -0.70731411595E+01 -0.16452570082E+02 -0.36502733139E+02  0.40659143065E+02  0.00000000000E+00 0.  1.
         11    1    3    3    0    0  0.10110136694E+01  0.16459869981E+01 -0.11376512120E+01  0.22418011462E+01  0.51100000000E-03 0.  1.
        -11    1    3    3    0    0  0.12002601806E+02  0.10781251776E+02  0.84205494386E+01  0.18198997035E+02  0.51100000000E-03 0. -1.
         12    1    3    3    0    0 -0.59404743161E+01  0.40253313081E+01  0.29219834913E+02  0.30088058754E+02  0.00000000000E+00 0. -1.
</event>
<event>
 7    1  0.3407844E-011  0.5052885E+02  0.7816164E-02  0.1300439E+00
        -11   -1    0    0    0    0  0.00000000000E+00  0.00000000000E+00  0.45593999997E+02  0.45594000000E+02  0.51100000000E-03 0. -1.
         11   -1    0    0    0    0 -0.00000000000E+00 -0.00000000000E+00 -0.45593999997E+02  0.45594000000E+02  0.51100000000E-03 0.  1.
    9900012    2    1    2    0    0 -0.13248374684E+02 -0.18057390457E+02  0.33934906063E+02  0.50528848123E+02  0.29999964354E+02 0.  0.
        -12    1    1    2    0    0  0.13248374684E+02  0.18057390457E+02 -0.33934906063E+02  0.40659151877E+02  0.00000000000E+00 0.  1.
         11    1    3    3    0    0 -0.10718911475E+02 -0.12742997590E+01  0.13659999897E+02  0.17410183817E+02  0.51100000000E-03 0. -1.
        -11    1    3    3    0    0  0.47301882695E+01  0.11007984518E+01 -0.35243638730E+00  0.48693582703E+01  0.51100000000E-03 0.  1.
         12    1    3    3    0    0 -0.72596514783E+01 -0.17883889150E+02  0.20627342553E+02  0.28249306036E+02  0.00000000000E+00 0. -1.
</event>
<event>
 7    1  0.3014423E-011  0.5052885E+02  0.7816164E-02  0.1300439E+00
        -11   -1    0    0    0    0  0.00000000000E+00  0.00000000000E+00  0.45593999997E+02  0.45594000000E+02  0.51100000000E-03 0.  1.
         11   -1    0    0    0    0 -0.00000000000E+00 -0.00000000000E+00 -0.45593999997E+02  0.45594000000E+02  0.51100000000E-03 0. -1.
    9900012    2    1    2    0    0  0.28206809720E+02  0.21745999609E+01 -0.29202968729E+02  0.50528851188E+02  0.29999973671E+02 0.  0.
        -12    1    1    2    0    0 -0.28206809720E+02 -0.21745999609E+01  0.29202968729E+02  0.40659148812E+02  0.00000000000E+00 0.  1.
         11    1    3    3    0    0  0.22629680563E+01  0.42836555583E+01  0.11082425868E+01  0.49698019335E+01  0.51100000000E-03 0. -1.
        -11    1    3    3    0    0  0.14614058900E+01  0.63642875089E+01 -0.12895386776E+01  0.66560328224E+01  0.51100000000E-03 0.  1.
         12    1    3    3    0    0  0.24482435773E+02 -0.84733431063E+01 -0.29021672638E+02  0.38903016432E+02  0.00000000000E+00 0. -1.
</event>
<event>
 7    1  0.3014423E-011  0.5052886E+02  0.7816164E-02  0.1300439E+00
        -11   -1    0    0    0    0  0.00000000000E+00  0.00000000000E+00  0.45593999997E+02  0.45594000000E+02  0.51100000000E-03 0. -1.
         11   -1    0    0    0    0 -0.00000000000E+00 -0.00000000000E+00 -0.45593999997E+02  0.45594000000E+02  0.51100000000E-03 0.  1.
    9900012    2    1    2    0    0  0.51401971132E+01 -0.30316205009E+02  0.26602100751E+02  0.50528859860E+02  0.30000000030E+02 0.  0.
        -12    1    1    2    0    0 -0.51401971132E+01  0.30316205009E+02 -0.26602100751E+02  0.40659140140E+02  0.00000000000E+00 0.  1.
         11    1    3    3    0    0 -0.21276922078E+01 -0.35710015257E+01 -0.19604910052E+01  0.45959385625E+01  0.51100000000E-03 0.  1.
        -11    1    3    3    0    0 -0.77345771794E+01 -0.10596327714E+02  0.15516874712E+02  0.20319430264E+02  0.51100000000E-03 0. -1.
         12    1    3    3    0    0  0.15002466500E+02 -0.16148875770E+02  0.13045717045E+02  0.25613491034E+02  0.00000000000E+00 0. -1.
</event>
<event>
 7    1  0.3014423E-011  0.5052884E+02  0.7816164E-02  0.1300439E+00
        -11   -1    0    0    0    0  0.00000000000E+00  0.00000000000E+00  0.45593999997E+02  0.45594000000E+02  0.51100000000E-03 0.  1.
         11   -1    0    0    0    0 -0.00000000000E+00 -0.00000000000E+00 -0.45593999997E+02  0.45594000000E+02  0.51100000000E-03 0. -1.
    9900012    2    1    2    0    0  0.64046075233E+01  0.12347588210E+02 -0.38205828604E+02  0.50528840251E+02  0.29999940427E+02 0.  0.
        -12    1    1    2    0    0 -0.64046075233E+01 -0.12347588210E+02  0.38205828604E+02  0.40659159749E+02  0.00000000000E+00 0.  1.
         11    1    3    3    0    0 -0.42005288405E+01  0.75871354201E+01 -0.11431759140E+02  0.14349013336E+02  0.51100000000E-03 0. -1.
        -11    1    3    3    0    0 -0.61961741126E+01 -0.14096548497E+01 -0.57609644244E+01  0.85772030283E+01  0.51100000000E-03 0.  1.
         12    1    3    3    0    0  0.16801310476E+02  0.61701076400E+01 -0.21013105040E+02  0.27602623887E+02  0.00000000000E+00 0. -1.
</event>
<event>
 7    1  0.3014423E-011  0.5052885E+02  0.7816164E-02  0.1300439E+00
        -11   -1    0    0    0    0  0.00000000000E+00  0.00000000000E+00  0.45593999997E+02  0.45594000000E+02  0.51100000000E-03 0.  1.
         11   -1    0    0    0    0 -0.00000000000E+00 -0.00000000000E+00 -0.45593999997E+02  0.45594000000E+02  0.51100000000E-03 0. -1.
    9900012    2    1    2    0    0 -0.29537921170E+02  0.26162424167E+02 -0.98084335186E+01  0.50528848589E+02  0.29999965772E+02 0.  0.
        -12    1    1    2    0    0  0.29537921170E+02 -0.26162424167E+02  0.98084335186E+01  0.40659151411E+02  0.00000000000E+00 0.  1.
         11    1    3    3    0    0 -0.24841964501E+01  0.17008795491E+02 -0.78051117472E+01  0.18878297743E+02  0.51100000000E-03 0. -1.
        -11    1    3    3    0    0 -0.22590450555E+02  0.11828844137E+02 -0.44751185740E+01  0.25889702517E+02  0.51100000000E-03 0.  1.
        -12    1    3    3    0    0 -0.44632741650E+01 -0.26752154605E+01  0.24717968026E+01  0.57608483286E+01  0.00000000000E+00 0.  1.
</event>
<event>
 7    1  0.3014423E-011  0.5052886E+02  0.7816164E-02  0.1300439E+00
        -11   -1    0    0    0    0  0.00000000000E+00  0.00000000000E+00  0.45593999997E+02  0.45594000000E+02  0.51100000000E-03 0.  1.
         11   -1    0    0    0    0 -0.00000000000E+00 -0.00000000000E+00 -0.45593999997E+02  0.45594000000E+02  0.51100000000E-03 0. -1.
    9900012    2    1    2    0    0  0.16461700367E+02  0.16070684577E+01 -0.37142906022E+02  0.50528859382E+02  0.29999998579E+02 0.  0.
        -12    1    1    2    0    0 -0.16461700367E+02 -0.16070684577E+01  0.37142906022E+02  0.40659140618E+02  0.00000000000E+00 0.  1.
         11    1    3    3    0    0  0.12799199775E+02  0.93312040350E+01 -0.18817356165E+02  0.24596417970E+02  0.51100000000E-03 0. -1.
        -11    1    3    3    0    0  0.12295230315E+01  0.36151517874E+01 -0.12267678069E+02  0.12848228470E+02  0.51100000000E-03 0.  1.
        -12    1    3    3    0    0  0.24329775605E+01 -0.11339287365E+02 -0.60578717873E+01  0.13084212943E+02  0.00000000000E+00 0.  1.
</event>
<event>
 7    1  0.3014423E-011  0.5052886E+02  0.7816164E-02  0.1300439E+00
        -11   -1    0    0    0    0  0.00000000000E+00  0.00000000000E+00  0.45593999997E+02  0.45594000000E+02  0.51100000000E-03 0.  1.
         11   -1    0    0    0    0 -0.00000000000E+00 -0.00000000000E+00 -0.45593999997E+02  0.45594000000E+02  0.51100000000E-03 0. -1.
    9900012    2    1    2    0    0  0.11540183041E+01 -0.26836326589E+02 -0.30522864802E+02  0.50528862543E+02  0.30000008187E+02 0.  0.
        -12    1    1    2    0    0 -0.11540183041E+01  0.26836326589E+02  0.30522864802E+02  0.40659137457E+02  0.00000000000E+00 0.  1.
         11    1    3    3    0    0  0.28604497924E+01 -0.32007641295E+01  0.47785369005E+00  0.43191907156E+01  0.51100000000E-03 0. -1.
        -11    1    3    3    0    0 -0.47754897892E+01  0.52733967909E+00  0.19911624454E+01  0.52007805192E+01  0.51100000000E-03 0.  1.
         12    1    3    3    0    0  0.30690583009E+01 -0.24162902138E+02 -0.32991880937E+02  0.41008891309E+02  0.00000000000E+00 0. -1.
</event>
<event>
 7    1  0.3014423E-011  0.5052887E+02  0.7816164E-02  0.1300439E+00
        -11   -1    0    0    0    0  0.00000000000E+00  0.00000000000E+00  0.45593999997E+02  0.45594000000E+02  0.51100000000E-03 0. -1.
         11   -1    0    0    0    0 -0.00000000000E+00 -0.00000000000E+00 -0.45593999997E+02  0.45594000000E+02  0.51100000000E-03 0.  1.
    9900012    2    1    2    0    0  0.24823443617E+02  0.11535144695E+02  0.30064961603E+02  0.50528870246E+02  0.30000031600E+02 0.  0.
        -12    1    1    2    0    0 -0.24823443617E+02 -0.11535144695E+02 -0.30064961603E+02  0.40659129754E+02  0.00000000000E+00 0.  1.
         11    1    3    3    0    0  0.18214308441E+01 -0.26129186844E+01  0.13426220233E+02  0.13798853009E+02  0.51100000000E-03 0. -1.
        -11    1    3    3    0    0  0.19338915698E+02  0.11066397642E+02  0.20729646307E+02  0.30433157139E+02  0.51100000000E-03 0.  1.
        -12    1    3    3    0    0  0.36630970753E+01  0.30816657366E+01 -0.40909049364E+01  0.62968600980E+01  0.00000000000E+00 0.  1.
</event>
<event>
 7    1  0.3014423E-011  0.5052887E+02  0.7816164E-02  0.1300439E+00
        -11   -1    0    0    0    0  0.00000000000E+00  0.00000000000E+00  0.45593999997E+02  0.45594000000E+02  0.51100000000E-03 0.  1.
         11   -1    0    0    0    0 -0.00000000000E+00 -0.00000000000E+00 -0.45593999997E+02  0.45594000000E+02  0.51100000000E-03 0. -1.
    9900012    2    1    2    0    0  0.32552056788E+02  0.23552852473E+02 -0.62282785049E+01  0.50528871703E+02  0.30000036027E+02 0.  0.
        -12    1    1    2    0    0 -0.32552056788E+02 -0.23552852473E+02  0.62282785049E+01  0.40659128297E+02  0.00000000000E+00 0.  1.
         11    1    3    3    0    0  0.61489248453E+01  0.42802275177E+01  0.22572970900E+01  0.78246415106E+01  0.51100000000E-03 0. -1.
        -11    1    3    3    0    0  0.44974727807E+01 -0.60118449617E+01 -0.51068313747E+01  0.90801579396E+01  0.51100000000E-03 0.  1.
         12    1    3    3    0    0  0.21905659162E+02  0.25284469917E+02 -0.33787442202E+01  0.33624072252E+02  0.00000000000E+00 0. -1.
</event>
<event>
 7    1  0.3014423E-011  0.5052886E+02  0.7816164E-02  0.1300439E+00
        -11   -1    0    0    0    0  0.00000000000E+00  0.00000000000E+00  0.45593999997E+02  0.45594000000E+02  0.51100000000E-03 0. -1.
         11   -1    0    0    0    0 -0.00000000000E+00 -0.00000000000E+00 -0.45593999997E+02  0.45594000000E+02  0.51100000000E-03 0.  1.
    9900012    2    1    2    0    0 -0.29197633284E+02  0.12137577162E+02  0.25560577364E+02  0.50528859774E+02  0.29999999768E+02 0.  0.
        -12    1    1    2    0    0  0.29197633284E+02 -0.12137577162E+02 -0.25560577364E+02  0.40659140226E+02  0.00000000000E+00 0.  1.
         11    1    3    3    0    0 -0.60302797083E+01  0.39625322963E+00  0.15683384011E+01  0.62434746403E+01  0.51100000000E-03 0. -1.
        -11    1    3    3    0    0 -0.17536690910E+02 -0.46375230304E+01  0.55137335823E+01  0.18958992753E+02  0.51100000000E-03 0.  1.
         12    1    3    3    0    0 -0.56306626653E+01  0.16378846963E+02  0.18478505381E+02  0.25326392380E+02  0.00000000000E+00 0. -1.
</event>
<event>
 7    1  0.3014423E-011  0.5052886E+02  0.7816164E-02  0.1300439E+00
        -11   -1    0    0    0    0  0.00000000000E+00  0.00000000000E+00  0.45593999997E+02  0.45594000000E+02  0.51100000000E-03 0.  1.
         11   -1    0    0    0    0 -0.00000000000E+00 -0.00000000000E+00 -0.45593999997E+02  0.45594000000E+02  0.51100000000E-03 0. -1.
    9900012    2    1    2    0    0  0.37147587275E+02 -0.14757739141E+02 -0.74452289823E+01  0.50528861550E+02  0.30000005168E+02 0.  0.
        -12    1    1    2    0    0 -0.37147587275E+02  0.14757739141E+02  0.74452289823E+01  0.40659138450E+02  0.00000000000E+00 0.  1.
         11    1    3    3    0    0  0.16361556481E+02 -0.53747986729E+00  0.38210013355E+01  0.16810397573E+02  0.51100000000E-03 0. -1.
        -11    1    3    3    0    0  0.12493337494E+02 -0.95218668191E+00  0.26178107965E+01  0.12800120111E+02  0.51100000000E-03 0.  1.
        -12    1    3    3    0    0  0.82926932991E+01 -0.13268072592E+02 -0.13884041114E+02  0.20918343867E+02  0.00000000000E+00 0.  1.
</event>
<event>
 7    1  0.3014423E-011  0.5052886E+02  0.7816164E-02  0.1300439E+00
        -11   -1    0    0    0    0  0.00000000000E+00  0.00000000000E+00  0.45593999997E+02  0.45594000000E+02  0.51100000000E-03 0.  1.
         11   -1    0    0    0    0 -0.00000000000E+00 -0.00000000000E+00 -0.45593999997E+02  0.45594000000E+02  0.51100000000E-03 0. -1.
    9900012    2    1    2    0    0  0.36428969333E+01 -0.22901595313E+02 -0.33397787840E+02  0.50528855905E+02  0.29999988010E+02 0.  0.
        -12    1    1    2    0    0 -0.36428969333E+01  0.22901595313E+02  0.33397787840E+02  0.40659144095E+02  0.00000000000E+00 0.  1.
         11    1    3    3    0    0  0.41997676676E+01 -0.60543750568E+01  0.22778885661E+01  0.77124757615E+01  0.51100000000E-03 0. -1.
        -11    1    3    3    0    0 -0.50495016305E+00 -0.22248021010E+01  0.15924900515E+01  0.27822192367E+01  0.51100000000E-03 0.  1.
        -12    1    3    3    0    0 -0.51920571299E-01 -0.14622418155E+02 -0.37268166457E+02  0.40034160907E+02  0.00000000000E+00 0.  1.
</event>
<event>
 7    1  0.3014423E-011  0.5052886E+02  0.7816164E-02  0.1300439E+00
        -11   -1    0    0    0    0  0.00000000000E+00  0.00000000000E+00  0.45593999997E+02  0.45594000000E+02  0.51100000000E-03 0.  1.
         11   -1    0    0    0    0 -0.00000000000E+00 -0.00000000000E+00 -0.45593999997E+02  0.45594000000E+02  0.51100000000E-03 0. -1.
    9900012    2    1    2    0    0 -0.13162090912E+02 -0.14595296021E+02 -0.35593572740E+02  0.50528859288E+02  0.29999998291E+02 0.  0.
        -12    1    1    2    0    0  0.13162090912E+02  0.14595296021E+02  0.35593572740E+02  0.40659140712E+02  0.00000000000E+00 0.  1.
         11    1    3    3    0    0 -0.16505394539E+02 -0.21280585259E+02 -0.25829425678E+02  0.37315554250E+02  0.51100000000E-03 0. -1.
        -11    1    3    3    0    0  0.79085452992E+00 -0.39949199688E+00 -0.44147390935E-02  0.88603865272E+00  0.51100000000E-03 0.  1.
         12    1    3    3    0    0  0.25524490969E+01  0.70847812349E+01 -0.97597323221E+01  0.12327266385E+02  0.00000000000E+00 0. -1.
</event>
<event>
 7    1  0.3014423E-011  0.5052886E+02  0.7816164E-02  0.1300439E+00
        -11   -1    0    0    0    0  0.00000000000E+00  0.00000000000E+00  0.45593999997E+02  0.45594000000E+02  0.51100000000E-03 0.  1.
         11   -1    0    0    0    0 -0.00000000000E+00 -0.00000000000E+00 -0.45593999997E+02  0.45594000000E+02  0.51100000000E-03 0. -1.
    9900012    2    1    2    0    0 -0.16010696382E+02  0.37313365086E+02 -0.21297581135E+01  0.50528862253E+02  0.30000007306E+02 0.  0.
        -12    1    1    2    0    0  0.16010696382E+02 -0.37313365086E+02  0.21297581135E+01  0.40659137747E+02  0.00000000000E+00 0.  1.
         11    1    3    3    0    0 -0.19497106357E+02  0.29064467294E+02 -0.40105899172E+01  0.35227336646E+02  0.51100000000E-03 0. -1.
        -11    1    3    3    0    0 -0.30910110716E-01  0.96678824666E+01 -0.20027041724E+01  0.98731824194E+01  0.51100000000E-03 0.  1.
        -12    1    3    3    0    0  0.35173200857E+01 -0.14189846751E+01  0.38835359762E+01  0.54283431884E+01  0.00000000000E+00 0.  1.
</event>
<event>
 7    1  0.3014423E-011  0.5052883E+02  0.7816164E-02  0.1300439E+00
        -11   -1    0    0    0    0  0.00000000000E+00  0.00000000000E+00  0.45593999997E+02  0.45594000000E+02  0.51100000000E-03 0. -1.
         11   -1    0    0    0    0 -0.00000000000E+00 -0.00000000000E+00 -0.45593999997E+02  0.45594000000E+02  0.51100000000E-03 0.  1.
    9900012    2    1    2    0    0 -0.12170442673E+02  0.29881850866E+02 -0.24741135489E+02  0.50528825496E+02  0.29999895579E+02 0.  0.
        -12    1    1    2    0    0  0.12170442673E+02 -0.29881850866E+02  0.24741135489E+02  0.40659174504E+02  0.00000000000E+00 0.  1.
         11    1    3    3    0    0 -0.11075353220E+02  0.86223420438E+01 -0.12384245052E+02  0.18718380193E+02  0.51100000000E-03 0. -1.
        -11    1    3    3    0    0  0.44575500774E+01  0.55031697310E+01  0.42460043245E+01  0.82573108676E+01  0.51100000000E-03 0.  1.
         12    1    3    3    0    0 -0.55526395298E+01  0.15756339091E+02 -0.16602894761E+02  0.23553134436E+02  0.00000000000E+00 0. -1.
</event>
<event>
 7    1  0.3014423E-011  0.5052887E+02  0.7816164E-02  0.1300439E+00
        -11   -1    0    0    0    0  0.00000000000E+00  0.00000000000E+00  0.45593999997E+02  0.45594000000E+02  0.51100000000E-03 0.  1.
         11   -1    0    0    0    0 -0.00000000000E+00 -0.00000000000E+00 -0.45593999997E+02  0.45594000000E+02  0.51100000000E-03 0. -1.
    9900012    2    1    2    0    0  0.22334618186E+02 -0.32550139020E+02 -0.97374575658E+01  0.50528870649E+02  0.30000032825E+02 0.  0.
        -12    1    1    2    0    0 -0.22334618186E+02  0.32550139020E+02  0.97374575658E+01  0.40659129351E+02  0.00000000000E+00 0.  1.
         11    1    3    3    0    0  0.82901627530E+01 -0.37697993018E+01 -0.12743873552E+02  0.15663476581E+02  0.51100000000E-03 0. -1.
        -11    1    3    3    0    0  0.38672335436E+01 -0.94916073927E+01 -0.52873243771E+01  0.11532645209E+02  0.51100000000E-03 0.  1.
         12    1    3    3    0    0  0.10177221889E+02 -0.19288732326E+02  0.82937403630E+01  0.23332748859E+02  0.00000000000E+00 0. -1.
</event>
<event>
 7    1  0.3014423E-011  0.5052886E+02  0.7816164E-02  0.1300439E+00
        -11   -1    0    0    0    0  0.00000000000E+00  0.00000000000E+00  0.45593999997E+02  0.45594000000E+02  0.51100000000E-03 0. -1.
         11   -1    0    0    0    0 -0.00000000000E+00 -0.00000000000E+00 -0.45593999997E+02  0.45594000000E+02  0.51100000000E-03 0.  1.
    9900012    2    1    2    0    0 -0.16245182339E+02 -0.37272465749E+02 -0.15080128481E+00  0.50528863349E+02  0.30000010634E+02 0.  0.
        -12    1    1    2    0    0  0.16245182339E+02  0.37272465749E+02  0.15080128481E+00  0.40659136651E+02  0.00000000000E+00 0.  1.
         11    1    3    3    0    0 -0.91290239381E+01 -0.92644228907E+01  0.85860886456E+01  0.15584913476E+02  0.51100000000E-03 0. -1.
        -11    1    3    3    0    0 -0.12262628977E+02 -0.13304220925E+02 -0.63953815128E+01  0.19190499441E+02  0.51100000000E-03 0.  1.
        -12    1    3    3    0    0  0.51464705763E+01 -0.14703821933E+02 -0.23415084177E+01  0.15753450431E+02  0.00000000000E+00 0.  1.
</event>
<event>
 7    1  0.3014423E-011  0.5052886E+02  0.7816164E-02  0.1300439E+00
        -11   -1    0    0    0    0  0.00000000000E+00  0.00000000000E+00  0.45593999997E+02  0.45594000000E+02  0.51100000000E-03 0.  1.
         11   -1    0    0    0    0 -0.00000000000E+00 -0.00000000000E+00 -0.45593999997E+02  0.45594000000E+02  0.51100000000E-03 0. -1.
    9900012    2    1    2    0    0  0.31490929868E+02 -0.24736411918E+02 -0.70424895829E+01  0.50528863290E+02  0.30000010455E+02 0.  0.
        -12    1    1    2    0    0 -0.31490929868E+02  0.24736411918E+02  0.70424895829E+01  0.40659136710E+02  0.00000000000E+00 0.  1.
         11    1    3    3    0    0  0.30773563733E+00  0.12781794024E+01  0.52907992353E+01  0.54516970401E+01  0.51100000000E-03 0. -1.
        -11    1    3    3    0    0  0.34827359235E+01 -0.15591021722E+01  0.32134821497E+01  0.49886588261E+01  0.51100000000E-03 0.  1.
         12    1    3    3    0    0  0.27700458307E+02 -0.24455489148E+02 -0.15546770968E+02  0.40088507423E+02  0.00000000000E+00 0. -1.
</event>
<event>
 7    1  0.3132953E-011  0.5052886E+02  0.7816164E-02  0.1300439E+00
        -11   -1    0    0    0    0  0.00000000000E+00  0.00000000000E+00  0.45593999997E+02  0.45594000000E+02  0.51100000000E-03 0. -1.
         11   -1    0    0    0    0 -0.00000000000E+00 -0.00000000000E+00 -0.45593999997E+02  0.45594000000E+02  0.51100000000E-03 0.  1.
    9900012    2    1    2    0    0 -0.27958955543E+02  0.21714819842E+02  0.19998231232E+02  0.50528857753E+02  0.29999993627E+02 0.  0.
        -12    1    1    2    0    0  0.27958955543E+02 -0.21714819842E+02 -0.19998231232E+02  0.40659142247E+02  0.00000000000E+00 0.  1.
         11    1    3    3    0    0 -0.31640877202E+01  0.10326726023E+02  0.96101802757E+01  0.14457118892E+02  0.51100000000E-03 0. -1.
        -11    1    3    3    0    0 -0.63347528683E+01  0.68402935506E+01 -0.59029619811E+01  0.11034657683E+02  0.51100000000E-03 0.  1.
         12    1    3    3    0    0 -0.18460114955E+02  0.45478002679E+01  0.16291012938E+02  0.25037081179E+02  0.00000000000E+00 0. -1.
</event>
<event>
 7    1  0.3014423E-011  0.5052886E+02  0.7816164E-02  0.1300439E+00
        -11   -1    0    0    0    0  0.00000000000E+00  0.00000000000E+00  0.45593999997E+02  0.45594000000E+02  0.51100000000E-03 0.  1.
         11   -1    0    0    0    0 -0.00000000000E+00 -0.00000000000E+00 -0.45593999997E+02  0.45594000000E+02  0.51100000000E-03 0. -1.
    9900012    2    1    2    0    0 -0.95665408253E+01 -0.28478205458E+02 -0.27397791020E+02  0.50528857827E+02  0.29999993852E+02 0.  0.
        -12    1    1    2    0    0  0.95665408253E+01  0.28478205458E+02  0.27397791020E+02  0.40659142173E+02  0.00000000000E+00 0.  1.
         11    1    3    3    0    0 -0.25760796751E+01 -0.22466170203E+02 -0.15124597503E+02  0.27205117900E+02  0.51100000000E-03 0. -1.
        -11    1    3    3    0    0  0.95079954633E+00 -0.10090274824E+02 -0.32813001452E+01  0.10652914939E+02  0.51100000000E-03 0.  1.
         12    1    3    3    0    0 -0.79412606966E+01  0.40782395700E+01 -0.89918933723E+01  0.12670824987E+02  0.00000000000E+00 0. -1.
</event>
<event>
 7    1  0.3014423E-011  0.5052885E+02  0.7816164E-02  0.1300439E+00
        -11   -1    0    0    0    0  0.00000000000E+00  0.00000000000E+00  0.45593999997E+02  0.45594000000E+02  0.51100000000E-03 0.  1.
         11   -1    0    0    0    0 -0.00000000000E+00 -0.00000000000E+00 -0.45593999997E+02  0.45594000000E+02  0.51100000000E-03 0. -1.
    9900012    2    1    2    0    0 -0.14445957799E+02  0.66801350907E+01 -0.37414652700E+02  0.50528854188E+02  0.29999982788E+02 0.  0.
        -12    1    1    2    0    0  0.14445957799E+02 -0.66801350907E+01  0.37414652700E+02  0.40659145812E+02  0.00000000000E+00 0.  1.
         11    1    3    3    0    0 -0.19066600959E+01 -0.10021517612E+00  0.10716194464E+01  0.21894666706E+01  0.51100000000E-03 0. -1.
        -11    1    3    3    0    0  0.33695251789E+01 -0.15216238152E+01  0.18920395925E+01  0.41531738522E+01  0.51100000000E-03 0.  1.
         12    1    3    3    0    0 -0.15908822882E+02  0.83019740820E+01 -0.40378311739E+02  0.44186213665E+02  0.00000000000E+00 0. -1.
</event>
<event>
 7    1  0.3014423E-011  0.5052885E+02  0.7816164E-02  0.1300439E+00
        -11   -1    0    0    0    0  0.00000000000E+00  0.00000000000E+00  0.45593999997E+02  0.45594000000E+02  0.51100000000E-03 0.  1.
         11   -1    0    0    0    0 -0.00000000000E+00 -0.00000000000E+00 -0.45593999997E+02  0.45594000000E+02  0.51100000000E-03 0. -1.
    9900012    2    1    2    0    0 -0.11586604047E+02 -0.38888891329E+02  0.25633986407E+01  0.50528852509E+02  0.29999977686E+02 0.  0.
        -12    1    1    2    0    0  0.11586604047E+02  0.38888891329E+02 -0.25633986407E+01  0.40659147491E+02  0.00000000000E+00 0.  1.
         11    1    3    3    0    0 -0.63463421970E+01 -0.88199952162E+01  0.15020474899E+01  0.10969253476E+02  0.51100000000E-03 0. -1.
        -11    1    3    3    0    0 -0.47132248960E+01 -0.16695880297E+02  0.12957572140E+02  0.21653304224E+02  0.51100000000E-03 0.  1.
         12    1    3    3    0    0 -0.52703695421E+00 -0.13373015816E+02 -0.11896220989E+02  0.17906294809E+02  0.00000000000E+00 0. -1.
</event>
<event>
 7    1  0.3014423E-011  0.5052886E+02  0.7816164E-02  0.1300439E+00
        -11   -1    0    0    0    0  0.00000000000E+00  0.00000000000E+00  0.45593999997E+02  0.45594000000E+02  0.51100000000E-03 0. -1.
         11   -1    0    0    0    0 -0.00000000000E+00 -0.00000000000E+00 -0.45593999997E+02  0.45594000000E+02  0.51100000000E-03 0.  1.
    9900012    2    1    2    0    0 -0.30637107712E+02  0.19896703017E+02  0.17850894022E+02  0.50528861086E+02  0.30000003756E+02 0.  0.
        -12    1    1    2    0    0  0.30637107712E+02 -0.19896703017E+02 -0.17850894022E+02  0.40659138914E+02  0.00000000000E+00 0.  1.
         11    1    3    3    0    0  0.41649313679E+00  0.73552242608E+01  0.41282000638E+01  0.84448106247E+01  0.51100000000E-03 0. -1.
        -11    1    3    3    0    0 -0.10359601246E+02  0.14926915620E+02  0.22659362634E+01  0.18310341758E+02  0.51100000000E-03 0.  1.
        -12    1    3    3    0    0 -0.20693999603E+02 -0.23854368642E+01  0.11456757695E+02  0.23773708703E+02  0.00000000000E+00 0.  1.
</event>
<event>
 7    1  0.3014423E-011  0.5052886E+02  0.7816164E-02  0.1300439E+00
        -11   -1    0    0    0    0  0.00000000000E+00  0.00000000000E+00  0.45593999997E+02  0.45594000000E+02  0.51100000000E-03 0.  1.
         11   -1    0    0    0    0 -0.00000000000E+00 -0.00000000000E+00 -0.45593999997E+02  0.45594000000E+02  0.51100000000E-03 0. -1.
    9900012    2    1    2    0    0  0.25797461764E+02  0.30259186889E+02  0.84875567685E+01  0.50528855339E+02  0.29999986289E+02 0.  0.
        -12    1    1    2    0    0 -0.25797461764E+02 -0.30259186889E+02 -0.84875567685E+01  0.40659144661E+02  0.00000000000E+00 0.  1.
         11    1    3    3    0    0  0.16558137037E+01  0.84697518171E+01 -0.14007500480E+01  0.87430266969E+01  0.51100000000E-03 0. -1.
        -11    1    3    3    0    0  0.27355229614E+02  0.11248987009E+02  0.73740213942E+01  0.30483183688E+02  0.51100000000E-03 0.  1.
         12    1    3    3    0    0 -0.32135815541E+01  0.10540448063E+02  0.25142854223E+01  0.11302644954E+02  0.00000000000E+00 0. -1.
</event>
<event>
 7    1  0.3014423E-011  0.5052886E+02  0.7816164E-02  0.1300439E+00
        -11   -1    0    0    0    0  0.00000000000E+00  0.00000000000E+00  0.45593999997E+02  0.45594000000E+02  0.51100000000E-03 0.  1.
         11   -1    0    0    0    0 -0.00000000000E+00 -0.00000000000E+00 -0.45593999997E+02  0.45594000000E+02  0.51100000000E-03 0. -1.
    9900012    2    1    2    0    0 -0.30958940332E+02 -0.19357224639E+02 -0.17888754614E+02  0.50528859897E+02  0.30000000144E+02 0.  0.
        -12    1    1    2    0    0  0.30958940332E+02  0.19357224639E+02  0.17888754614E+02  0.40659140103E+02  0.00000000000E+00 0.  1.
         11    1    3    3    0    0 -0.15553361091E+02 -0.25340672328E+02 -0.12487771668E+02  0.32249048928E+02  0.51100000000E-03 0. -1.
        -11    1    3    3    0    0 -0.12198297565E+02  0.21335614835E+01 -0.30980697944E+01  0.12765131601E+02  0.51100000000E-03 0.  1.
        -12    1    3    3    0    0 -0.32072816765E+01  0.38498862055E+01 -0.23029131515E+01  0.55146793679E+01  0.00000000000E+00 0.  1.
</event>
<event>
 7    1  0.3014423E-011  0.5052886E+02  0.7816164E-02  0.1300439E+00
        -11   -1    0    0    0    0  0.00000000000E+00  0.00000000000E+00  0.45593999997E+02  0.45594000000E+02  0.51100000000E-03 0. -1.
         11   -1    0    0    0    0 -0.00000000000E+00 -0.00000000000E+00 -0.45593999997E+02  0.45594000000E+02  0.51100000000E-03 0.  1.
    9900012    2    1    2    0    0  0.12155129183E+02  0.32195878707E+02  0.21652810754E+02  0.50528856076E+02  0.29999988527E+02 0.  0.
        -12    1    1    2    0    0 -0.12155129183E+02 -0.32195878707E+02 -0.21652810754E+02  0.40659143924E+02  0.00000000000E+00 0.  1.
         11    1    3    3    0    0  0.55902340489E+01  0.67812794131E+01  0.71136205736E+00  0.88171709429E+01  0.51100000000E-03 0. -1.
        -11    1    3    3    0    0  0.26067323414E+01  0.65635520617E+01 -0.55328779817E+01  0.89715109200E+01  0.51100000000E-03 0.  1.
         12    1    3    3    0    0  0.39581627925E+01  0.18851047232E+02  0.26474326678E+02  0.32740174213E+02  0.00000000000E+00 0. -1.
</event>
<event>
 7    1  0.3014423E-011  0.5052882E+02  0.7816164E-02  0.1300439E+00
        -11   -1    0    0    0    0  0.00000000000E+00  0.00000000000E+00  0.45593999997E+02  0.45594000000E+02  0.51100000000E-03 0. -1.
         11   -1    0    0    0    0 -0.00000000000E+00 -0.00000000000E+00 -0.45593999997E+02  0.45594000000E+02  0.51100000000E-03 0.  1.
    9900012    2    1    2    0    0 -0.62240712668E+01 -0.19675736987E+02  0.35032769508E+02  0.50528823564E+02  0.29999889704E+02 0.  0.
        -12    1    1    2    0    0  0.62240712668E+01  0.19675736987E+02 -0.35032769508E+02  0.40659176436E+02  0.00000000000E+00 0.  1.
         11    1    3    3    0    0 -0.26111595922E+01 -0.40580395859E+01  0.19027665900E+02  0.19630025714E+02  0.51100000000E-03 0. -1.
        -11    1    3    3    0    0 -0.31370441789E+01  0.46118426798E+01  0.90508401145E+00  0.56506031901E+01  0.51100000000E-03 0.  1.
        -12    1    3    3    0    0 -0.47586749564E+00 -0.20229540081E+02  0.15100019597E+02  0.25248194659E+02  0.00000000000E+00 0.  1.
</event>
<event>
 7    1  0.3014423E-011  0.5052879E+02  0.7816164E-02  0.1300439E+00
        -11   -1    0    0    0    0  0.00000000000E+00  0.00000000000E+00  0.45593999997E+02  0.45594000000E+02  0.51100000000E-03 0. -1.
         11   -1    0    0    0    0 -0.00000000000E+00 -0.00000000000E+00 -0.45593999997E+02  0.45594000000E+02  0.51100000000E-03 0.  1.
    9900012    2    1    2    0    0  0.39389025586E+02  0.37907147082E+01  0.93437960523E+01  0.50528789736E+02  0.29999786882E+02 0.  0.
        -12    1    1    2    0    0 -0.39389025586E+02 -0.37907147082E+01 -0.93437960523E+01  0.40659210264E+02  0.00000000000E+00 0.  1.
         11    1    3    3    0    0  0.14130707167E+02  0.23316710276E+01  0.24853339459E+01  0.14535833651E+02  0.51100000000E-03 0. -1.
        -11    1    3    3    0    0  0.26885913702E+02 -0.18852874665E+01  0.12118278861E+02  0.29550961867E+02  0.51100000000E-03 0.  1.
        -12    1    3    3    0    0 -0.16275952841E+01  0.33443311470E+01 -0.52598167541E+01  0.64419942189E+01  0.00000000000E+00 0.  1.
</event>
<event>
 7    1  0.3014423E-011  0.5052886E+02  0.7816164E-02  0.1300439E+00
        -11   -1    0    0    0    0  0.00000000000E+00  0.00000000000E+00  0.45593999997E+02  0.45594000000E+02  0.51100000000E-03 0.  1.
         11   -1    0    0    0    0 -0.00000000000E+00 -0.00000000000E+00 -0.45593999997E+02  0.45594000000E+02  0.51100000000E-03 0. -1.
    9900012    2    1    2    0    0  0.13051892174E+02  0.33790565911E+02 -0.18466496358E+02  0.50528859310E+02  0.29999998358E+02 0.  0.
        -12    1    1    2    0    0 -0.13051892174E+02 -0.33790565911E+02  0.18466496358E+02  0.40659140690E+02  0.00000000000E+00 0.  1.
         11    1    3    3    0    0  0.84601126553E+00  0.92578967677E+01 -0.26688542037E+00  0.93003019150E+01  0.51100000000E-03 0. -1.
        -11    1    3    3    0    0  0.91776699332E+01  0.29482956841E+02 -0.13249130286E+02  0.33600800930E+02  0.51100000000E-03 0.  1.
        -12    1    3    3    0    0  0.30282109757E+01 -0.49502876981E+01 -0.49504806521E+01  0.76277564653E+01  0.00000000000E+00 0.  1.
</event>
<event>
 7    1  0.3014423E-011  0.5052892E+02  0.7816164E-02  0.1300439E+00
        -11   -1    0    0    0    0  0.00000000000E+00  0.00000000000E+00  0.45593999997E+02  0.45594000000E+02  0.51100000000E-03 0.  1.
         11   -1    0    0    0    0 -0.00000000000E+00 -0.00000000000E+00 -0.45593999997E+02  0.45594000000E+02  0.51100000000E-03 0. -1.
    9900012    2    1    2    0    0  0.13983557762E+02 -0.94992727419E+01 -0.36978164246E+02  0.50528921047E+02  0.30000186014E+02 0.  0.
        -12    1    1    2    0    0 -0.13983557762E+02  0.94992727419E+01  0.36978164246E+02  0.40659078953E+02  0.00000000000E+00 0.  1.
         11    1    3    3    0    0 -0.29035114728E+01 -0.29562067619E+01 -0.11080740223E+02  0.11830145453E+02  0.51100000000E-03 0.  1.
        -11    1    3    3    0    0  0.59151255467E+01 -0.38946138556E+01 -0.26466207538E+02  0.27397387996E+02  0.51100000000E-03 0. -1.
         12    1    3    3    0    0  0.10971943688E+02 -0.26484521244E+01  0.56878351488E+00  0.11301387598E+02  0.00000000000E+00 0. -1.
</event>
<event>
 7    1  0.3014423E-011  0.5052886E+02  0.7816164E-02  0.1300439E+00
        -11   -1    0    0    0    0  0.00000000000E+00  0.00000000000E+00  0.45593999997E+02  0.45594000000E+02  0.51100000000E-03 0.  1.
         11   -1    0    0    0    0 -0.00000000000E+00 -0.00000000000E+00 -0.45593999997E+02  0.45594000000E+02  0.51100000000E-03 0. -1.
    9900012    2    1    2    0    0 -0.23969681937E+01  0.16832975385E+01 -0.40553505571E+02  0.50528858824E+02  0.29999996880E+02 0.  0.
        -12    1    1    2    0    0  0.23969681937E+01 -0.16832975385E+01  0.40553505571E+02  0.40659141176E+02  0.00000000000E+00 0.  1.
         11    1    3    3    0    0  0.21834098505E+00 -0.18784582367E+01 -0.10571664186E+02  0.10739476806E+02  0.51100000000E-03 0. -1.
        -11    1    3    3    0    0 -0.45964534979E+01 -0.10694911969E+02 -0.11494063968E+02  0.16359157482E+02  0.51100000000E-03 0.  1.
         12    1    3    3    0    0  0.19811443191E+01  0.14256667744E+02 -0.18487777417E+02  0.23430224535E+02  0.00000000000E+00 0. -1.
</event>
<event>
 7    1  0.3014423E-011  0.5052885E+02  0.7816164E-02  0.1300439E+00
        -11   -1    0    0    0    0  0.00000000000E+00  0.00000000000E+00  0.45593999997E+02  0.45594000000E+02  0.51100000000E-03 0.  1.
         11   -1    0    0    0    0 -0.00000000000E+00 -0.00000000000E+00 -0.45593999997E+02  0.45594000000E+02  0.51100000000E-03 0. -1.
    9900012    2    1    2    0    0  0.39059514643E+02  0.84745583744E+01 -0.74634333779E+01  0.50528847751E+02  0.29999963224E+02 0.  0.
        -12    1    1    2    0    0 -0.39059514643E+02 -0.84745583744E+01  0.74634333779E+01  0.40659152249E+02  0.00000000000E+00 0.  1.
         11    1    3    3    0    0 -0.46162349866E+00 -0.37229088098E+01  0.14807237836E-01  0.37514484904E+01  0.51100000000E-03 0. -1.
        -11    1    3    3    0    0  0.10456173562E+02  0.13457808557E+02 -0.18122796278E+01  0.17138510274E+02  0.51100000000E-03 0.  1.
         12    1    3    3    0    0  0.29064964580E+02 -0.12603413726E+01 -0.56659609880E+01  0.29638888986E+02  0.00000000000E+00 0. -1.
</event>
<event>
 7    1  0.3014423E-011  0.5052885E+02  0.7816164E-02  0.1300439E+00
        -11   -1    0    0    0    0  0.00000000000E+00  0.00000000000E+00  0.45593999997E+02  0.45594000000E+02  0.51100000000E-03 0.  1.
         11   -1    0    0    0    0 -0.00000000000E+00 -0.00000000000E+00 -0.45593999997E+02  0.45594000000E+02  0.51100000000E-03 0. -1.
    9900012    2    1    2    0    0 -0.26880503769E+02  0.23310253399E+02 -0.19678332552E+02  0.50528853816E+02  0.29999981658E+02 0.  0.
        -12    1    1    2    0    0  0.26880503769E+02 -0.23310253399E+02  0.19678332552E+02  0.40659146184E+02  0.00000000000E+00 0.  1.
         11    1    3    3    0    0 -0.50173230535E+01 -0.13175792617E+01 -0.11817145292E+01  0.53203378862E+01  0.51100000000E-03 0.  1.
        -11    1    3    3    0    0 -0.17609723138E+02  0.33378964749E+01 -0.14673786682E+02  0.23163849372E+02  0.51100000000E-03 0. -1.
        -12    1    3    3    0    0 -0.42534575779E+01  0.21289936186E+02 -0.38228313407E+01  0.22044666557E+02  0.00000000000E+00 0.  1.
</event>
<event>
 7    1  0.3014423E-011  0.5052885E+02  0.7816164E-02  0.1300439E+00
        -11   -1    0    0    0    0  0.00000000000E+00  0.00000000000E+00  0.45593999997E+02  0.45594000000E+02  0.51100000000E-03 0.  1.
         11   -1    0    0    0    0 -0.00000000000E+00 -0.00000000000E+00 -0.45593999997E+02  0.45594000000E+02  0.51100000000E-03 0. -1.
    9900012    2    1    2    0    0 -0.32569061168E+02 -0.23112108254E+02 -0.76323634194E+01  0.50528852632E+02  0.29999978061E+02 0.  0.
        -12    1    1    2    0    0  0.32569061168E+02  0.23112108254E+02  0.76323634194E+01  0.40659147368E+02  0.00000000000E+00 0.  1.
         11    1    3    3    0    0 -0.24949189639E+02 -0.64662348557E+01 -0.38265615848E+01  0.26056032520E+02  0.51100000000E-03 0. -1.
        -11    1    3    3    0    0 -0.13139943380E+01 -0.36755866405E+00  0.48140165247E+01  0.50036422587E+01  0.51100000000E-03 0.  1.
        -12    1    3    3    0    0 -0.63058771905E+01 -0.16278314735E+02 -0.86198183593E+01  0.19469177853E+02  0.00000000000E+00 0.  1.
</event>
<event>
 7    1  0.3014423E-011  0.5052887E+02  0.7816164E-02  0.1300439E+00
        -11   -1    0    0    0    0  0.00000000000E+00  0.00000000000E+00  0.45593999997E+02  0.45594000000E+02  0.51100000000E-03 0. -1.
         11   -1    0    0    0    0 -0.00000000000E+00 -0.00000000000E+00 -0.45593999997E+02  0.45594000000E+02  0.51100000000E-03 0.  1.
    9900012    2    1    2    0    0  0.37156320252E+02  0.13639422054E+02  0.93026363827E+01  0.50528868033E+02  0.30000024872E+02 0.  0.
        -12    1    1    2    0    0 -0.37156320252E+02 -0.13639422054E+02 -0.93026363827E+01  0.40659131967E+02  0.00000000000E+00 0.  1.
         11    1    3    3    0    0 -0.42556621431E+00 -0.14152078881E+01 -0.86430583311E+00  0.17120002347E+01  0.51100000000E-03 0. -1.
        -11    1    3    3    0    0 -0.35926565519E+01  0.20872796926E+01  0.28360125249E+01  0.50305948871E+01  0.51100000000E-03 0.  1.
         12    1    3    3    0    0  0.41174543019E+02  0.12967350250E+02  0.73309296909E+01  0.43786272911E+02  0.00000000000E+00 0. -1.
</event>
<event>
 7    1  0.3014423E-011  0.5052887E+02  0.7816164E-02  0.1300439E+00
        -11   -1    0    0    0    0  0.00000000000E+00  0.00000000000E+00  0.45593999997E+02  0.45594000000E+02  0.51100000000E-03 0.  1.
         11   -1    0    0    0    0 -0.00000000000E+00 -0.00000000000E+00 -0.45593999997E+02  0.45594000000E+02  0.51100000000E-03 0. -1.
    9900012    2    1    2    0    0 -0.33854057942E+02 -0.19634551274E+01 -0.22432400741E+02  0.50528868206E+02  0.30000025399E+02 0.  0.
        -12    1    1    2    0    0  0.33854057942E+02  0.19634551274E+01  0.22432400741E+02  0.40659131794E+02  0.00000000000E+00 0.  1.
         11    1    3    3    0    0 -0.23228559958E+02  0.26694687960E+01 -0.19190872605E+02  0.30248663656E+02  0.51100000000E-03 0. -1.
        -11    1    3    3    0    0 -0.13945495832E+02 -0.23579994763E+01  0.13106259719E+01  0.14204040138E+02  0.51100000000E-03 0.  1.
        -12    1    3    3    0    0  0.33199978472E+01 -0.22749244471E+01 -0.45521541080E+01  0.60761644126E+01  0.00000000000E+00 0.  1.
</event>
<event>
 7    1  0.3014423E-011  0.5052886E+02  0.7816164E-02  0.1300439E+00
        -11   -1    0    0    0    0  0.00000000000E+00  0.00000000000E+00  0.45593999997E+02  0.45594000000E+02  0.51100000000E-03 0.  1.
         11   -1    0    0    0    0 -0.00000000000E+00 -0.00000000000E+00 -0.45593999997E+02  0.45594000000E+02  0.51100000000E-03 0. -1.
    9900012    2    1    2    0    0 -0.23322744025E+02 -0.84243223381E+01 -0.32221828914E+02  0.50528857680E+02  0.29999993403E+02 0.  0.
        -12    1    1    2    0    0  0.23322744025E+02  0.84243223381E+01  0.32221828914E+02  0.40659142320E+02  0.00000000000E+00 0.  1.
         11    1    3    3    0    0 -0.18073496953E+01  0.24187926702E+01 -0.29758796628E+00  0.30340780744E+01  0.51100000000E-03 0. -1.
        -11    1    3    3    0    0  0.26279916501E+00  0.69776978560E+01 -0.54384010399E+01  0.88506235319E+01  0.51100000000E-03 0.  1.
         12    1    3    3    0    0 -0.21778193494E+02 -0.17820812864E+02 -0.26485839907E+02  0.38644156073E+02  0.00000000000E+00 0. -1.
</event>
<event>
 7    1  0.3014423E-011  0.5052886E+02  0.7816164E-02  0.1300439E+00
        -11   -1    0    0    0    0  0.00000000000E+00  0.00000000000E+00  0.45593999997E+02  0.45594000000E+02  0.51100000000E-03 0.  1.
         11   -1    0    0    0    0 -0.00000000000E+00 -0.00000000000E+00 -0.45593999997E+02  0.45594000000E+02  0.51100000000E-03 0. -1.
    9900012    2    1    2    0    0  0.30990864522E+02  0.26154737724E+02  0.29431111162E+01  0.50528857212E+02  0.29999991980E+02 0.  0.
        -12    1    1    2    0    0 -0.30990864522E+02 -0.26154737724E+02 -0.29431111162E+01  0.40659142788E+02  0.00000000000E+00 0.  1.
         11    1    3    3    0    0 -0.47184437096E+00  0.20065188172E+01  0.62214611253E-02  0.20612602558E+01  0.51100000000E-03 0. -1.
        -11    1    3    3    0    0  0.12147246000E+02  0.91023818549E+01  0.14853550609E+02  0.21237629500E+02  0.51100000000E-03 0.  1.
         12    1    3    3    0    0  0.19315462893E+02  0.15045837052E+02 -0.11916660954E+02  0.27229967456E+02  0.00000000000E+00 0. -1.
</event>
<event>
 7    1  0.3014423E-011  0.5052887E+02  0.7816164E-02  0.1300439E+00
        -11   -1    0    0    0    0  0.00000000000E+00  0.00000000000E+00  0.45593999997E+02  0.45594000000E+02  0.51100000000E-03 0. -1.
         11   -1    0    0    0    0 -0.00000000000E+00 -0.00000000000E+00 -0.45593999997E+02  0.45594000000E+02  0.51100000000E-03 0.  1.
    9900012    2    1    2    0    0 -0.85077164788E+01  0.34830888561E+02  0.19172715374E+02  0.50528867539E+02  0.30000023373E+02 0.  0.
        -12    1    1    2    0    0  0.85077164788E+01 -0.34830888561E+02 -0.19172715374E+02  0.40659132461E+02  0.00000000000E+00 0.  1.
         11    1    3    3    0    0 -0.11170964476E+02  0.12759383811E+02  0.14101200822E+02  0.22055298398E+02  0.51100000000E-03 0. -1.
        -11    1    3    3    0    0 -0.37312825072E+01 -0.69496425561E+00  0.28015234123E+01  0.47174122308E+01  0.51100000000E-03 0.  1.
        -12    1    3    3    0    0  0.63945305047E+01  0.22766469006E+02  0.22699911398E+01  0.23756156910E+02  0.00000000000E+00 0.  1.
</event>
<event>
 7    1  0.3014423E-011  0.5052886E+02  0.7816164E-02  0.1300439E+00
        -11   -1    0    0    0    0  0.00000000000E+00  0.00000000000E+00  0.45593999997E+02  0.45594000000E+02  0.51100000000E-03 0. -1.
         11   -1    0    0    0    0 -0.00000000000E+00 -0.00000000000E+00 -0.45593999997E+02  0.45594000000E+02  0.51100000000E-03 0.  1.
    9900012    2    1    2    0    0  0.11014366779E+02 -0.26672520503E+02  0.28643078325E+02  0.50528861280E+02  0.30000004348E+02 0.  0.
        -12    1    1    2    0    0 -0.11014366779E+02  0.26672520503E+02 -0.28643078325E+02  0.40659138720E+02  0.00000000000E+00 0.  1.
         11    1    3    3    0    0 -0.37888736539E+01 -0.26394033052E+01 -0.11411729644E+01  0.47564996971E+01  0.51100000000E-03 0. -1.
        -11    1    3    3    0    0 -0.37568677428E+01 -0.11720164238E+01  0.87209768727E+01  0.95678166584E+01  0.51100000000E-03 0.  1.
         12    1    3    3    0    0  0.18560108176E+02 -0.22861100774E+02  0.21063274416E+02  0.36204544925E+02  0.00000000000E+00 0. -1.
</event>
<event>
 7    1  0.3014423E-011  0.5052886E+02  0.7816164E-02  0.1300439E+00
        -11   -1    0    0    0    0  0.00000000000E+00  0.00000000000E+00  0.45593999997E+02  0.45594000000E+02  0.51100000000E-03 0.  1.
         11   -1    0    0    0    0 -0.00000000000E+00 -0.00000000000E+00 -0.45593999997E+02  0.45594000000E+02  0.51100000000E-03 0. -1.
    9900012    2    1    2    0    0  0.16748586201E+02  0.90777258163E+01 -0.35919982816E+02  0.50528863127E+02  0.30000009962E+02 0.  0.
        -12    1    1    2    0    0 -0.16748586201E+02 -0.90777258163E+01  0.35919982816E+02  0.40659136873E+02  0.00000000000E+00 0.  1.
         11    1    3    3    0    0 -0.23910892545E+01  0.23088548249E+01 -0.18620500146E+00  0.33290826047E+01  0.51100000000E-03 0. -1.
        -11    1    3    3    0    0  0.57613455109E+00  0.10913066337E+02 -0.78871226448E+01  0.13477152955E+02  0.51100000000E-03 0.  1.
         12    1    3    3    0    0  0.18563540904E+02 -0.41441953452E+01 -0.27846655170E+02  0.33722627568E+02  0.00000000000E+00 0. -1.
</event>
<event>
 7    1  0.3014423E-011  0.5052886E+02  0.7816164E-02  0.1300439E+00
        -11   -1    0    0    0    0  0.00000000000E+00  0.00000000000E+00  0.45593999997E+02  0.45594000000E+02  0.51100000000E-03 0.  1.
         11   -1    0    0    0    0 -0.00000000000E+00 -0.00000000000E+00 -0.45593999997E+02  0.45594000000E+02  0.51100000000E-03 0. -1.
    9900012    2    1    2    0    0 -0.10116139019E+01  0.35087663614E+02 -0.20518243125E+02  0.50528858328E+02  0.29999995374E+02 0.  0.
        -12    1    1    2    0    0  0.10116139019E+01 -0.35087663614E+02  0.20518243125E+02  0.40659141672E+02  0.00000000000E+00 0.  1.
         11    1    3    3    0    0  0.12514679477E+00  0.86306294624E+01 -0.52222482612E+01  0.10088374686E+02  0.51100000000E-03 0. -1.
        -11    1    3    3    0    0 -0.10417254487E+02  0.12104705609E+02 -0.16926794173E+02  0.23271429912E+02  0.51100000000E-03 0.  1.
        -12    1    3    3    0    0  0.92804937904E+01  0.14352328543E+02  0.16307993091E+01  0.17169053730E+02  0.00000000000E+00 0.  1.
</event>
<event>
 7    1  0.3014423E-011  0.5052885E+02  0.7816164E-02  0.1300439E+00
        -11   -1    0    0    0    0  0.00000000000E+00  0.00000000000E+00  0.45593999997E+02  0.45594000000E+02  0.51100000000E-03 0.  1.
         11   -1    0    0    0    0 -0.00000000000E+00 -0.00000000000E+00 -0.45593999997E+02  0.45594000000E+02  0.51100000000E-03 0. -1.
    9900012    2    1    2    0    0 -0.29273279305E+01  0.36084838811E+02 -0.18506251051E+02  0.50528853811E+02  0.29999981644E+02 0.  0.
        -12    1    1    2    0    0  0.29273279305E+01 -0.36084838811E+02  0.18506251051E+02  0.40659146189E+02  0.00000000000E+00 0.  1.
         11    1    3    3    0    0 -0.51493445151E+01  0.20482590867E+01 -0.15091899646E+00  0.55438155657E+01  0.51100000000E-03 0.  1.
        -11    1    3    3    0    0  0.59519190529E+01  0.16926694579E+01 -0.93361428406E+01  0.11200626487E+02  0.51100000000E-03 0. -1.
         12    1    3    3    0    0 -0.37299024683E+01  0.32343910267E+02 -0.90191892139E+01  0.33784411758E+02  0.00000000000E+00 0. -1.
</event>
<event>
 7    1  0.3014423E-011  0.5052886E+02  0.7816164E-02  0.1300439E+00
        -11   -1    0    0    0    0  0.00000000000E+00  0.00000000000E+00  0.45593999997E+02  0.45594000000E+02  0.51100000000E-03 0.  1.
         11   -1    0    0    0    0 -0.00000000000E+00 -0.00000000000E+00 -0.45593999997E+02  0.45594000000E+02  0.51100000000E-03 0. -1.
    9900012    2    1    2    0    0 -0.23006830452E+02 -0.61806377355E+01 -0.32949218746E+02  0.50528861467E+02  0.30000004916E+02 0.  0.
        -12    1    1    2    0    0  0.23006830452E+02  0.61806377355E+01  0.32949218746E+02  0.40659138533E+02  0.00000000000E+00 0.  1.
         11    1    3    3    0    0 -0.86115554966E+01 -0.34010194345E+01 -0.12952129818E+02  0.15921164793E+02  0.51100000000E-03 0. -1.
        -11    1    3    3    0    0 -0.17300850935E+01 -0.11809453907E+02 -0.12694103327E+02  0.17424025239E+02  0.51100000000E-03 0.  1.
         12    1    3    3    0    0 -0.12665189861E+02  0.90298356060E+01 -0.73029856013E+01  0.17183671435E+02  0.00000000000E+00 0. -1.
</event>
<event>
 7    1  0.3014423E-011  0.5052886E+02  0.7816164E-02  0.1300439E+00
        -11   -1    0    0    0    0  0.00000000000E+00  0.00000000000E+00  0.45593999997E+02  0.45594000000E+02  0.51100000000E-03 0. -1.
         11   -1    0    0    0    0 -0.00000000000E+00 -0.00000000000E+00 -0.45593999997E+02  0.45594000000E+02  0.51100000000E-03 0.  1.
    9900012    2    1    2    0    0 -0.23687211771E+02 -0.31313413261E+02  0.10561791488E+02  0.50528864606E+02  0.30000014456E+02 0.  0.
        -12    1    1    2    0    0  0.23687211771E+02  0.31313413261E+02 -0.10561791488E+02  0.40659135394E+02  0.00000000000E+00 0.  1.
         11    1    3    3    0    0 -0.15087565800E+02  0.30680901313E+00  0.28815630506E+01  0.15363338811E+02  0.51100000000E-03 0. -1.
        -11    1    3    3    0    0  0.29034734133E+00  0.70147279695E+00 -0.59910086127E-01  0.76154785996E+00  0.51100000000E-03 0.  1.
        -12    1    3    3    0    0 -0.88899933122E+01 -0.32321695071E+02  0.77401385239E+01  0.34403977935E+02  0.00000000000E+00 0.  1.
</event>
<event>
 7    1  0.3014423E-011  0.5052886E+02  0.7816164E-02  0.1300439E+00
        -11   -1    0    0    0    0  0.00000000000E+00  0.00000000000E+00  0.45593999997E+02  0.45594000000E+02  0.51100000000E-03 0.  1.
         11   -1    0    0    0    0 -0.00000000000E+00 -0.00000000000E+00 -0.45593999997E+02  0.45594000000E+02  0.51100000000E-03 0. -1.
    9900012    2    1    2    0    0  0.99761665377E+01  0.11729774186E+02 -0.37630499341E+02  0.50528856110E+02  0.29999988632E+02 0.  0.
        -12    1    1    2    0    0 -0.99761665377E+01 -0.11729774186E+02  0.37630499341E+02  0.40659143890E+02  0.00000000000E+00 0.  1.
         11    1    3    3    0    0  0.41700448207E+01  0.39137796439E+01 -0.65745466353E+01  0.87138744901E+01  0.51100000000E-03 0. -1.
        -11    1    3    3    0    0  0.34207278326E+01  0.17581116292E+02 -0.20915818261E+02  0.27536675231E+02  0.51100000000E-03 0.  1.
         12    1    3    3    0    0  0.23853938844E+01 -0.97651217504E+01 -0.10140134445E+02  0.14278306389E+02  0.00000000000E+00 0. -1.
</event>
<event>
 7    1  0.3014423E-011  0.5052887E+02  0.7816164E-02  0.1300439E+00
        -11   -1    0    0    0    0  0.00000000000E+00  0.00000000000E+00  0.45593999997E+02  0.45594000000E+02  0.51100000000E-03 0. -1.
         11   -1    0    0    0    0 -0.00000000000E+00 -0.00000000000E+00 -0.45593999997E+02  0.45594000000E+02  0.51100000000E-03 0.  1.
    9900012    2    1    2    0    0  0.21941709280E+01  0.34016982076E+02 -0.22162930522E+02  0.50528868862E+02  0.30000027392E+02 0.  0.
        -12    1    1    2    0    0 -0.21941709280E+01 -0.34016982076E+02  0.22162930522E+02  0.40659131138E+02  0.00000000000E+00 0.  1.
         11    1    3    3    0    0  0.47038356468E+01  0.18714574530E+02 -0.16697622937E+02  0.25518071668E+02  0.51100000000E-03 0. -1.
        -11    1    3    3    0    0  0.11850583276E+01  0.28719164494E+01 -0.10613075047E+02  0.11058464158E+02  0.51100000000E-03 0.  1.
        -12    1    3    3    0    0 -0.36947230464E+01  0.12430491096E+02  0.51477674620E+01  0.13952333035E+02  0.00000000000E+00 0.  1.
</event>
<event>
 7    1  0.3014423E-011  0.5052885E+02  0.7816164E-02  0.1300439E+00
        -11   -1    0    0    0    0  0.00000000000E+00  0.00000000000E+00  0.45593999997E+02  0.45594000000E+02  0.51100000000E-03 0.  1.
         11   -1    0    0    0    0 -0.00000000000E+00 -0.00000000000E+00 -0.45593999997E+02  0.45594000000E+02  0.51100000000E-03 0. -1.
    9900012    2    1    2    0    0  0.18256159787E+02  0.29297325194E+02 -0.21483612067E+02  0.50528853167E+02  0.29999979688E+02 0.  0.
        -12    1    1    2    0    0 -0.18256159787E+02 -0.29297325194E+02  0.21483612067E+02  0.40659146833E+02  0.00000000000E+00 0.  1.
         11    1    3    3    0    0  0.24987460648E+01  0.61912573675E+01 -0.10715305694E+02  0.12625101032E+02  0.51100000000E-03 0. -1.
        -11    1    3    3    0    0  0.85326531986E+01  0.65318504634E+01 -0.15825869026E+02  0.19129280483E+02  0.51100000000E-03 0.  1.
        -12    1    3    3    0    0  0.72247605241E+01  0.16574217364E+02  0.50575626540E+01  0.18774471653E+02  0.00000000000E+00 0.  1.
</event>
<event>
 7    1  0.3014423E-011  0.5052880E+02  0.7816164E-02  0.1300439E+00
        -11   -1    0    0    0    0  0.00000000000E+00  0.00000000000E+00  0.45593999997E+02  0.45594000000E+02  0.51100000000E-03 0.  1.
         11   -1    0    0    0    0 -0.00000000000E+00 -0.00000000000E+00 -0.45593999997E+02  0.45594000000E+02  0.51100000000E-03 0. -1.
    9900012    2    1    2    0    0 -0.92321798441E+00 -0.18043100358E+02 -0.36424779213E+02  0.50528802484E+02  0.29999825629E+02 0.  0.
        -12    1    1    2    0    0  0.92321798441E+00  0.18043100358E+02  0.36424779213E+02  0.40659197516E+02  0.00000000000E+00 0.  1.
         11    1    3    3    0    0 -0.39966434475E+01 -0.21935176954E+02 -0.29029679025E+02  0.36603926175E+02  0.51100000000E-03 0. -1.
        -11    1    3    3    0    0 -0.78873002191E+00 -0.30275327445E+01 -0.63754945607E-01  0.31292354531E+01  0.51100000000E-03 0.  1.
         12    1    3    3    0    0  0.38621554850E+01  0.69196093411E+01 -0.73313452420E+01  0.10795640856E+02  0.00000000000E+00 0. -1.
</event>
<event>
 7    1  0.3014423E-011  0.5052886E+02  0.7816164E-02  0.1300439E+00
        -11   -1    0    0    0    0  0.00000000000E+00  0.00000000000E+00  0.45593999997E+02  0.45594000000E+02  0.51100000000E-03 0. -1.
         11   -1    0    0    0    0 -0.00000000000E+00 -0.00000000000E+00 -0.45593999997E+02  0.45594000000E+02  0.51100000000E-03 0.  1.
    9900012    2    1    2    0    0  0.36997939580E+02 -0.16770627872E+02 -0.17504051727E+01  0.50528863134E+02  0.30000009983E+02 0.  0.
        -12    1    1    2    0    0 -0.36997939580E+02  0.16770627872E+02  0.17504051727E+01  0.40659136866E+02  0.00000000000E+00 0.  1.
         11    1    3    3    0    0  0.25435904601E+02 -0.17290238164E+02 -0.27982845144E+01  0.30883134153E+02  0.51100000000E-03 0. -1.
        -11    1    3    3    0    0  0.11559926373E+02 -0.55977816194E+01 -0.16694130726E+01  0.12951988151E+02  0.51100000000E-03 0.  1.
        -12    1    3    3    0    0  0.21086068137E-02  0.61173919108E+01  0.27172924143E+01  0.66937408302E+01  0.00000000000E+00 0.  1.
</event>
<event>
 7    1  0.3014423E-011  0.5052887E+02  0.7816164E-02  0.1300439E+00
        -11   -1    0    0    0    0  0.00000000000E+00  0.00000000000E+00  0.45593999997E+02  0.45594000000E+02  0.51100000000E-03 0.  1.
         11   -1    0    0    0    0 -0.00000000000E+00 -0.00000000000E+00 -0.45593999997E+02  0.45594000000E+02  0.51100000000E-03 0. -1.
    9900012    2    1    2    0    0 -0.10784792697E+02 -0.22660887947E+02 -0.31989648705E+02  0.50528865475E+02  0.30000017097E+02 0.  0.
        -12    1    1    2    0    0  0.10784792697E+02  0.22660887947E+02  0.31989648705E+02  0.40659134525E+02  0.00000000000E+00 0.  1.
         11    1    3    3    0    0 -0.56522726938E+01 -0.82655317166E+01 -0.15785406005E+01  0.10137010992E+02  0.51100000000E-03 0. -1.
        -11    1    3    3    0    0 -0.17696167753E+01 -0.31530989478E+01  0.31768431502E+01  0.48130976687E+01  0.51100000000E-03 0.  1.
         12    1    3    3    0    0 -0.33629032279E+01 -0.11242257283E+02 -0.33587951255E+02  0.35578756814E+02  0.00000000000E+00 0. -1.
</event>
<event>
 7    1  0.3014423E-011  0.5052886E+02  0.7816164E-02  0.1300439E+00
        -11   -1    0    0    0    0  0.00000000000E+00  0.00000000000E+00  0.45593999997E+02  0.45594000000E+02  0.51100000000E-03 0.  1.
         11   -1    0    0    0    0 -0.00000000000E+00 -0.00000000000E+00 -0.45593999997E+02  0.45594000000E+02  0.51100000000E-03 0. -1.
    9900012    2    1    2    0    0  0.21424186560E+02 -0.34388999111E+02 -0.34009744586E+01  0.50528860107E+02  0.30000000781E+02 0.  0.
        -12    1    1    2    0    0 -0.21424186560E+02  0.34388999111E+02  0.34009744586E+01  0.40659139893E+02  0.00000000000E+00 0.  1.
         11    1    3    3    0    0  0.73008861932E+01 -0.58003899390E+01 -0.10851512560E+02  0.14307438196E+02  0.51100000000E-03 0. -1.
        -11    1    3    3    0    0 -0.94077178905E+00 -0.15301113743E+02  0.24880403568E+01  0.15530598134E+02  0.51100000000E-03 0.  1.
         12    1    3    3    0    0  0.15064072156E+02 -0.13287495429E+02  0.49624977442E+01  0.20690823776E+02  0.00000000000E+00 0. -1.
</event>
<event>
 7    1  0.3014423E-011  0.5052886E+02  0.7816164E-02  0.1300439E+00
        -11   -1    0    0    0    0  0.00000000000E+00  0.00000000000E+00  0.45593999997E+02  0.45594000000E+02  0.51100000000E-03 0.  1.
         11   -1    0    0    0    0 -0.00000000000E+00 -0.00000000000E+00 -0.45593999997E+02  0.45594000000E+02  0.51100000000E-03 0. -1.
    9900012    2    1    2    0    0 -0.34747438715E+01 -0.31195484380E+02 -0.25844410451E+02  0.50528860287E+02  0.30000001329E+02 0.  0.
        -12    1    1    2    0    0  0.34747438715E+01  0.31195484380E+02  0.25844410451E+02  0.40659139713E+02  0.00000000000E+00 0.  1.
         11    1    3    3    0    0 -0.26678478114E+01 -0.25746930139E+02 -0.24982617820E+02  0.35974338312E+02  0.51100000000E-03 0. -1.
        -11    1    3    3    0    0 -0.23895715566E+01  0.19526237547E+01 -0.50397173264E+01  0.59094452145E+01  0.51100000000E-03 0.  1.
        -12    1    3    3    0    0  0.15826754966E+01 -0.74011779949E+01  0.41779246960E+01  0.86450767611E+01  0.00000000000E+00 0.  1.
</event>
<event>
 7    1  0.3014423E-011  0.5052887E+02  0.7816164E-02  0.1300439E+00
        -11   -1    0    0    0    0  0.00000000000E+00  0.00000000000E+00  0.45593999997E+02  0.45594000000E+02  0.51100000000E-03 0.  1.
         11   -1    0    0    0    0 -0.00000000000E+00 -0.00000000000E+00 -0.45593999997E+02  0.45594000000E+02  0.51100000000E-03 0. -1.
    9900012    2    1    2    0    0  0.15784337361E+02 -0.17206384471E+01 -0.37430727104E+02  0.50528865305E+02  0.30000016582E+02 0.  0.
        -12    1    1    2    0    0 -0.15784337361E+02  0.17206384471E+01  0.37430727104E+02  0.40659134695E+02  0.00000000000E+00 0.  1.
         11    1    3    3    0    0  0.37629130921E+01  0.72177483828E+01 -0.14561276588E+02  0.16681911845E+02  0.51100000000E-03 0. -1.
        -11    1    3    3    0    0  0.32488094314E+01 -0.64813625042E+01 -0.23618317747E+02  0.24706026716E+02  0.51100000000E-03 0.  1.
        -12    1    3    3    0    0  0.87726148377E+01 -0.24570243257E+01  0.74886723110E+00  0.91409267450E+01  0.00000000000E+00 0.  1.
</event>
<event>
 7    1  0.3014423E-011  0.5052886E+02  0.7816164E-02  0.1300439E+00
        -11   -1    0    0    0    0  0.00000000000E+00  0.00000000000E+00  0.45593999997E+02  0.45594000000E+02  0.51100000000E-03 0.  1.
         11   -1    0    0    0    0 -0.00000000000E+00 -0.00000000000E+00 -0.45593999997E+02  0.45594000000E+02  0.51100000000E-03 0. -1.
    9900012    2    1    2    0    0 -0.18749293801E+02 -0.35834797561E+02 -0.41829721873E+01  0.50528856002E+02  0.29999988305E+02 0.  0.
        -12    1    1    2    0    0  0.18749293801E+02  0.35834797561E+02  0.41829721873E+01  0.40659143998E+02  0.00000000000E+00 0.  1.
         11    1    3    3    0    0 -0.65766506817E+00 -0.90458799755E+01 -0.49333450983E+01  0.10324648275E+02  0.51100000000E-03 0. -1.
        -11    1    3    3    0    0  0.41952454529E+01 -0.74369299215E+01 -0.53336002606E+01  0.10067537090E+02  0.51100000000E-03 0.  1.
        -12    1    3    3    0    0 -0.22286874186E+02 -0.19351987664E+02  0.60839731716E+01  0.30136670637E+02  0.00000000000E+00 0.  1.
</event>
<event>
 7    1  0.3014423E-011  0.5052886E+02  0.7816164E-02  0.1300439E+00
        -11   -1    0    0    0    0  0.00000000000E+00  0.00000000000E+00  0.45593999997E+02  0.45594000000E+02  0.51100000000E-03 0.  1.
         11   -1    0    0    0    0 -0.00000000000E+00 -0.00000000000E+00 -0.45593999997E+02  0.45594000000E+02  0.51100000000E-03 0. -1.
    9900012    2    1    2    0    0 -0.20956320526E+02  0.96395181682E+01 -0.33482505516E+02  0.50528857656E+02  0.29999993331E+02 0.  0.
        -12    1    1    2    0    0  0.20956320526E+02 -0.96395181682E+01  0.33482505516E+02  0.40659142344E+02  0.00000000000E+00 0.  1.
         11    1    3    3    0    0 -0.16918069720E+01 -0.10990411557E+01 -0.21759182889E+02  0.21852508839E+02  0.51100000000E-03 0.  1.
        -11    1    3    3    0    0 -0.10301476795E+02  0.80775093065E+01 -0.13881872371E+02  0.19080696044E+02  0.51100000000E-03 0. -1.
        -12    1    3    3    0    0 -0.89630367590E+01  0.26610500175E+01  0.21585497436E+01  0.95956527727E+01  0.00000000000E+00 0.  1.
</event>
<event>
 7    1  0.3014423E-011  0.5052884E+02  0.7816164E-02  0.1300439E+00
        -11   -1    0    0    0    0  0.00000000000E+00  0.00000000000E+00  0.45593999997E+02  0.45594000000E+02  0.51100000000E-03 0. -1.
         11   -1    0    0    0    0 -0.00000000000E+00 -0.00000000000E+00 -0.45593999997E+02  0.45594000000E+02  0.51100000000E-03 0.  1.
    9900012    2    1    2    0    0  0.20444590434E+02 -0.31249564794E+02  0.16082615574E+02  0.50528842342E+02  0.29999946781E+02 0.  0.
        -12    1    1    2    0    0 -0.20444590434E+02  0.31249564794E+02 -0.16082615574E+02  0.40659157658E+02  0.00000000000E+00 0.  1.
         11    1    3    3    0    0  0.12911372263E+02 -0.25840258045E+02  0.30974343970E+01  0.29051963267E+02  0.51100000000E-03 0. -1.
        -11    1    3    3    0    0  0.43175349514E+01 -0.36093257262E+01 -0.20556559186E+01  0.59911653100E+01  0.51100000000E-03 0.  1.
         12    1    3    3    0    0  0.32156832193E+01 -0.17999810218E+01  0.15040837096E+02  0.15485713765E+02  0.00000000000E+00 0. -1.
</event>
<event>
 7    1  0.3014423E-011  0.5052886E+02  0.7816164E-02  0.1300439E+00
        -11   -1    0    0    0    0  0.00000000000E+00  0.00000000000E+00  0.45593999997E+02  0.45594000000E+02  0.51100000000E-03 0.  1.
         11   -1    0    0    0    0 -0.00000000000E+00 -0.00000000000E+00 -0.45593999997E+02  0.45594000000E+02  0.51100000000E-03 0. -1.
    9900012    2    1    2    0    0 -0.10753822378E+02  0.21529792085E+02 -0.32771773525E+02  0.50528858556E+02  0.29999996068E+02 0.  0.
        -12    1    1    2    0    0  0.10753822378E+02 -0.21529792085E+02  0.32771773525E+02  0.40659141444E+02  0.00000000000E+00 0.  1.
         11    1    3    3    0    0  0.26091395829E+01 -0.34450124317E+01 -0.86243141666E+00  0.44067571100E+01  0.51100000000E-03 0. -1.
        -11    1    3    3    0    0 -0.63365847484E+01  0.24890350519E+01 -0.45402112507E+00  0.68230299140E+01  0.51100000000E-03 0.  1.
         12    1    3    3    0    0 -0.70263772129E+01  0.22485769464E+02 -0.31455320983E+02  0.39299071532E+02  0.00000000000E+00 0. -1.
</event>
<event>
 7    1  0.3014423E-011  0.5052888E+02  0.7816164E-02  0.1300439E+00
        -11   -1    0    0    0    0  0.00000000000E+00  0.00000000000E+00  0.45593999997E+02  0.45594000000E+02  0.51100000000E-03 0.  1.
         11   -1    0    0    0    0 -0.00000000000E+00 -0.00000000000E+00 -0.45593999997E+02  0.45594000000E+02  0.51100000000E-03 0. -1.
    9900012    2    1    2    0    0  0.40654792251E+02 -0.47003466095E-01 -0.59164356651E+00  0.50528875754E+02  0.30000048342E+02 0.  0.
        -12    1    1    2    0    0 -0.40654792251E+02  0.47003466095E-01  0.59164356651E+00  0.40659124246E+02  0.00000000000E+00 0.  1.
         11    1    3    3    0    0  0.55572177396E+01 -0.31802603712E+01 -0.29502475747E+01  0.70498713497E+01  0.51100000000E-03 0. -1.
        -11    1    3    3    0    0  0.15588587056E+02 -0.10552755665E+02  0.50675038152E+01  0.19494724766E+02  0.51100000000E-03 0.  1.
         12    1    3    3    0    0  0.19508987456E+02  0.13686012570E+02 -0.27088998070E+01  0.23984279639E+02  0.00000000000E+00 0. -1.
</event>
<event>
 7    1  0.3014423E-011  0.5052882E+02  0.7816164E-02  0.1300439E+00
        -11   -1    0    0    0    0  0.00000000000E+00  0.00000000000E+00  0.45593999997E+02  0.45594000000E+02  0.51100000000E-03 0. -1.
         11   -1    0    0    0    0 -0.00000000000E+00 -0.00000000000E+00 -0.45593999997E+02  0.45594000000E+02  0.51100000000E-03 0.  1.
    9900012    2    1    2    0    0 -0.12114504492E+02 -0.28350435828E+02 -0.26507742852E+02  0.50528820694E+02  0.29999880982E+02 0.  0.
        -12    1    1    2    0    0  0.12114504492E+02  0.28350435828E+02  0.26507742852E+02  0.40659179306E+02  0.00000000000E+00 0.  1.
         11    1    3    3    0    0 -0.78583726265E+00 -0.12645816674E+02  0.67649848666E+00  0.12688257171E+02  0.51100000000E-03 0. -1.
        -11    1    3    3    0    0  0.37947631609E+01 -0.57948541582E+01 -0.27702175283E+01  0.74602055989E+01  0.51100000000E-03 0.  1.
        -12    1    3    3    0    0 -0.15123430390E+02 -0.99097649950E+01 -0.24414023810E+02  0.30380357925E+02  0.00000000000E+00 0.  1.
</event>
<event>
 7    1  0.3014423E-011  0.5052888E+02  0.7816164E-02  0.1300439E+00
        -11   -1    0    0    0    0  0.00000000000E+00  0.00000000000E+00  0.45593999997E+02  0.45594000000E+02  0.51100000000E-03 0.  1.
         11   -1    0    0    0    0 -0.00000000000E+00 -0.00000000000E+00 -0.45593999997E+02  0.45594000000E+02  0.51100000000E-03 0. -1.
    9900012    2    1    2    0    0  0.23986494684E+01 -0.40443764330E+02 -0.34223801166E+01  0.50528877062E+02  0.30000052317E+02 0.  0.
        -12    1    1    2    0    0 -0.23986494684E+01  0.40443764330E+02  0.34223801166E+01  0.40659122938E+02  0.00000000000E+00 0.  1.
         11    1    3    3    0    0  0.82844531968E+01 -0.40620274682E+01 -0.75767607581E+01  0.11938992243E+02  0.51100000000E-03 0. -1.
        -11    1    3    3    0    0  0.11316418039E+01 -0.65224407219E+01 -0.27187562567E+01  0.71564294160E+01  0.51100000000E-03 0.  1.
        -12    1    3    3    0    0 -0.70174455323E+01 -0.29859296140E+02  0.68731368981E+01  0.31433455403E+02  0.00000000000E+00 0.  1.
</event>
<event>
 7    1  0.3014423E-011  0.5052886E+02  0.7816164E-02  0.1300439E+00
        -11   -1    0    0    0    0  0.00000000000E+00  0.00000000000E+00  0.45593999997E+02  0.45594000000E+02  0.51100000000E-03 0. -1.
         11   -1    0    0    0    0 -0.00000000000E+00 -0.00000000000E+00 -0.45593999997E+02  0.45594000000E+02  0.51100000000E-03 0.  1.
    9900012    2    1    2    0    0 -0.11815733843E+02 -0.29168968167E+02  0.25743456900E+02  0.50528857813E+02  0.29999993810E+02 0.  0.
        -12    1    1    2    0    0  0.11815733843E+02  0.29168968167E+02 -0.25743456900E+02  0.40659142187E+02  0.00000000000E+00 0.  1.
         11    1    3    3    0    0  0.14943628171E+01 -0.12755995565E+02  0.17809891642E+02  0.21957704426E+02  0.51100000000E-03 0. -1.
        -11    1    3    3    0    0 -0.12034025583E+02 -0.35781893841E+01  0.92668688074E+01  0.15604360569E+02  0.51100000000E-03 0.  1.
        -12    1    3    3    0    0 -0.12760710776E+01 -0.12834783218E+02 -0.13333035501E+01  0.12966792819E+02  0.00000000000E+00 0.  1.
</event>
<event>
 7    1  0.3014423E-011  0.5052886E+02  0.7816164E-02  0.1300439E+00
        -11   -1    0    0    0    0  0.00000000000E+00  0.00000000000E+00  0.45593999997E+02  0.45594000000E+02  0.51100000000E-03 0. -1.
         11   -1    0    0    0    0 -0.00000000000E+00 -0.00000000000E+00 -0.45593999997E+02  0.45594000000E+02  0.51100000000E-03 0.  1.
    9900012    2    1    2    0    0 -0.32478906484E+02 -0.19397918527E+02  0.14899892930E+02  0.50528863033E+02  0.30000009675E+02 0.  0.
        -12    1    1    2    0    0  0.32478906484E+02  0.19397918527E+02 -0.14899892930E+02  0.40659136967E+02  0.00000000000E+00 0.  1.
         11    1    3    3    0    0 -0.11331628008E+02 -0.84418544960E+01  0.12093791571E+02  0.18599206851E+02  0.51100000000E-03 0. -1.
        -11    1    3    3    0    0 -0.21207093597E+02 -0.48998928008E+01 -0.47175616646E+01  0.22271173220E+02  0.51100000000E-03 0.  1.
         12    1    3    3    0    0  0.59815121623E-01 -0.60561712306E+01  0.75236630241E+01  0.96584829618E+01  0.00000000000E+00 0. -1.
</event>
<event>
 7    1  0.3014423E-011  0.5052885E+02  0.7816164E-02  0.1300439E+00
        -11   -1    0    0    0    0  0.00000000000E+00  0.00000000000E+00  0.45593999997E+02  0.45594000000E+02  0.51100000000E-03 0.  1.
         11   -1    0    0    0    0 -0.00000000000E+00 -0.00000000000E+00 -0.45593999997E+02  0.45594000000E+02  0.51100000000E-03 0. -1.
    9900012    2    1    2    0    0  0.36609736218E+02 -0.15501242561E+02  0.85208456964E+01  0.50528854433E+02  0.29999983535E+02 0.  0.
        -12    1    1    2    0    0 -0.36609736218E+02  0.15501242561E+02 -0.85208456964E+01  0.40659145567E+02  0.00000000000E+00 0.  1.
         11    1    3    3    0    0  0.11328279550E+02 -0.11122238422E+02 -0.76983027832E+01  0.17643638261E+02  0.51100000000E-03 0. -1.
        -11    1    3    3    0    0  0.39780625620E+00  0.26399999719E+01  0.82369199118E+00  0.27939789596E+01  0.51100000000E-03 0.  1.
         12    1    3    3    0    0  0.24883650412E+02 -0.70190041113E+01  0.15395456488E+02  0.30091237213E+02  0.00000000000E+00 0. -1.
</event>
<event>
 7    1  0.3014423E-011  0.5052885E+02  0.7816164E-02  0.1300439E+00
        -11   -1    0    0    0    0  0.00000000000E+00  0.00000000000E+00  0.45593999997E+02  0.45594000000E+02  0.51100000000E-03 0.  1.
         11   -1    0    0    0    0 -0.00000000000E+00 -0.00000000000E+00 -0.45593999997E+02  0.45594000000E+02  0.51100000000E-03 0. -1.
    9900012    2    1    2    0    0 -0.49819163877E+01  0.26896376614E+02 -0.30082081142E+02  0.50528853776E+02  0.29999981537E+02 0.  0.
        -12    1    1    2    0    0  0.49819163877E+01 -0.26896376614E+02  0.30082081142E+02  0.40659146224E+02  0.00000000000E+00 0.  1.
         11    1    3    3    0    0  0.99116511352E+01  0.71109704795E+01 -0.73452283641E+01  0.14239350735E+02  0.51100000000E-03 0.  1.
        -11    1    3    3    0    0 -0.41442742333E+01  0.13844853566E+02 -0.18100087104E+02  0.23161781724E+02  0.51100000000E-03 0. -1.
        -12    1    3    3    0    0 -0.10749293290E+02  0.59405525685E+01 -0.46367656736E+01  0.13127721316E+02  0.00000000000E+00 0.  1.
</event>
<event>
 7    1  0.3014423E-011  0.5052886E+02  0.7816164E-02  0.1300439E+00
        -11   -1    0    0    0    0  0.00000000000E+00  0.00000000000E+00  0.45593999997E+02  0.45594000000E+02  0.51100000000E-03 0.  1.
         11   -1    0    0    0    0 -0.00000000000E+00 -0.00000000000E+00 -0.45593999997E+02  0.45594000000E+02  0.51100000000E-03 0. -1.
    9900012    2    1    2    0    0  0.37043443898E+02 -0.11371023449E+02  0.12314579294E+02  0.50528858675E+02  0.29999996427E+02 0.  0.
        -12    1    1    2    0    0 -0.37043443898E+02  0.11371023449E+02 -0.12314579294E+02  0.40659141325E+02  0.00000000000E+00 0.  1.
         11    1    3    3    0    0  0.28626124324E+01 -0.23032877320E+01 -0.27414836979E+01  0.45842575671E+01  0.51100000000E-03 0. -1.
        -11    1    3    3    0    0  0.29387234040E+02 -0.13947208116E+02  0.37689109017E+01  0.32746584988E+02  0.51100000000E-03 0.  1.
        -12    1    3    3    0    0  0.47935974262E+01  0.48794723992E+01  0.11287152090E+02  0.13198016119E+02  0.00000000000E+00 0.  1.
</event>
<event>
 7    1  0.3014423E-011  0.5052886E+02  0.7816164E-02  0.1300439E+00
        -11   -1    0    0    0    0  0.00000000000E+00  0.00000000000E+00  0.45593999997E+02  0.45594000000E+02  0.51100000000E-03 0.  1.
         11   -1    0    0    0    0 -0.00000000000E+00 -0.00000000000E+00 -0.45593999997E+02  0.45594000000E+02  0.51100000000E-03 0. -1.
    9900012    2    1    2    0    0  0.17183704015E+01  0.18055464822E+02 -0.36389733724E+02  0.50528864159E+02  0.30000013099E+02 0.  0.
        -12    1    1    2    0    0 -0.17183704015E+01 -0.18055464822E+02  0.36389733724E+02  0.40659135841E+02  0.00000000000E+00 0.  1.
         11    1    3    3    0    0  0.28201729815E+00  0.65253105587E+01 -0.84794733204E+01  0.10703302280E+02  0.51100000000E-03 0. -1.
        -11    1    3    3    0    0  0.10630017034E+02  0.15159220932E+02 -0.17676594681E+02  0.25598071044E+02  0.51100000000E-03 0.  1.
        -12    1    3    3    0    0 -0.91936639304E+01 -0.36290666684E+01 -0.10233665723E+02  0.14227490835E+02  0.00000000000E+00 0.  1.
</event>
<event>
 7    1  0.3014423E-011  0.5052887E+02  0.7816164E-02  0.1300439E+00
        -11   -1    0    0    0    0  0.00000000000E+00  0.00000000000E+00  0.45593999997E+02  0.45594000000E+02  0.51100000000E-03 0.  1.
         11   -1    0    0    0    0 -0.00000000000E+00 -0.00000000000E+00 -0.45593999997E+02  0.45594000000E+02  0.51100000000E-03 0. -1.
    9900012    2    1    2    0    0 -0.32876176334E+01  0.25285871738E+02 -0.31669872522E+02  0.50528873536E+02  0.30000041600E+02 0.  0.
        -12    1    1    2    0    0  0.32876176334E+01 -0.25285871738E+02  0.31669872522E+02  0.40659126464E+02  0.00000000000E+00 0.  1.
         11    1    3    3    0    0 -0.24385691246E+01 -0.34834429193E+01 -0.23392519464E+01  0.48531529831E+01  0.51100000000E-03 0. -1.
        -11    1    3    3    0    0 -0.48030524231E+01  0.57368579490E+00 -0.53780804082E-01  0.48374911480E+01  0.51100000000E-03 0.  1.
         12    1    3    3    0    0  0.39540039143E+01  0.28195628863E+02 -0.29276839772E+02  0.40838229405E+02  0.00000000000E+00 0. -1.
</event>
<event>
 7    1  0.3014423E-011  0.5052885E+02  0.7816164E-02  0.1300439E+00
        -11   -1    0    0    0    0  0.00000000000E+00  0.00000000000E+00  0.45593999997E+02  0.45594000000E+02  0.51100000000E-03 0.  1.
         11   -1    0    0    0    0 -0.00000000000E+00 -0.00000000000E+00 -0.45593999997E+02  0.45594000000E+02  0.51100000000E-03 0. -1.
    9900012    2    1    2    0    0 -0.33884957665E+02 -0.21821495775E+02 -0.53663966675E+01  0.50528852849E+02  0.29999978721E+02 0.  0.
        -12    1    1    2    0    0  0.33884957665E+02  0.21821495775E+02  0.53663966675E+01  0.40659147151E+02  0.00000000000E+00 0.  1.
         11    1    3    3    0    0 -0.23152087426E+02 -0.16291378917E+02 -0.11110833837E+02  0.30411820202E+02  0.51100000000E-03 0. -1.
        -11    1    3    3    0    0 -0.81242132506E+01 -0.67080069314E+01 -0.29686041501E+01  0.10945903745E+02  0.51100000000E-03 0.  1.
        -12    1    3    3    0    0 -0.26086569888E+01  0.11778900727E+01  0.87130413197E+01  0.91711289025E+01  0.00000000000E+00 0.  1.
</event>
<event>
 7    1  0.3014423E-011  0.5052886E+02  0.7816164E-02  0.1300439E+00
        -11   -1    0    0    0    0  0.00000000000E+00  0.00000000000E+00  0.45593999997E+02  0.45594000000E+02  0.51100000000E-03 0. -1.
         11   -1    0    0    0    0 -0.00000000000E+00 -0.00000000000E+00 -0.45593999997E+02  0.45594000000E+02  0.51100000000E-03 0.  1.
    9900012    2    1    2    0    0 -0.39031183884E+01 -0.15768632770E+02  0.37273063901E+02  0.50528863202E+02  0.30000010189E+02 0.  0.
        -12    1    1    2    0    0  0.39031183884E+01  0.15768632770E+02 -0.37273063901E+02  0.40659136798E+02  0.00000000000E+00 0.  1.
         11    1    3    3    0    0 -0.56113319281E+01 -0.59146336450E+01  0.31963391843E+02  0.32986790622E+02  0.51100000000E-03 0. -1.
        -11    1    3    3    0    0  0.43014669710E+00  0.25260979434E+01  0.43634950652E+01  0.50602654522E+01  0.51100000000E-03 0.  1.
        -12    1    3    3    0    0  0.12780668426E+01 -0.12380097069E+02  0.94617699253E+00  0.12481807128E+02  0.00000000000E+00 0.  1.
</event>
<event>
 7    1  0.3014423E-011  0.5052889E+02  0.7816164E-02  0.1300439E+00
        -11   -1    0    0    0    0  0.00000000000E+00  0.00000000000E+00  0.45593999997E+02  0.45594000000E+02  0.51100000000E-03 0.  1.
         11   -1    0    0    0    0 -0.00000000000E+00 -0.00000000000E+00 -0.45593999997E+02  0.45594000000E+02  0.51100000000E-03 0. -1.
    9900012    2    1    2    0    0 -0.31561523631E+02  0.31855000106E+01 -0.25433946633E+02  0.50528894925E+02  0.30000106613E+02 0.  0.
        -12    1    1    2    0    0  0.31561523631E+02 -0.31855000106E+01  0.25433946633E+02  0.40659105075E+02  0.00000000000E+00 0.  1.
         11    1    3    3    0    0 -0.90330744094E+01 -0.95882615716E+01 -0.11359459936E+02  0.17394496933E+02  0.51100000000E-03 0. -1.
        -11    1    3    3    0    0 -0.84682616236E+00 -0.23037384784E+01 -0.43450712727E+01  0.49903877757E+01  0.51100000000E-03 0.  1.
        -12    1    3    3    0    0 -0.21681623059E+02  0.15077500061E+02 -0.97294154239E+01  0.28144010216E+02  0.00000000000E+00 0.  1.
</event>
<event>
 7    1  0.3014423E-011  0.5052886E+02  0.7816164E-02  0.1300439E+00
        -11   -1    0    0    0    0  0.00000000000E+00  0.00000000000E+00  0.45593999997E+02  0.45594000000E+02  0.51100000000E-03 0.  1.
         11   -1    0    0    0    0 -0.00000000000E+00 -0.00000000000E+00 -0.45593999997E+02  0.45594000000E+02  0.51100000000E-03 0. -1.
    9900012    2    1    2    0    0  0.30020264915E+02  0.19698132370E+02 -0.19077035447E+02  0.50528855815E+02  0.29999987734E+02 0.  0.
        -12    1    1    2    0    0 -0.30020264915E+02 -0.19698132370E+02  0.19077035447E+02  0.40659144185E+02  0.00000000000E+00 0.  1.
         11    1    3    3    0    0  0.18340981222E+02  0.99683724945E+01 -0.45903580098E+01  0.21373615261E+02  0.51100000000E-03 0. -1.
        -11    1    3    3    0    0  0.16383824903E+02  0.97939581871E+01 -0.15194629668E+02  0.24397297113E+02  0.51100000000E-03 0.  1.
        -12    1    3    3    0    0 -0.47045412107E+01 -0.64198311606E-01  0.70795222983E+00  0.47579434408E+01  0.00000000000E+00 0.  1.
</event>
<event>
 7    1  0.3014423E-011  0.5052887E+02  0.7816164E-02  0.1300439E+00
        -11   -1    0    0    0    0  0.00000000000E+00  0.00000000000E+00  0.45593999997E+02  0.45594000000E+02  0.51100000000E-03 0.  1.
         11   -1    0    0    0    0 -0.00000000000E+00 -0.00000000000E+00 -0.45593999997E+02  0.45594000000E+02  0.51100000000E-03 0. -1.
    9900012    2    1    2    0    0  0.12167670750E+02 -0.31986394847E+02 -0.21954116118E+02  0.50528869644E+02  0.30000029770E+02 0.  0.
        -12    1    1    2    0    0 -0.12167670750E+02  0.31986394847E+02  0.21954116118E+02  0.40659130356E+02  0.00000000000E+00 0.  1.
         11    1    3    3    0    0 -0.77232956432E+00 -0.59641104483E+01 -0.12588033000E+02  0.13950830852E+02  0.51100000000E-03 0. -1.
        -11    1    3    3    0    0  0.73010131218E+01 -0.18042247717E+02 -0.15637601774E+02  0.24967220205E+02  0.51100000000E-03 0.  1.
        -12    1    3    3    0    0  0.56389871925E+01 -0.79800366821E+01  0.62715186557E+01  0.11610818587E+02  0.00000000000E+00 0.  1.
</event>
<event>
 7    1  0.3014423E-011  0.5052886E+02  0.7816164E-02  0.1300439E+00
        -11   -1    0    0    0    0  0.00000000000E+00  0.00000000000E+00  0.45593999997E+02  0.45594000000E+02  0.51100000000E-03 0.  1.
         11   -1    0    0    0    0 -0.00000000000E+00 -0.00000000000E+00 -0.45593999997E+02  0.45594000000E+02  0.51100000000E-03 0. -1.
    9900012    2    1    2    0    0 -0.14360073863E+02 -0.70796141382E+01 -0.37374228224E+02  0.50528860892E+02  0.30000003168E+02 0.  0.
        -12    1    1    2    0    0  0.14360073863E+02  0.70796141382E+01  0.37374228224E+02  0.40659139108E+02  0.00000000000E+00 0.  1.
         11    1    3    3    0    0 -0.15519451882E+02 -0.24874471645E+01 -0.18980570428E+02  0.24643515053E+02  0.51100000000E-03 0. -1.
        -11    1    3    3    0    0  0.28204362396E+01 -0.28767180521E+01  0.25749001459E+01  0.47812632593E+01  0.51100000000E-03 0.  1.
         12    1    3    3    0    0 -0.16610582205E+01 -0.17154489216E+01 -0.20968557941E+02  0.21104082580E+02  0.00000000000E+00 0. -1.
</event>
<event>
 7    1  0.3014423E-011  0.5052886E+02  0.7816164E-02  0.1300439E+00
        -11   -1    0    0    0    0  0.00000000000E+00  0.00000000000E+00  0.45593999997E+02  0.45594000000E+02  0.51100000000E-03 0. -1.
         11   -1    0    0    0    0 -0.00000000000E+00 -0.00000000000E+00 -0.45593999997E+02  0.45594000000E+02  0.51100000000E-03 0.  1.
    9900012    2    1    2    0    0 -0.36421994574E+02  0.16802076394E+02  0.66553778197E+01  0.50528861865E+02  0.30000006126E+02 0.  0.
        -12    1    1    2    0    0  0.36421994574E+02 -0.16802076394E+02 -0.66553778197E+01  0.40659138135E+02  0.00000000000E+00 0.  1.
         11    1    3    3    0    0  0.17661073570E+01  0.15253160245E+01 -0.81347273626E+00  0.24713280488E+01  0.51100000000E-03 0. -1.
        -11    1    3    3    0    0 -0.46534216195E+01 -0.59168666584E+01  0.31233777545E+01  0.81497934134E+01  0.51100000000E-03 0.  1.
         12    1    3    3    0    0 -0.33534680312E+02  0.21193627028E+02  0.43454728014E+01  0.39907740403E+02  0.00000000000E+00 0. -1.
</event>
<event>
 7    1  0.3014423E-011  0.5052886E+02  0.7816164E-02  0.1300439E+00
        -11   -1    0    0    0    0  0.00000000000E+00  0.00000000000E+00  0.45593999997E+02  0.45594000000E+02  0.51100000000E-03 0. -1.
         11   -1    0    0    0    0 -0.00000000000E+00 -0.00000000000E+00 -0.45593999997E+02  0.45594000000E+02  0.51100000000E-03 0.  1.
    9900012    2    1    2    0    0 -0.62645127331E+01  0.24875435063E+02  0.31545746833E+02  0.50528861635E+02  0.30000005426E+02 0.  0.
        -12    1    1    2    0    0  0.62645127331E+01 -0.24875435063E+02 -0.31545746833E+02  0.40659138365E+02  0.00000000000E+00 0.  1.
         11    1    3    3    0    0  0.47466355481E+01  0.11677851295E+02  0.17320061327E+02  0.21421654570E+02  0.51100000000E-03 0. -1.
        -11    1    3    3    0    0 -0.53399556232E+00  0.11540701328E+02  0.14446000589E+02  0.18497563939E+02  0.51100000000E-03 0.  1.
        -12    1    3    3    0    0 -0.10477152719E+02  0.16568824395E+01 -0.22031508357E+00  0.10609643125E+02  0.00000000000E+00 0.  1.
</event>
<event>
 7    1  0.3014423E-011  0.5052887E+02  0.7816164E-02  0.1300439E+00
        -11   -1    0    0    0    0  0.00000000000E+00  0.00000000000E+00  0.45593999997E+02  0.45594000000E+02  0.51100000000E-03 0.  1.
         11   -1    0    0    0    0 -0.00000000000E+00 -0.00000000000E+00 -0.45593999997E+02  0.45594000000E+02  0.51100000000E-03 0. -1.
    9900012    2    1    2    0    0 -0.84892047727E+01  0.20910102717E+02 -0.33821083528E+02  0.50528872067E+02  0.30000037135E+02 0.  0.
        -12    1    1    2    0    0  0.84892047727E+01 -0.20910102717E+02  0.33821083528E+02  0.40659127933E+02  0.00000000000E+00 0.  1.
         11    1    3    3    0    0 -0.98825820123E+00 -0.12649784752E+01  0.13872777407E+01  0.21216419599E+01  0.51100000000E-03 0. -1.
        -11    1    3    3    0    0 -0.12512235602E+02  0.28621065079E+01 -0.10077289995E+02  0.16318684608E+02  0.51100000000E-03 0.  1.
         12    1    3    3    0    0  0.50112890309E+01  0.19312974684E+02 -0.25131071273E+02  0.32088545499E+02  0.00000000000E+00 0. -1.
</event>
<event>
 7    1  0.3014423E-011  0.5052886E+02  0.7816164E-02  0.1300439E+00
        -11   -1    0    0    0    0  0.00000000000E+00  0.00000000000E+00  0.45593999997E+02  0.45594000000E+02  0.51100000000E-03 0.  1.
         11   -1    0    0    0    0 -0.00000000000E+00 -0.00000000000E+00 -0.45593999997E+02  0.45594000000E+02  0.51100000000E-03 0. -1.
    9900012    2    1    2    0    0 -0.12988261862E+02 -0.28547806161E+01 -0.38422918147E+02  0.50528863788E+02  0.30000011970E+02 0.  0.
        -12    1    1    2    0    0  0.12988261862E+02  0.28547806161E+01  0.38422918147E+02  0.40659136212E+02  0.00000000000E+00 0.  1.
         11    1    3    3    0    0  0.20006265688E+01 -0.90394109632E+00 -0.19899601663E+02  0.20020333733E+02  0.51100000000E-03 0. -1.
        -11    1    3    3    0    0  0.11117097624E+01  0.54619970747E+01 -0.84446265140E+01  0.10118351045E+02  0.51100000000E-03 0.  1.
        -12    1    3    3    0    0 -0.16100598193E+02 -0.74128365945E+01 -0.10078689970E+02  0.20390179010E+02  0.00000000000E+00 0.  1.
</event>
<event>
 7    1  0.3014423E-011  0.5052886E+02  0.7816164E-02  0.1300439E+00
        -11   -1    0    0    0    0  0.00000000000E+00  0.00000000000E+00  0.45593999997E+02  0.45594000000E+02  0.51100000000E-03 0. -1.
         11   -1    0    0    0    0 -0.00000000000E+00 -0.00000000000E+00 -0.45593999997E+02  0.45594000000E+02  0.51100000000E-03 0.  1.
    9900012    2    1    2    0    0  0.36924253436E+01 -0.21402762069E+02  0.34372275688E+02  0.50528861236E+02  0.30000004212E+02 0.  0.
        -12    1    1    2    0    0 -0.36924253436E+01  0.21402762069E+02 -0.34372275688E+02  0.40659138764E+02  0.00000000000E+00 0.  1.
         11    1    3    3    0    0  0.28839445667E+01 -0.14085152762E+02  0.98962941089E+01  0.17454091267E+02  0.51100000000E-03 0. -1.
        -11    1    3    3    0    0 -0.54589014887E+00 -0.78640199584E+01 -0.64692991240E+00  0.79094452735E+01  0.51100000000E-03 0.  1.
         12    1    3    3    0    0  0.13543709258E+01  0.54641065202E+00  0.25122911491E+02  0.25165324695E+02  0.00000000000E+00 0. -1.
</event>
<event>
 7    1  0.3014423E-011  0.5052887E+02  0.7816164E-02  0.1300439E+00
        -11   -1    0    0    0    0  0.00000000000E+00  0.00000000000E+00  0.45593999997E+02  0.45594000000E+02  0.51100000000E-03 0.  1.
         11   -1    0    0    0    0 -0.00000000000E+00 -0.00000000000E+00 -0.45593999997E+02  0.45594000000E+02  0.51100000000E-03 0. -1.
    9900012    2    1    2    0    0 -0.12184950426E+02  0.19809927332E+02 -0.33350544412E+02  0.50528867565E+02  0.30000023452E+02 0.  0.
        -12    1    1    2    0    0  0.12184950426E+02 -0.19809927332E+02  0.33350544412E+02  0.40659132435E+02  0.00000000000E+00 0.  1.
         11    1    3    3    0    0  0.20249069439E+01  0.20960763968E+02 -0.27565245127E+02  0.34688566033E+02  0.51100000000E-03 0. -1.
        -11    1    3    3    0    0 -0.74897724187E+00  0.45077636935E+00  0.37397868551E+00  0.95080311440E+00  0.51100000000E-03 0.  1.
         12    1    3    3    0    0 -0.13460880128E+02 -0.16016130051E+01 -0.61592779698E+01  0.14889498418E+02  0.00000000000E+00 0. -1.
</event>
<event>
 7    1  0.3014423E-011  0.5052884E+02  0.7816164E-02  0.1300439E+00
        -11   -1    0    0    0    0  0.00000000000E+00  0.00000000000E+00  0.45593999997E+02  0.45594000000E+02  0.51100000000E-03 0.  1.
         11   -1    0    0    0    0 -0.00000000000E+00 -0.00000000000E+00 -0.45593999997E+02  0.45594000000E+02  0.51100000000E-03 0. -1.
    9900012    2    1    2    0    0 -0.20338109431E+02 -0.32487464590E+02 -0.13568102429E+02  0.50528838004E+02  0.29999933596E+02 0.  0.
        -12    1    1    2    0    0  0.20338109431E+02  0.32487464590E+02  0.13568102429E+02  0.40659161996E+02  0.00000000000E+00 0.  1.
         11    1    3    3    0    0 -0.11407720625E+02 -0.22780869489E+02 -0.11025931082E+02  0.27761038544E+02  0.51100000000E-03 0. -1.
        -11    1    3    3    0    0 -0.81134114816E+01 -0.88331463113E+01 -0.97528223716E+01  0.15458637201E+02  0.51100000000E-03 0.  1.
         12    1    3    3    0    0 -0.81697732431E+00 -0.87344878996E+00  0.72106510246E+01  0.73091622595E+01  0.00000000000E+00 0. -1.
</event>
<event>
 7    1  0.3014423E-011  0.5052885E+02  0.7816164E-02  0.1300439E+00
        -11   -1    0    0    0    0  0.00000000000E+00  0.00000000000E+00  0.45593999997E+02  0.45594000000E+02  0.51100000000E-03 0.  1.
         11   -1    0    0    0    0 -0.00000000000E+00 -0.00000000000E+00 -0.45593999997E+02  0.45594000000E+02  0.51100000000E-03 0. -1.
    9900012    2    1    2    0    0  0.15246192440E+02 -0.33719343621E+02  0.16844160702E+02  0.50528852592E+02  0.29999977940E+02 0.  0.
        -12    1    1    2    0    0 -0.15246192440E+02  0.33719343621E+02 -0.16844160702E+02  0.40659147408E+02  0.00000000000E+00 0.  1.
         11    1    3    3    0    0  0.12204776897E+02 -0.53190473755E+01  0.10657647241E+02  0.17053864344E+02  0.51100000000E-03 0. -1.
        -11    1    3    3    0    0  0.74258367996E+00  0.17407675291E+00  0.47088647597E+01  0.47702348814E+01  0.51100000000E-03 0.  1.
         12    1    3    3    0    0  0.22988318630E+01 -0.28574372999E+02  0.14776487013E+01  0.28704753367E+02  0.00000000000E+00 0. -1.
</event>
<event>
 7    1  0.3014423E-011  0.5052886E+02  0.7816164E-02  0.1300439E+00
        -11   -1    0    0    0    0  0.00000000000E+00  0.00000000000E+00  0.45593999997E+02  0.45594000000E+02  0.51100000000E-03 0. -1.
         11   -1    0    0    0    0 -0.00000000000E+00 -0.00000000000E+00 -0.45593999997E+02  0.45594000000E+02  0.51100000000E-03 0.  1.
    9900012    2    1    2    0    0 -0.28748248307E+02 -0.25683091600E+02 -0.12926057828E+02  0.50528856553E+02  0.29999989977E+02 0.  0.
        -12    1    1    2    0    0  0.28748248307E+02  0.25683091600E+02  0.12926057828E+02  0.40659143447E+02  0.00000000000E+00 0.  1.
         11    1    3    3    0    0 -0.21452059831E+02 -0.16850291252E+02 -0.87266880148E+01  0.28640500524E+02  0.51100000000E-03 0. -1.
        -11    1    3    3    0    0 -0.82304845548E+01  0.67585870710E+00 -0.81007686593E+01  0.11568064407E+02  0.51100000000E-03 0.  1.
         12    1    3    3    0    0  0.93429607866E+00 -0.95086590556E+01  0.39013988458E+01  0.10320291621E+02  0.00000000000E+00 0. -1.
</event>
<event>
 7    1  0.3014423E-011  0.5052886E+02  0.7816164E-02  0.1300439E+00
        -11   -1    0    0    0    0  0.00000000000E+00  0.00000000000E+00  0.45593999997E+02  0.45594000000E+02  0.51100000000E-03 0. -1.
         11   -1    0    0    0    0 -0.00000000000E+00 -0.00000000000E+00 -0.45593999997E+02  0.45594000000E+02  0.51100000000E-03 0.  1.
    9900012    2    1    2    0    0 -0.22102675174E+02 -0.33503248680E+02  0.64938372798E+01  0.50528857798E+02  0.29999993764E+02 0.  0.
        -12    1    1    2    0    0  0.22102675174E+02  0.33503248680E+02 -0.64938372798E+01  0.40659142202E+02  0.00000000000E+00 0.  1.
         11    1    3    3    0    0 -0.17834458739E+02 -0.31384685517E+02  0.11971403162E+02  0.38031314695E+02  0.51100000000E-03 0. -1.
        -11    1    3    3    0    0 -0.44781797620E+01 -0.54525123639E+01 -0.13435981240E+01  0.71825650877E+01  0.51100000000E-03 0.  1.
         12    1    3    3    0    0  0.20996332753E+00  0.33339492010E+01 -0.41339677585E+01  0.53149780152E+01  0.00000000000E+00 0. -1.
</event>
<event>
 7    1  0.3014423E-011  0.5052886E+02  0.7816164E-02  0.1300439E+00
        -11   -1    0    0    0    0  0.00000000000E+00  0.00000000000E+00  0.45593999997E+02  0.45594000000E+02  0.51100000000E-03 0. -1.
         11   -1    0    0    0    0 -0.00000000000E+00 -0.00000000000E+00 -0.45593999997E+02  0.45594000000E+02  0.51100000000E-03 0.  1.
    9900012    2    1    2    0    0  0.35155784416E+01  0.32691908797E+02  0.23917466631E+02  0.50528863233E+02  0.30000010283E+02 0.  0.
        -12    1    1    2    0    0 -0.35155784416E+01 -0.32691908797E+02 -0.23917466631E+02  0.40659136767E+02  0.00000000000E+00 0.  1.
         11    1    3    3    0    0 -0.61984383852E+01  0.94020121490E+01  0.44452982252E+01  0.12106987546E+02  0.51100000000E-03 0.  1.
        -11    1    3    3    0    0  0.87761642472E+01  0.21524724133E+02  0.49544939817E+01  0.23767242558E+02  0.51100000000E-03 0. -1.
         12    1    3    3    0    0  0.93785257962E+00  0.17651725145E+01  0.14517674425E+02  0.14654633130E+02  0.00000000000E+00 0. -1.
</event>
<event>
 7    1  0.3014423E-011  0.5052884E+02  0.7816164E-02  0.1300439E+00
        -11   -1    0    0    0    0  0.00000000000E+00  0.00000000000E+00  0.45593999997E+02  0.45594000000E+02  0.51100000000E-03 0.  1.
         11   -1    0    0    0    0 -0.00000000000E+00 -0.00000000000E+00 -0.45593999997E+02  0.45594000000E+02  0.51100000000E-03 0. -1.
    9900012    2    1    2    0    0  0.66576430138E+01  0.31471521182E+02 -0.24867373372E+02  0.50528842183E+02  0.29999946299E+02 0.  0.
        -12    1    1    2    0    0 -0.66576430138E+01 -0.31471521182E+02  0.24867373372E+02  0.40659157817E+02  0.00000000000E+00 0.  1.
         11    1    3    3    0    0 -0.15302689806E+01  0.14696084425E+02 -0.79379369817E+01  0.16772819213E+02  0.51100000000E-03 0. -1.
        -11    1    3    3    0    0 -0.16053142714E+01  0.12876723931E+02  0.93888060245E+00  0.13010324752E+02  0.51100000000E-03 0.  1.
        -12    1    3    3    0    0  0.97932262657E+01  0.38987128255E+01 -0.17868316992E+02  0.20745698217E+02  0.00000000000E+00 0.  1.
</event>
<event>
 7    1  0.3014423E-011  0.5052887E+02  0.7816164E-02  0.1300439E+00
        -11   -1    0    0    0    0  0.00000000000E+00  0.00000000000E+00  0.45593999997E+02  0.45594000000E+02  0.51100000000E-03 0.  1.
         11   -1    0    0    0    0 -0.00000000000E+00 -0.00000000000E+00 -0.45593999997E+02  0.45594000000E+02  0.51100000000E-03 0. -1.
    9900012    2    1    2    0    0  0.30445267225E+02  0.26765565926E+02 -0.31393247956E+01  0.50528866021E+02  0.30000018757E+02 0.  0.
        -12    1    1    2    0    0 -0.30445267225E+02 -0.26765565926E+02  0.31393247956E+01  0.40659133979E+02  0.00000000000E+00 0.  1.
         11    1    3    3    0    0  0.10757427403E+01 -0.99641008166E+00  0.47580554080E+01  0.49788700546E+01  0.51100000000E-03 0. -1.
        -11    1    3    3    0    0  0.16307420398E+02  0.23563684959E+02  0.18560839901E+01  0.28716271640E+02  0.51100000000E-03 0.  1.
         12    1    3    3    0    0  0.13062104087E+02  0.41982910494E+01 -0.97534641937E+01  0.16833724326E+02  0.00000000000E+00 0. -1.
</event>
<event>
 7    1  0.3014423E-011  0.5052885E+02  0.7816164E-02  0.1300439E+00
        -11   -1    0    0    0    0  0.00000000000E+00  0.00000000000E+00  0.45593999997E+02  0.45594000000E+02  0.51100000000E-03 0.  1.
         11   -1    0    0    0    0 -0.00000000000E+00 -0.00000000000E+00 -0.45593999997E+02  0.45594000000E+02  0.51100000000E-03 0. -1.
    9900012    2    1    2    0    0  0.31522259978E+02  0.24068454890E+02  0.89567325631E+01  0.50528850315E+02  0.29999971017E+02 0.  0.
        -12    1    1    2    0    0 -0.31522259978E+02 -0.24068454890E+02 -0.89567325631E+01  0.40659149685E+02  0.00000000000E+00 0.  1.
         11    1    3    3    0    0  0.48093512701E+01  0.12203613217E+01 -0.65659433373E+00  0.50050232542E+01  0.51100000000E-03 0. -1.
        -11    1    3    3    0    0  0.54856970367E+01  0.21912106871E+02  0.88564225345E+01  0.24262512646E+02  0.51100000000E-03 0.  1.
        -12    1    3    3    0    0  0.21227211671E+02  0.93598669699E+00  0.75690436239E+00  0.21261314415E+02  0.00000000000E+00 0.  1.
</event>
<event>
 7    1  0.3014423E-011  0.5052886E+02  0.7816164E-02  0.1300439E+00
        -11   -1    0    0    0    0  0.00000000000E+00  0.00000000000E+00  0.45593999997E+02  0.45594000000E+02  0.51100000000E-03 0.  1.
         11   -1    0    0    0    0 -0.00000000000E+00 -0.00000000000E+00 -0.45593999997E+02  0.45594000000E+02  0.51100000000E-03 0. -1.
    9900012    2    1    2    0    0  0.15272998816E+02  0.12145775279E+02 -0.35670455917E+02  0.50528858650E+02  0.29999996353E+02 0.  0.
        -12    1    1    2    0    0 -0.15272998816E+02 -0.12145775279E+02  0.35670455917E+02  0.40659141350E+02  0.00000000000E+00 0.  1.
         11    1    3    3    0    0  0.71206673687E+00  0.37769114310E+01 -0.18989680019E+02  0.19374727004E+02  0.51100000000E-03 0. -1.
        -11    1    3    3    0    0  0.76192466789E+00  0.10257933982E+02 -0.13315135651E+02  0.16825533467E+02  0.51100000000E-03 0.  1.
        -12    1    3    3    0    0  0.13799007411E+02 -0.18890701337E+01 -0.33656402469E+01  0.14328598179E+02  0.00000000000E+00 0.  1.
</event>
<event>
 7    1  0.3014423E-011  0.5052886E+02  0.7816164E-02  0.1300439E+00
        -11   -1    0    0    0    0  0.00000000000E+00  0.00000000000E+00  0.45593999997E+02  0.45594000000E+02  0.51100000000E-03 0.  1.
         11   -1    0    0    0    0 -0.00000000000E+00 -0.00000000000E+00 -0.45593999997E+02  0.45594000000E+02  0.51100000000E-03 0. -1.
    9900012    2    1    2    0    0 -0.21482073887E+02  0.34091149244E+02 -0.54295199778E+01  0.50528860284E+02  0.30000001319E+02 0.  0.
        -12    1    1    2    0    0  0.21482073887E+02 -0.34091149244E+02  0.54295199778E+01  0.40659139716E+02  0.00000000000E+00 0.  1.
         11    1    3    3    0    0  0.49733000426E+01  0.16672587781E+02  0.11786851532E+01  0.17438411498E+02  0.51100000000E-03 0.  1.
        -11    1    3    3    0    0 -0.18570621055E+01  0.15336057388E+01 -0.25861774301E+01  0.35339694660E+01  0.51100000000E-03 0. -1.
        -12    1    3    3    0    0 -0.24598311824E+02  0.15884955724E+02 -0.40220277009E+01  0.29556479320E+02  0.00000000000E+00 0.  1.
</event>
<event>
 7    1  0.3014423E-011  0.5052885E+02  0.7816164E-02  0.1300439E+00
        -11   -1    0    0    0    0  0.00000000000E+00  0.00000000000E+00  0.45593999997E+02  0.45594000000E+02  0.51100000000E-03 0. -1.
         11   -1    0    0    0    0 -0.00000000000E+00 -0.00000000000E+00 -0.45593999997E+02  0.45594000000E+02  0.51100000000E-03 0.  1.
    9900012    2    1    2    0    0 -0.19798048255E+02 -0.29939117676E+02  0.19101128093E+02  0.50528848800E+02  0.29999966413E+02 0.  0.
        -12    1    1    2    0    0  0.19798048255E+02  0.29939117676E+02 -0.19101128093E+02  0.40659151200E+02  0.00000000000E+00 0.  1.
         11    1    3    3    0    0 -0.86010185057E+01 -0.39701297565E+01 -0.17649789106E+01  0.96361091959E+01  0.51100000000E-03 0. -1.
        -11    1    3    3    0    0 -0.88472561194E+01 -0.11522254547E+02 -0.10206679251E+01  0.14562899916E+02  0.51100000000E-03 0.  1.
         12    1    3    3    0    0 -0.23497736294E+01 -0.14446733372E+02  0.21886774929E+02  0.26329839688E+02  0.00000000000E+00 0. -1.
</event>
<event>
 7    1  0.3014423E-011  0.5052885E+02  0.7816164E-02  0.1300439E+00
        -11   -1    0    0    0    0  0.00000000000E+00  0.00000000000E+00  0.45593999997E+02  0.45594000000E+02  0.51100000000E-03 0.  1.
         11   -1    0    0    0    0 -0.00000000000E+00 -0.00000000000E+00 -0.45593999997E+02  0.45594000000E+02  0.51100000000E-03 0. -1.
    9900012    2    1    2    0    0  0.55855838166E+01  0.37550961256E+02 -0.14556535822E+02  0.50528853760E+02  0.29999981488E+02 0.  0.
        -12    1    1    2    0    0 -0.55855838166E+01 -0.37550961256E+02  0.14556535822E+02  0.40659146240E+02  0.00000000000E+00 0.  1.
         11    1    3    3    0    0 -0.15482219882E+01  0.55993554065E+01  0.12820141458E+01  0.59492295992E+01  0.51100000000E-03 0. -1.
        -11    1    3    3    0    0 -0.62381551763E+01  0.93198944471E+01  0.37187749256E+01  0.11815426345E+02  0.51100000000E-03 0.  1.
         12    1    3    3    0    0  0.13371960981E+02  0.22631711403E+02 -0.19557324893E+02  0.32764197815E+02  0.00000000000E+00 0. -1.
</event>
<event>
 7    1  0.3014423E-011  0.5052886E+02  0.7816164E-02  0.1300439E+00
        -11   -1    0    0    0    0  0.00000000000E+00  0.00000000000E+00  0.45593999997E+02  0.45594000000E+02  0.51100000000E-03 0.  1.
         11   -1    0    0    0    0 -0.00000000000E+00 -0.00000000000E+00 -0.45593999997E+02  0.45594000000E+02  0.51100000000E-03 0. -1.
    9900012    2    1    2    0    0 -0.16519350011E+02  0.37150749429E+02 -0.31416351139E+00  0.50528858264E+02  0.29999995181E+02 0.  0.
        -12    1    1    2    0    0  0.16519350011E+02 -0.37150749429E+02  0.31416351139E+00  0.40659141736E+02  0.00000000000E+00 0.  1.
         11    1    3    3    0    0 -0.14176283953E+02  0.13999516096E+02 -0.81707892360E+01  0.21534049193E+02  0.51100000000E-03 0. -1.
        -11    1    3    3    0    0 -0.85202646099E+01  0.86261218370E+01  0.32664384985E+01  0.12556851026E+02  0.51100000000E-03 0.  1.
        -12    1    3    3    0    0  0.61771985518E+01  0.14525111496E+02  0.45901872261E+01  0.16437958045E+02  0.00000000000E+00 0.  1.
</event>
<event>
 7    1  0.3014423E-011  0.5052886E+02  0.7816164E-02  0.1300439E+00
        -11   -1    0    0    0    0  0.00000000000E+00  0.00000000000E+00  0.45593999997E+02  0.45594000000E+02  0.51100000000E-03 0. -1.
         11   -1    0    0    0    0 -0.00000000000E+00 -0.00000000000E+00 -0.45593999997E+02  0.45594000000E+02  0.51100000000E-03 0.  1.
    9900012    2    1    2    0    0  0.29745441347E+02  0.43446104516E+01  0.27376977319E+02  0.50528858248E+02  0.29999995129E+02 0.  0.
        -12    1    1    2    0    0 -0.29745441347E+02 -0.43446104516E+01 -0.27376977319E+02  0.40659141752E+02  0.00000000000E+00 0.  1.
         11    1    3    3    0    0  0.54397086113E+01 -0.81899122490E+01  0.79314981468E+01  0.12632250612E+02  0.51100000000E-03 0.  1.
        -11    1    3    3    0    0  0.13680385039E+02 -0.28656787022E+00  0.20852911068E+01  0.13841368980E+02  0.51100000000E-03 0. -1.
        -12    1    3    3    0    0  0.10625347696E+02  0.12821090571E+02  0.17360188066E+02  0.24055238655E+02  0.00000000000E+00 0.  1.
</event>
<event>
 7    1  0.3014423E-011  0.5052885E+02  0.7816164E-02  0.1300439E+00
        -11   -1    0    0    0    0  0.00000000000E+00  0.00000000000E+00  0.45593999997E+02  0.45594000000E+02  0.51100000000E-03 0.  1.
         11   -1    0    0    0    0 -0.00000000000E+00 -0.00000000000E+00 -0.45593999997E+02  0.45594000000E+02  0.51100000000E-03 0. -1.
    9900012    2    1    2    0    0 -0.66304552495E+01 -0.22605804545E+02 -0.33138820717E+02  0.50528846363E+02  0.29999959006E+02 0.  0.
        -12    1    1    2    0    0  0.66304552495E+01  0.22605804545E+02  0.33138820717E+02  0.40659153637E+02  0.00000000000E+00 0.  1.
         11    1    3    3    0    0 -0.56526932650E+01 -0.10129541871E+02 -0.18977481835E+02  0.22241973310E+02  0.51100000000E-03 0. -1.
        -11    1    3    3    0    0  0.32468213718E+01  0.33925583917E+01 -0.10442150855E+02  0.11449446109E+02  0.51100000000E-03 0.  1.
        -12    1    3    3    0    0 -0.42245833562E+01 -0.15868821065E+02 -0.37191880275E+01  0.16837426945E+02  0.00000000000E+00 0.  1.
</event>
<event>
 7    1  0.3014423E-011  0.5052886E+02  0.7816164E-02  0.1300439E+00
        -11   -1    0    0    0    0  0.00000000000E+00  0.00000000000E+00  0.45593999997E+02  0.45594000000E+02  0.51100000000E-03 0. -1.
         11   -1    0    0    0    0 -0.00000000000E+00 -0.00000000000E+00 -0.45593999997E+02  0.45594000000E+02  0.51100000000E-03 0.  1.
    9900012    2    1    2    0    0 -0.39539703901E+02 -0.41739311237E+01  0.85062330893E+01  0.50528857277E+02  0.29999992180E+02 0.  0.
        -12    1    1    2    0    0  0.39539703901E+02  0.41739311237E+01 -0.85062330893E+01  0.40659142723E+02  0.00000000000E+00 0.  1.
         11    1    3    3    0    0  0.45785278281E+00 -0.21403068028E+01  0.16705819011E+01  0.27534317733E+01  0.51100000000E-03 0. -1.
        -11    1    3    3    0    0  0.35137688613E+01  0.91703392816E+00  0.10625224785E+01  0.37837120813E+01  0.51100000000E-03 0.  1.
         12    1    3    3    0    0 -0.43511325545E+02 -0.29506582491E+01  0.57731287098E+01  0.43991713423E+02  0.00000000000E+00 0. -1.
</event>
<event>
 7    1  0.3014423E-011  0.5052884E+02  0.7816164E-02  0.1300439E+00
        -11   -1    0    0    0    0  0.00000000000E+00  0.00000000000E+00  0.45593999997E+02  0.45594000000E+02  0.51100000000E-03 0.  1.
         11   -1    0    0    0    0 -0.00000000000E+00 -0.00000000000E+00 -0.45593999997E+02  0.45594000000E+02  0.51100000000E-03 0. -1.
    9900012    2    1    2    0    0 -0.31181435532E+02 -0.26088948236E+02  0.50226603625E+00  0.50528838510E+02  0.29999935135E+02 0.  0.
        -12    1    1    2    0    0  0.31181435532E+02  0.26088948236E+02 -0.50226603625E+00  0.40659161490E+02  0.00000000000E+00 0.  1.
         11    1    3    3    0    0 -0.68433660662E+01 -0.92445233049E+01 -0.24620623559E+01  0.11762424136E+02  0.51100000000E-03 0. -1.
        -11    1    3    3    0    0 -0.13670110711E+02 -0.85718463431E+01 -0.10855636080E+02  0.19447192896E+02  0.51100000000E-03 0.  1.
        -12    1    3    3    0    0 -0.10667958755E+02 -0.82725785883E+01  0.13819964472E+02  0.19319221478E+02  0.00000000000E+00 0.  1.
</event>
<event>
 7    1  0.3014423E-011  0.5052888E+02  0.7816164E-02  0.1300439E+00
        -11   -1    0    0    0    0  0.00000000000E+00  0.00000000000E+00  0.45593999997E+02  0.45594000000E+02  0.51100000000E-03 0. -1.
         11   -1    0    0    0    0 -0.00000000000E+00 -0.00000000000E+00 -0.45593999997E+02  0.45594000000E+02  0.51100000000E-03 0.  1.
    9900012    2    1    2    0    0 -0.88861285609E+01 -0.26896636437E+02 -0.29167993333E+02  0.50528878422E+02  0.30000056453E+02 0.  0.
        -12    1    1    2    0    0  0.88861285609E+01  0.26896636437E+02  0.29167993333E+02  0.40659121578E+02  0.00000000000E+00 0.  1.
         11    1    3    3    0    0  0.31033328137E+01  0.15895368847E+00 -0.43955010881E+01  0.53829704536E+01  0.51100000000E-03 0. -1.
        -11    1    3    3    0    0 -0.17596277020E+02 -0.11381424024E+02 -0.15719275682E+02  0.26196591496E+02  0.51100000000E-03 0.  1.
         12    1    3    3    0    0  0.56068156459E+01 -0.15674166101E+02 -0.90532165624E+01  0.18949316472E+02  0.00000000000E+00 0. -1.
</event>
<event>
 7    1  0.3014423E-011  0.5052887E+02  0.7816164E-02  0.1300439E+00
        -11   -1    0    0    0    0  0.00000000000E+00  0.00000000000E+00  0.45593999997E+02  0.45594000000E+02  0.51100000000E-03 0.  1.
         11   -1    0    0    0    0 -0.00000000000E+00 -0.00000000000E+00 -0.45593999997E+02  0.45594000000E+02  0.51100000000E-03 0. -1.
    9900012    2    1    2    0    0 -0.27128650582E+02 -0.15276600811E+02 -0.26150085429E+02  0.50528865938E+02  0.30000018506E+02 0.  0.
        -12    1    1    2    0    0  0.27128650582E+02  0.15276600811E+02  0.26150085429E+02  0.40659134062E+02  0.00000000000E+00 0.  1.
         11    1    3    3    0    0 -0.35050197011E+01 -0.48460258472E+01 -0.85877101203E+00  0.60420706326E+01  0.51100000000E-03 0. -1.
        -11    1    3    3    0    0 -0.16876759733E+02 -0.12602991365E+02 -0.32233341428E+01  0.21308455920E+02  0.51100000000E-03 0.  1.
         12    1    3    3    0    0 -0.67468711479E+01  0.21724164015E+01 -0.22067980274E+02  0.23178339386E+02  0.00000000000E+00 0. -1.
</event>
<event>
 7    1  0.3014423E-011  0.5052885E+02  0.7816164E-02  0.1300439E+00
        -11   -1    0    0    0    0  0.00000000000E+00  0.00000000000E+00  0.45593999997E+02  0.45594000000E+02  0.51100000000E-03 0.  1.
         11   -1    0    0    0    0 -0.00000000000E+00 -0.00000000000E+00 -0.45593999997E+02  0.45594000000E+02  0.51100000000E-03 0. -1.
    9900012    2    1    2    0    0 -0.64578712562E+01  0.40140163435E+02  0.47919703527E+00  0.50528850334E+02  0.29999971075E+02 0.  0.
        -12    1    1    2    0    0  0.64578712562E+01 -0.40140163435E+02 -0.47919703527E+00  0.40659149666E+02  0.00000000000E+00 0.  1.
         11    1    3    3    0    0  0.54910773805E+01  0.11251375101E+02  0.43278282327E+01  0.13246715440E+02  0.51100000000E-03 0. -1.
        -11    1    3    3    0    0 -0.14460842479E+02  0.25008982063E+02  0.29738008608E+01  0.29041498598E+02  0.51100000000E-03 0.  1.
         12    1    3    3    0    0  0.25118938421E+01  0.38798062714E+01 -0.68224320582E+01  0.82406362962E+01  0.00000000000E+00 0. -1.
</event>
<event>
 7    1  0.3014423E-011  0.5052888E+02  0.7816164E-02  0.1300439E+00
        -11   -1    0    0    0    0  0.00000000000E+00  0.00000000000E+00  0.45593999997E+02  0.45594000000E+02  0.51100000000E-03 0.  1.
         11   -1    0    0    0    0 -0.00000000000E+00 -0.00000000000E+00 -0.45593999997E+02  0.45594000000E+02  0.51100000000E-03 0. -1.
    9900012    2    1    2    0    0 -0.16563246838E+02 -0.31545136445E+02  0.19588961793E+02  0.50528877982E+02  0.30000055114E+02 0.  0.
        -12    1    1    2    0    0  0.16563246838E+02  0.31545136445E+02 -0.19588961793E+02  0.40659122018E+02  0.00000000000E+00 0.  1.
         11    1    3    3    0    0 -0.98571620985E+01 -0.13613973324E+02  0.53313248251E+01  0.17633120511E+02  0.51100000000E-03 0. -1.
        -11    1    3    3    0    0  0.39898251882E+01 -0.17078182731E+02  0.38668507566E+01  0.17959275193E+02  0.51100000000E-03 0.  1.
        -12    1    3    3    0    0 -0.10695909928E+02 -0.85298038926E+00  0.10390786212E+02  0.14936482278E+02  0.00000000000E+00 0.  1.
</event>
<event>
 7    1  0.3014423E-011  0.5052885E+02  0.7816164E-02  0.1300439E+00
        -11   -1    0    0    0    0  0.00000000000E+00  0.00000000000E+00  0.45593999997E+02  0.45594000000E+02  0.51100000000E-03 0.  1.
         11   -1    0    0    0    0 -0.00000000000E+00 -0.00000000000E+00 -0.45593999997E+02  0.45594000000E+02  0.51100000000E-03 0. -1.
    9900012    2    1    2    0    0  0.27594828528E+02  0.12375435731E+02 -0.27176097287E+02  0.50528853000E+02  0.29999979178E+02 0.  0.
        -12    1    1    2    0    0 -0.27594828528E+02 -0.12375435731E+02  0.27176097287E+02  0.40659147000E+02  0.00000000000E+00 0.  1.
         11    1    3    3    0    0  0.84395921202E+01  0.14163800542E+02 -0.51456462633E+01  0.17271874150E+02  0.51100000000E-03 0. -1.
        -11    1    3    3    0    0  0.20086125415E+02  0.24425039698E+01 -0.15817809427E+02  0.25683094735E+02  0.51100000000E-03 0.  1.
        -12    1    3    3    0    0 -0.93088900653E+00 -0.42308687804E+01 -0.62126415962E+01  0.75738841147E+01  0.00000000000E+00 0.  1.
</event>
<event>
 7    1  0.3014423E-011  0.5052886E+02  0.7816164E-02  0.1300439E+00
        -11   -1    0    0    0    0  0.00000000000E+00  0.00000000000E+00  0.45593999997E+02  0.45594000000E+02  0.51100000000E-03 0.  1.
         11   -1    0    0    0    0 -0.00000000000E+00 -0.00000000000E+00 -0.45593999997E+02  0.45594000000E+02  0.51100000000E-03 0. -1.
    9900012    2    1    2    0    0  0.11575767303E+02  0.15797419819E+02 -0.35631566751E+02  0.50528863133E+02  0.30000009979E+02 0.  0.
        -12    1    1    2    0    0 -0.11575767303E+02 -0.15797419819E+02  0.35631566751E+02  0.40659136867E+02  0.00000000000E+00 0.  1.
         11    1    3    3    0    0  0.89376593894E+01  0.51506664181E+01 -0.29626708977E+02  0.31371212999E+02  0.51100000000E-03 0. -1.
        -11    1    3    3    0    0 -0.14246606535E+01 -0.34459190348E+00 -0.72286340356E+01  0.73757407654E+01  0.51100000000E-03 0.  1.
         12    1    3    3    0    0  0.40627685671E+01  0.10991345305E+02  0.12237762617E+01  0.11781909369E+02  0.00000000000E+00 0. -1.
</event>
<event>
 7    1  0.3014423E-011  0.5052886E+02  0.7816164E-02  0.1300439E+00
        -11   -1    0    0    0    0  0.00000000000E+00  0.00000000000E+00  0.45593999997E+02  0.45594000000E+02  0.51100000000E-03 0.  1.
         11   -1    0    0    0    0 -0.00000000000E+00 -0.00000000000E+00 -0.45593999997E+02  0.45594000000E+02  0.51100000000E-03 0. -1.
    9900012    2    1    2    0    0 -0.18230855704E+02 -0.24516847522E+02 -0.26827704746E+02  0.50528860141E+02  0.30000000886E+02 0.  0.
        -12    1    1    2    0    0  0.18230855704E+02  0.24516847522E+02  0.26827704746E+02  0.40659139859E+02  0.00000000000E+00 0.  1.
         11    1    3    3    0    0 -0.76413542537E+01 -0.14389975050E+02 -0.74376250577E+00  0.16309961977E+02  0.51100000000E-03 0. -1.
        -11    1    3    3    0    0 -0.12218433761E+01 -0.74118542207E+01 -0.13510357412E+01  0.76324165281E+01  0.51100000000E-03 0.  1.
        -12    1    3    3    0    0 -0.93676580745E+01 -0.27150182513E+01 -0.24732906499E+02  0.26586481636E+02  0.00000000000E+00 0.  1.
</event>
<event>
 7    1  0.3014423E-011  0.5052888E+02  0.7816164E-02  0.1300439E+00
        -11   -1    0    0    0    0  0.00000000000E+00  0.00000000000E+00  0.45593999997E+02  0.45594000000E+02  0.51100000000E-03 0.  1.
         11   -1    0    0    0    0 -0.00000000000E+00 -0.00000000000E+00 -0.45593999997E+02  0.45594000000E+02  0.51100000000E-03 0. -1.
    9900012    2    1    2    0    0 -0.33743031570E+02 -0.18126886159E+02 -0.13637744567E+02  0.50528877307E+02  0.30000053062E+02 0.  0.
        -12    1    1    2    0    0  0.33743031570E+02  0.18126886159E+02  0.13637744567E+02  0.40659122693E+02  0.00000000000E+00 0.  1.
         11    1    3    3    0    0 -0.17823124371E+02 -0.84846714822E+01 -0.12084479692E+02  0.23144935995E+02  0.51100000000E-03 0. -1.
        -11    1    3    3    0    0 -0.56720123068E+01 -0.24200149207E+01 -0.10364416283E+02  0.12060237185E+02  0.51100000000E-03 0.  1.
        -12    1    3    3    0    0 -0.10247894891E+02 -0.72221997559E+01  0.88111514082E+01  0.15323704127E+02  0.00000000000E+00 0.  1.
</event>
<event>
 7    1  0.3014423E-011  0.5052886E+02  0.7816164E-02  0.1300439E+00
        -11   -1    0    0    0    0  0.00000000000E+00  0.00000000000E+00  0.45593999997E+02  0.45594000000E+02  0.51100000000E-03 0.  1.
         11   -1    0    0    0    0 -0.00000000000E+00 -0.00000000000E+00 -0.45593999997E+02  0.45594000000E+02  0.51100000000E-03 0. -1.
    9900012    2    1    2    0    0  0.12032024191E+02 -0.37409322506E+02  0.10437380069E+02  0.50528856880E+02  0.29999990974E+02 0.  0.
        -12    1    1    2    0    0 -0.12032024191E+02  0.37409322506E+02 -0.10437380069E+02  0.40659143120E+02  0.00000000000E+00 0.  1.
         11    1    3    3    0    0 -0.25988531498E+01 -0.48950328063E+00  0.97645965213E+00  0.28190645380E+01  0.51100000000E-03 0. -1.
        -11    1    3    3    0    0 -0.66704917175E+01 -0.47893542402E+01  0.15881524335E+01  0.83639465687E+01  0.51100000000E-03 0.  1.
         12    1    3    3    0    0  0.21301369058E+02 -0.32130464985E+02  0.78727679832E+01  0.39345845774E+02  0.00000000000E+00 0. -1.
</event>
<event>
 7    1  0.3014423E-011  0.5052886E+02  0.7816164E-02  0.1300439E+00
        -11   -1    0    0    0    0  0.00000000000E+00  0.00000000000E+00  0.45593999997E+02  0.45594000000E+02  0.51100000000E-03 0.  1.
         11   -1    0    0    0    0 -0.00000000000E+00 -0.00000000000E+00 -0.45593999997E+02  0.45594000000E+02  0.51100000000E-03 0. -1.
    9900012    2    1    2    0    0 -0.96317323752E+01  0.37097658408E+02 -0.13570526984E+02  0.50528859201E+02  0.29999998027E+02 0.  0.
        -12    1    1    2    0    0  0.96317323752E+01 -0.37097658408E+02  0.13570526984E+02  0.40659140799E+02  0.00000000000E+00 0.  1.
         11    1    3    3    0    0 -0.80333505830E+00  0.64671266407E+01 -0.94417387188E+01  0.11472380071E+02  0.51100000000E-03 0. -1.
        -11    1    3    3    0    0  0.58608305112E+01  0.25803212713E+01 -0.36879445595E+01  0.73897447506E+01  0.51100000000E-03 0.  1.
        -12    1    3    3    0    0 -0.14689227828E+02  0.28050210496E+02 -0.44084370600E+00  0.31666734379E+02  0.00000000000E+00 0.  1.
</event>
<event>
 7    1  0.3014423E-011  0.5052886E+02  0.7816164E-02  0.1300439E+00
        -11   -1    0    0    0    0  0.00000000000E+00  0.00000000000E+00  0.45593999997E+02  0.45594000000E+02  0.51100000000E-03 0. -1.
         11   -1    0    0    0    0 -0.00000000000E+00 -0.00000000000E+00 -0.45593999997E+02  0.45594000000E+02  0.51100000000E-03 0.  1.
    9900012    2    1    2    0    0  0.26832075195E+02 -0.83701596410E+01  0.29379344917E+02  0.50528859091E+02  0.29999997694E+02 0.  0.
        -12    1    1    2    0    0 -0.26832075195E+02  0.83701596410E+01 -0.29379344917E+02  0.40659140909E+02  0.00000000000E+00 0.  1.
         11    1    3    3    0    0  0.14350963663E+02 -0.64723677604E+01  0.11621796307E+02  0.19568031382E+02  0.51100000000E-03 0. -1.
        -11    1    3    3    0    0 -0.16804921376E+01  0.69867622785E+01  0.10528174007E+02  0.12746817216E+02  0.51100000000E-03 0.  1.
         12    1    3    3    0    0  0.14161603670E+02 -0.88845541591E+01  0.72293746025E+01  0.18214010493E+02  0.00000000000E+00 0. -1.
</event>
<event>
 7    1  0.3014423E-011  0.5052886E+02  0.7816164E-02  0.1300439E+00
        -11   -1    0    0    0    0  0.00000000000E+00  0.00000000000E+00  0.45593999997E+02  0.45594000000E+02  0.51100000000E-03 0.  1.
         11   -1    0    0    0    0 -0.00000000000E+00 -0.00000000000E+00 -0.45593999997E+02  0.45594000000E+02  0.51100000000E-03 0. -1.
    9900012    2    1    2    0    0  0.13596132451E+02 -0.74564618009E+01 -0.37586057392E+02  0.50528863874E+02  0.30000012233E+02 0.  0.
        -12    1    1    2    0    0 -0.13596132451E+02  0.74564618009E+01  0.37586057392E+02  0.40659136126E+02  0.00000000000E+00 0.  1.
         11    1    3    3    0    0  0.84152817507E+01 -0.92875217262E+00 -0.17710297931E+02  0.19629931243E+02  0.51100000000E-03 0. -1.
        -11    1    3    3    0    0  0.11362844239E+02  0.33524739772E+01 -0.11789495334E+02  0.16713632503E+02  0.51100000000E-03 0.  1.
        -12    1    3    3    0    0 -0.61819935386E+01 -0.98801836055E+01 -0.80862641270E+01  0.14185300128E+02  0.00000000000E+00 0.  1.
</event>
<event>
 7    1  0.3014423E-011  0.5052885E+02  0.7816164E-02  0.1300439E+00
        -11   -1    0    0    0    0  0.00000000000E+00  0.00000000000E+00  0.45593999997E+02  0.45594000000E+02  0.51100000000E-03 0.  1.
         11   -1    0    0    0    0 -0.00000000000E+00 -0.00000000000E+00 -0.45593999997E+02  0.45594000000E+02  0.51100000000E-03 0. -1.
    9900012    2    1    2    0    0  0.30167859349E+02 -0.25968952515E+02  0.82873788271E+01  0.50528845062E+02  0.29999955051E+02 0.  0.
        -12    1    1    2    0    0 -0.30167859349E+02  0.25968952515E+02 -0.82873788271E+01  0.40659154938E+02  0.00000000000E+00 0.  1.
         11    1    3    3    0    0  0.45639200429E+01 -0.15262449561E+02 -0.47425615559E+01  0.16621179956E+02  0.51100000000E-03 0. -1.
        -11    1    3    3    0    0 -0.17659356070E+01 -0.97854750437E+00  0.19852814999E+01  0.28315060800E+01  0.51100000000E-03 0.  1.
        -12    1    3    3    0    0  0.27369874913E+02 -0.97279554503E+01  0.11044658883E+02  0.31076159026E+02  0.00000000000E+00 0.  1.
</event>
<event>
 7    1  0.3014423E-011  0.5052887E+02  0.7816164E-02  0.1300439E+00
        -11   -1    0    0    0    0  0.00000000000E+00  0.00000000000E+00  0.45593999997E+02  0.45594000000E+02  0.51100000000E-03 0. -1.
         11   -1    0    0    0    0 -0.00000000000E+00 -0.00000000000E+00 -0.45593999997E+02  0.45594000000E+02  0.51100000000E-03 0.  1.
    9900012    2    1    2    0    0  0.23163213978E+02  0.26221984682E+02 -0.20713239515E+02  0.50528865064E+02  0.30000015850E+02 0.  0.
        -12    1    1    2    0    0 -0.23163213978E+02 -0.26221984682E+02  0.20713239515E+02  0.40659134936E+02  0.00000000000E+00 0.  1.
         11    1    3    3    0    0  0.11445023037E+02 -0.24534611100E+01 -0.41358995449E+01  0.12414253463E+02  0.51100000000E-03 0. -1.
        -11    1    3    3    0    0  0.91906528413E+00 -0.10528051200E+01 -0.37171317503E+01  0.39711646059E+01  0.51100000000E-03 0.  1.
         12    1    3    3    0    0  0.10799125657E+02  0.29728250912E+02 -0.12860208220E+02  0.34143446995E+02  0.00000000000E+00 0. -1.
</event>
<event>
 7    1  0.3014423E-011  0.5052889E+02  0.7816164E-02  0.1300439E+00
        -11   -1    0    0    0    0  0.00000000000E+00  0.00000000000E+00  0.45593999997E+02  0.45594000000E+02  0.51100000000E-03 0.  1.
         11   -1    0    0    0    0 -0.00000000000E+00 -0.00000000000E+00 -0.45593999997E+02  0.45594000000E+02  0.51100000000E-03 0. -1.
    9900012    2    1    2    0    0 -0.34718147682E+02 -0.12469326956E+02 -0.17097637597E+02  0.50528891493E+02  0.30000096182E+02 0.  0.
        -12    1    1    2    0    0  0.34718147682E+02  0.12469326956E+02  0.17097637597E+02  0.40659108507E+02  0.00000000000E+00 0.  1.
         11    1    3    3    0    0 -0.16513067311E+02 -0.10076584278E+02 -0.61333292759E+01  0.20293759410E+02  0.51100000000E-03 0. -1.
        -11    1    3    3    0    0 -0.60745993468E+01  0.59165421719E+01  0.38943469224E+01  0.93312467929E+01  0.51100000000E-03 0.  1.
         12    1    3    3    0    0 -0.12130481024E+02 -0.83092848501E+01 -0.14858655243E+02  0.20903885291E+02  0.00000000000E+00 0. -1.
</event>
<event>
 7    1  0.3014423E-011  0.5052885E+02  0.7816164E-02  0.1300439E+00
        -11   -1    0    0    0    0  0.00000000000E+00  0.00000000000E+00  0.45593999997E+02  0.45594000000E+02  0.51100000000E-03 0. -1.
         11   -1    0    0    0    0 -0.00000000000E+00 -0.00000000000E+00 -0.45593999997E+02  0.45594000000E+02  0.51100000000E-03 0.  1.
    9900012    2    1    2    0    0 -0.28092914066E+02 -0.26615450007E+02  0.12472875061E+02  0.50528848360E+02  0.29999965075E+02 0.  0.
        -12    1    1    2    0    0  0.28092914066E+02  0.26615450007E+02 -0.12472875061E+02  0.40659151640E+02  0.00000000000E+00 0.  1.
         11    1    3    3    0    0 -0.84335802358E+01 -0.63715064304E+01  0.94283706190E+01  0.14163881621E+02  0.51100000000E-03 0. -1.
        -11    1    3    3    0    0 -0.24041197722E+02 -0.20838298912E+02  0.26721347318E+01  0.31927326755E+02  0.51100000000E-03 0.  1.
        -12    1    3    3    0    0  0.43818638913E+01  0.59435533540E+00  0.37236971005E+00  0.44376399840E+01  0.00000000000E+00 0.  1.
</event>
<event>
 7    1  0.3014423E-011  0.5052887E+02  0.7816164E-02  0.1300439E+00
        -11   -1    0    0    0    0  0.00000000000E+00  0.00000000000E+00  0.45593999997E+02  0.45594000000E+02  0.51100000000E-03 0.  1.
         11   -1    0    0    0    0 -0.00000000000E+00 -0.00000000000E+00 -0.45593999997E+02  0.45594000000E+02  0.51100000000E-03 0. -1.
    9900012    2    1    2    0    0 -0.33894033947E+01  0.35926728894E+02 -0.18733582676E+02  0.50528867886E+02  0.30000024425E+02 0.  0.
        -12    1    1    2    0    0  0.33894033947E+01 -0.35926728894E+02  0.18733582676E+02  0.40659132114E+02  0.00000000000E+00 0.  1.
         11    1    3    3    0    0 -0.45967234973E+01  0.92274567053E+01 -0.26980131068E+01  0.10656223494E+02  0.51100000000E-03 0. -1.
        -11    1    3    3    0    0  0.64608314365E+00 -0.25362062523E+01 -0.95754355794E+01  0.99266677380E+01  0.51100000000E-03 0.  1.
         12    1    3    3    0    0  0.56123695889E+00  0.29235478441E+02 -0.64601339902E+01  0.29945976654E+02  0.00000000000E+00 0. -1.
</event>
<event>
 7    1  0.3014423E-011  0.5052885E+02  0.7816164E-02  0.1300439E+00
        -11   -1    0    0    0    0  0.00000000000E+00  0.00000000000E+00  0.45593999997E+02  0.45594000000E+02  0.51100000000E-03 0. -1.
         11   -1    0    0    0    0 -0.00000000000E+00 -0.00000000000E+00 -0.45593999997E+02  0.45594000000E+02  0.51100000000E-03 0.  1.
    9900012    2    1    2    0    0 -0.37011314350E+02 -0.86848422226E+01  0.14418821692E+02  0.50528852279E+02  0.29999976988E+02 0.  0.
        -12    1    1    2    0    0  0.37011314350E+02  0.86848422226E+01 -0.14418821692E+02  0.40659147721E+02  0.00000000000E+00 0.  1.
         11    1    3    3    0    0 -0.12789447117E+02  0.99527045901E+00  0.57832087720E-01  0.12828244840E+02  0.51100000000E-03 0. -1.
        -11    1    3    3    0    0 -0.27091999271E+02 -0.13269272728E+02  0.11485428892E+02  0.32279484202E+02  0.51100000000E-03 0.  1.
        -12    1    3    3    0    0  0.28701320377E+01  0.35891600465E+01  0.28755607124E+01  0.54211232383E+01  0.00000000000E+00 0.  1.
</event>
<event>
 7    1  0.3014423E-011  0.5052884E+02  0.7816164E-02  0.1300439E+00
        -11   -1    0    0    0    0  0.00000000000E+00  0.00000000000E+00  0.45593999997E+02  0.45594000000E+02  0.51100000000E-03 0.  1.
         11   -1    0    0    0    0 -0.00000000000E+00 -0.00000000000E+00 -0.45593999997E+02  0.45594000000E+02  0.51100000000E-03 0. -1.
    9900012    2    1    2    0    0  0.26222463732E+00  0.36154828807E+02 -0.18599108218E+02  0.50528840709E+02  0.29999941818E+02 0.  0.
        -12    1    1    2    0    0 -0.26222463732E+00 -0.36154828807E+02  0.18599108218E+02  0.40659159291E+02  0.00000000000E+00 0.  1.
         11    1    3    3    0    0  0.23836033582E+01  0.11370068862E+02 -0.16227710983E+02  0.19957420547E+02  0.51100000000E-03 0. -1.
        -11    1    3    3    0    0 -0.14904709767E+01  0.10269699783E+01 -0.62357529812E+01  0.64931338021E+01  0.51100000000E-03 0.  1.
        -12    1    3    3    0    0 -0.63090774414E+00  0.23757789967E+02  0.38643557460E+01  0.24078286359E+02  0.00000000000E+00 0.  1.
</event>
<event>
 7    1  0.3014423E-011  0.5052884E+02  0.7816164E-02  0.1300439E+00
        -11   -1    0    0    0    0  0.00000000000E+00  0.00000000000E+00  0.45593999997E+02  0.45594000000E+02  0.51100000000E-03 0.  1.
         11   -1    0    0    0    0 -0.00000000000E+00 -0.00000000000E+00 -0.45593999997E+02  0.45594000000E+02  0.51100000000E-03 0. -1.
    9900012    2    1    2    0    0  0.25033825965E+02 -0.26359450199E+02 -0.18211365905E+02  0.50528844753E+02  0.29999954111E+02 0.  0.
        -12    1    1    2    0    0 -0.25033825965E+02  0.26359450199E+02  0.18211365905E+02  0.40659155247E+02  0.00000000000E+00 0.  1.
         11    1    3    3    0    0  0.11151917989E+02 -0.17950624447E+02 -0.14599300906E+02  0.25685205471E+02  0.51100000000E-03 0. -1.
        -11    1    3    3    0    0  0.15619545716E+02 -0.11096280927E+02 -0.67959346843E+01  0.20329347931E+02  0.51100000000E-03 0.  1.
        -12    1    3    3    0    0 -0.17376377396E+01  0.26874551748E+01  0.31838696858E+01  0.45142913516E+01  0.00000000000E+00 0.  1.
</event>
<event>
 7    1  0.3014423E-011  0.5052886E+02  0.7816164E-02  0.1300439E+00
        -11   -1    0    0    0    0  0.00000000000E+00  0.00000000000E+00  0.45593999997E+02  0.45594000000E+02  0.51100000000E-03 0.  1.
         11   -1    0    0    0    0 -0.00000000000E+00 -0.00000000000E+00 -0.45593999997E+02  0.45594000000E+02  0.51100000000E-03 0. -1.
    9900012    2    1    2    0    0 -0.24941081795E+02 -0.25701171472E+02 -0.19249878880E+02  0.50528860645E+02  0.30000002418E+02 0.  0.
        -12    1    1    2    0    0  0.24941081795E+02  0.25701171472E+02  0.19249878880E+02  0.40659139355E+02  0.00000000000E+00 0.  1.
         11    1    3    3    0    0 -0.21946230038E+01 -0.65020278190E+00  0.39428201837E+01  0.45590530868E+01  0.51100000000E-03 0. -1.
        -11    1    3    3    0    0 -0.68641678495E+00 -0.58832194480E+01  0.30765697370E+01  0.66744828027E+01  0.51100000000E-03 0.  1.
         12    1    3    3    0    0 -0.22060042007E+02 -0.19167749242E+02 -0.26269268801E+02  0.39295324756E+02  0.00000000000E+00 0. -1.
</event>
<event>
 7    1  0.3014423E-011  0.5052886E+02  0.7816164E-02  0.1300439E+00
        -11   -1    0    0    0    0  0.00000000000E+00  0.00000000000E+00  0.45593999997E+02  0.45594000000E+02  0.51100000000E-03 0.  1.
         11   -1    0    0    0    0 -0.00000000000E+00 -0.00000000000E+00 -0.45593999997E+02  0.45594000000E+02  0.51100000000E-03 0. -1.
    9900012    2    1    2    0    0  0.13835223398E+02  0.22299953480E+02 -0.31055831674E+02  0.50528855732E+02  0.29999987482E+02 0.  0.
        -12    1    1    2    0    0 -0.13835223398E+02 -0.22299953480E+02  0.31055831674E+02  0.40659144268E+02  0.00000000000E+00 0.  1.
         11    1    3    3    0    0  0.35652274662E+01  0.16342831571E+02 -0.16604734897E+02  0.23569391420E+02  0.51100000000E-03 0. -1.
        -11    1    3    3    0    0 -0.31661411258E+00  0.10361966331E+02 -0.30893370474E+01  0.10817328432E+02  0.51100000000E-03 0.  1.
         12    1    3    3    0    0  0.10586610044E+02 -0.44048444223E+01 -0.11361759729E+02  0.16142135880E+02  0.00000000000E+00 0. -1.
</event>
<event>
 7    1  0.3014423E-011  0.5052885E+02  0.7816164E-02  0.1300439E+00
        -11   -1    0    0    0    0  0.00000000000E+00  0.00000000000E+00  0.45593999997E+02  0.45594000000E+02  0.51100000000E-03 0.  1.
         11   -1    0    0    0    0 -0.00000000000E+00 -0.00000000000E+00 -0.45593999997E+02  0.45594000000E+02  0.51100000000E-03 0. -1.
    9900012    2    1    2    0    0  0.12761117010E+02  0.16628550719E+02 -0.34839795493E+02  0.50528853964E+02  0.29999982110E+02 0.  0.
        -12    1    1    2    0    0 -0.12761117010E+02 -0.16628550719E+02  0.34839795493E+02  0.40659146036E+02  0.00000000000E+00 0.  1.
         11    1    3    3    0    0 -0.17446076705E+01  0.52313118839E+00 -0.27652230026E+01  0.33111600202E+01  0.51100000000E-03 0. -1.
        -11    1    3    3    0    0  0.52912468880E+00 -0.35200940429E+00  0.46084274117E+01  0.46520411678E+01  0.51100000000E-03 0.  1.
         12    1    3    3    0    0  0.13976599992E+02  0.16457428935E+02 -0.36682999902E+02  0.42565652776E+02  0.00000000000E+00 0. -1.
</event>
<event>
 7    1  0.3014423E-011  0.5052886E+02  0.7816164E-02  0.1300439E+00
        -11   -1    0    0    0    0  0.00000000000E+00  0.00000000000E+00  0.45593999997E+02  0.45594000000E+02  0.51100000000E-03 0.  1.
         11   -1    0    0    0    0 -0.00000000000E+00 -0.00000000000E+00 -0.45593999997E+02  0.45594000000E+02  0.51100000000E-03 0. -1.
    9900012    2    1    2    0    0 -0.84908448602E+01 -0.33747519610E+02 -0.21027993702E+02  0.50528855328E+02  0.29999986256E+02 0.  0.
        -12    1    1    2    0    0  0.84908448602E+01  0.33747519610E+02  0.21027993702E+02  0.40659144672E+02  0.00000000000E+00 0.  1.
         11    1    3    3    0    0  0.22971810562E+01 -0.17207773267E+01  0.45225442207E+01  0.53564467609E+01  0.51100000000E-03 0. -1.
        -11    1    3    3    0    0  0.44787246827E+00  0.14142763536E+01  0.19859041720E+00  0.14967316951E+01  0.51100000000E-03 0.  1.
         12    1    3    3    0    0 -0.11235898385E+02 -0.33441018637E+02 -0.25749128340E+02  0.43675676872E+02  0.00000000000E+00 0. -1.
</event>
<event>
 7    1  0.3014423E-011  0.5052886E+02  0.7816164E-02  0.1300439E+00
        -11   -1    0    0    0    0  0.00000000000E+00  0.00000000000E+00  0.45593999997E+02  0.45594000000E+02  0.51100000000E-03 0.  1.
         11   -1    0    0    0    0 -0.00000000000E+00 -0.00000000000E+00 -0.45593999997E+02  0.45594000000E+02  0.51100000000E-03 0. -1.
    9900012    2    1    2    0    0  0.17516864755E+02 -0.11707623794E+02 -0.34774368698E+02  0.50528859280E+02  0.29999998267E+02 0.  0.
        -12    1    1    2    0    0 -0.17516864755E+02  0.11707623794E+02  0.34774368698E+02  0.40659140720E+02  0.00000000000E+00 0.  1.
         11    1    3    3    0    0  0.65032077147E+01 -0.19222530940E+02 -0.23611038774E+02  0.31133238806E+02  0.51100000000E-03 0. -1.
        -11    1    3    3    0    0  0.70605925013E+01 -0.86138720136E-01 -0.34130510770E+01  0.78427230134E+01  0.51100000000E-03 0.  1.
        -12    1    3    3    0    0  0.39530645393E+01  0.76010458663E+01 -0.77502788473E+01  0.11552897460E+02  0.00000000000E+00 0.  1.
</event>
<event>
 7    1  0.3014423E-011  0.5052887E+02  0.7816164E-02  0.1300439E+00
        -11   -1    0    0    0    0  0.00000000000E+00  0.00000000000E+00  0.45593999997E+02  0.45594000000E+02  0.51100000000E-03 0.  1.
         11   -1    0    0    0    0 -0.00000000000E+00 -0.00000000000E+00 -0.45593999997E+02  0.45594000000E+02  0.51100000000E-03 0. -1.
    9900012    2    1    2    0    0 -0.95465850624E+01 -0.39171855549E+02 -0.52529050532E+01  0.50528873534E+02  0.30000041594E+02 0.  0.
        -12    1    1    2    0    0  0.95465850624E+01  0.39171855549E+02  0.52529050532E+01  0.40659126466E+02  0.00000000000E+00 0.  1.
         11    1    3    3    0    0 -0.12671817156E+01 -0.13087954589E+01 -0.56791417998E+01  0.59641719373E+01  0.51100000000E-03 0. -1.
        -11    1    3    3    0    0 -0.75253064873E+01 -0.20801010414E+01 -0.35057408206E+01  0.85584623054E+01  0.51100000000E-03 0.  1.
        -12    1    3    3    0    0 -0.75409685951E+00 -0.35782959048E+02  0.39319775672E+01  0.36006239291E+02  0.00000000000E+00 0.  1.
</event>
<event>
 7    1  0.3014423E-011  0.5052886E+02  0.7816164E-02  0.1300439E+00
        -11   -1    0    0    0    0  0.00000000000E+00  0.00000000000E+00  0.45593999997E+02  0.45594000000E+02  0.51100000000E-03 0. -1.
         11   -1    0    0    0    0 -0.00000000000E+00 -0.00000000000E+00 -0.45593999997E+02  0.45594000000E+02  0.51100000000E-03 0.  1.
    9900012    2    1    2    0    0  0.35165597581E+02 -0.20224283989E+02  0.27431402337E+01  0.50528859152E+02  0.29999997879E+02 0.  0.
        -12    1    1    2    0    0 -0.35165597581E+02  0.20224283989E+02 -0.27431402337E+01  0.40659140848E+02  0.00000000000E+00 0.  1.
         11    1    3    3    0    0  0.14551934705E+02  0.21962594446E+01 -0.12411662549E+01  0.14768982806E+02  0.51100000000E-03 0. -1.
        -11    1    3    3    0    0 -0.67831047769E+00  0.12643313918E+01 -0.28460500384E+01  0.31872621566E+01  0.51100000000E-03 0.  1.
        -12    1    3    3    0    0  0.21291973354E+02 -0.23684874826E+02  0.68303565270E+01  0.32572614189E+02  0.00000000000E+00 0.  1.
</event>
<event>
 7    1  0.3268246E-011  0.5052886E+02  0.7816164E-02  0.1300439E+00
        -11   -1    0    0    0    0  0.00000000000E+00  0.00000000000E+00  0.45593999997E+02  0.45594000000E+02  0.51100000000E-03 0. -1.
         11   -1    0    0    0    0 -0.00000000000E+00 -0.00000000000E+00 -0.45593999997E+02  0.45594000000E+02  0.51100000000E-03 0.  1.
    9900012    2    1    2    0    0 -0.38667954082E+02  0.71887150665E+01  0.10309074107E+02  0.50528864420E+02  0.30000013890E+02 0.  0.
        -12    1    1    2    0    0  0.38667954082E+02 -0.71887150665E+01 -0.10309074107E+02  0.40659135580E+02  0.00000000000E+00 0.  1.
         11    1    3    3    0    0 -0.11258746119E+02  0.10613404325E+02  0.91395209557E+01  0.17970380049E+02  0.51100000000E-03 0. -1.
        -11    1    3    3    0    0 -0.36072240656E+00  0.22235910344E+01 -0.38631711061E+01  0.44719759613E+01  0.51100000000E-03 0.  1.
         12    1    3    3    0    0 -0.27048485557E+02 -0.56482802929E+01  0.50327242569E+01  0.28086508409E+02  0.00000000000E+00 0. -1.
</event>
<event>
 7    1  0.3014423E-011  0.5052887E+02  0.7816164E-02  0.1300439E+00
        -11   -1    0    0    0    0  0.00000000000E+00  0.00000000000E+00  0.45593999997E+02  0.45594000000E+02  0.51100000000E-03 0.  1.
         11   -1    0    0    0    0 -0.00000000000E+00 -0.00000000000E+00 -0.45593999997E+02  0.45594000000E+02  0.51100000000E-03 0. -1.
    9900012    2    1    2    0    0 -0.24714846469E+02 -0.65514973740E+01 -0.31613593003E+02  0.50528867983E+02  0.30000024722E+02 0.  0.
        -12    1    1    2    0    0  0.24714846469E+02  0.65514973740E+01  0.31613593003E+02  0.40659132017E+02  0.00000000000E+00 0.  1.
         11    1    3    3    0    0 -0.79888108743E+01  0.12569573660E+01 -0.18960312625E+02  0.20612969124E+02  0.51100000000E-03 0. -1.
        -11    1    3    3    0    0 -0.97566563676E+01  0.57692993360E+01 -0.82888253575E+01  0.14042143155E+02  0.51100000000E-03 0.  1.
        -12    1    3    3    0    0 -0.69693792267E+01 -0.13577754076E+02 -0.43644550203E+01  0.15873755705E+02  0.00000000000E+00 0.  1.
</event>
<event>
 7    1  0.3014423E-011  0.5052892E+02  0.7816164E-02  0.1300439E+00
        -11   -1    0    0    0    0  0.00000000000E+00  0.00000000000E+00  0.45593999997E+02  0.45594000000E+02  0.51100000000E-03 0.  1.
         11   -1    0    0    0    0 -0.00000000000E+00 -0.00000000000E+00 -0.45593999997E+02  0.45594000000E+02  0.51100000000E-03 0. -1.
    9900012    2    1    2    0    0  0.14549606109E+02 -0.81019076129E+01 -0.37092171540E+02  0.50528915721E+02  0.30000169824E+02 0.  0.
        -12    1    1    2    0    0 -0.14549606109E+02  0.81019076129E+01  0.37092171540E+02  0.40659084279E+02  0.00000000000E+00 0.  1.
         11    1    3    3    0    0 -0.18851700642E+01  0.80031418381E-01  0.28477523989E+00  0.19082369867E+01  0.51100000000E-03 0. -1.
        -11    1    3    3    0    0 -0.26046033090E+01 -0.11480771884E+02 -0.14159808304E+02  0.18414457715E+02  0.51100000000E-03 0.  1.
         12    1    3    3    0    0  0.19039379483E+02  0.32988328531E+01 -0.23217138475E+02  0.30206221019E+02  0.00000000000E+00 0. -1.
</event>
<event>
 7    1  0.3014423E-011  0.5052886E+02  0.7816164E-02  0.1300439E+00
        -11   -1    0    0    0    0  0.00000000000E+00  0.00000000000E+00  0.45593999997E+02  0.45594000000E+02  0.51100000000E-03 0. -1.
         11   -1    0    0    0    0 -0.00000000000E+00 -0.00000000000E+00 -0.45593999997E+02  0.45594000000E+02  0.51100000000E-03 0.  1.
    9900012    2    1    2    0    0  0.33342011713E+01  0.82221185466E+01  0.39679280339E+02  0.50528863031E+02  0.30000009669E+02 0.  0.
        -12    1    1    2    0    0 -0.33342011713E+01 -0.82221185466E+01 -0.39679280339E+02  0.40659136969E+02  0.00000000000E+00 0.  1.
         11    1    3    3    0    0 -0.12318522156E+01  0.55608728201E+01  0.26374288609E+02  0.26982288011E+02  0.51100000000E-03 0. -1.
        -11    1    3    3    0    0  0.55124440981E+01 -0.69853344816E+01  0.98057229748E+01  0.13241379878E+02  0.51100000000E-03 0.  1.
        -12    1    3    3    0    0 -0.94639071120E+00  0.96465802080E+01  0.34992687548E+01  0.10305195142E+02  0.00000000000E+00 0.  1.
</event>
<event>
 7    1  0.3014423E-011  0.5052887E+02  0.7816164E-02  0.1300439E+00
        -11   -1    0    0    0    0  0.00000000000E+00  0.00000000000E+00  0.45593999997E+02  0.45594000000E+02  0.51100000000E-03 0.  1.
         11   -1    0    0    0    0 -0.00000000000E+00 -0.00000000000E+00 -0.45593999997E+02  0.45594000000E+02  0.51100000000E-03 0. -1.
    9900012    2    1    2    0    0  0.67103912342E+01  0.79782611359E+01 -0.39299913378E+02  0.50528865813E+02  0.30000018126E+02 0.  0.
        -12    1    1    2    0    0 -0.67103912342E+01 -0.79782611359E+01  0.39299913378E+02  0.40659134187E+02  0.00000000000E+00 0.  1.
         11    1    3    3    0    0  0.20763543541E+01  0.30388150548E+01 -0.25589503790E+02  0.25852820906E+02  0.51100000000E-03 0. -1.
        -11    1    3    3    0    0 -0.53942169736E+01 -0.89825629660E+00 -0.11679071427E+02  0.12895935437E+02  0.51100000000E-03 0.  1.
        -12    1    3    3    0    0  0.10028253854E+02  0.58377023778E+01 -0.20313381615E+01  0.11780109470E+02  0.00000000000E+00 0.  1.
</event>
<event>
 7    1  0.3014423E-011  0.5052885E+02  0.7816164E-02  0.1300439E+00
        -11   -1    0    0    0    0  0.00000000000E+00  0.00000000000E+00  0.45593999997E+02  0.45594000000E+02  0.51100000000E-03 0.  1.
         11   -1    0    0    0    0 -0.00000000000E+00 -0.00000000000E+00 -0.45593999997E+02  0.45594000000E+02  0.51100000000E-03 0. -1.
    9900012    2    1    2    0    0  0.37268929574E+01  0.33896614679E+01 -0.40345838588E+02  0.50528853091E+02  0.29999979456E+02 0.  0.
        -12    1    1    2    0    0 -0.37268929574E+01 -0.33896614679E+01  0.40345838588E+02  0.40659146909E+02  0.00000000000E+00 0.  1.
         11    1    3    3    0    0  0.47254777890E+01 -0.11926051083E+01  0.14841054274E+01  0.50946066049E+01  0.51100000000E-03 0. -1.
        -11    1    3    3    0    0  0.53359728491E+01  0.52736629373E+01 -0.78365372060E+01  0.10848753047E+02  0.51100000000E-03 0.  1.
         12    1    3    3    0    0 -0.63345576807E+01 -0.69139636110E+00 -0.33993406810E+02  0.34585493440E+02  0.00000000000E+00 0. -1.
</event>
<event>
 7    1  0.3014423E-011  0.5052886E+02  0.7816164E-02  0.1300439E+00
        -11   -1    0    0    0    0  0.00000000000E+00  0.00000000000E+00  0.45593999997E+02  0.45594000000E+02  0.51100000000E-03 0.  1.
         11   -1    0    0    0    0 -0.00000000000E+00 -0.00000000000E+00 -0.45593999997E+02  0.45594000000E+02  0.51100000000E-03 0. -1.
    9900012    2    1    2    0    0  0.17250847678E+02  0.40773935162E+01 -0.36591646242E+02  0.50528862550E+02  0.30000008206E+02 0.  0.
        -12    1    1    2    0    0 -0.17250847678E+02 -0.40773935162E+01  0.36591646242E+02  0.40659137450E+02  0.00000000000E+00 0.  1.
         11    1    3    3    0    0  0.55340378023E+01 -0.10370959473E+01 -0.20974742033E+02  0.21717296011E+02  0.51100000000E-03 0. -1.
        -11    1    3    3    0    0 -0.66600776403E+00 -0.17314181515E+00  0.45286667737E+01  0.45806514207E+01  0.51100000000E-03 0.  1.
         12    1    3    3    0    0  0.12382817640E+02  0.52876312787E+01 -0.20145570983E+02  0.24230915118E+02  0.00000000000E+00 0. -1.
</event>
<event>
 7    1  0.3014423E-011  0.5052886E+02  0.7816164E-02  0.1300439E+00
        -11   -1    0    0    0    0  0.00000000000E+00  0.00000000000E+00  0.45593999997E+02  0.45594000000E+02  0.51100000000E-03 0.  1.
         11   -1    0    0    0    0 -0.00000000000E+00 -0.00000000000E+00 -0.45593999997E+02  0.45594000000E+02  0.51100000000E-03 0. -1.
    9900012    2    1    2    0    0  0.55833330213E+01  0.21353616648E+02 -0.34146966431E+02  0.50528857510E+02  0.29999992887E+02 0.  0.
        -12    1    1    2    0    0 -0.55833330213E+01 -0.21353616648E+02  0.34146966431E+02  0.40659142490E+02  0.00000000000E+00 0.  1.
         11    1    3    3    0    0  0.66242681779E+01  0.19283319975E+01 -0.16665576731E+01  0.70976621449E+01  0.51100000000E-03 0. -1.
        -11    1    3    3    0    0  0.52286285389E+01  0.83001389286E+01 -0.28366423602E+02  0.30014743891E+02  0.51100000000E-03 0.  1.
        -12    1    3    3    0    0 -0.62695636954E+01  0.11125145722E+02 -0.41139851560E+01  0.13416451473E+02  0.00000000000E+00 0.  1.
</event>
<event>
 7    1  0.3014423E-011  0.5052886E+02  0.7816164E-02  0.1300439E+00
        -11   -1    0    0    0    0  0.00000000000E+00  0.00000000000E+00  0.45593999997E+02  0.45594000000E+02  0.51100000000E-03 0.  1.
         11   -1    0    0    0    0 -0.00000000000E+00 -0.00000000000E+00 -0.45593999997E+02  0.45594000000E+02  0.51100000000E-03 0. -1.
    9900012    2    1    2    0    0  0.19873183311E+02 -0.33701001828E+02 -0.11066372920E+02  0.50528861436E+02  0.30000004821E+02 0.  0.
        -12    1    1    2    0    0 -0.19873183311E+02  0.33701001828E+02  0.11066372920E+02  0.40659138564E+02  0.00000000000E+00 0.  1.
         11    1    3    3    0    0  0.79725877502E+00 -0.35750819351E+00 -0.40580015173E+01  0.41510011128E+01  0.51100000000E-03 0. -1.
        -11    1    3    3    0    0  0.47636647013E+01 -0.84531884979E+01  0.92303044112E+01  0.13392065448E+02  0.51100000000E-03 0.  1.
         12    1    3    3    0    0  0.14312259835E+02 -0.24890305137E+02 -0.16238675814E+02  0.32985794876E+02  0.00000000000E+00 0. -1.
</event>
<event>
 7    1  0.3014423E-011  0.5052886E+02  0.7816164E-02  0.1300439E+00
        -11   -1    0    0    0    0  0.00000000000E+00  0.00000000000E+00  0.45593999997E+02  0.45594000000E+02  0.51100000000E-03 0.  1.
         11   -1    0    0    0    0 -0.00000000000E+00 -0.00000000000E+00 -0.45593999997E+02  0.45594000000E+02  0.51100000000E-03 0. -1.
    9900012    2    1    2    0    0  0.16289783528E+02  0.10868624839E+02 -0.35632593866E+02  0.50528858360E+02  0.29999995471E+02 0.  0.
        -12    1    1    2    0    0 -0.16289783528E+02 -0.10868624839E+02  0.35632593866E+02  0.40659141640E+02  0.00000000000E+00 0.  1.
         11    1    3    3    0    0  0.11168715846E+02  0.27104850388E+01 -0.30777133930E+02  0.32852989453E+02  0.51100000000E-03 0. -1.
        -11    1    3    3    0    0  0.89972121312E+01  0.88735823716E+01 -0.53119179198E+01  0.13707908757E+02  0.51100000000E-03 0.  1.
        -12    1    3    3    0    0 -0.38761444489E+01 -0.71544257127E+00  0.45645798400E+00  0.39679601501E+01  0.00000000000E+00 0.  1.
</event>
<event>
 7    1  0.3014423E-011  0.5052887E+02  0.7816164E-02  0.1300439E+00
        -11   -1    0    0    0    0  0.00000000000E+00  0.00000000000E+00  0.45593999997E+02  0.45594000000E+02  0.51100000000E-03 0. -1.
         11   -1    0    0    0    0 -0.00000000000E+00 -0.00000000000E+00 -0.45593999997E+02  0.45594000000E+02  0.51100000000E-03 0.  1.
    9900012    2    1    2    0    0  0.12318456157E+01  0.35747780195E+02  0.19332443348E+02  0.50528873124E+02  0.30000040348E+02 0.  0.
        -12    1    1    2    0    0 -0.12318456157E+01 -0.35747780195E+02 -0.19332443348E+02  0.40659126876E+02  0.00000000000E+00 0.  1.
         11    1    3    3    0    0  0.81562929002E+00  0.21310197773E+02  0.12455475697E+02  0.24696733698E+02  0.51100000000E-03 0. -1.
        -11    1    3    3    0    0 -0.46046198762E-01  0.26260768981E+01  0.12478220939E+02  0.12751642961E+02  0.51100000000E-03 0.  1.
        -12    1    3    3    0    0  0.46226252442E+00  0.11811505525E+02 -0.56012532879E+01  0.13080496466E+02  0.00000000000E+00 0.  1.
</event>
<event>
 7    1  0.3014423E-011  0.5052886E+02  0.7816164E-02  0.1300439E+00
        -11   -1    0    0    0    0  0.00000000000E+00  0.00000000000E+00  0.45593999997E+02  0.45594000000E+02  0.51100000000E-03 0.  1.
         11   -1    0    0    0    0 -0.00000000000E+00 -0.00000000000E+00 -0.45593999997E+02  0.45594000000E+02  0.51100000000E-03 0. -1.
    9900012    2    1    2    0    0 -0.19437713043E+02 -0.18301135114E+02 -0.30666098790E+02  0.50528857734E+02  0.29999993568E+02 0.  0.
        -12    1    1    2    0    0  0.19437713043E+02  0.18301135114E+02  0.30666098790E+02  0.40659142266E+02  0.00000000000E+00 0.  1.
         11    1    3    3    0    0 -0.86490925589E+01 -0.20714877578E+02 -0.21503943332E+02  0.31085889633E+02  0.51100000000E-03 0. -1.
        -11    1    3    3    0    0  0.25305495157E+01 -0.18766865463E+01 -0.18715734210E+01  0.36644809422E+01  0.51100000000E-03 0.  1.
         12    1    3    3    0    0 -0.13319170000E+02  0.42904290102E+01 -0.72905820371E+01  0.15778487159E+02  0.00000000000E+00 0. -1.
</event>
<event>
 7    1  0.3014423E-011  0.5052886E+02  0.7816164E-02  0.1300439E+00
        -11   -1    0    0    0    0  0.00000000000E+00  0.00000000000E+00  0.45593999997E+02  0.45594000000E+02  0.51100000000E-03 0.  1.
         11   -1    0    0    0    0 -0.00000000000E+00 -0.00000000000E+00 -0.45593999997E+02  0.45594000000E+02  0.51100000000E-03 0. -1.
    9900012    2    1    2    0    0  0.22887190539E+02 -0.25881588379E+02  0.21435613861E+02  0.50528860198E+02  0.30000001058E+02 0.  0.
        -12    1    1    2    0    0 -0.22887190539E+02  0.25881588379E+02 -0.21435613861E+02  0.40659139802E+02  0.00000000000E+00 0.  1.
         11    1    3    3    0    0  0.77198279054E+01 -0.13615520494E+02  0.10046828738E+02  0.18598841608E+02  0.51100000000E-03 0. -1.
        -11    1    3    3    0    0 -0.11329764028E+01 -0.10914548215E+02  0.11046214097E+02  0.15570158779E+02  0.51100000000E-03 0.  1.
         12    1    3    3    0    0  0.16300339037E+02 -0.13515196705E+01  0.34257102605E+00  0.16359859811E+02  0.00000000000E+00 0. -1.
</event>
<event>
 7    1  0.3189404E-011  0.5052887E+02  0.7816164E-02  0.1300439E+00
        -11   -1    0    0    0    0  0.00000000000E+00  0.00000000000E+00  0.45593999997E+02  0.45594000000E+02  0.51100000000E-03 0. -1.
         11   -1    0    0    0    0 -0.00000000000E+00 -0.00000000000E+00 -0.45593999997E+02  0.45594000000E+02  0.51100000000E-03 0.  1.
    9900012    2    1    2    0    0  0.49221610782E+01  0.19666251447E+02  0.35244514254E+02  0.50528869407E+02  0.30000029048E+02 0.  0.
        -12    1    1    2    0    0 -0.49221610782E+01 -0.19666251447E+02 -0.35244514254E+02  0.40659130593E+02  0.00000000000E+00 0.  1.
         11    1    3    3    0    0  0.34187901229E+01  0.18340518593E+01  0.18711284852E+02  0.19109266161E+02  0.51100000000E-03 0.  1.
        -11    1    3    3    0    0 -0.87279515383E+01  0.87747926027E+01  0.11388353870E+02  0.16818701716E+02  0.51100000000E-03 0. -1.
         12    1    3    3    0    0  0.10231322494E+02  0.90574069845E+01  0.51448755317E+01  0.14600901530E+02  0.00000000000E+00 0. -1.
</event>
<event>
 7    1  0.3014423E-011  0.5052886E+02  0.7816164E-02  0.1300439E+00
        -11   -1    0    0    0    0  0.00000000000E+00  0.00000000000E+00  0.45593999997E+02  0.45594000000E+02  0.51100000000E-03 0.  1.
         11   -1    0    0    0    0 -0.00000000000E+00 -0.00000000000E+00 -0.45593999997E+02  0.45594000000E+02  0.51100000000E-03 0. -1.
    9900012    2    1    2    0    0  0.32765993338E+02 -0.23829571134E+02  0.34215519752E+01  0.50528858373E+02  0.29999995511E+02 0.  0.
        -12    1    1    2    0    0 -0.32765993338E+02  0.23829571134E+02 -0.34215519752E+01  0.40659141627E+02  0.00000000000E+00 0.  1.
         11    1    3    3    0    0  0.31179331682E+02 -0.16410308302E+02  0.13454928641E+01  0.35259882218E+02  0.51100000000E-03 0. -1.
        -11    1    3    3    0    0  0.62341721948E+01 -0.81342760599E+01  0.33228950486E+00  0.10253865932E+02  0.51100000000E-03 0.  1.
        -12    1    3    3    0    0 -0.46475105381E+01  0.71501322752E+00  0.17437696062E+01  0.50151102238E+01  0.00000000000E+00 0.  1.
</event>
<event>
 7    1  0.3014423E-011  0.5052885E+02  0.7816164E-02  0.1300439E+00
        -11   -1    0    0    0    0  0.00000000000E+00  0.00000000000E+00  0.45593999997E+02  0.45594000000E+02  0.51100000000E-03 0.  1.
         11   -1    0    0    0    0 -0.00000000000E+00 -0.00000000000E+00 -0.45593999997E+02  0.45594000000E+02  0.51100000000E-03 0. -1.
    9900012    2    1    2    0    0 -0.33056593309E+02 -0.20003383954E+02 -0.12660662422E+02  0.50528854611E+02  0.29999984075E+02 0.  0.
        -12    1    1    2    0    0  0.33056593309E+02  0.20003383954E+02  0.12660662422E+02  0.40659145389E+02  0.00000000000E+00 0.  1.
         11    1    3    3    0    0 -0.22543905386E+02 -0.74844587801E+01 -0.41283352220E+01  0.24109913837E+02  0.51100000000E-03 0. -1.
        -11    1    3    3    0    0 -0.10982745365E+02 -0.13567764299E+02 -0.13026195886E+02  0.21780420182E+02  0.51100000000E-03 0.  1.
        -12    1    3    3    0    0  0.47005744103E+00  0.10488391250E+01  0.44938686859E+01  0.46385205911E+01  0.00000000000E+00 0.  1.
</event>
<event>
 7    1  0.3014423E-011  0.5052885E+02  0.7816164E-02  0.1300439E+00
        -11   -1    0    0    0    0  0.00000000000E+00  0.00000000000E+00  0.45593999997E+02  0.45594000000E+02  0.51100000000E-03 0.  1.
         11   -1    0    0    0    0 -0.00000000000E+00 -0.00000000000E+00 -0.45593999997E+02  0.45594000000E+02  0.51100000000E-03 0. -1.
    9900012    2    1    2    0    0 -0.15849334009E+02  0.14030050785E+02 -0.34714878709E+02  0.50528849525E+02  0.29999968616E+02 0.  0.
        -12    1    1    2    0    0  0.15849334009E+02 -0.14030050785E+02  0.34714878709E+02  0.40659150475E+02  0.00000000000E+00 0.  1.
         11    1    3    3    0    0 -0.12499468192E+02  0.16489053492E+02 -0.10321979087E+02  0.23122907315E+02  0.51100000000E-03 0. -1.
        -11    1    3    3    0    0 -0.20551506338E+01  0.35529068356E+01 -0.18279159597E+02  0.18734312556E+02  0.51100000000E-03 0.  1.
        -12    1    3    3    0    0 -0.12947151827E+01 -0.60119095430E+01 -0.61137400250E+01  0.86716296537E+01  0.00000000000E+00 0.  1.
</event>
<event>
 7    1  0.3014423E-011  0.5052886E+02  0.7816164E-02  0.1300439E+00
        -11   -1    0    0    0    0  0.00000000000E+00  0.00000000000E+00  0.45593999997E+02  0.45594000000E+02  0.51100000000E-03 0.  1.
         11   -1    0    0    0    0 -0.00000000000E+00 -0.00000000000E+00 -0.45593999997E+02  0.45594000000E+02  0.51100000000E-03 0. -1.
    9900012    2    1    2    0    0  0.29492092931E+02 -0.23356906997E+02 -0.15421975748E+02  0.50528856061E+02  0.29999988482E+02 0.  0.
        -12    1    1    2    0    0 -0.29492092931E+02  0.23356906997E+02  0.15421975748E+02  0.40659143939E+02  0.00000000000E+00 0.  1.
         11    1    3    3    0    0  0.20040660208E+02 -0.37169005967E+01 -0.12378872450E+02  0.23847010190E+02  0.51100000000E-03 0. -1.
        -11    1    3    3    0    0  0.60569235823E+01  0.25578860538E+00  0.86483975593E+00  0.61236997932E+01  0.51100000000E-03 0.  1.
        -12    1    3    3    0    0  0.33945091403E+01 -0.19895795006E+02 -0.39079430540E+01  0.20558146077E+02  0.00000000000E+00 0.  1.
</event>
<event>
 7    1  0.3014423E-011  0.5052886E+02  0.7816164E-02  0.1300439E+00
        -11   -1    0    0    0    0  0.00000000000E+00  0.00000000000E+00  0.45593999997E+02  0.45594000000E+02  0.51100000000E-03 0.  1.
         11   -1    0    0    0    0 -0.00000000000E+00 -0.00000000000E+00 -0.45593999997E+02  0.45594000000E+02  0.51100000000E-03 0. -1.
    9900012    2    1    2    0    0  0.78523158807E+01 -0.99304262342E+01 -0.38637984334E+02  0.50528855109E+02  0.29999985590E+02 0.  0.
        -12    1    1    2    0    0 -0.78523158807E+01  0.99304262342E+01  0.38637984334E+02  0.40659144891E+02  0.00000000000E+00 0.  1.
         11    1    3    3    0    0 -0.77772999884E-01  0.22433480334E+00 -0.71983328556E+01  0.72022476286E+01  0.51100000000E-03 0. -1.
        -11    1    3    3    0    0  0.17336846060E-01 -0.18367142040E+02 -0.20483869997E+02  0.27512563268E+02  0.51100000000E-03 0.  1.
         12    1    3    3    0    0  0.79127520345E+01  0.82123810025E+01 -0.10955781481E+02  0.15814044213E+02  0.00000000000E+00 0. -1.
</event>
<event>
 7    1  0.3014423E-011  0.5052887E+02  0.7816164E-02  0.1300439E+00
        -11   -1    0    0    0    0  0.00000000000E+00  0.00000000000E+00  0.45593999997E+02  0.45594000000E+02  0.51100000000E-03 0. -1.
         11   -1    0    0    0    0 -0.00000000000E+00 -0.00000000000E+00 -0.45593999997E+02  0.45594000000E+02  0.51100000000E-03 0.  1.
    9900012    2    1    2    0    0 -0.10725008296E+02  0.22544317809E+02  0.32091948900E+02  0.50528865078E+02  0.30000015891E+02 0.  0.
        -12    1    1    2    0    0  0.10725008296E+02 -0.22544317809E+02 -0.32091948900E+02  0.40659134922E+02  0.00000000000E+00 0.  1.
         11    1    3    3    0    0 -0.10660421461E+00  0.25855226821E+02  0.28393564521E+02  0.38401804970E+02  0.51100000000E-03 0. -1.
        -11    1    3    3    0    0 -0.27390734498E+01  0.34944202532E+00  0.22496532619E+00  0.27704228471E+01  0.51100000000E-03 0.  1.
         12    1    3    3    0    0 -0.78793306318E+01 -0.36603510375E+01  0.34734190524E+01  0.93566372612E+01  0.00000000000E+00 0. -1.
</event>
<event>
 7    1  0.3014423E-011  0.5052886E+02  0.7816164E-02  0.1300439E+00
        -11   -1    0    0    0    0  0.00000000000E+00  0.00000000000E+00  0.45593999997E+02  0.45594000000E+02  0.51100000000E-03 0.  1.
         11   -1    0    0    0    0 -0.00000000000E+00 -0.00000000000E+00 -0.45593999997E+02  0.45594000000E+02  0.51100000000E-03 0. -1.
    9900012    2    1    2    0    0 -0.29628662409E+01  0.11588306760E+02 -0.38859983544E+02  0.50528858950E+02  0.29999997263E+02 0.  0.
        -12    1    1    2    0    0  0.29628662409E+01 -0.11588306760E+02  0.38859983544E+02  0.40659141050E+02  0.00000000000E+00 0.  1.
         11    1    3    3    0    0  0.36901870967E+01 -0.26143058281E+00 -0.69296203959E+01  0.78552826716E+01  0.51100000000E-03 0. -1.
        -11    1    3    3    0    0  0.21644460289E+01 -0.89143074961E+00 -0.25964880106E+02  0.26070183632E+02  0.51100000000E-03 0.  1.
        -12    1    3    3    0    0 -0.88174993665E+01  0.12741168093E+02 -0.59654830415E+01  0.16603392646E+02  0.00000000000E+00 0.  1.
</event>
<event>
 7    1  0.3014423E-011  0.5052887E+02  0.7816164E-02  0.1300439E+00
        -11   -1    0    0    0    0  0.00000000000E+00  0.00000000000E+00  0.45593999997E+02  0.45594000000E+02  0.51100000000E-03 0.  1.
         11   -1    0    0    0    0 -0.00000000000E+00 -0.00000000000E+00 -0.45593999997E+02  0.45594000000E+02  0.51100000000E-03 0. -1.
    9900012    2    1    2    0    0  0.20950526184E+01 -0.14797658801E+02 -0.37812762251E+02  0.50528868916E+02  0.30000027556E+02 0.  0.
        -12    1    1    2    0    0 -0.20950526184E+01  0.14797658801E+02  0.37812762251E+02  0.40659131084E+02  0.00000000000E+00 0.  1.
         11    1    3    3    0    0 -0.33469963038E+01 -0.13910707449E+02 -0.43259724584E+01  0.14947381174E+02  0.51100000000E-03 0. -1.
        -11    1    3    3    0    0  0.35029411973E+01 -0.30402148958E+01 -0.45412268664E+01  0.64912437451E+01  0.51100000000E-03 0.  1.
        -12    1    3    3    0    0  0.19391077249E+01  0.21532635439E+01 -0.28945562926E+02  0.29090243997E+02  0.00000000000E+00 0.  1.
</event>
<event>
 7    1  0.3014423E-011  0.5052886E+02  0.7816164E-02  0.1300439E+00
        -11   -1    0    0    0    0  0.00000000000E+00  0.00000000000E+00  0.45593999997E+02  0.45594000000E+02  0.51100000000E-03 0.  1.
         11   -1    0    0    0    0 -0.00000000000E+00 -0.00000000000E+00 -0.45593999997E+02  0.45594000000E+02  0.51100000000E-03 0. -1.
    9900012    2    1    2    0    0  0.26936229854E+02 -0.14414544556E+02 -0.26829575976E+02  0.50528859324E+02  0.29999998400E+02 0.  0.
        -12    1    1    2    0    0 -0.26936229854E+02  0.14414544556E+02  0.26829575976E+02  0.40659140676E+02  0.00000000000E+00 0.  1.
         11    1    3    3    0    0  0.57798618448E+01 -0.83447212971E+01 -0.96030638315E+01  0.13973546854E+02  0.51100000000E-03 0. -1.
        -11    1    3    3    0    0  0.24991949360E+02 -0.91407931528E+01 -0.17116493603E+02  0.31640574992E+02  0.51100000000E-03 0.  1.
        -12    1    3    3    0    0 -0.38355813516E+01  0.30709698940E+01 -0.11001854166E+00  0.49147374776E+01  0.00000000000E+00 0.  1.
</event>
<event>
 7    1  0.3014423E-011  0.5052886E+02  0.7816164E-02  0.1300439E+00
        -11   -1    0    0    0    0  0.00000000000E+00  0.00000000000E+00  0.45593999997E+02  0.45594000000E+02  0.51100000000E-03 0.  1.
         11   -1    0    0    0    0 -0.00000000000E+00 -0.00000000000E+00 -0.45593999997E+02  0.45594000000E+02  0.51100000000E-03 0. -1.
    9900012    2    1    2    0    0 -0.38147873836E+02 -0.13915802113E+02  0.20628918415E+01  0.50528863887E+02  0.30000012272E+02 0.  0.
        -12    1    1    2    0    0  0.38147873836E+02  0.13915802113E+02 -0.20628918415E+01  0.40659136113E+02  0.00000000000E+00 0.  1.
         11    1    3    3    0    0 -0.23465258134E+02 -0.18132178273E+02 -0.51232446343E+01  0.30093884164E+02  0.51100000000E-03 0. -1.
        -11    1    3    3    0    0 -0.12497438663E+02 -0.10335861358E+01  0.19232171349E+01  0.12686726837E+02  0.51100000000E-03 0.  1.
        -12    1    3    3    0    0 -0.21851770397E+01  0.52499622958E+01  0.52629193410E+01  0.77482528864E+01  0.00000000000E+00 0.  1.
</event>
<event>
 7    1  0.3014423E-011  0.5052881E+02  0.7816164E-02  0.1300439E+00
        -11   -1    0    0    0    0  0.00000000000E+00  0.00000000000E+00  0.45593999997E+02  0.45594000000E+02  0.51100000000E-03 0.  1.
         11   -1    0    0    0    0 -0.00000000000E+00 -0.00000000000E+00 -0.45593999997E+02  0.45594000000E+02  0.51100000000E-03 0. -1.
    9900012    2    1    2    0    0  0.25342249138E+02  0.31691817870E+02 -0.25630371194E+01  0.50528805830E+02  0.29999835800E+02 0.  0.
        -12    1    1    2    0    0 -0.25342249138E+02 -0.31691817870E+02  0.25630371194E+01  0.40659194170E+02  0.00000000000E+00 0.  1.
         11    1    3    3    0    0 -0.21630493489E+01 -0.18674494637E+01 -0.36213206222E+01  0.46130373178E+01  0.51100000000E-03 0. -1.
        -11    1    3    3    0    0  0.31086391920E+00  0.12604930569E+01  0.33887244203E+01  0.36289023934E+01  0.51100000000E-03 0.  1.
         12    1    3    3    0    0  0.27194434568E+02  0.32298774277E+02 -0.23304409175E+01  0.42286866119E+02  0.00000000000E+00 0. -1.
</event>
<event>
 7    1  0.3014423E-011  0.5052886E+02  0.7816164E-02  0.1300439E+00
        -11   -1    0    0    0    0  0.00000000000E+00  0.00000000000E+00  0.45593999997E+02  0.45594000000E+02  0.51100000000E-03 0.  1.
         11   -1    0    0    0    0 -0.00000000000E+00 -0.00000000000E+00 -0.45593999997E+02  0.45594000000E+02  0.51100000000E-03 0. -1.
    9900012    2    1    2    0    0 -0.23498561541E+01  0.40584043601E+02 -0.76099152952E+00  0.50528861703E+02  0.30000005633E+02 0.  0.
        -12    1    1    2    0    0  0.23498561541E+01 -0.40584043601E+02  0.76099152952E+00  0.40659138297E+02  0.00000000000E+00 0.  1.
         11    1    3    3    0    0 -0.12982998048E+01 -0.35786755806E+00 -0.46228161117E+01  0.48149850089E+01  0.51100000000E-03 0. -1.
        -11    1    3    3    0    0  0.62363711437E+01  0.33335719646E+01 -0.82867189364E+00  0.71198121080E+01  0.51100000000E-03 0.  1.
        -12    1    3    3    0    0 -0.72879274929E+01  0.37608339194E+02  0.46904964758E+01  0.38594064586E+02  0.00000000000E+00 0.  1.
</event>
<event>
 7    1  0.3014423E-011  0.5052886E+02  0.7816164E-02  0.1300439E+00
        -11   -1    0    0    0    0  0.00000000000E+00  0.00000000000E+00  0.45593999997E+02  0.45594000000E+02  0.51100000000E-03 0.  1.
         11   -1    0    0    0    0 -0.00000000000E+00 -0.00000000000E+00 -0.45593999997E+02  0.45594000000E+02  0.51100000000E-03 0. -1.
    9900012    2    1    2    0    0  0.72820994088E+01  0.47833888677E+01 -0.39714682205E+02  0.50528858796E+02  0.29999996795E+02 0.  0.
        -12    1    1    2    0    0 -0.72820994088E+01 -0.47833888677E+01  0.39714682205E+02  0.40659141204E+02  0.00000000000E+00 0.  1.
         11    1    3    3    0    0 -0.60208840081E+01  0.18890237753E+01 -0.52929525654E+00  0.63324251905E+01  0.51100000000E-03 0. -1.
        -11    1    3    3    0    0  0.57035418355E+01  0.86686465424E+01 -0.15422149041E+02  0.18588128030E+02  0.51100000000E-03 0.  1.
         12    1    3    3    0    0  0.75994415814E+01 -0.57742814501E+01 -0.23763237907E+02  0.25608305575E+02  0.00000000000E+00 0. -1.
</event>
<event>
 7    1  0.3014423E-011  0.5052891E+02  0.7816164E-02  0.1300439E+00
        -11   -1    0    0    0    0  0.00000000000E+00  0.00000000000E+00  0.45593999997E+02  0.45594000000E+02  0.51100000000E-03 0. -1.
         11   -1    0    0    0    0 -0.00000000000E+00 -0.00000000000E+00 -0.45593999997E+02  0.45594000000E+02  0.51100000000E-03 0.  1.
    9900012    2    1    2    0    0  0.11044051300E+02 -0.31704714186E+02  0.22934717874E+02  0.50528914241E+02  0.30000165328E+02 0.  0.
        -12    1    1    2    0    0 -0.11044051300E+02  0.31704714186E+02 -0.22934717874E+02  0.40659085759E+02  0.00000000000E+00 0.  1.
         11    1    3    3    0    0 -0.80942848091E+01 -0.59261991272E+01  0.27437634699E+01  0.10400265425E+02  0.51100000000E-03 0. -1.
        -11    1    3    3    0    0 -0.49171010394E+00 -0.64960232188E+01  0.71679420796E+01  0.96860461698E+01  0.51100000000E-03 0.  1.
        -12    1    3    3    0    0  0.19630046213E+02 -0.19282491840E+02  0.13023012325E+02  0.30442602647E+02  0.00000000000E+00 0.  1.
</event>
<event>
 7    1  0.3497038E-011  0.5052885E+02  0.7816164E-02  0.1300439E+00
        -11   -1    0    0    0    0  0.00000000000E+00  0.00000000000E+00  0.45593999997E+02  0.45594000000E+02  0.51100000000E-03 0.  1.
         11   -1    0    0    0    0 -0.00000000000E+00 -0.00000000000E+00 -0.45593999997E+02  0.45594000000E+02  0.51100000000E-03 0. -1.
    9900012    2    1    2    0    0  0.17647094634E+02 -0.26736035318E+02 -0.25038586232E+02  0.50528851780E+02  0.29999975469E+02 0.  0.
        -12    1    1    2    0    0 -0.17647094634E+02  0.26736035318E+02  0.25038586232E+02  0.40659148220E+02  0.00000000000E+00 0.  1.
         11    1    3    3    0    0  0.11090495571E+02 -0.30085319308E+01 -0.83767879316E+01  0.14220440664E+02  0.51100000000E-03 0. -1.
        -11    1    3    3    0    0  0.29512397991E+00  0.31388899828E+01 -0.59147369371E+01  0.67025250304E+01  0.51100000000E-03 0.  1.
         12    1    3    3    0    0  0.62614750831E+01 -0.26866393370E+02 -0.10747061363E+02  0.29605886085E+02  0.00000000000E+00 0. -1.
</event>
<event>
 7    1  0.3014423E-011  0.5052886E+02  0.7816164E-02  0.1300439E+00
        -11   -1    0    0    0    0  0.00000000000E+00  0.00000000000E+00  0.45593999997E+02  0.45594000000E+02  0.51100000000E-03 0. -1.
         11   -1    0    0    0    0 -0.00000000000E+00 -0.00000000000E+00 -0.45593999997E+02  0.45594000000E+02  0.51100000000E-03 0.  1.
    9900012    2    1    2    0    0 -0.29023953396E+02  0.21512771524E+02  0.18654120166E+02  0.50528863160E+02  0.30000010061E+02 0.  0.
        -12    1    1    2    0    0  0.29023953396E+02 -0.21512771524E+02 -0.18654120166E+02  0.40659136840E+02  0.00000000000E+00 0.  1.
         11    1    3    3    0    0 -0.11706527233E-01  0.84758805801E+01 -0.25167109523E+01  0.88416357609E+01  0.51100000000E-03 0. -1.
        -11    1    3    3    0    0 -0.11325347978E+02  0.36791721755E+01 -0.84357814094E+00  0.11937815506E+02  0.51100000000E-03 0.  1.
         12    1    3    3    0    0 -0.17686898891E+02  0.93577187689E+01  0.22014409259E+02  0.29749411893E+02  0.00000000000E+00 0. -1.
</event>
<event>
 7    1  0.3014423E-011  0.5052886E+02  0.7816164E-02  0.1300439E+00
        -11   -1    0    0    0    0  0.00000000000E+00  0.00000000000E+00  0.45593999997E+02  0.45594000000E+02  0.51100000000E-03 0. -1.
         11   -1    0    0    0    0 -0.00000000000E+00 -0.00000000000E+00 -0.45593999997E+02  0.45594000000E+02  0.51100000000E-03 0.  1.
    9900012    2    1    2    0    0  0.25063470312E+02  0.31809973540E+02  0.36212570103E+01  0.50528862491E+02  0.30000008027E+02 0.  0.
        -12    1    1    2    0    0 -0.25063470312E+02 -0.31809973540E+02 -0.36212570103E+01  0.40659137509E+02  0.00000000000E+00 0.  1.
         11    1    3    3    0    0  0.11214752730E+02  0.30733954119E+01  0.81950683454E+01  0.14225877252E+02  0.51100000000E-03 0. -1.
        -11    1    3    3    0    0  0.33809011361E+01 -0.67105325635E+00  0.25472052746E+01  0.42859141309E+01  0.51100000000E-03 0.  1.
         12    1    3    3    0    0  0.10467816446E+02  0.29407631384E+02 -0.71210166096E+01  0.32017071108E+02  0.00000000000E+00 0. -1.
</event>
<event>
 7    1  0.3014423E-011  0.5052885E+02  0.7816164E-02  0.1300439E+00
        -11   -1    0    0    0    0  0.00000000000E+00  0.00000000000E+00  0.45593999997E+02  0.45594000000E+02  0.51100000000E-03 0.  1.
         11   -1    0    0    0    0 -0.00000000000E+00 -0.00000000000E+00 -0.45593999997E+02  0.45594000000E+02  0.51100000000E-03 0. -1.
    9900012    2    1    2    0    0 -0.18856880075E+02  0.32851585019E+02 -0.14776948838E+02  0.50528846278E+02  0.29999958746E+02 0.  0.
        -12    1    1    2    0    0  0.18856880075E+02 -0.32851585019E+02  0.14776948838E+02  0.40659153722E+02  0.00000000000E+00 0.  1.
         11    1    3    3    0    0 -0.54683254730E+01  0.43625926336E+00  0.65464057255E+00  0.55246230789E+01  0.51100000000E-03 0. -1.
        -11    1    3    3    0    0 -0.29125880596E+01  0.17876747868E+02  0.40234845348E+01  0.18553967544E+02  0.51100000000E-03 0.  1.
         12    1    3    3    0    0 -0.10475966542E+02  0.14538577888E+02 -0.19455073946E+02  0.26450255655E+02  0.00000000000E+00 0. -1.
</event>
<event>
 7    1  0.3014423E-011  0.5052887E+02  0.7816164E-02  0.1300439E+00
        -11   -1    0    0    0    0  0.00000000000E+00  0.00000000000E+00  0.45593999997E+02  0.45594000000E+02  0.51100000000E-03 0.  1.
         11   -1    0    0    0    0 -0.00000000000E+00 -0.00000000000E+00 -0.45593999997E+02  0.45594000000E+02  0.51100000000E-03 0. -1.
    9900012    2    1    2    0    0 -0.27316133062E+02  0.28433242011E+02  0.99269722779E+01  0.50528866274E+02  0.30000019528E+02 0.  0.
        -12    1    1    2    0    0  0.27316133062E+02 -0.28433242011E+02 -0.99269722779E+01  0.40659133726E+02  0.00000000000E+00 0.  1.
         11    1    3    3    0    0 -0.32871489873E+01  0.18184651493E+02 -0.18068971133E+01  0.18567492448E+02  0.51100000000E-03 0. -1.
        -11    1    3    3    0    0 -0.13170103019E+02  0.90937085322E+01  0.13451871629E+02  0.20906936624E+02  0.51100000000E-03 0.  1.
        -12    1    3    3    0    0 -0.10858881055E+02  0.11548819860E+01 -0.17180022379E+01  0.11054437202E+02  0.00000000000E+00 0.  1.
</event>
<event>
 7    1  0.3014423E-011  0.5052888E+02  0.7816164E-02  0.1300439E+00
        -11   -1    0    0    0    0  0.00000000000E+00  0.00000000000E+00  0.45593999997E+02  0.45594000000E+02  0.51100000000E-03 0.  1.
         11   -1    0    0    0    0 -0.00000000000E+00 -0.00000000000E+00 -0.45593999997E+02  0.45594000000E+02  0.51100000000E-03 0. -1.
    9900012    2    1    2    0    0 -0.28392649150E+02  0.28964218610E+02  0.28453287645E+01  0.50528875793E+02  0.30000048462E+02 0.  0.
        -12    1    1    2    0    0  0.28392649150E+02 -0.28964218610E+02 -0.28453287645E+01  0.40659124207E+02  0.00000000000E+00 0.  1.
         11    1    3    3    0    0 -0.12418858636E+02  0.74944461828E+01  0.45054337232E+01  0.15188604501E+02  0.51100000000E-03 0. -1.
        -11    1    3    3    0    0 -0.56757306247E+01  0.53440513054E+01  0.10193336712E+02  0.12832650391E+02  0.51100000000E-03 0.  1.
        -12    1    3    3    0    0 -0.10298059889E+02  0.16125721122E+02 -0.11853441670E+02  0.22507620901E+02  0.00000000000E+00 0.  1.
</event>
<event>
 7    1  0.3014423E-011  0.5052901E+02  0.7816164E-02  0.1300438E+00
        -11   -1    0    0    0    0  0.00000000000E+00  0.00000000000E+00  0.45593999997E+02  0.45594000000E+02  0.51100000000E-03 0. -1.
         11   -1    0    0    0    0 -0.00000000000E+00 -0.00000000000E+00 -0.45593999997E+02  0.45594000000E+02  0.51100000000E-03 0.  1.
    9900012    2    1    2    0    0  0.30822700710E+02  0.22401050413E+02  0.14188297659E+02  0.50529006786E+02  0.30000446624E+02 0.  0.
        -12    1    1    2    0    0 -0.30822700710E+02 -0.22401050413E+02 -0.14188297659E+02  0.40658993214E+02  0.00000000000E+00 0.  1.
         11    1    3    3    0    0  0.17525966865E+02  0.24169717596E+01 -0.26678812621E+01  0.17891865687E+02  0.51100000000E-03 0. -1.
        -11    1    3    3    0    0  0.78435353816E+01  0.33538657443E+01  0.28514978151E+00  0.85352664500E+01  0.51100000000E-03 0.  1.
         12    1    3    3    0    0  0.54531984633E+01  0.16630212909E+02  0.16571029140E+02  0.24101874650E+02  0.00000000000E+00 0. -1.
</event>
<event>
 7    1  0.3014423E-011  0.5052886E+02  0.7816164E-02  0.1300439E+00
        -11   -1    0    0    0    0  0.00000000000E+00  0.00000000000E+00  0.45593999997E+02  0.45594000000E+02  0.51100000000E-03 0.  1.
         11   -1    0    0    0    0 -0.00000000000E+00 -0.00000000000E+00 -0.45593999997E+02  0.45594000000E+02  0.51100000000E-03 0. -1.
    9900012    2    1    2    0    0 -0.40640404812E+02 -0.49866247239E+00 -0.11289620206E+01  0.50528859296E+02  0.29999998316E+02 0.  0.
        -12    1    1    2    0    0  0.40640404812E+02  0.49866247239E+00  0.11289620206E+01  0.40659140704E+02  0.00000000000E+00 0.  1.
         11    1    3    3    0    0  0.17075214469E+01  0.93812806693E+00 -0.20013428048E+01  0.27930426142E+01  0.51100000000E-03 0. -1.
        -11    1    3    3    0    0 -0.57439454778E+01  0.68231779540E+01  0.45845083929E+01  0.10028279240E+02  0.51100000000E-03 0.  1.
         12    1    3    3    0    0 -0.36603980781E+02 -0.82599684934E+01 -0.37121276087E+01  0.37707537442E+02  0.00000000000E+00 0. -1.
</event>
<event>
 7    1  0.3014423E-011  0.5052885E+02  0.7816164E-02  0.1300439E+00
        -11   -1    0    0    0    0  0.00000000000E+00  0.00000000000E+00  0.45593999997E+02  0.45594000000E+02  0.51100000000E-03 0. -1.
         11   -1    0    0    0    0 -0.00000000000E+00 -0.00000000000E+00 -0.45593999997E+02  0.45594000000E+02  0.51100000000E-03 0.  1.
    9900012    2    1    2    0    0  0.18194688504E+02  0.29557355546E+01  0.36240628408E+02  0.50528853307E+02  0.29999980110E+02 0.  0.
        -12    1    1    2    0    0 -0.18194688504E+02 -0.29557355546E+01 -0.36240628408E+02  0.40659146693E+02  0.00000000000E+00 0.  1.
         11    1    3    3    0    0  0.19359766813E+02 -0.35034565328E+01  0.28292424041E+02  0.34460644758E+02  0.51100000000E-03 0. -1.
        -11    1    3    3    0    0  0.29395006643E+01  0.47429005536E+00  0.82844161432E+01  0.88032474864E+01  0.51100000000E-03 0.  1.
        -12    1    3    3    0    0 -0.41045789733E+01  0.59849020320E+01 -0.33621177615E+00  0.72649610625E+01  0.00000000000E+00 0.  1.
</event>
<event>
 7    1  0.3014423E-011  0.5052886E+02  0.7816164E-02  0.1300439E+00
        -11   -1    0    0    0    0  0.00000000000E+00  0.00000000000E+00  0.45593999997E+02  0.45594000000E+02  0.51100000000E-03 0.  1.
         11   -1    0    0    0    0 -0.00000000000E+00 -0.00000000000E+00 -0.45593999997E+02  0.45594000000E+02  0.51100000000E-03 0. -1.
    9900012    2    1    2    0    0 -0.19072160508E+02  0.16281087786E+02 -0.32005377908E+02  0.50528863991E+02  0.30000012587E+02 0.  0.
        -12    1    1    2    0    0  0.19072160508E+02 -0.16281087786E+02  0.32005377908E+02  0.40659136009E+02  0.00000000000E+00 0.  1.
         11    1    3    3    0    0 -0.73917882998E+01  0.11759174888E+02 -0.21594045790E+01  0.14056306653E+02  0.51100000000E-03 0. -1.
        -11    1    3    3    0    0  0.28850083770E+01  0.36571627762E+01 -0.20699795707E+01  0.50973452494E+01  0.51100000000E-03 0.  1.
         12    1    3    3    0    0 -0.14565380585E+02  0.86475012175E+00 -0.27775993759E+02  0.31375212089E+02  0.00000000000E+00 0. -1.
</event>
<event>
 7    1  0.3014423E-011  0.5052883E+02  0.7816164E-02  0.1300439E+00
        -11   -1    0    0    0    0  0.00000000000E+00  0.00000000000E+00  0.45593999997E+02  0.45594000000E+02  0.51100000000E-03 0.  1.
         11   -1    0    0    0    0 -0.00000000000E+00 -0.00000000000E+00 -0.45593999997E+02  0.45594000000E+02  0.51100000000E-03 0. -1.
    9900012    2    1    2    0    0  0.52213499649E+01 -0.53655732910E+01 -0.39963936559E+02  0.50528830093E+02  0.29999909552E+02 0.  0.
        -12    1    1    2    0    0 -0.52213499649E+01  0.53655732910E+01  0.39963936559E+02  0.40659169907E+02  0.00000000000E+00 0.  1.
         11    1    3    3    0    0  0.80251591575E+00  0.74845846254E+01 -0.90293270394E+01  0.11755500238E+02  0.51100000000E-03 0. -1.
        -11    1    3    3    0    0 -0.44362198499E+01  0.10666488383E+00 -0.41716126087E+00  0.44570671672E+01  0.51100000000E-03 0.  1.
         12    1    3    3    0    0  0.88550538991E+01 -0.12956822800E+02 -0.30517448259E+02  0.34316262688E+02  0.00000000000E+00 0. -1.
</event>
<event>
 7    1  0.3014423E-011  0.5052889E+02  0.7816164E-02  0.1300439E+00
        -11   -1    0    0    0    0  0.00000000000E+00  0.00000000000E+00  0.45593999997E+02  0.45594000000E+02  0.51100000000E-03 0. -1.
         11   -1    0    0    0    0 -0.00000000000E+00 -0.00000000000E+00 -0.45593999997E+02  0.45594000000E+02  0.51100000000E-03 0.  1.
    9900012    2    1    2    0    0 -0.10200181769E+02 -0.29919949145E+02  0.25571786072E+02  0.50528888993E+02  0.30000088583E+02 0.  0.
        -12    1    1    2    0    0  0.10200181769E+02  0.29919949145E+02 -0.25571786072E+02  0.40659111007E+02  0.00000000000E+00 0.  1.
         11    1    3    3    0    0 -0.73692746869E-01 -0.13189543018E+02  0.11409916065E+02  0.17440059074E+02  0.51100000000E-03 0. -1.
        -11    1    3    3    0    0 -0.97255030037E+01 -0.19484620764E+02  0.18065320123E+02  0.28294728244E+02  0.51100000000E-03 0.  1.
        -12    1    3    3    0    0 -0.40098601845E+00  0.27542146377E+01 -0.39034501159E+01  0.47941016744E+01  0.00000000000E+00 0.  1.
</event>
<event>
 7    1  0.3014423E-011  0.5052888E+02  0.7816164E-02  0.1300439E+00
        -11   -1    0    0    0    0  0.00000000000E+00  0.00000000000E+00  0.45593999997E+02  0.45594000000E+02  0.51100000000E-03 0.  1.
         11   -1    0    0    0    0 -0.00000000000E+00 -0.00000000000E+00 -0.45593999997E+02  0.45594000000E+02  0.51100000000E-03 0. -1.
    9900012    2    1    2    0    0  0.29125229965E+02  0.23272160246E+02 -0.16226270658E+02  0.50528876516E+02  0.30000050658E+02 0.  0.
        -12    1    1    2    0    0 -0.29125229965E+02 -0.23272160246E+02  0.16226270658E+02  0.40659123484E+02  0.00000000000E+00 0.  1.
         11    1    3    3    0    0  0.19929280458E+02  0.39781944967E+01 -0.10492466131E+02  0.22871250442E+02  0.51100000000E-03 0. -1.
        -11    1    3    3    0    0  0.11910078684E+02  0.15135903678E+02  0.10059858732E+01  0.19286201343E+02  0.51100000000E-03 0.  1.
         12    1    3    3    0    0 -0.27141291769E+01  0.41580620716E+01 -0.67397904007E+01  0.83714247310E+01  0.00000000000E+00 0. -1.
</event>
<event>
 7    1  0.3014423E-011  0.5052885E+02  0.7816164E-02  0.1300439E+00
        -11   -1    0    0    0    0  0.00000000000E+00  0.00000000000E+00  0.45593999997E+02  0.45594000000E+02  0.51100000000E-03 0. -1.
         11   -1    0    0    0    0 -0.00000000000E+00 -0.00000000000E+00 -0.45593999997E+02  0.45594000000E+02  0.51100000000E-03 0.  1.
    9900012    2    1    2    0    0  0.15283323262E+02 -0.35091898085E+02  0.13716588599E+02  0.50528854854E+02  0.29999984816E+02 0.  0.
        -12    1    1    2    0    0 -0.15283323262E+02  0.35091898085E+02 -0.13716588599E+02  0.40659145146E+02  0.00000000000E+00 0.  1.
         11    1    3    3    0    0  0.10829762552E+02 -0.21910835939E+02  0.84162349971E+01  0.25849593812E+02  0.51100000000E-03 0. -1.
        -11    1    3    3    0    0  0.97157769726E+00 -0.12956493366E+02 -0.49096232582E+01  0.13889531466E+02  0.51100000000E-03 0.  1.
        -12    1    3    3    0    0  0.34819830129E+01 -0.22456878092E+00  0.10209976860E+02  0.10789729576E+02  0.00000000000E+00 0.  1.
</event>
<event>
 7    1  0.3014423E-011  0.5052886E+02  0.7816164E-02  0.1300439E+00
        -11   -1    0    0    0    0  0.00000000000E+00  0.00000000000E+00  0.45593999997E+02  0.45594000000E+02  0.51100000000E-03 0.  1.
         11   -1    0    0    0    0 -0.00000000000E+00 -0.00000000000E+00 -0.45593999997E+02  0.45594000000E+02  0.51100000000E-03 0. -1.
    9900012    2    1    2    0    0  0.31320481090E+02 -0.18328911142E+02 -0.18336952956E+02  0.50528863720E+02  0.30000011763E+02 0.  0.
        -12    1    1    2    0    0 -0.31320481090E+02  0.18328911142E+02  0.18336952956E+02  0.40659136280E+02  0.00000000000E+00 0.  1.
         11    1    3    3    0    0  0.12612539619E+01  0.23197276022E+00  0.51539032648E+00  0.13820999847E+01  0.51100000000E-03 0. -1.
        -11    1    3    3    0    0  0.56788704986E+01 -0.12827554811E+02  0.46720038836E+01  0.14785917392E+02  0.51100000000E-03 0.  1.
         12    1    3    3    0    0  0.24380356630E+02 -0.57333290906E+01 -0.23524347166E+02  0.34360846343E+02  0.00000000000E+00 0. -1.
</event>
<event>
 7    1  0.3014423E-011  0.5052889E+02  0.7816164E-02  0.1300439E+00
        -11   -1    0    0    0    0  0.00000000000E+00  0.00000000000E+00  0.45593999997E+02  0.45594000000E+02  0.51100000000E-03 0.  1.
         11   -1    0    0    0    0 -0.00000000000E+00 -0.00000000000E+00 -0.45593999997E+02  0.45594000000E+02  0.51100000000E-03 0. -1.
    9900012    2    1    2    0    0 -0.16849008489E+02  0.36934506486E+02 -0.22618607012E+01  0.50528894374E+02  0.30000104940E+02 0.  0.
        -12    1    1    2    0    0  0.16849008489E+02 -0.36934506486E+02  0.22618607012E+01  0.40659105626E+02  0.00000000000E+00 0.  1.
         11    1    3    3    0    0 -0.89939637055E+01  0.50243501647E+01 -0.88133803509E+00  0.10339837267E+02  0.51100000000E-03 0. -1.
        -11    1    3    3    0    0 -0.83242652480E+01  0.12649233028E+02  0.96811200595E+01  0.17972773130E+02  0.51100000000E-03 0.  1.
         12    1    3    3    0    0  0.46922046478E+00  0.19260923294E+02 -0.11061642726E+02  0.22216283977E+02  0.00000000000E+00 0. -1.
</event>
<event>
 7    1  0.3014423E-011  0.5052886E+02  0.7816164E-02  0.1300439E+00
        -11   -1    0    0    0    0  0.00000000000E+00  0.00000000000E+00  0.45593999997E+02  0.45594000000E+02  0.51100000000E-03 0.  1.
         11   -1    0    0    0    0 -0.00000000000E+00 -0.00000000000E+00 -0.45593999997E+02  0.45594000000E+02  0.51100000000E-03 0. -1.
    9900012    2    1    2    0    0 -0.18794123944E+02 -0.34284878698E+02 -0.11157656413E+02  0.50528864510E+02  0.30000014166E+02 0.  0.
        -12    1    1    2    0    0  0.18794123944E+02  0.34284878698E+02  0.11157656413E+02  0.40659135490E+02  0.00000000000E+00 0.  1.
         11    1    3    3    0    0 -0.25793946667E+02 -0.30911735799E+02 -0.83496826341E+01  0.41116666877E+02  0.51100000000E-03 0. -1.
        -11    1    3    3    0    0  0.33150097642E+01 -0.32398849602E+01 -0.33032105324E+01  0.56918665106E+01  0.51100000000E-03 0.  1.
        -12    1    3    3    0    0  0.36848129588E+01 -0.13325793867E+00  0.49523675342E+00  0.37203311225E+01  0.00000000000E+00 0.  1.
</event>
<event>
 7    1  0.3014423E-011  0.5052890E+02  0.7816164E-02  0.1300439E+00
        -11   -1    0    0    0    0  0.00000000000E+00  0.00000000000E+00  0.45593999997E+02  0.45594000000E+02  0.51100000000E-03 0. -1.
         11   -1    0    0    0    0 -0.00000000000E+00 -0.00000000000E+00 -0.45593999997E+02  0.45594000000E+02  0.51100000000E-03 0.  1.
    9900012    2    1    2    0    0 -0.18277300128E+00  0.37732134271E+02  0.15146457210E+02  0.50528898575E+02  0.30000117710E+02 0.  0.
        -12    1    1    2    0    0  0.18277300128E+00 -0.37732134271E+02 -0.15146457210E+02  0.40659101425E+02  0.00000000000E+00 0.  1.
         11    1    3    3    0    0  0.26399511810E-02 -0.34862685244E+01  0.52453713238E+01  0.62982533912E+01  0.51100000000E-03 0. -1.
        -11    1    3    3    0    0 -0.36415760287E+01  0.21197955279E+02  0.10436966465E+02  0.23907000089E+02  0.51100000000E-03 0.  1.
        -12    1    3    3    0    0  0.34561630762E+01  0.20020447517E+02 -0.53588057865E+00  0.20323645096E+02  0.00000000000E+00 0.  1.
</event>
<event>
 7    1  0.3014423E-011  0.5052886E+02  0.7816164E-02  0.1300439E+00
        -11   -1    0    0    0    0  0.00000000000E+00  0.00000000000E+00  0.45593999997E+02  0.45594000000E+02  0.51100000000E-03 0. -1.
         11   -1    0    0    0    0 -0.00000000000E+00 -0.00000000000E+00 -0.45593999997E+02  0.45594000000E+02  0.51100000000E-03 0.  1.
    9900012    2    1    2    0    0  0.28510644512E+02 -0.91158661242E+01  0.27517450781E+02  0.50528856340E+02  0.29999989331E+02 0.  0.
        -12    1    1    2    0    0 -0.28510644512E+02  0.91158661242E+01 -0.27517450781E+02  0.40659143660E+02  0.00000000000E+00 0.  1.
         11    1    3    3    0    0  0.79988392670E+01  0.78894113340E+00  0.51554388603E+01  0.95489479962E+01  0.51100000000E-03 0. -1.
        -11    1    3    3    0    0  0.22815252985E+02  0.13387222993E+01  0.15333996836E+02  0.27521980404E+02  0.51100000000E-03 0.  1.
         12    1    3    3    0    0 -0.23034477402E+01 -0.11243529557E+02  0.70280150849E+01  0.13457927939E+02  0.00000000000E+00 0. -1.
</event>
<event>
 7    1  0.3014423E-011  0.5052886E+02  0.7816164E-02  0.1300439E+00
        -11   -1    0    0    0    0  0.00000000000E+00  0.00000000000E+00  0.45593999997E+02  0.45594000000E+02  0.51100000000E-03 0. -1.
         11   -1    0    0    0    0 -0.00000000000E+00 -0.00000000000E+00 -0.45593999997E+02  0.45594000000E+02  0.51100000000E-03 0.  1.
    9900012    2    1    2    0    0  0.26213807232E+02 -0.16496605367E+02  0.26341297800E+02  0.50528860216E+02  0.30000001111E+02 0.  0.
        -12    1    1    2    0    0 -0.26213807232E+02  0.16496605367E+02 -0.26341297800E+02  0.40659139784E+02  0.00000000000E+00 0.  1.
         11    1    3    3    0    0  0.31640268516E+01 -0.46938406433E+00  0.10921024024E+02  0.11379813413E+02  0.51100000000E-03 0. -1.
        -11    1    3    3    0    0  0.21253843742E+02 -0.18652136678E+01  0.11964541625E+02  0.24461299074E+02  0.51100000000E-03 0.  1.
         12    1    3    3    0    0  0.17959366383E+01 -0.14162007634E+02  0.34557321512E+01  0.14687747729E+02  0.00000000000E+00 0. -1.
</event>
<event>
 7    1  0.3014423E-011  0.5052886E+02  0.7816164E-02  0.1300439E+00
        -11   -1    0    0    0    0  0.00000000000E+00  0.00000000000E+00  0.45593999997E+02  0.45594000000E+02  0.51100000000E-03 0. -1.
         11   -1    0    0    0    0 -0.00000000000E+00 -0.00000000000E+00 -0.45593999997E+02  0.45594000000E+02  0.51100000000E-03 0.  1.
    9900012    2    1    2    0    0 -0.10363032583E+01 -0.40645901912E+02  0.45669658015E-01  0.50528863851E+02  0.30000012161E+02 0.  0.
        -12    1    1    2    0    0  0.10363032583E+01  0.40645901912E+02 -0.45669658015E-01  0.40659136149E+02  0.00000000000E+00 0.  1.
         11    1    3    3    0    0  0.27402567661E+01 -0.11694446837E+02 -0.64913524879E+01  0.13653085781E+02  0.51100000000E-03 0. -1.
        -11    1    3    3    0    0  0.62328973847E+01 -0.16834696384E+01 -0.17133832764E+01  0.66797277148E+01  0.51100000000E-03 0.  1.
         12    1    3    3    0    0 -0.10009457409E+02 -0.27267985437E+02  0.82504054223E+01  0.30196050355E+02  0.00000000000E+00 0. -1.
</event>
<event>
 7    1  0.3014423E-011  0.5052886E+02  0.7816164E-02  0.1300439E+00
        -11   -1    0    0    0    0  0.00000000000E+00  0.00000000000E+00  0.45593999997E+02  0.45594000000E+02  0.51100000000E-03 0.  1.
         11   -1    0    0    0    0 -0.00000000000E+00 -0.00000000000E+00 -0.45593999997E+02  0.45594000000E+02  0.51100000000E-03 0. -1.
    9900012    2    1    2    0    0  0.10838130602E+02 -0.19365537528E+02 -0.34068708396E+02  0.50528855759E+02  0.29999987565E+02 0.  0.
        -12    1    1    2    0    0 -0.10838130602E+02  0.19365537528E+02  0.34068708396E+02  0.40659144241E+02  0.00000000000E+00 0.  1.
         11    1    3    3    0    0 -0.40367385100E+00 -0.22559336414E+01  0.35570563003E+01  0.42314109889E+01  0.51100000000E-03 0. -1.
        -11    1    3    3    0    0 -0.11630080996E+01 -0.18971235573E+01  0.13889359962E+01  0.26231296373E+01  0.51100000000E-03 0.  1.
         12    1    3    3    0    0  0.12404812552E+02 -0.15212480329E+02 -0.39014700692E+02  0.43674315133E+02  0.00000000000E+00 0. -1.
</event>
<event>
 7    1  0.3014423E-011  0.5052886E+02  0.7816164E-02  0.1300439E+00
        -11   -1    0    0    0    0  0.00000000000E+00  0.00000000000E+00  0.45593999997E+02  0.45594000000E+02  0.51100000000E-03 0. -1.
         11   -1    0    0    0    0 -0.00000000000E+00 -0.00000000000E+00 -0.45593999997E+02  0.45594000000E+02  0.51100000000E-03 0.  1.
    9900012    2    1    2    0    0  0.16953906060E+02 -0.93410291778E+01  0.35755781158E+02  0.50528860277E+02  0.30000001297E+02 0.  0.
        -12    1    1    2    0    0 -0.16953906060E+02  0.93410291778E+01 -0.35755781158E+02  0.40659139723E+02  0.00000000000E+00 0.  1.
         11    1    3    3    0    0  0.26428422706E+01 -0.57728757548E+01  0.15088754971E+02  0.16370132455E+02  0.51100000000E-03 0. -1.
        -11    1    3    3    0    0  0.22327090066E+01 -0.12042107793E+02  0.73524482995E+01  0.14284811719E+02  0.51100000000E-03 0.  1.
        -12    1    3    3    0    0  0.12078354783E+02  0.84739543697E+01  0.13314577888E+02  0.19873916102E+02  0.00000000000E+00 0.  1.
</event>
<event>
 7    1  0.3014423E-011  0.5052886E+02  0.7816164E-02  0.1300439E+00
        -11   -1    0    0    0    0  0.00000000000E+00  0.00000000000E+00  0.45593999997E+02  0.45594000000E+02  0.51100000000E-03 0.  1.
         11   -1    0    0    0    0 -0.00000000000E+00 -0.00000000000E+00 -0.45593999997E+02  0.45594000000E+02  0.51100000000E-03 0. -1.
    9900012    2    1    2    0    0  0.98690091783E+01 -0.42807467390E+01 -0.39210245632E+02  0.50528862069E+02  0.30000006744E+02 0.  0.
        -12    1    1    2    0    0 -0.98690091783E+01  0.42807467390E+01  0.39210245632E+02  0.40659137931E+02  0.00000000000E+00 0.  1.
         11    1    3    3    0    0 -0.71884599609E+00 -0.66942568382E+01 -0.11372797733E+02  0.13216290808E+02  0.51100000000E-03 0. -1.
        -11    1    3    3    0    0 -0.31119721474E+00  0.10421112896E+02 -0.73207798634E+01  0.12739319282E+02  0.51100000000E-03 0.  1.
         12    1    3    3    0    0  0.10899052389E+02 -0.80076027971E+01 -0.20516668035E+02  0.24573251979E+02  0.00000000000E+00 0. -1.
</event>
<event>
 7    1  0.3014423E-011  0.5052886E+02  0.7816164E-02  0.1300439E+00
        -11   -1    0    0    0    0  0.00000000000E+00  0.00000000000E+00  0.45593999997E+02  0.45594000000E+02  0.51100000000E-03 0. -1.
         11   -1    0    0    0    0 -0.00000000000E+00 -0.00000000000E+00 -0.45593999997E+02  0.45594000000E+02  0.51100000000E-03 0.  1.
    9900012    2    1    2    0    0  0.13523869879E+02  0.11207922681E+02  0.36669511556E+02  0.50528860006E+02  0.30000000474E+02 0.  0.
        -12    1    1    2    0    0 -0.13523869879E+02 -0.11207922681E+02 -0.36669511556E+02  0.40659139994E+02  0.00000000000E+00 0.  1.
         11    1    3    3    0    0 -0.39472659448E+00 -0.95032148923E+00  0.24471835185E+01  0.26547367952E+01  0.51100000000E-03 0. -1.
        -11    1    3    3    0    0 -0.28815848210E+00  0.13441417078E+02  0.33349614556E+01  0.13851956416E+02  0.51100000000E-03 0.  1.
        -12    1    3    3    0    0  0.14206754955E+02 -0.12831729074E+01  0.30887366582E+02  0.34022166795E+02  0.00000000000E+00 0.  1.
</event>
<event>
 7    1  0.3014423E-011  0.5052886E+02  0.7816164E-02  0.1300439E+00
        -11   -1    0    0    0    0  0.00000000000E+00  0.00000000000E+00  0.45593999997E+02  0.45594000000E+02  0.51100000000E-03 0.  1.
         11   -1    0    0    0    0 -0.00000000000E+00 -0.00000000000E+00 -0.45593999997E+02  0.45594000000E+02  0.51100000000E-03 0. -1.
    9900012    2    1    2    0    0  0.31915097021E+02  0.27422641782E+01 -0.25041408301E+02  0.50528861294E+02  0.30000004388E+02 0.  0.
        -12    1    1    2    0    0 -0.31915097021E+02 -0.27422641782E+01  0.25041408301E+02  0.40659138706E+02  0.00000000000E+00 0.  1.
         11    1    3    3    0    0  0.24218133700E+01  0.63278594024E+01 -0.18257282307E+01  0.70171410452E+01  0.51100000000E-03 0. -1.
        -11    1    3    3    0    0  0.40013961234E+01 -0.88536167139E+01 -0.11244036179E+02  0.14860217014E+02  0.51100000000E-03 0.  1.
         12    1    3    3    0    0  0.25491887527E+02  0.52680214897E+01 -0.11971643891E+02  0.28651503234E+02  0.00000000000E+00 0. -1.
</event>
<event>
 7    1  0.3014423E-011  0.5052886E+02  0.7816164E-02  0.1300439E+00
        -11   -1    0    0    0    0  0.00000000000E+00  0.00000000000E+00  0.45593999997E+02  0.45594000000E+02  0.51100000000E-03 0.  1.
         11   -1    0    0    0    0 -0.00000000000E+00 -0.00000000000E+00 -0.45593999997E+02  0.45594000000E+02  0.51100000000E-03 0. -1.
    9900012    2    1    2    0    0 -0.32147277278E+01  0.19318819271E+02 -0.35631648261E+02  0.50528860680E+02  0.30000002524E+02 0.  0.
        -12    1    1    2    0    0  0.32147277278E+01 -0.19318819271E+02  0.35631648261E+02  0.40659139320E+02  0.00000000000E+00 0.  1.
         11    1    3    3    0    0  0.79825505866E+01  0.20345436634E+01 -0.96107153084E+00  0.82936204720E+01  0.51100000000E-03 0. -1.
        -11    1    3    3    0    0 -0.65011449914E+01  0.73652196161E+01 -0.59405757647E+01  0.11480495933E+02  0.51100000000E-03 0.  1.
        -12    1    3    3    0    0 -0.46961333230E+01  0.99190559912E+01 -0.28730000966E+02  0.30754744275E+02  0.00000000000E+00 0.  1.
</event>
<event>
 7    1  0.3014423E-011  0.5052886E+02  0.7816164E-02  0.1300439E+00
        -11   -1    0    0    0    0  0.00000000000E+00  0.00000000000E+00  0.45593999997E+02  0.45594000000E+02  0.51100000000E-03 0. -1.
         11   -1    0    0    0    0 -0.00000000000E+00 -0.00000000000E+00 -0.45593999997E+02  0.45594000000E+02  0.51100000000E-03 0.  1.
    9900012    2    1    2    0    0 -0.18355019558E+02  0.29481820235E+02  0.21144293617E+02  0.50528860561E+02  0.30000002162E+02 0.  0.
        -12    1    1    2    0    0  0.18355019558E+02 -0.29481820235E+02 -0.21144293617E+02  0.40659139439E+02  0.00000000000E+00 0.  1.
         11    1    3    3    0    0 -0.93540607835E+01  0.98266395703E+01  0.87177519039E+01  0.16126391317E+02  0.51100000000E-03 0. -1.
        -11    1    3    3    0    0 -0.10826036893E+02  0.22558460700E+02  0.40450795503E+01  0.25346595290E+02  0.51100000000E-03 0.  1.
        -12    1    3    3    0    0  0.18250781192E+01 -0.29032800346E+01  0.83814621624E+01  0.90558739545E+01  0.00000000000E+00 0.  1.
</event>
<event>
 7    1  0.3014423E-011  0.5052885E+02  0.7816164E-02  0.1300439E+00
        -11   -1    0    0    0    0  0.00000000000E+00  0.00000000000E+00  0.45593999997E+02  0.45594000000E+02  0.51100000000E-03 0. -1.
         11   -1    0    0    0    0 -0.00000000000E+00 -0.00000000000E+00 -0.45593999997E+02  0.45594000000E+02  0.51100000000E-03 0.  1.
    9900012    2    1    2    0    0 -0.29716796896E+02 -0.26198211043E+02  0.91505084690E+01  0.50528854844E+02  0.29999984784E+02 0.  0.
        -12    1    1    2    0    0  0.29716796896E+02  0.26198211043E+02 -0.91505084690E+01  0.40659145156E+02  0.00000000000E+00 0.  1.
         11    1    3    3    0    0 -0.17718854176E+02 -0.78879395863E+01  0.37559702818E+00  0.19398929291E+02  0.51100000000E-03 0. -1.
        -11    1    3    3    0    0 -0.87162243444E+00 -0.19832870990E+01 -0.60517349668E+01  0.64278028715E+01  0.51100000000E-03 0.  1.
         12    1    3    3    0    0 -0.11126320285E+02 -0.16326984357E+02  0.14826646408E+02  0.24702122682E+02  0.00000000000E+00 0. -1.
</event>
<event>
 7    1  0.3014423E-011  0.5052886E+02  0.7816164E-02  0.1300439E+00
        -11   -1    0    0    0    0  0.00000000000E+00  0.00000000000E+00  0.45593999997E+02  0.45594000000E+02  0.51100000000E-03 0. -1.
         11   -1    0    0    0    0 -0.00000000000E+00 -0.00000000000E+00 -0.45593999997E+02  0.45594000000E+02  0.51100000000E-03 0.  1.
    9900012    2    1    2    0    0  0.64684456994E+01 -0.34329546361E+02 -0.20804020081E+02  0.50528858413E+02  0.29999995631E+02 0.  0.
        -12    1    1    2    0    0 -0.64684456994E+01  0.34329546361E+02  0.20804020081E+02  0.40659141587E+02  0.00000000000E+00 0.  1.
         11    1    3    3    0    0  0.50090202265E+00 -0.15098623832E+02 -0.28362907547E+01  0.15370877983E+02  0.51100000000E-03 0. -1.
        -11    1    3    3    0    0 -0.38005979611E+01 -0.16747713201E+02 -0.35014281369E+01  0.17526849163E+02  0.51100000000E-03 0.  1.
        -12    1    3    3    0    0  0.97681416379E+01 -0.24832093271E+01 -0.14466301189E+02  0.17631131266E+02  0.00000000000E+00 0.  1.
</event>
<event>
 7    1  0.3014423E-011  0.5052886E+02  0.7816164E-02  0.1300439E+00
        -11   -1    0    0    0    0  0.00000000000E+00  0.00000000000E+00  0.45593999997E+02  0.45594000000E+02  0.51100000000E-03 0.  1.
         11   -1    0    0    0    0 -0.00000000000E+00 -0.00000000000E+00 -0.45593999997E+02  0.45594000000E+02  0.51100000000E-03 0. -1.
    9900012    2    1    2    0    0  0.34041452514E+02  0.20502893245E+02 -0.86009606185E+01  0.50528860262E+02  0.30000001252E+02 0.  0.
        -12    1    1    2    0    0 -0.34041452514E+02 -0.20502893245E+02  0.86009606185E+01  0.40659139738E+02  0.00000000000E+00 0.  1.
         11    1    3    3    0    0  0.78102798968E+01  0.27064638329E+01 -0.91667125910E+01  0.12343177813E+02  0.51100000000E-03 0. -1.
        -11    1    3    3    0    0  0.10854487991E+01  0.24931555716E+01 -0.72384842185E+01  0.77323785371E+01  0.51100000000E-03 0.  1.
        -12    1    3    3    0    0  0.25145723818E+02  0.15303273841E+02  0.78042361909E+01  0.30453303911E+02  0.00000000000E+00 0.  1.
</event>
<event>
 7    1  0.3014423E-011  0.5052887E+02  0.7816164E-02  0.1300439E+00
        -11   -1    0    0    0    0  0.00000000000E+00  0.00000000000E+00  0.45593999997E+02  0.45594000000E+02  0.51100000000E-03 0.  1.
         11   -1    0    0    0    0 -0.00000000000E+00 -0.00000000000E+00 -0.45593999997E+02  0.45594000000E+02  0.51100000000E-03 0. -1.
    9900012    2    1    2    0    0  0.16940579249E+02  0.18572081223E+02 -0.31957148915E+02  0.50528870730E+02  0.30000033070E+02 0.  0.
        -12    1    1    2    0    0 -0.16940579249E+02 -0.18572081223E+02  0.31957148915E+02  0.40659129270E+02  0.00000000000E+00 0.  1.
         11    1    3    3    0    0  0.15643862740E+01 -0.12402170340E+01 -0.63758671248E+01  0.66811020468E+01  0.51100000000E-03 0. -1.
        -11    1    3    3    0    0  0.43924395135E+00 -0.45873651649E+01 -0.10590012852E+02  0.11549252221E+02  0.51100000000E-03 0.  1.
         12    1    3    3    0    0  0.14936949024E+02  0.24399663422E+02 -0.14991268938E+02  0.32298516462E+02  0.00000000000E+00 0. -1.
</event>
<event>
 7    1  0.3014423E-011  0.5052886E+02  0.7816164E-02  0.1300439E+00
        -11   -1    0    0    0    0  0.00000000000E+00  0.00000000000E+00  0.45593999997E+02  0.45594000000E+02  0.51100000000E-03 0.  1.
         11   -1    0    0    0    0 -0.00000000000E+00 -0.00000000000E+00 -0.45593999997E+02  0.45594000000E+02  0.51100000000E-03 0. -1.
    9900012    2    1    2    0    0  0.81905103786E+01 -0.13190865103E+02 -0.37577682382E+02  0.50528860860E+02  0.30000003070E+02 0.  0.
        -12    1    1    2    0    0 -0.81905103786E+01  0.13190865103E+02  0.37577682382E+02  0.40659139140E+02  0.00000000000E+00 0.  1.
         11    1    3    3    0    0 -0.24099540582E+01 -0.91106278595E+01 -0.27723722343E+02  0.29281670023E+02  0.51100000000E-03 0. -1.
        -11    1    3    3    0    0  0.79348298300E+01 -0.84831122004E+01 -0.10974021489E+02  0.15979795522E+02  0.51100000000E-03 0.  1.
        -12    1    3    3    0    0  0.26656346067E+01  0.44028749572E+01  0.11200614496E+01  0.52673953142E+01  0.00000000000E+00 0.  1.
</event>
<event>
 7    1  0.3014423E-011  0.5052886E+02  0.7816164E-02  0.1300439E+00
        -11   -1    0    0    0    0  0.00000000000E+00  0.00000000000E+00  0.45593999997E+02  0.45594000000E+02  0.51100000000E-03 0.  1.
         11   -1    0    0    0    0 -0.00000000000E+00 -0.00000000000E+00 -0.45593999997E+02  0.45594000000E+02  0.51100000000E-03 0. -1.
    9900012    2    1    2    0    0 -0.16237621003E+01  0.19737991349E+02 -0.35509731826E+02  0.50528856376E+02  0.29999989441E+02 0.  0.
        -12    1    1    2    0    0  0.16237621003E+01 -0.19737991349E+02  0.35509731826E+02  0.40659143624E+02  0.00000000000E+00 0.  1.
         11    1    3    3    0    0 -0.43743383214E+01 -0.51471908953E+01 -0.15000085992E+02  0.16450865931E+02  0.51100000000E-03 0. -1.
        -11    1    3    3    0    0  0.24944195802E+01  0.77330279345E+00 -0.32493791521E+00  0.26316745928E+01  0.51100000000E-03 0.  1.
        -12    1    3    3    0    0  0.25615664094E+00  0.24111879451E+02 -0.20184707919E+02  0.31446315852E+02  0.00000000000E+00 0.  1.
</event>
<event>
 7    1  0.3014423E-011  0.5052885E+02  0.7816164E-02  0.1300439E+00
        -11   -1    0    0    0    0  0.00000000000E+00  0.00000000000E+00  0.45593999997E+02  0.45594000000E+02  0.51100000000E-03 0.  1.
         11   -1    0    0    0    0 -0.00000000000E+00 -0.00000000000E+00 -0.45593999997E+02  0.45594000000E+02  0.51100000000E-03 0. -1.
    9900012    2    1    2    0    0  0.35109536162E+01  0.14532939119E+02 -0.37810489708E+02  0.50528852854E+02  0.29999978734E+02 0.  0.
        -12    1    1    2    0    0 -0.35109536162E+01 -0.14532939119E+02  0.37810489708E+02  0.40659147146E+02  0.00000000000E+00 0.  1.
         11    1    3    3    0    0  0.59460425363E+01  0.58029993114E+01 -0.31488191911E+02  0.32565878661E+02  0.51100000000E-03 0. -1.
        -11    1    3    3    0    0 -0.24476405321E+01  0.40330290372E+01 -0.10604793213E+02  0.11606804330E+02  0.51100000000E-03 0.  1.
        -12    1    3    3    0    0  0.12551612056E-01  0.46969107702E+01  0.42824954171E+01  0.63561698628E+01  0.00000000000E+00 0.  1.
</event>
<event>
 7    1  0.3014423E-011  0.5052886E+02  0.7816164E-02  0.1300439E+00
        -11   -1    0    0    0    0  0.00000000000E+00  0.00000000000E+00  0.45593999997E+02  0.45594000000E+02  0.51100000000E-03 0.  1.
         11   -1    0    0    0    0 -0.00000000000E+00 -0.00000000000E+00 -0.45593999997E+02  0.45594000000E+02  0.51100000000E-03 0. -1.
    9900012    2    1    2    0    0 -0.12472143006E+02  0.19524234685E+02 -0.33412809703E+02  0.50528856582E+02  0.29999990068E+02 0.  0.
        -12    1    1    2    0    0  0.12472143006E+02 -0.19524234685E+02  0.33412809703E+02  0.40659143418E+02  0.00000000000E+00 0.  1.
         11    1    3    3    0    0 -0.11661517797E+02  0.27558323415E+01 -0.16324066238E+02  0.20249956742E+02  0.51100000000E-03 0. -1.
        -11    1    3    3    0    0 -0.37840598955E+01  0.17911348628E+02 -0.19143706207E+02  0.26488054035E+02  0.51100000000E-03 0.  1.
        -12    1    3    3    0    0  0.29734346866E+01 -0.11429462849E+01  0.20549627423E+01  0.37908458051E+01  0.00000000000E+00 0.  1.
</event>
<event>
 7    1  0.3014423E-011  0.5052886E+02  0.7816164E-02  0.1300439E+00
        -11   -1    0    0    0    0  0.00000000000E+00  0.00000000000E+00  0.45593999997E+02  0.45594000000E+02  0.51100000000E-03 0.  1.
         11   -1    0    0    0    0 -0.00000000000E+00 -0.00000000000E+00 -0.45593999997E+02  0.45594000000E+02  0.51100000000E-03 0. -1.
    9900012    2    1    2    0    0  0.13740733982E+02  0.25356378389E+02 -0.28660287446E+02  0.50528858692E+02  0.29999996482E+02 0.  0.
        -12    1    1    2    0    0 -0.13740733982E+02 -0.25356378389E+02  0.28660287446E+02  0.40659141308E+02  0.00000000000E+00 0.  1.
         11    1    3    3    0    0  0.24871503801E+01  0.47895384329E+01 -0.21543285378E+01  0.58109144825E+01  0.51100000000E-03 0. -1.
        -11    1    3    3    0    0 -0.64424930377E+01  0.33258037696E-01  0.49031182587E+00  0.64612095297E+01  0.51100000000E-03 0.  1.
        -12    1    3    3    0    0  0.17696076640E+02  0.20533581919E+02 -0.26996270734E+02  0.38256734680E+02  0.00000000000E+00 0.  1.
</event>
<event>
 7    1  0.3014423E-011  0.5052886E+02  0.7816164E-02  0.1300439E+00
        -11   -1    0    0    0    0  0.00000000000E+00  0.00000000000E+00  0.45593999997E+02  0.45594000000E+02  0.51100000000E-03 0.  1.
         11   -1    0    0    0    0 -0.00000000000E+00 -0.00000000000E+00 -0.45593999997E+02  0.45594000000E+02  0.51100000000E-03 0. -1.
    9900012    2    1    2    0    0  0.17056432454E+01  0.28177899212E+02 -0.29261962799E+02  0.50528859703E+02  0.29999999552E+02 0.  0.
        -12    1    1    2    0    0 -0.17056432454E+01 -0.28177899212E+02  0.29261962799E+02  0.40659140297E+02  0.00000000000E+00 0.  1.
         11    1    3    3    0    0  0.67504571429E+01  0.16208873438E+01 -0.77389943452E+01  0.10396536979E+02  0.51100000000E-03 0. -1.
        -11    1    3    3    0    0 -0.91354689169E+01  0.11154712399E+02 -0.14330883021E+01  0.14489242332E+02  0.51100000000E-03 0.  1.
         12    1    3    3    0    0  0.40906550195E+01  0.15402299469E+02 -0.20089880152E+02  0.25643080391E+02  0.00000000000E+00 0. -1.
</event>
<event>
 7    1  0.3014423E-011  0.5052886E+02  0.7816164E-02  0.1300439E+00
        -11   -1    0    0    0    0  0.00000000000E+00  0.00000000000E+00  0.45593999997E+02  0.45594000000E+02  0.51100000000E-03 0.  1.
         11   -1    0    0    0    0 -0.00000000000E+00 -0.00000000000E+00 -0.45593999997E+02  0.45594000000E+02  0.51100000000E-03 0. -1.
    9900012    2    1    2    0    0 -0.50709797597E+01  0.37463497606E+02 -0.14964542438E+02  0.50528855653E+02  0.29999987243E+02 0.  0.
        -12    1    1    2    0    0  0.50709797597E+01 -0.37463497606E+02  0.14964542438E+02  0.40659144347E+02  0.00000000000E+00 0.  1.
         11    1    3    3    0    0 -0.31613889072E+01  0.93249217669E+01 -0.10875125171E+02  0.14670272442E+02  0.51100000000E-03 0. -1.
        -11    1    3    3    0    0 -0.91912867793E+01  0.26529068435E+02 -0.42695849264E+01  0.28398953861E+02  0.51100000000E-03 0.  1.
        -12    1    3    3    0    0  0.72816959268E+01  0.16095074044E+01  0.18016765918E+00  0.74596293500E+01  0.00000000000E+00 0.  1.
</event>
<event>
 7    1  0.3014423E-011  0.5052886E+02  0.7816164E-02  0.1300439E+00
        -11   -1    0    0    0    0  0.00000000000E+00  0.00000000000E+00  0.45593999997E+02  0.45594000000E+02  0.51100000000E-03 0.  1.
         11   -1    0    0    0    0 -0.00000000000E+00 -0.00000000000E+00 -0.45593999997E+02  0.45594000000E+02  0.51100000000E-03 0. -1.
    9900012    2    1    2    0    0 -0.14657044737E+02  0.34501422896E+02  0.15747648843E+02  0.50528860973E+02  0.30000003415E+02 0.  0.
        -12    1    1    2    0    0  0.14657044737E+02 -0.34501422896E+02 -0.15747648843E+02  0.40659139027E+02  0.00000000000E+00 0.  1.
         11    1    3    3    0    0 -0.32196177543E+01  0.39426476482E+01 -0.34419953209E+01  0.61447327860E+01  0.51100000000E-03 0. -1.
        -11    1    3    3    0    0 -0.20282698016E+01 -0.35088259695E+01 -0.22604125835E+00  0.40591665381E+01  0.51100000000E-03 0.  1.
        -12    1    3    3    0    0 -0.94091571808E+01  0.34067601218E+02  0.19415685422E+02  0.40324961649E+02  0.00000000000E+00 0.  1.
</event>
<event>
 7    1  0.3014423E-011  0.5052886E+02  0.7816164E-02  0.1300439E+00
        -11   -1    0    0    0    0  0.00000000000E+00  0.00000000000E+00  0.45593999997E+02  0.45594000000E+02  0.51100000000E-03 0.  1.
         11   -1    0    0    0    0 -0.00000000000E+00 -0.00000000000E+00 -0.45593999997E+02  0.45594000000E+02  0.51100000000E-03 0. -1.
    9900012    2    1    2    0    0 -0.48090566327E+01  0.17260302186E+02 -0.36498227863E+02  0.50528859645E+02  0.29999999377E+02 0.  0.
        -12    1    1    2    0    0  0.48090566327E+01 -0.17260302186E+02  0.36498227863E+02  0.40659140355E+02  0.00000000000E+00 0.  1.
         11    1    3    3    0    0  0.37017605407E+01  0.25135110537E+00 -0.37936078109E+01  0.53063800244E+01  0.51100000000E-03 0. -1.
        -11    1    3    3    0    0  0.87861732909E+01  0.67903213555E+01 -0.12727545785E+02  0.16890699428E+02  0.51100000000E-03 0.  1.
        -12    1    3    3    0    0 -0.17296990464E+02  0.10218629725E+02 -0.19977074267E+02  0.28331780192E+02  0.00000000000E+00 0.  1.
</event>
<event>
 7    1  0.3014423E-011  0.5052887E+02  0.7816164E-02  0.1300439E+00
        -11   -1    0    0    0    0  0.00000000000E+00  0.00000000000E+00  0.45593999997E+02  0.45594000000E+02  0.51100000000E-03 0. -1.
         11   -1    0    0    0    0 -0.00000000000E+00 -0.00000000000E+00 -0.45593999997E+02  0.45594000000E+02  0.51100000000E-03 0.  1.
    9900012    2    1    2    0    0 -0.33423372763E+02  0.14036292626E+02  0.18412655847E+02  0.50528865074E+02  0.30000015880E+02 0.  0.
        -12    1    1    2    0    0  0.33423372763E+02 -0.14036292626E+02 -0.18412655847E+02  0.40659134926E+02  0.00000000000E+00 0.  1.
         11    1    3    3    0    0 -0.24430652144E+02  0.21849909756E+02  0.68407103897E+01  0.33482392976E+02  0.51100000000E-03 0. -1.
        -11    1    3    3    0    0 -0.18222962703E+01 -0.23355218701E+01  0.52520049434E+01  0.60298409837E+01  0.51100000000E-03 0.  1.
        -12    1    3    3    0    0 -0.71704243489E+01 -0.54780952595E+01  0.63199405138E+01  0.11016631115E+02  0.00000000000E+00 0.  1.
</event>
<event>
 7    1  0.3014423E-011  0.5052886E+02  0.7816164E-02  0.1300439E+00
        -11   -1    0    0    0    0  0.00000000000E+00  0.00000000000E+00  0.45593999997E+02  0.45594000000E+02  0.51100000000E-03 0.  1.
         11   -1    0    0    0    0 -0.00000000000E+00 -0.00000000000E+00 -0.45593999997E+02  0.45594000000E+02  0.51100000000E-03 0. -1.
    9900012    2    1    2    0    0  0.16584207399E+02  0.33807819144E+01 -0.36968903578E+02  0.50528862612E+02  0.30000008394E+02 0.  0.
        -12    1    1    2    0    0 -0.16584207399E+02 -0.33807819144E+01  0.36968903578E+02  0.40659137388E+02  0.00000000000E+00 0.  1.
         11    1    3    3    0    0 -0.34624041131E+01 -0.11326230620E+01 -0.17647673755E+02  0.18019752120E+02  0.51100000000E-03 0. -1.
        -11    1    3    3    0    0  0.60670415851E+01  0.10418063132E+00 -0.16501695593E+02  0.17581973863E+02  0.51100000000E-03 0.  1.
        -12    1    3    3    0    0  0.13979569927E+02  0.44092243451E+01 -0.28195342301E+01  0.14927136629E+02  0.00000000000E+00 0.  1.
</event>
<event>
 7    1  0.3014423E-011  0.5052886E+02  0.7816164E-02  0.1300439E+00
        -11   -1    0    0    0    0  0.00000000000E+00  0.00000000000E+00  0.45593999997E+02  0.45594000000E+02  0.51100000000E-03 0. -1.
         11   -1    0    0    0    0 -0.00000000000E+00 -0.00000000000E+00 -0.45593999997E+02  0.45594000000E+02  0.51100000000E-03 0.  1.
    9900012    2    1    2    0    0 -0.82154256870E+01  0.27927093190E+02  0.28385734092E+02  0.50528860151E+02  0.30000000916E+02 0.  0.
        -12    1    1    2    0    0  0.82154256870E+01 -0.27927093190E+02 -0.28385734092E+02  0.40659139849E+02  0.00000000000E+00 0.  1.
         11    1    3    3    0    0  0.12155292554E+00  0.57802669119E+01  0.14613459378E+02  0.15715580038E+02  0.51100000000E-03 0. -1.
        -11    1    3    3    0    0  0.38644891661E+01  0.16203832573E+02  0.13157058809E+02  0.21227497811E+02  0.51100000000E-03 0.  1.
         12    1    3    3    0    0 -0.12201467779E+02  0.59429937057E+01  0.61521590515E+00  0.13585782302E+02  0.00000000000E+00 0. -1.
</event>
<event>
 7    1  0.3014423E-011  0.5052887E+02  0.7816164E-02  0.1300439E+00
        -11   -1    0    0    0    0  0.00000000000E+00  0.00000000000E+00  0.45593999997E+02  0.45594000000E+02  0.51100000000E-03 0.  1.
         11   -1    0    0    0    0 -0.00000000000E+00 -0.00000000000E+00 -0.45593999997E+02  0.45594000000E+02  0.51100000000E-03 0. -1.
    9900012    2    1    2    0    0  0.14760342226E+02  0.16021141460E+02 -0.34331033399E+02  0.50528873958E+02  0.30000042881E+02 0.  0.
        -12    1    1    2    0    0 -0.14760342226E+02 -0.16021141460E+02  0.34331033399E+02  0.40659126042E+02  0.00000000000E+00 0.  1.
         11    1    3    3    0    0  0.14595663043E+02  0.12465947006E+02 -0.88931845449E+01  0.21154714511E+02  0.51100000000E-03 0. -1.
        -11    1    3    3    0    0  0.37310389997E+01  0.79750759762E+01 -0.17774981967E+02  0.19836140578E+02  0.51100000000E-03 0.  1.
        -12    1    3    3    0    0 -0.35663598163E+01 -0.44198815228E+01 -0.76628668864E+01  0.95380188684E+01  0.00000000000E+00 0.  1.
</event>
<event>
 7    1  0.3014423E-011  0.5052886E+02  0.7816164E-02  0.1300439E+00
        -11   -1    0    0    0    0  0.00000000000E+00  0.00000000000E+00  0.45593999997E+02  0.45594000000E+02  0.51100000000E-03 0.  1.
         11   -1    0    0    0    0 -0.00000000000E+00 -0.00000000000E+00 -0.45593999997E+02  0.45594000000E+02  0.51100000000E-03 0. -1.
    9900012    2    1    2    0    0  0.28024471281E+02 -0.22295745171E+02 -0.19253429848E+02  0.50528858295E+02  0.29999995272E+02 0.  0.
        -12    1    1    2    0    0 -0.28024471281E+02  0.22295745171E+02  0.19253429848E+02  0.40659141705E+02  0.00000000000E+00 0.  1.
         11    1    3    3    0    0  0.15201205589E+02 -0.39951445866E+01 -0.67461658572E+01  0.17104051732E+02  0.51100000000E-03 0. -1.
        -11    1    3    3    0    0 -0.10047221335E+01  0.43781385528E+00 -0.99346460385E+01  0.99949156930E+01  0.51100000000E-03 0.  1.
        -12    1    3    3    0    0  0.13827987825E+02 -0.18738414440E+02 -0.25726179526E+01  0.23429890869E+02  0.00000000000E+00 0.  1.
</event>
<event>
 7    1  0.3014423E-011  0.5052885E+02  0.7816164E-02  0.1300439E+00
        -11   -1    0    0    0    0  0.00000000000E+00  0.00000000000E+00  0.45593999997E+02  0.45594000000E+02  0.51100000000E-03 0.  1.
         11   -1    0    0    0    0 -0.00000000000E+00 -0.00000000000E+00 -0.45593999997E+02  0.45594000000E+02  0.51100000000E-03 0. -1.
    9900012    2    1    2    0    0 -0.16604028806E+02 -0.75883353535E+01 -0.36330289550E+02  0.50528849187E+02  0.29999967589E+02 0.  0.
        -12    1    1    2    0    0  0.16604028806E+02  0.75883353535E+01  0.36330289550E+02  0.40659150813E+02  0.00000000000E+00 0.  1.
         11    1    3    3    0    0 -0.11306496748E+02 -0.11667690302E+02 -0.36380397071E+02  0.39843508342E+02  0.51100000000E-03 0. -1.
        -11    1    3    3    0    0 -0.69882209025E+01  0.19331946056E+01 -0.16914461390E+01  0.74453652072E+01  0.51100000000E-03 0.  1.
        -12    1    3    3    0    0  0.16906888441E+01  0.21461603430E+01  0.17415536599E+01  0.32399756382E+01  0.00000000000E+00 0.  1.
</event>
<event>
 7    1  0.3014423E-011  0.5052886E+02  0.7816164E-02  0.1300439E+00
        -11   -1    0    0    0    0  0.00000000000E+00  0.00000000000E+00  0.45593999997E+02  0.45594000000E+02  0.51100000000E-03 0. -1.
         11   -1    0    0    0    0 -0.00000000000E+00 -0.00000000000E+00 -0.45593999997E+02  0.45594000000E+02  0.51100000000E-03 0.  1.
    9900012    2    1    2    0    0 -0.14313244463E+02  0.37528589479E+02  0.63167585773E+01  0.50528862844E+02  0.30000009101E+02 0.  0.
        -12    1    1    2    0    0  0.14313244463E+02 -0.37528589479E+02 -0.63167585773E+01  0.40659137156E+02  0.00000000000E+00 0.  1.
         11    1    3    3    0    0 -0.23807480768E+01  0.15964569924E+02  0.73109227007E+01  0.17719623169E+02  0.51100000000E-03 0. -1.
        -11    1    3    3    0    0 -0.15612359397E+02  0.10564987260E+02  0.53415520096E+01  0.19593287112E+02  0.51100000000E-03 0.  1.
        -12    1    3    3    0    0  0.36798630108E+01  0.10999032295E+02 -0.63357161329E+01  0.13215952562E+02  0.00000000000E+00 0.  1.
</event>
<event>
 7    1  0.3014423E-011  0.5052886E+02  0.7816164E-02  0.1300439E+00
        -11   -1    0    0    0    0  0.00000000000E+00  0.00000000000E+00  0.45593999997E+02  0.45594000000E+02  0.51100000000E-03 0.  1.
         11   -1    0    0    0    0 -0.00000000000E+00 -0.00000000000E+00 -0.45593999997E+02  0.45594000000E+02  0.51100000000E-03 0. -1.
    9900012    2    1    2    0    0 -0.13646409765E+02 -0.41437042788E+01 -0.38075858123E+02  0.50528858883E+02  0.29999997060E+02 0.  0.
        -12    1    1    2    0    0  0.13646409765E+02  0.41437042788E+01  0.38075858123E+02  0.40659141117E+02  0.00000000000E+00 0.  1.
         11    1    3    3    0    0  0.16661290381E+01  0.92093465037E+01 -0.19881569605E+02  0.21974186202E+02  0.51100000000E-03 0. -1.
        -11    1    3    3    0    0 -0.78378772079E+01 -0.18186599929E+01 -0.48330371786E+01  0.93860583807E+01  0.51100000000E-03 0.  1.
        -12    1    3    3    0    0 -0.74746615954E+01 -0.11534390790E+02 -0.13361251339E+02  0.19168614300E+02  0.00000000000E+00 0.  1.
</event>
<event>
 7    1  0.3014423E-011  0.5052886E+02  0.7816164E-02  0.1300439E+00
        -11   -1    0    0    0    0  0.00000000000E+00  0.00000000000E+00  0.45593999997E+02  0.45594000000E+02  0.51100000000E-03 0.  1.
         11   -1    0    0    0    0 -0.00000000000E+00 -0.00000000000E+00 -0.45593999997E+02  0.45594000000E+02  0.51100000000E-03 0. -1.
    9900012    2    1    2    0    0  0.15220416988E+02 -0.75917379907E+01 -0.36930610999E+02  0.50528860711E+02  0.30000002616E+02 0.  0.
        -12    1    1    2    0    0 -0.15220416988E+02  0.75917379907E+01  0.36930610999E+02  0.40659139289E+02  0.00000000000E+00 0.  1.
         11    1    3    3    0    0  0.57727218398E+01 -0.67988321342E+01 -0.80208314521E+01  0.11995089548E+02  0.51100000000E-03 0. -1.
        -11    1    3    3    0    0 -0.54333828222E+01 -0.72359578761E+01 -0.12803321761E+02  0.15678194528E+02  0.51100000000E-03 0.  1.
         12    1    3    3    0    0  0.14881077970E+02  0.64430520196E+01 -0.16106457786E+02  0.22855576635E+02  0.00000000000E+00 0. -1.
</event>
<event>
 7    1  0.3014423E-011  0.5052887E+02  0.7816164E-02  0.1300439E+00
        -11   -1    0    0    0    0  0.00000000000E+00  0.00000000000E+00  0.45593999997E+02  0.45594000000E+02  0.51100000000E-03 0.  1.
         11   -1    0    0    0    0 -0.00000000000E+00 -0.00000000000E+00 -0.45593999997E+02  0.45594000000E+02  0.51100000000E-03 0. -1.
    9900012    2    1    2    0    0  0.21354718867E+02  0.39028676768E+01 -0.34378899491E+02  0.50528866657E+02  0.30000020690E+02 0.  0.
        -12    1    1    2    0    0 -0.21354718867E+02 -0.39028676768E+01  0.34378899491E+02  0.40659133343E+02  0.00000000000E+00 0.  1.
         11    1    3    3    0    0  0.58517168830E-01 -0.24772493397E+01  0.31609408402E+00  0.24980200723E+01  0.51100000000E-03 0. -1.
        -11    1    3    3    0    0  0.10796371251E+02  0.47914819636E+01 -0.67967354611E-01  0.11812051110E+02  0.51100000000E-03 0.  1.
         12    1    3    3    0    0  0.10499830447E+02  0.15886350529E+01 -0.34627026221E+02  0.36218795475E+02  0.00000000000E+00 0. -1.
</event>
<event>
 7    1  0.3014423E-011  0.5052889E+02  0.7816164E-02  0.1300439E+00
        -11   -1    0    0    0    0  0.00000000000E+00  0.00000000000E+00  0.45593999997E+02  0.45594000000E+02  0.51100000000E-03 0.  1.
         11   -1    0    0    0    0 -0.00000000000E+00 -0.00000000000E+00 -0.45593999997E+02  0.45594000000E+02  0.51100000000E-03 0. -1.
    9900012    2    1    2    0    0 -0.29478048404E+01  0.21292753526E+01 -0.40496170335E+02  0.50528890582E+02  0.30000093413E+02 0.  0.
        -12    1    1    2    0    0  0.29478048404E+01 -0.21292753526E+01  0.40496170335E+02  0.40659109418E+02  0.00000000000E+00 0.  1.
         11    1    3    3    0    0  0.34914069983E+01  0.23993349447E+01  0.67319996921E+00  0.42895138960E+01  0.51100000000E-03 0. -1.
        -11    1    3    3    0    0 -0.48584115288E+01 -0.91595709081E+01 -0.12826234980E+02  0.16492853175E+02  0.51100000000E-03 0.  1.
         12    1    3    3    0    0 -0.15808003100E+01  0.88895113160E+01 -0.28343135323E+02  0.29746523511E+02  0.00000000000E+00 0. -1.
</event>
<event>
 7    1  0.3014423E-011  0.5052889E+02  0.7816164E-02  0.1300439E+00
        -11   -1    0    0    0    0  0.00000000000E+00  0.00000000000E+00  0.45593999997E+02  0.45594000000E+02  0.51100000000E-03 0. -1.
         11   -1    0    0    0    0 -0.00000000000E+00 -0.00000000000E+00 -0.45593999997E+02  0.45594000000E+02  0.51100000000E-03 0.  1.
    9900012    2    1    2    0    0 -0.11098744883E+01 -0.38482135770E+02 -0.13078874382E+02  0.50528886017E+02  0.30000079537E+02 0.  0.
        -12    1    1    2    0    0  0.11098744883E+01  0.38482135770E+02  0.13078874382E+02  0.40659113983E+02  0.00000000000E+00 0.  1.
         11    1    3    3    0    0  0.10478953681E+01 -0.16036700757E+02  0.67005935082E+01  0.17411829585E+02  0.51100000000E-03 0. -1.
        -11    1    3    3    0    0 -0.71324864010E+01 -0.58943506500E+01 -0.62039465082E+01  0.11140228202E+02  0.51100000000E-03 0.  1.
        -12    1    3    3    0    0  0.49747165446E+01 -0.16551084363E+02 -0.13575521382E+02  0.21976828230E+02  0.00000000000E+00 0.  1.
</event>
<event>
 7    1  0.3014423E-011  0.5052883E+02  0.7816164E-02  0.1300439E+00
        -11   -1    0    0    0    0  0.00000000000E+00  0.00000000000E+00  0.45593999997E+02  0.45594000000E+02  0.51100000000E-03 0.  1.
         11   -1    0    0    0    0 -0.00000000000E+00 -0.00000000000E+00 -0.45593999997E+02  0.45594000000E+02  0.51100000000E-03 0. -1.
    9900012    2    1    2    0    0 -0.18436739622E+02 -0.33525981682E+02 -0.13757293629E+02  0.50528831986E+02  0.29999915304E+02 0.  0.
        -12    1    1    2    0    0  0.18436739622E+02  0.33525981682E+02  0.13757293629E+02  0.40659168014E+02  0.00000000000E+00 0.  1.
         11    1    3    3    0    0  0.30601480761E+01 -0.10363281731E+02 -0.19287338152E+01  0.10976435163E+02  0.51100000000E-03 0. -1.
        -11    1    3    3    0    0 -0.41143656134E+01 -0.15809940348E+01  0.53627141609E+01  0.69416316505E+01  0.51100000000E-03 0.  1.
        -12    1    3    3    0    0 -0.17382522085E+02 -0.21581705916E+02 -0.17191273975E+02  0.32610765172E+02  0.00000000000E+00 0.  1.
</event>
<event>
 7    1  0.3014423E-011  0.5052886E+02  0.7816164E-02  0.1300439E+00
        -11   -1    0    0    0    0  0.00000000000E+00  0.00000000000E+00  0.45593999997E+02  0.45594000000E+02  0.51100000000E-03 0.  1.
         11   -1    0    0    0    0 -0.00000000000E+00 -0.00000000000E+00 -0.45593999997E+02  0.45594000000E+02  0.51100000000E-03 0. -1.
    9900012    2    1    2    0    0  0.24431163861E+02 -0.23395849206E+02 -0.22559216559E+02  0.50528858600E+02  0.29999996200E+02 0.  0.
        -12    1    1    2    0    0 -0.24431163861E+02  0.23395849206E+02  0.22559216559E+02  0.40659141400E+02  0.00000000000E+00 0.  1.
         11    1    3    3    0    0  0.53633235499E+01 -0.53569645837E+01 -0.10582060792E+02  0.13017001188E+02  0.51100000000E-03 0. -1.
        -11    1    3    3    0    0 -0.26279054298E+01 -0.28555208655E+01 -0.10266795844E+02  0.10975745238E+02  0.51100000000E-03 0.  1.
         12    1    3    3    0    0  0.21695745741E+02 -0.15183363757E+02 -0.17103599218E+01  0.26536112174E+02  0.00000000000E+00 0. -1.
</event>
<event>
 7    1  0.3014423E-011  0.5052885E+02  0.7816164E-02  0.1300439E+00
        -11   -1    0    0    0    0  0.00000000000E+00  0.00000000000E+00  0.45593999997E+02  0.45594000000E+02  0.51100000000E-03 0.  1.
         11   -1    0    0    0    0 -0.00000000000E+00 -0.00000000000E+00 -0.45593999997E+02  0.45594000000E+02  0.51100000000E-03 0. -1.
    9900012    2    1    2    0    0 -0.72321747949E+01  0.43147751241E+01 -0.39777441854E+02  0.50528849528E+02  0.29999968627E+02 0.  0.
        -12    1    1    2    0    0  0.72321747949E+01 -0.43147751241E+01  0.39777441854E+02  0.40659150472E+02  0.00000000000E+00 0.  1.
         11    1    3    3    0    0 -0.13154682898E+02  0.89822279146E+01 -0.31055733014E+02  0.34902502113E+02  0.51100000000E-03 0. -1.
        -11    1    3    3    0    0 -0.24404721935E+01 -0.17842860228E+01 -0.53779887927E+01  0.61694687660E+01  0.51100000000E-03 0.  1.
        -12    1    3    3    0    0  0.83629802961E+01 -0.28831667676E+01 -0.33437200475E+01  0.94568786499E+01  0.00000000000E+00 0.  1.
</event>
<event>
 7    1  0.3014423E-011  0.5052886E+02  0.7816164E-02  0.1300439E+00
        -11   -1    0    0    0    0  0.00000000000E+00  0.00000000000E+00  0.45593999997E+02  0.45594000000E+02  0.51100000000E-03 0.  1.
         11   -1    0    0    0    0 -0.00000000000E+00 -0.00000000000E+00 -0.45593999997E+02  0.45594000000E+02  0.51100000000E-03 0. -1.
    9900012    2    1    2    0    0  0.21437131240E+02  0.99201383230E+01 -0.33093890560E+02  0.50528864095E+02  0.30000012902E+02 0.  0.
        -12    1    1    2    0    0 -0.21437131240E+02 -0.99201383230E+01  0.33093890560E+02  0.40659135905E+02  0.00000000000E+00 0.  1.
         11    1    3    3    0    0  0.38848899063E+01  0.10697531278E+02 -0.86799540681E+01  0.14313320646E+02  0.51100000000E-03 0. -1.
        -11    1    3    3    0    0  0.12194538768E+02  0.66202116789E+01 -0.49802353602E+01  0.14742344554E+02  0.51100000000E-03 0.  1.
         12    1    3    3    0    0  0.53577025657E+01 -0.73976046335E+01 -0.19433701132E+02  0.21473198895E+02  0.00000000000E+00 0. -1.
</event>
<event>
 7    1  0.3014423E-011  0.5052886E+02  0.7816164E-02  0.1300439E+00
        -11   -1    0    0    0    0  0.00000000000E+00  0.00000000000E+00  0.45593999997E+02  0.45594000000E+02  0.51100000000E-03 0. -1.
         11   -1    0    0    0    0 -0.00000000000E+00 -0.00000000000E+00 -0.45593999997E+02  0.45594000000E+02  0.51100000000E-03 0.  1.
    9900012    2    1    2    0    0 -0.85570480195E+01  0.23567889129E+02  0.32007771844E+02  0.50528856782E+02  0.29999990674E+02 0.  0.
        -12    1    1    2    0    0  0.85570480195E+01 -0.23567889129E+02 -0.32007771844E+02  0.40659143218E+02  0.00000000000E+00 0.  1.
         11    1    3    3    0    0 -0.55777726869E+01  0.25437662916E+01 -0.10426503971E+01  0.62184737038E+01  0.51100000000E-03 0. -1.
        -11    1    3    3    0    0 -0.10610279702E+02  0.64628589183E+01  0.18909929566E+02  0.22625914726E+02  0.51100000000E-03 0.  1.
         12    1    3    3    0    0  0.76310043690E+01  0.14561263919E+02  0.14140492675E+02  0.21684468352E+02  0.00000000000E+00 0. -1.
</event>
<event>
 7    1  0.3014423E-011  0.5052887E+02  0.7816164E-02  0.1300439E+00
        -11   -1    0    0    0    0  0.00000000000E+00  0.00000000000E+00  0.45593999997E+02  0.45594000000E+02  0.51100000000E-03 0. -1.
         11   -1    0    0    0    0 -0.00000000000E+00 -0.00000000000E+00 -0.45593999997E+02  0.45594000000E+02  0.51100000000E-03 0.  1.
    9900012    2    1    2    0    0 -0.38270922661E+02 -0.16830255798E+01  0.13626041500E+02  0.50528866913E+02  0.30000021469E+02 0.  0.
        -12    1    1    2    0    0  0.38270922661E+02  0.16830255798E+01 -0.13626041500E+02  0.40659133087E+02  0.00000000000E+00 0.  1.
         11    1    3    3    0    0 -0.43764117803E+01 -0.42235099778E+01  0.11825601745E+02  0.13297965013E+02  0.51100000000E-03 0. -1.
        -11    1    3    3    0    0 -0.11472117191E+02 -0.25279666574E+01 -0.56905511739E+01  0.13053063287E+02  0.51100000000E-03 0.  1.
         12    1    3    3    0    0 -0.22422393690E+02  0.50684510554E+01  0.74909909289E+01  0.24177838613E+02  0.00000000000E+00 0. -1.
</event>
<event>
 7    1  0.3014423E-011  0.5052887E+02  0.7816164E-02  0.1300439E+00
        -11   -1    0    0    0    0  0.00000000000E+00  0.00000000000E+00  0.45593999997E+02  0.45594000000E+02  0.51100000000E-03 0.  1.
         11   -1    0    0    0    0 -0.00000000000E+00 -0.00000000000E+00 -0.45593999997E+02  0.45594000000E+02  0.51100000000E-03 0. -1.
    9900012    2    1    2    0    0  0.22385370666E+02  0.24233577996E+02 -0.23765394599E+02  0.50528866920E+02  0.30000021490E+02 0.  0.
        -12    1    1    2    0    0 -0.22385370666E+02 -0.24233577996E+02  0.23765394599E+02  0.40659133080E+02  0.00000000000E+00 0.  1.
         11    1    3    3    0    0  0.47915244031E+00  0.19002618478E+01  0.21429869326E+01  0.29039585751E+01  0.51100000000E-03 0. -1.
        -11    1    3    3    0    0 -0.36679618932E+01 -0.82187025657E+00  0.98041613041E+00  0.38846661656E+01  0.51100000000E-03 0.  1.
         12    1    3    3    0    0  0.25574180119E+02  0.23155186405E+02 -0.26888797663E+02  0.43740242179E+02  0.00000000000E+00 0. -1.
</event>
<event>
 7    1  0.3014423E-011  0.5052886E+02  0.7816164E-02  0.1300439E+00
        -11   -1    0    0    0    0  0.00000000000E+00  0.00000000000E+00  0.45593999997E+02  0.45594000000E+02  0.51100000000E-03 0.  1.
         11   -1    0    0    0    0 -0.00000000000E+00 -0.00000000000E+00 -0.45593999997E+02  0.45594000000E+02  0.51100000000E-03 0. -1.
    9900012    2    1    2    0    0  0.33930529092E+02  0.15808261898E+02 -0.15873985088E+02  0.50528863865E+02  0.30000012204E+02 0.  0.
        -12    1    1    2    0    0 -0.33930529092E+02 -0.15808261898E+02  0.15873985088E+02  0.40659136135E+02  0.00000000000E+00 0.  1.
         11    1    3    3    0    0  0.93107271143E+00 -0.15397531031E+01 -0.12445574757E+00  0.18036700105E+01  0.51100000000E-03 0. -1.
        -11    1    3    3    0    0  0.13553117114E+02 -0.29937231595E+01 -0.15192445258E+02  0.20578137793E+02  0.51100000000E-03 0.  1.
         12    1    3    3    0    0  0.19446339267E+02  0.20341738160E+02 -0.55708408238E+00  0.28147056062E+02  0.00000000000E+00 0. -1.
</event>
<event>
 7    1  0.3014423E-011  0.5052886E+02  0.7816164E-02  0.1300439E+00
        -11   -1    0    0    0    0  0.00000000000E+00  0.00000000000E+00  0.45593999997E+02  0.45594000000E+02  0.51100000000E-03 0.  1.
         11   -1    0    0    0    0 -0.00000000000E+00 -0.00000000000E+00 -0.45593999997E+02  0.45594000000E+02  0.51100000000E-03 0. -1.
    9900012    2    1    2    0    0 -0.16650705408E+02 -0.11051348528E+02 -0.35408857890E+02  0.50528861889E+02  0.30000006197E+02 0.  0.
        -12    1    1    2    0    0  0.16650705408E+02  0.11051348528E+02  0.35408857890E+02  0.40659138111E+02  0.00000000000E+00 0.  1.
         11    1    3    3    0    0 -0.91664538569E+01 -0.76760105313E+01 -0.21189435215E+02  0.24329759123E+02  0.51100000000E-03 0. -1.
        -11    1    3    3    0    0 -0.33600345470E+01 -0.97807820704E+01 -0.31764417093E+00  0.10346710982E+02  0.51100000000E-03 0.  1.
        -12    1    3    3    0    0 -0.41242170042E+01  0.64054440738E+01 -0.13901778504E+02  0.15852391783E+02  0.00000000000E+00 0.  1.
</event>
<event>
 7    1  0.3014423E-011  0.5052884E+02  0.7816164E-02  0.1300439E+00
        -11   -1    0    0    0    0  0.00000000000E+00  0.00000000000E+00  0.45593999997E+02  0.45594000000E+02  0.51100000000E-03 0.  1.
         11   -1    0    0    0    0 -0.00000000000E+00 -0.00000000000E+00 -0.45593999997E+02  0.45594000000E+02  0.51100000000E-03 0. -1.
    9900012    2    1    2    0    0  0.36472594654E+02 -0.14620819633E+02  0.10447426486E+02  0.50528840544E+02  0.29999941317E+02 0.  0.
        -12    1    1    2    0    0 -0.36472594654E+02  0.14620819633E+02 -0.10447426486E+02  0.40659159456E+02  0.00000000000E+00 0.  1.
         11    1    3    3    0    0  0.14575684647E+01 -0.42745031490E+01  0.92011579462E+01  0.10249741012E+02  0.51100000000E-03 0.  1.
        -11    1    3    3    0    0 -0.99256012975E+00 -0.66625689569E+00 -0.25340764312E+01  0.28018953375E+01  0.51100000000E-03 0. -1.
        -12    1    3    3    0    0  0.36007586319E+02 -0.96800595879E+01  0.37803449714E+01  0.37477204194E+02  0.00000000000E+00 0.  1.
</event>
<event>
 7    1  0.3014423E-011  0.5052886E+02  0.7816164E-02  0.1300439E+00
        -11   -1    0    0    0    0  0.00000000000E+00  0.00000000000E+00  0.45593999997E+02  0.45594000000E+02  0.51100000000E-03 0.  1.
         11   -1    0    0    0    0 -0.00000000000E+00 -0.00000000000E+00 -0.45593999997E+02  0.45594000000E+02  0.51100000000E-03 0. -1.
    9900012    2    1    2    0    0  0.79962225948E+01 -0.34998275264E+02 -0.19087866300E+02  0.50528862194E+02  0.30000007124E+02 0.  0.
        -12    1    1    2    0    0 -0.79962225948E+01  0.34998275264E+02  0.19087866300E+02  0.40659137806E+02  0.00000000000E+00 0.  1.
         11    1    3    3    0    0 -0.15588639425E+01 -0.19309173010E+01  0.16321104058E-01  0.24816859298E+01  0.51100000000E-03 0. -1.
        -11    1    3    3    0    0  0.71673289605E+01  0.19670399773E+01 -0.86582478541E+01  0.11410745237E+02  0.51100000000E-03 0.  1.
        -12    1    3    3    0    0  0.23877575767E+01 -0.35034397940E+02 -0.10445939550E+02  0.36636431027E+02  0.00000000000E+00 0.  1.
</event>
<event>
 7    1  0.3014423E-011  0.5052886E+02  0.7816164E-02  0.1300439E+00
        -11   -1    0    0    0    0  0.00000000000E+00  0.00000000000E+00  0.45593999997E+02  0.45594000000E+02  0.51100000000E-03 0. -1.
         11   -1    0    0    0    0 -0.00000000000E+00 -0.00000000000E+00 -0.45593999997E+02  0.45594000000E+02  0.51100000000E-03 0.  1.
    9900012    2    1    2    0    0 -0.17501518188E+02 -0.34466246224E+02 -0.12607154157E+02  0.50528860761E+02  0.30000002770E+02 0.  0.
        -12    1    1    2    0    0  0.17501518188E+02  0.34466246224E+02  0.12607154157E+02  0.40659139239E+02  0.00000000000E+00 0.  1.
         11    1    3    3    0    0 -0.35900074297E+01 -0.10012034747E+02  0.39459816766E+01  0.11344591873E+02  0.51100000000E-03 0. -1.
        -11    1    3    3    0    0 -0.14524465018E+02 -0.22832920629E+02 -0.50214307084E+01  0.27523028815E+02  0.51100000000E-03 0.  1.
        -12    1    3    3    0    0  0.61295425966E+00 -0.16212908485E+01 -0.11531705126E+02  0.11661240073E+02  0.00000000000E+00 0.  1.
</event>
<event>
 7    1  0.3014423E-011  0.5052886E+02  0.7816164E-02  0.1300439E+00
        -11   -1    0    0    0    0  0.00000000000E+00  0.00000000000E+00  0.45593999997E+02  0.45594000000E+02  0.51100000000E-03 0.  1.
         11   -1    0    0    0    0 -0.00000000000E+00 -0.00000000000E+00 -0.45593999997E+02  0.45594000000E+02  0.51100000000E-03 0. -1.
    9900012    2    1    2    0    0  0.85441833538E+01 -0.10562955825E+01 -0.39737225207E+02  0.50528857158E+02  0.29999991816E+02 0.  0.
        -12    1    1    2    0    0 -0.85441833538E+01  0.10562955825E+01  0.39737225207E+02  0.40659142842E+02  0.00000000000E+00 0.  1.
         11    1    3    3    0    0 -0.43985061455E+01 -0.16812993740E+01 -0.20127457506E+02  0.20670949901E+02  0.51100000000E-03 0. -1.
        -11    1    3    3    0    0  0.18107851269E+01 -0.76332563404E+01 -0.34558737400E+01  0.85725497200E+01  0.51100000000E-03 0.  1.
        -12    1    3    3    0    0  0.11131904372E+02  0.82582601319E+01 -0.16153893961E+02  0.21285357537E+02  0.00000000000E+00 0.  1.
</event>
<event>
 7    1  0.3014423E-011  0.5052886E+02  0.7816164E-02  0.1300439E+00
        -11   -1    0    0    0    0  0.00000000000E+00  0.00000000000E+00  0.45593999997E+02  0.45594000000E+02  0.51100000000E-03 0.  1.
         11   -1    0    0    0    0 -0.00000000000E+00 -0.00000000000E+00 -0.45593999997E+02  0.45594000000E+02  0.51100000000E-03 0. -1.
    9900012    2    1    2    0    0  0.20750177970E+02 -0.27146242144E+02 -0.22038087870E+02  0.50528860003E+02  0.30000000465E+02 0.  0.
        -12    1    1    2    0    0 -0.20750177970E+02  0.27146242144E+02  0.22038087870E+02  0.40659139997E+02  0.00000000000E+00 0.  1.
         11    1    3    3    0    0 -0.59207616833E+00 -0.21140762700E+00  0.88443409321E+00  0.10851134965E+01  0.51100000000E-03 0. -1.
        -11    1    3    3    0    0 -0.34405303772E+01  0.32555573784E+01 -0.28583787388E+01  0.55322899775E+01  0.51100000000E-03 0.  1.
         12    1    3    3    0    0  0.24782784516E+02 -0.30190391896E+02 -0.20064143224E+02  0.43911456529E+02  0.00000000000E+00 0. -1.
</event>
<event>
 7    1  0.3444346E-011  0.5052884E+02  0.7816164E-02  0.1300439E+00
        -11   -1    0    0    0    0  0.00000000000E+00  0.00000000000E+00  0.45593999997E+02  0.45594000000E+02  0.51100000000E-03 0.  1.
         11   -1    0    0    0    0 -0.00000000000E+00 -0.00000000000E+00 -0.45593999997E+02  0.45594000000E+02  0.51100000000E-03 0. -1.
    9900012    2    1    2    0    0  0.51921199535E+01 -0.34867003844E+02  0.20260824126E+02  0.50528842841E+02  0.29999948299E+02 0.  0.
        -12    1    1    2    0    0 -0.51921199535E+01  0.34867003844E+02 -0.20260824126E+02  0.40659157159E+02  0.00000000000E+00 0.  1.
         11    1    3    3    0    0 -0.20847826729E+01  0.71121439168E+00 -0.16285635373E+00  0.22087705080E+01  0.51100000000E-03 0.  1.
        -11    1    3    3    0    0  0.10375077149E+02 -0.51407642832E+01  0.80130596417E-01  0.11579123647E+02  0.51100000000E-03 0. -1.
         12    1    3    3    0    0 -0.30981745228E+01 -0.30437453952E+02  0.20343549883E+02  0.36740948685E+02  0.00000000000E+00 0. -1.
</event>
<event>
 7    1  0.3014423E-011  0.5052886E+02  0.7816164E-02  0.1300439E+00
        -11   -1    0    0    0    0  0.00000000000E+00  0.00000000000E+00  0.45593999997E+02  0.45594000000E+02  0.51100000000E-03 0. -1.
         11   -1    0    0    0    0 -0.00000000000E+00 -0.00000000000E+00 -0.45593999997E+02  0.45594000000E+02  0.51100000000E-03 0.  1.
    9900012    2    1    2    0    0 -0.24532455374E+01  0.25802009511E+02  0.31327362426E+02  0.50528859022E+02  0.29999997482E+02 0.  0.
        -12    1    1    2    0    0  0.24532455374E+01 -0.25802009511E+02 -0.31327362426E+02  0.40659140978E+02  0.00000000000E+00 0.  1.
         11    1    3    3    0    0 -0.28123150121E+01  0.80004045564E+01  0.23450305144E+02  0.24936567534E+02  0.51100000000E-03 0. -1.
        -11    1    3    3    0    0  0.61017109172E+01  0.17560315015E+02  0.56736731287E+01  0.19436720571E+02  0.51100000000E-03 0.  1.
         12    1    3    3    0    0 -0.57426414426E+01  0.24128994019E+00  0.22033841540E+01  0.61555709161E+01  0.00000000000E+00 0. -1.
</event>
<event>
 7    1  0.3014423E-011  0.5052886E+02  0.7816164E-02  0.1300439E+00
        -11   -1    0    0    0    0  0.00000000000E+00  0.00000000000E+00  0.45593999997E+02  0.45594000000E+02  0.51100000000E-03 0. -1.
         11   -1    0    0    0    0 -0.00000000000E+00 -0.00000000000E+00 -0.45593999997E+02  0.45594000000E+02  0.51100000000E-03 0.  1.
    9900012    2    1    2    0    0 -0.46008282952E+01  0.36025420772E+02 -0.18280236796E+02  0.50528860558E+02  0.30000002153E+02 0.  0.
        -12    1    1    2    0    0  0.46008282952E+01 -0.36025420772E+02  0.18280236796E+02  0.40659139442E+02  0.00000000000E+00 0.  1.
         11    1    3    3    0    0  0.52048174868E+00 -0.43533401246E+01 -0.18645319562E+01  0.47643416301E+01  0.51100000000E-03 0. -1.
        -11    1    3    3    0    0 -0.50343861309E+01  0.97339659709E+01  0.85934842723E-01  0.10959129632E+02  0.51100000000E-03 0.  1.
         12    1    3    3    0    0 -0.86923912922E-01  0.30644794926E+02 -0.16501639682E+02  0.34805389296E+02  0.00000000000E+00 0. -1.
</event>
<event>
 7    1  0.3014423E-011  0.5052886E+02  0.7816164E-02  0.1300439E+00
        -11   -1    0    0    0    0  0.00000000000E+00  0.00000000000E+00  0.45593999997E+02  0.45594000000E+02  0.51100000000E-03 0. -1.
         11   -1    0    0    0    0 -0.00000000000E+00 -0.00000000000E+00 -0.45593999997E+02  0.45594000000E+02  0.51100000000E-03 0.  1.
    9900012    2    1    2    0    0 -0.77039401994E+01  0.25142226066E+02  0.31011019050E+02  0.50528861683E+02  0.30000005571E+02 0.  0.
        -12    1    1    2    0    0  0.77039401994E+01 -0.25142226066E+02 -0.31011019050E+02  0.40659138317E+02  0.00000000000E+00 0.  1.
         11    1    3    3    0    0 -0.89847123793E+00  0.13437319630E+02  0.78188096775E+01  0.15572494805E+02  0.51100000000E-03 0. -1.
        -11    1    3    3    0    0  0.80811275310E+00  0.10008674855E+02 -0.45934987390E+00  0.10051747168E+02  0.51100000000E-03 0.  1.
        -12    1    3    3    0    0 -0.76135817146E+01  0.16962315814E+01  0.23651559246E+02  0.24904619710E+02  0.00000000000E+00 0.  1.
</event>
<event>
 7    1  0.3014423E-011  0.5052884E+02  0.7816164E-02  0.1300439E+00
        -11   -1    0    0    0    0  0.00000000000E+00  0.00000000000E+00  0.45593999997E+02  0.45594000000E+02  0.51100000000E-03 0. -1.
         11   -1    0    0    0    0 -0.00000000000E+00 -0.00000000000E+00 -0.45593999997E+02  0.45594000000E+02  0.51100000000E-03 0.  1.
    9900012    2    1    2    0    0  0.39485003368E+02  0.76142602687E+01 -0.60104142779E+01  0.50528837070E+02  0.29999930758E+02 0.  0.
        -12    1    1    2    0    0 -0.39485003368E+02 -0.76142602687E+01  0.60104142779E+01  0.40659162930E+02  0.00000000000E+00 0.  1.
         11    1    3    3    0    0  0.43727699862E+01  0.24379825076E+01 -0.42020490466E+01  0.65362139279E+01  0.51100000000E-03 0. -1.
        -11    1    3    3    0    0  0.16207306508E+02  0.81450000174E+01 -0.12540744835E+02  0.22051940749E+02  0.51100000000E-03 0.  1.
         12    1    3    3    0    0  0.18904926873E+02 -0.29687222563E+01  0.10732379604E+02  0.21940682393E+02  0.00000000000E+00 0. -1.
</event>
<event>
 7    1  0.3014423E-011  0.5052885E+02  0.7816164E-02  0.1300439E+00
        -11   -1    0    0    0    0  0.00000000000E+00  0.00000000000E+00  0.45593999997E+02  0.45594000000E+02  0.51100000000E-03 0.  1.
         11   -1    0    0    0    0 -0.00000000000E+00 -0.00000000000E+00 -0.45593999997E+02  0.45594000000E+02  0.51100000000E-03 0. -1.
    9900012    2    1    2    0    0  0.46240395254E+01 -0.39454525828E+02  0.86674557417E+01  0.50528854179E+02  0.29999982762E+02 0.  0.
        -12    1    1    2    0    0 -0.46240395254E+01  0.39454525828E+02 -0.86674557417E+01  0.40659145821E+02  0.00000000000E+00 0.  1.
         11    1    3    3    0    0 -0.25483440778E+01 -0.25718841265E+01 -0.58748066384E+01  0.69008694234E+01  0.51100000000E-03 0. -1.
        -11    1    3    3    0    0 -0.99918290408E+00  0.16279263340E-01 -0.21056850070E+01  0.23307812209E+01  0.51100000000E-03 0.  1.
        -12    1    3    3    0    0  0.81715665072E+01 -0.36898920965E+02  0.16647947387E+02  0.41297203535E+02  0.00000000000E+00 0.  1.
</event>
<event>
 7    1  0.3309912E-011  0.5052886E+02  0.7816164E-02  0.1300439E+00
        -11   -1    0    0    0    0  0.00000000000E+00  0.00000000000E+00  0.45593999997E+02  0.45594000000E+02  0.51100000000E-03 0. -1.
         11   -1    0    0    0    0 -0.00000000000E+00 -0.00000000000E+00 -0.45593999997E+02  0.45594000000E+02  0.51100000000E-03 0.  1.
    9900012    2    1    2    0    0 -0.37158049201E+02 -0.48603306906E+01  0.15774097504E+02  0.50528860967E+02  0.30000003395E+02 0.  0.
        -12    1    1    2    0    0  0.37158049201E+02  0.48603306906E+01 -0.15774097504E+02  0.40659139033E+02  0.00000000000E+00 0.  1.
         11    1    3    3    0    0 -0.10611990594E+02 -0.81526966708E+01  0.55694221821E+01  0.14494801519E+02  0.51100000000E-03 0. -1.
        -11    1    3    3    0    0  0.37627105490E+01  0.18060572585E+01  0.18088207532E+01  0.45488093250E+01  0.51100000000E-03 0.  1.
         12    1    3    3    0    0 -0.30308769156E+02  0.14863087217E+01  0.83958545688E+01  0.31485250123E+02  0.00000000000E+00 0. -1.
</event>
<event>
 7    1  0.3014423E-011  0.5052884E+02  0.7816164E-02  0.1300439E+00
        -11   -1    0    0    0    0  0.00000000000E+00  0.00000000000E+00  0.45593999997E+02  0.45594000000E+02  0.51100000000E-03 0.  1.
         11   -1    0    0    0    0 -0.00000000000E+00 -0.00000000000E+00 -0.45593999997E+02  0.45594000000E+02  0.51100000000E-03 0. -1.
    9900012    2    1    2    0    0  0.28275567039E+02 -0.35108615367E+01 -0.29005746375E+02  0.50528841587E+02  0.29999944487E+02 0.  0.
        -12    1    1    2    0    0 -0.28275567039E+02  0.35108615367E+01  0.29005746375E+02  0.40659158413E+02  0.00000000000E+00 0.  1.
         11    1    3    3    0    0  0.14352393615E+02 -0.14567969481E+00 -0.17366327372E+02  0.22530018902E+02  0.51100000000E-03 0. -1.
        -11    1    3    3    0    0  0.18471894706E+02 -0.42745201480E+01 -0.13202461000E+02  0.23103839361E+02  0.51100000000E-03 0.  1.
        -12    1    3    3    0    0 -0.45487212819E+01  0.90933830607E+00  0.15630419973E+01  0.48949833238E+01  0.00000000000E+00 0.  1.
</event>
<event>
 7    1  0.3014423E-011  0.5052886E+02  0.7816164E-02  0.1300439E+00
        -11   -1    0    0    0    0  0.00000000000E+00  0.00000000000E+00  0.45593999997E+02  0.45594000000E+02  0.51100000000E-03 0.  1.
         11   -1    0    0    0    0 -0.00000000000E+00 -0.00000000000E+00 -0.45593999997E+02  0.45594000000E+02  0.51100000000E-03 0. -1.
    9900012    2    1    2    0    0  0.34098031071E+02 -0.98334043232E+00 -0.22125166592E+02  0.50528859846E+02  0.29999999987E+02 0.  0.
        -12    1    1    2    0    0 -0.34098031071E+02  0.98334043232E+00  0.22125166592E+02  0.40659140154E+02  0.00000000000E+00 0.  1.
         11    1    3    3    0    0  0.94700218336E+01 -0.71180150819E+01 -0.86107198223E+00  0.11878084755E+02  0.51100000000E-03 0. -1.
        -11    1    3    3    0    0 -0.95061185226E+00  0.56761148133E+01 -0.79395095827E+01  0.98060060647E+01  0.51100000000E-03 0.  1.
        -12    1    3    3    0    0  0.25578621090E+02  0.45855983626E+00 -0.13324585027E+02  0.28844769026E+02  0.00000000000E+00 0.  1.
</event>
<event>
 7    1  0.3014423E-011  0.5052886E+02  0.7816164E-02  0.1300439E+00
        -11   -1    0    0    0    0  0.00000000000E+00  0.00000000000E+00  0.45593999997E+02  0.45594000000E+02  0.51100000000E-03 0.  1.
         11   -1    0    0    0    0 -0.00000000000E+00 -0.00000000000E+00 -0.45593999997E+02  0.45594000000E+02  0.51100000000E-03 0. -1.
    9900012    2    1    2    0    0 -0.98036131601E+01  0.40203933992E+01 -0.39254189210E+02  0.50528858781E+02  0.29999996752E+02 0.  0.
        -12    1    1    2    0    0  0.98036131601E+01 -0.40203933992E+01  0.39254189210E+02  0.40659141219E+02  0.00000000000E+00 0.  1.
         11    1    3    3    0    0  0.84429245136E+00 -0.30949031989E+00  0.57322457783E+00  0.10663961174E+01  0.51100000000E-03 0. -1.
        -11    1    3    3    0    0  0.52122161653E+01  0.39670906337E+01  0.44568123481E-01  0.65503428940E+01  0.51100000000E-03 0.  1.
         12    1    3    3    0    0 -0.15860121777E+02  0.36279308541E+00 -0.39871981912E+02  0.42912119770E+02  0.00000000000E+00 0. -1.
</event>
<event>
 7    1  0.3014423E-011  0.5052895E+02  0.7816164E-02  0.1300438E+00
        -11   -1    0    0    0    0  0.00000000000E+00  0.00000000000E+00  0.45593999997E+02  0.45594000000E+02  0.51100000000E-03 0.  1.
         11   -1    0    0    0    0 -0.00000000000E+00 -0.00000000000E+00 -0.45593999997E+02  0.45594000000E+02  0.51100000000E-03 0. -1.
    9900012    2    1    2    0    0  0.12357600961E+02 -0.37306793464E+02 -0.10423605170E+02  0.50528945844E+02  0.30000261387E+02 0.  0.
        -12    1    1    2    0    0 -0.12357600961E+02  0.37306793464E+02  0.10423605170E+02  0.40659054156E+02  0.00000000000E+00 0.  1.
         11    1    3    3    0    0 -0.29839606785E+01 -0.16036549929E+02 -0.77736158623E+01  0.18069423311E+02  0.51100000000E-03 0. -1.
        -11    1    3    3    0    0  0.16882869885E+01 -0.15308881432E+02 -0.70311238691E+01  0.16930707805E+02  0.51100000000E-03 0.  1.
        -12    1    3    3    0    0  0.13653274651E+02 -0.59613621033E+01  0.43811345614E+01  0.15528814728E+02  0.00000000000E+00 0.  1.
</event>
<event>
 7    1  0.3014423E-011  0.5052885E+02  0.7816164E-02  0.1300439E+00
        -11   -1    0    0    0    0  0.00000000000E+00  0.00000000000E+00  0.45593999997E+02  0.45594000000E+02  0.51100000000E-03 0.  1.
         11   -1    0    0    0    0 -0.00000000000E+00 -0.00000000000E+00 -0.45593999997E+02  0.45594000000E+02  0.51100000000E-03 0. -1.
    9900012    2    1    2    0    0 -0.90470127783E+01 -0.23684969370E+02 -0.31785848483E+02  0.50528851238E+02  0.29999973822E+02 0.  0.
        -12    1    1    2    0    0  0.90470127783E+01  0.23684969370E+02  0.31785848483E+02  0.40659148762E+02  0.00000000000E+00 0.  1.
         11    1    3    3    0    0  0.49724161881E+01 -0.27204696743E+01 -0.48949980068E+00  0.56890674379E+01  0.51100000000E-03 0. -1.
        -11    1    3    3    0    0  0.40556616688E+01 -0.19262027796E+01 -0.10259117808E+02  0.11198577908E+02  0.51100000000E-03 0.  1.
         12    1    3    3    0    0 -0.18075090635E+02 -0.19038296916E+02 -0.21037230875E+02  0.33641205891E+02  0.00000000000E+00 0. -1.
</event>
<event>
 7    1  0.3014423E-011  0.5052887E+02  0.7816164E-02  0.1300439E+00
        -11   -1    0    0    0    0  0.00000000000E+00  0.00000000000E+00  0.45593999997E+02  0.45594000000E+02  0.51100000000E-03 0.  1.
         11   -1    0    0    0    0 -0.00000000000E+00 -0.00000000000E+00 -0.45593999997E+02  0.45594000000E+02  0.51100000000E-03 0. -1.
    9900012    2    1    2    0    0  0.28547488140E+02  0.28243175111E+02  0.63662074794E+01  0.50528872893E+02  0.30000039645E+02 0.  0.
        -12    1    1    2    0    0 -0.28547488140E+02 -0.28243175111E+02 -0.63662074794E+01  0.40659127107E+02  0.00000000000E+00 0.  1.
         11    1    3    3    0    0  0.24504466034E+02  0.84378984663E+01  0.96496402495E+01  0.27654702011E+02  0.51100000000E-03 0. -1.
        -11    1    3    3    0    0 -0.61560606659E+00 -0.46530548717E+00  0.13594917382E+01  0.15632332113E+01  0.51100000000E-03 0.  1.
         12    1    3    3    0    0  0.46586281731E+01  0.20270582131E+02 -0.46429245082E+01  0.21310937670E+02  0.00000000000E+00 0. -1.
</event>
<event>
 7    1  0.3014423E-011  0.5052886E+02  0.7816164E-02  0.1300439E+00
        -11   -1    0    0    0    0  0.00000000000E+00  0.00000000000E+00  0.45593999997E+02  0.45594000000E+02  0.51100000000E-03 0. -1.
         11   -1    0    0    0    0 -0.00000000000E+00 -0.00000000000E+00 -0.45593999997E+02  0.45594000000E+02  0.51100000000E-03 0.  1.
    9900012    2    1    2    0    0 -0.15219526336E+02  0.11238446418E+01  0.37686452440E+02  0.50528859500E+02  0.29999998936E+02 0.  0.
        -12    1    1    2    0    0  0.15219526336E+02 -0.11238446418E+01 -0.37686452440E+02  0.40659140500E+02  0.00000000000E+00 0.  1.
         11    1    3    3    0    0 -0.72575743892E+01  0.83635092756E+01  0.21732212702E+01  0.11284660578E+02  0.51100000000E-03 0. -1.
        -11    1    3    3    0    0  0.19909747047E+01  0.31796473014E+00  0.51396953382E+00  0.20806842113E+01  0.51100000000E-03 0.  1.
         12    1    3    3    0    0 -0.99529266510E+01 -0.75576293639E+01  0.34999261636E+02  0.37163514710E+02  0.00000000000E+00 0. -1.
</event>
<event>
 7    1  0.3014423E-011  0.5052881E+02  0.7816164E-02  0.1300439E+00
        -11   -1    0    0    0    0  0.00000000000E+00  0.00000000000E+00  0.45593999997E+02  0.45594000000E+02  0.51100000000E-03 0.  1.
         11   -1    0    0    0    0 -0.00000000000E+00 -0.00000000000E+00 -0.45593999997E+02  0.45594000000E+02  0.51100000000E-03 0. -1.
    9900012    2    1    2    0    0  0.23410609478E+02  0.25733585788E+02 -0.21045083319E+02  0.50528811549E+02  0.29999853183E+02 0.  0.
        -12    1    1    2    0    0 -0.23410609478E+02 -0.25733585788E+02  0.21045083319E+02  0.40659188451E+02  0.00000000000E+00 0.  1.
         11    1    3    3    0    0 -0.31464921864E+01 -0.59919263218E-01 -0.11376250254E+02  0.11803519538E+02  0.51100000000E-03 0.  1.
        -11    1    3    3    0    0  0.94695497575E+01  0.11120056759E+02 -0.11720764021E+01  0.14652706176E+02  0.51100000000E-03 0. -1.
        -12    1    3    3    0    0  0.17087551906E+02  0.14673448292E+02 -0.84967566633E+01  0.24072585834E+02  0.00000000000E+00 0.  1.
</event>
<event>
 7    1  0.3014423E-011  0.5052886E+02  0.7816164E-02  0.1300439E+00
        -11   -1    0    0    0    0  0.00000000000E+00  0.00000000000E+00  0.45593999997E+02  0.45594000000E+02  0.51100000000E-03 0. -1.
         11   -1    0    0    0    0 -0.00000000000E+00 -0.00000000000E+00 -0.45593999997E+02  0.45594000000E+02  0.51100000000E-03 0.  1.
    9900012    2    1    2    0    0 -0.41574150382E+01  0.40092030724E+02 -0.53395511281E+01  0.50528857933E+02  0.29999994174E+02 0.  0.
        -12    1    1    2    0    0  0.41574150382E+01 -0.40092030724E+02  0.53395511281E+01  0.40659142067E+02  0.00000000000E+00 0.  1.
         11    1    3    3    0    0 -0.47819894880E+01  0.18628917814E+02  0.17840704459E+01  0.19315457799E+02  0.51100000000E-03 0. -1.
        -11    1    3    3    0    0 -0.86813190302E+01  0.16033275582E+02  0.11560231717E+00  0.18233063104E+02  0.51100000000E-03 0.  1.
         12    1    3    3    0    0  0.93058934801E+01  0.54298373284E+01 -0.72392238911E+01  0.12980337030E+02  0.00000000000E+00 0. -1.
</event>
<event>
 7    1  0.3014423E-011  0.5052888E+02  0.7816164E-02  0.1300439E+00
        -11   -1    0    0    0    0  0.00000000000E+00  0.00000000000E+00  0.45593999997E+02  0.45594000000E+02  0.51100000000E-03 0.  1.
         11   -1    0    0    0    0 -0.00000000000E+00 -0.00000000000E+00 -0.45593999997E+02  0.45594000000E+02  0.51100000000E-03 0. -1.
    9900012    2    1    2    0    0 -0.92400142693E+01 -0.13156719864E+01 -0.39573412281E+02  0.50528882744E+02  0.30000069588E+02 0.  0.
        -12    1    1    2    0    0  0.92400142693E+01  0.13156719864E+01  0.39573412281E+02  0.40659117256E+02  0.00000000000E+00 0.  1.
         11    1    3    3    0    0  0.47925871073E+00 -0.45386546296E+01 -0.83684981273E+00  0.46399776539E+01  0.51100000000E-03 0. -1.
        -11    1    3    3    0    0  0.12393552870E+01  0.23123436517E+01  0.22479150184E+01  0.34548598932E+01  0.51100000000E-03 0.  1.
         12    1    3    3    0    0 -0.10958628267E+02  0.91063899157E+00 -0.40984477487E+02  0.42434045197E+02  0.00000000000E+00 0. -1.
</event>
<event>
 7    1  0.3014423E-011  0.5052886E+02  0.7816164E-02  0.1300439E+00
        -11   -1    0    0    0    0  0.00000000000E+00  0.00000000000E+00  0.45593999997E+02  0.45594000000E+02  0.51100000000E-03 0.  1.
         11   -1    0    0    0    0 -0.00000000000E+00 -0.00000000000E+00 -0.45593999997E+02  0.45594000000E+02  0.51100000000E-03 0. -1.
    9900012    2    1    2    0    0  0.57983554909E+01  0.40230535153E+02 -0.10240220241E+01  0.50528861960E+02  0.30000006413E+02 0.  0.
        -12    1    1    2    0    0 -0.57983554909E+01 -0.40230535153E+02  0.10240220241E+01  0.40659138040E+02  0.00000000000E+00 0.  1.
         11    1    3    3    0    0  0.57132896095E+01  0.21878936918E+02  0.99558761146E+00  0.22634503612E+02  0.51100000000E-03 0. -1.
        -11    1    3    3    0    0  0.14066905595E+00  0.22380471599E+02 -0.49380518161E+01  0.22919198345E+02  0.51100000000E-03 0.  1.
        -12    1    3    3    0    0 -0.55603174518E-01 -0.40288733636E+01  0.29184421806E+01  0.49751600029E+01  0.00000000000E+00 0.  1.
</event>
<event>
 7    1  0.4032888E-011  0.5052886E+02  0.7816164E-02  0.1300439E+00
        -11   -1    0    0    0    0  0.00000000000E+00  0.00000000000E+00  0.45593999997E+02  0.45594000000E+02  0.51100000000E-03 0.  1.
         11   -1    0    0    0    0 -0.00000000000E+00 -0.00000000000E+00 -0.45593999997E+02  0.45594000000E+02  0.51100000000E-03 0. -1.
    9900012    2    1    2    0    0 -0.36040358386E+02  0.50169801036E+01  0.18140781953E+02  0.50528862136E+02  0.30000006949E+02 0.  0.
        -12    1    1    2    0    0  0.36040358386E+02 -0.50169801036E+01 -0.18140781953E+02  0.40659137864E+02  0.00000000000E+00 0.  1.
         11    1    3    3    0    0 -0.56654797592E+01 -0.49261069319E+01  0.10720999078E+02  0.13088315854E+02  0.51100000000E-03 0. -1.
        -11    1    3    3    0    0 -0.79354445119E+01 -0.10735922129E+01 -0.50886505539E+01  0.94877945046E+01  0.51100000000E-03 0.  1.
         12    1    3    3    0    0 -0.22439434115E+02  0.11016679248E+02  0.12508433429E+02  0.27952751777E+02  0.00000000000E+00 0. -1.
</event>
<event>
 7    1  0.3014423E-011  0.5052886E+02  0.7816164E-02  0.1300439E+00
        -11   -1    0    0    0    0  0.00000000000E+00  0.00000000000E+00  0.45593999997E+02  0.45594000000E+02  0.51100000000E-03 0. -1.
         11   -1    0    0    0    0 -0.00000000000E+00 -0.00000000000E+00 -0.45593999997E+02  0.45594000000E+02  0.51100000000E-03 0.  1.
    9900012    2    1    2    0    0  0.20585278498E+02  0.34515808866E+02  0.61701948900E+01  0.50528855180E+02  0.29999985805E+02 0.  0.
        -12    1    1    2    0    0 -0.20585278498E+02 -0.34515808866E+02 -0.61701948900E+01  0.40659144820E+02  0.00000000000E+00 0.  1.
         11    1    3    3    0    0  0.88114285892E+01  0.48476703142E+01 -0.21833306676E+01  0.10291166811E+02  0.51100000000E-03 0. -1.
        -11    1    3    3    0    0  0.18771495049E+02  0.20135803803E+02  0.62010730476E+01  0.28218308390E+02  0.51100000000E-03 0.  1.
         12    1    3    3    0    0 -0.69976451410E+01  0.95323347489E+01  0.21524525100E+01  0.12019379980E+02  0.00000000000E+00 0. -1.
</event>
<event>
 7    1  0.3014423E-011  0.5052887E+02  0.7816164E-02  0.1300439E+00
        -11   -1    0    0    0    0  0.00000000000E+00  0.00000000000E+00  0.45593999997E+02  0.45594000000E+02  0.51100000000E-03 0. -1.
         11   -1    0    0    0    0 -0.00000000000E+00 -0.00000000000E+00 -0.45593999997E+02  0.45594000000E+02  0.51100000000E-03 0.  1.
    9900012    2    1    2    0    0  0.27078999581E+02 -0.58491441106E+01  0.29760385195E+02  0.50528865331E+02  0.30000016659E+02 0.  0.
        -12    1    1    2    0    0 -0.27078999581E+02  0.58491441106E+01 -0.29760385195E+02  0.40659134669E+02  0.00000000000E+00 0.  1.
         11    1    3    3    0    0  0.61046774910E+01  0.26486392185E+01  0.13417420834E+02  0.14976967619E+02  0.51100000000E-03 0. -1.
        -11    1    3    3    0    0  0.13416769149E+01 -0.11561039338E+02  0.71377906365E+01  0.13653050317E+02  0.51100000000E-03 0.  1.
        -12    1    3    3    0    0  0.19632645175E+02  0.30632560086E+01  0.92051737249E+01  0.21898847395E+02  0.00000000000E+00 0.  1.
</event>
<event>
 7    1  0.3014423E-011  0.5052886E+02  0.7816164E-02  0.1300439E+00
        -11   -1    0    0    0    0  0.00000000000E+00  0.00000000000E+00  0.45593999997E+02  0.45594000000E+02  0.51100000000E-03 0.  1.
         11   -1    0    0    0    0 -0.00000000000E+00 -0.00000000000E+00 -0.45593999997E+02  0.45594000000E+02  0.51100000000E-03 0. -1.
    9900012    2    1    2    0    0  0.29098713443E+02 -0.18311150325E+02 -0.21705577254E+02  0.50528862845E+02  0.30000009105E+02 0.  0.
        -12    1    1    2    0    0 -0.29098713443E+02  0.18311150325E+02  0.21705577254E+02  0.40659137155E+02  0.00000000000E+00 0.  1.
         11    1    3    3    0    0  0.44300299679E+01  0.10046293237E+01  0.13465043842E+00  0.45445106003E+01  0.51100000000E-03 0. -1.
        -11    1    3    3    0    0  0.19891645616E+02 -0.21371456676E+02 -0.66712669417E+01  0.29948664889E+02  0.51100000000E-03 0.  1.
        -12    1    3    3    0    0  0.47770378589E+01  0.20556770268E+01 -0.15168960750E+02  0.16035687356E+02  0.00000000000E+00 0.  1.
</event>
<event>
 7    1  0.3014423E-011  0.5052886E+02  0.7816164E-02  0.1300439E+00
        -11   -1    0    0    0    0  0.00000000000E+00  0.00000000000E+00  0.45593999997E+02  0.45594000000E+02  0.51100000000E-03 0.  1.
         11   -1    0    0    0    0 -0.00000000000E+00 -0.00000000000E+00 -0.45593999997E+02  0.45594000000E+02  0.51100000000E-03 0. -1.
    9900012    2    1    2    0    0 -0.29319020530E+02 -0.22334207773E+02 -0.17168097998E+02  0.50528863382E+02  0.30000010736E+02 0.  0.
        -12    1    1    2    0    0  0.29319020530E+02  0.22334207773E+02  0.17168097998E+02  0.40659136618E+02  0.00000000000E+00 0.  1.
         11    1    3    3    0    0  0.41009952936E+00 -0.38548080989E+01  0.17154446890E+01  0.42391600401E+01  0.51100000000E-03 0. -1.
        -11    1    3    3    0    0 -0.14018786401E+02 -0.12749277316E+02  0.25330092949E+01  0.19117703329E+02  0.51100000000E-03 0.  1.
         12    1    3    3    0    0 -0.15710333659E+02 -0.57301223575E+01 -0.21416551982E+02  0.27172000013E+02  0.00000000000E+00 0. -1.
</event>
<event>
 7    1  0.3014423E-011  0.5052886E+02  0.7816164E-02  0.1300439E+00
        -11   -1    0    0    0    0  0.00000000000E+00  0.00000000000E+00  0.45593999997E+02  0.45594000000E+02  0.51100000000E-03 0. -1.
         11   -1    0    0    0    0 -0.00000000000E+00 -0.00000000000E+00 -0.45593999997E+02  0.45594000000E+02  0.51100000000E-03 0.  1.
    9900012    2    1    2    0    0  0.12792726303E+02 -0.67273435753E+00  0.38588332425E+02  0.50528858136E+02  0.29999994789E+02 0.  0.
        -12    1    1    2    0    0 -0.12792726303E+02  0.67273435753E+00 -0.38588332425E+02  0.40659141864E+02  0.00000000000E+00 0.  1.
         11    1    3    3    0    0 -0.51092466364E+01 -0.49630798228E+01  0.57812603805E+01  0.91738505748E+01  0.51100000000E-03 0. -1.
        -11    1    3    3    0    0  0.27640381545E+01 -0.53610466202E+01  0.14545884568E+02  0.15746856382E+02  0.51100000000E-03 0.  1.
        -12    1    3    3    0    0  0.15137934785E+02  0.96513920855E+01  0.18261187477E+02  0.25608151179E+02  0.00000000000E+00 0.  1.
</event>
<event>
 7    1  0.3014423E-011  0.5052886E+02  0.7816164E-02  0.1300439E+00
        -11   -1    0    0    0    0  0.00000000000E+00  0.00000000000E+00  0.45593999997E+02  0.45594000000E+02  0.51100000000E-03 0.  1.
         11   -1    0    0    0    0 -0.00000000000E+00 -0.00000000000E+00 -0.45593999997E+02  0.45594000000E+02  0.51100000000E-03 0. -1.
    9900012    2    1    2    0    0  0.49076036943E+01  0.31274265997E+02 -0.25514728301E+02  0.50528860216E+02  0.30000001114E+02 0.  0.
        -12    1    1    2    0    0 -0.49076036943E+01 -0.31274265997E+02  0.25514728301E+02  0.40659139784E+02  0.00000000000E+00 0.  1.
         11    1    3    3    0    0 -0.75771402727E+01  0.98399898984E+01 -0.17864712087E+02  0.21757444568E+02  0.51100000000E-03 0. -1.
        -11    1    3    3    0    0  0.15234844193E+01  0.83530850238E+01 -0.80498139650E+01  0.11700193987E+02  0.51100000000E-03 0.  1.
        -12    1    3    3    0    0  0.10961259548E+02  0.13081191075E+02  0.39979775066E+00  0.17071221662E+02  0.00000000000E+00 0.  1.
</event>
<event>
 7    1  0.3014423E-011  0.5052887E+02  0.7816164E-02  0.1300439E+00
        -11   -1    0    0    0    0  0.00000000000E+00  0.00000000000E+00  0.45593999997E+02  0.45594000000E+02  0.51100000000E-03 0.  1.
         11   -1    0    0    0    0 -0.00000000000E+00 -0.00000000000E+00 -0.45593999997E+02  0.45594000000E+02  0.51100000000E-03 0. -1.
    9900012    2    1    2    0    0 -0.15595312368E+02 -0.24280955389E+02 -0.28642382149E+02  0.50528872886E+02  0.30000039625E+02 0.  0.
        -12    1    1    2    0    0  0.15595312368E+02  0.24280955389E+02  0.28642382149E+02  0.40659127114E+02  0.00000000000E+00 0.  1.
         11    1    3    3    0    0 -0.13856384823E+02 -0.64214454387E+01 -0.66451874063E+01  0.16655115665E+02  0.51100000000E-03 0. -1.
        -11    1    3    3    0    0  0.19308397143E+01  0.25903440167E+01  0.47872379466E+00  0.32660681040E+01  0.51100000000E-03 0.  1.
         12    1    3    3    0    0 -0.36697672597E+01 -0.20449853967E+02 -0.22475918537E+02  0.30607689118E+02  0.00000000000E+00 0. -1.
</event>
<event>
 7    1  0.3014423E-011  0.5052885E+02  0.7816164E-02  0.1300439E+00
        -11   -1    0    0    0    0  0.00000000000E+00  0.00000000000E+00  0.45593999997E+02  0.45594000000E+02  0.51100000000E-03 0.  1.
         11   -1    0    0    0    0 -0.00000000000E+00 -0.00000000000E+00 -0.45593999997E+02  0.45594000000E+02  0.51100000000E-03 0. -1.
    9900012    2    1    2    0    0  0.82618987295E+01 -0.19891065696E+02 -0.34485543615E+02  0.50528853630E+02  0.29999981093E+02 0.  0.
        -12    1    1    2    0    0 -0.82618987295E+01  0.19891065696E+02  0.34485543615E+02  0.40659146370E+02  0.00000000000E+00 0.  1.
         11    1    3    3    0    0  0.13380568010E+02 -0.59068712854E+01 -0.19506195990E+02  0.24380779539E+02  0.51100000000E-03 0. -1.
        -11    1    3    3    0    0  0.43123046716E+01  0.76473411093E-01 -0.17200539531E+01  0.46433183851E+01  0.51100000000E-03 0.  1.
         12    1    3    3    0    0 -0.94309739524E+01 -0.14060667822E+02 -0.13259293671E+02  0.21504755705E+02  0.00000000000E+00 0. -1.
</event>
<event>
 7    1  0.3014423E-011  0.5052886E+02  0.7816164E-02  0.1300439E+00
        -11   -1    0    0    0    0  0.00000000000E+00  0.00000000000E+00  0.45593999997E+02  0.45594000000E+02  0.51100000000E-03 0.  1.
         11   -1    0    0    0    0 -0.00000000000E+00 -0.00000000000E+00 -0.45593999997E+02  0.45594000000E+02  0.51100000000E-03 0. -1.
    9900012    2    1    2    0    0  0.12737184173E+02 -0.27057322097E+02 -0.27546886930E+02  0.50528861799E+02  0.30000005925E+02 0.  0.
        -12    1    1    2    0    0 -0.12737184173E+02  0.27057322097E+02  0.27546886930E+02  0.40659138201E+02  0.00000000000E+00 0.  1.
         11    1    3    3    0    0  0.42120644614E+01 -0.83535096691E+01 -0.22164874510E+02  0.24058351421E+02  0.51100000000E-03 0. -1.
        -11    1    3    3    0    0  0.59309724208E+01 -0.57241225476E+01 -0.95293203126E+01  0.12599601529E+02  0.51100000000E-03 0.  1.
        -12    1    3    3    0    0  0.25941472909E+01 -0.12979689880E+02  0.41473078928E+01  0.13870908849E+02  0.00000000000E+00 0.  1.
</event>
<event>
 7    1  0.3014423E-011  0.5052892E+02  0.7816164E-02  0.1300439E+00
        -11   -1    0    0    0    0  0.00000000000E+00  0.00000000000E+00  0.45593999997E+02  0.45594000000E+02  0.51100000000E-03 0.  1.
         11   -1    0    0    0    0 -0.00000000000E+00 -0.00000000000E+00 -0.45593999997E+02  0.45594000000E+02  0.51100000000E-03 0. -1.
    9900012    2    1    2    0    0  0.54024453564E+01  0.39392660538E+02 -0.84966204215E+01  0.50528921325E+02  0.30000186860E+02 0.  0.
        -12    1    1    2    0    0 -0.54024453564E+01 -0.39392660538E+02  0.84966204215E+01  0.40659078675E+02  0.00000000000E+00 0.  1.
         11    1    3    3    0    0  0.43843368684E+01  0.10987311594E+02  0.45550697968E+01  0.12676438260E+02  0.51100000000E-03 0. -1.
        -11    1    3    3    0    0 -0.32484423701E+01 -0.26438196058E+01 -0.14130668431E+01  0.44202848442E+01  0.51100000000E-03 0.  1.
         12    1    3    3    0    0  0.42665508581E+01  0.31049168549E+02 -0.11638623375E+02  0.33432198221E+02  0.00000000000E+00 0. -1.
</event>
<event>
 7    1  0.3014423E-011  0.5052886E+02  0.7816164E-02  0.1300439E+00
        -11   -1    0    0    0    0  0.00000000000E+00  0.00000000000E+00  0.45593999997E+02  0.45594000000E+02  0.51100000000E-03 0.  1.
         11   -1    0    0    0    0 -0.00000000000E+00 -0.00000000000E+00 -0.45593999997E+02  0.45594000000E+02  0.51100000000E-03 0. -1.
    9900012    2    1    2    0    0  0.31956716322E+02  0.44706176493E+01 -0.24737577730E+02  0.50528857213E+02  0.29999991984E+02 0.  0.
        -12    1    1    2    0    0 -0.31956716322E+02 -0.44706176493E+01  0.24737577730E+02  0.40659142787E+02  0.00000000000E+00 0.  1.
         11    1    3    3    0    0  0.28767135067E+01 -0.62217378838E+00 -0.35383037848E+01  0.46024096685E+01  0.51100000000E-03 0. -1.
        -11    1    3    3    0    0  0.17731512840E+02  0.16732883945E+02 -0.14315138930E+02  0.28272232943E+02  0.51100000000E-03 0.  1.
        -12    1    3    3    0    0  0.11348489975E+02 -0.11640092507E+02 -0.68841350146E+01  0.17654214602E+02  0.00000000000E+00 0.  1.
</event>
<event>
 7    1  0.6607697E-011  0.5052888E+02  0.7816164E-02  0.1300439E+00
        -11   -1    0    0    0    0  0.00000000000E+00  0.00000000000E+00  0.45593999997E+02  0.45594000000E+02  0.51100000000E-03 0.  1.
         11   -1    0    0    0    0 -0.00000000000E+00 -0.00000000000E+00 -0.45593999997E+02  0.45594000000E+02  0.51100000000E-03 0. -1.
    9900012    2    1    2    0    0 -0.31613402697E+02  0.18504154203E+02 -0.17645189238E+02  0.50528884710E+02  0.30000075566E+02 0.  0.
        -12    1    1    2    0    0  0.31613402697E+02 -0.18504154203E+02  0.17645189238E+02  0.40659115290E+02  0.00000000000E+00 0.  1.
         11    1    3    3    0    0 -0.43208097891E+01  0.20276378243E+01 -0.10479450686E+02  0.11515189939E+02  0.51100000000E-03 0. -1.
        -11    1    3    3    0    0 -0.21344471508E+01  0.27669334726E+01  0.64163955269E+01  0.73062929930E+01  0.51100000000E-03 0.  1.
         12    1    3    3    0    0 -0.25158145757E+02  0.13709582906E+02 -0.13582134079E+02  0.31707401779E+02  0.00000000000E+00 0. -1.
</event>
<event>
 7    1  0.3014423E-011  0.5052882E+02  0.7816164E-02  0.1300439E+00
        -11   -1    0    0    0    0  0.00000000000E+00  0.00000000000E+00  0.45593999997E+02  0.45594000000E+02  0.51100000000E-03 0.  1.
         11   -1    0    0    0    0 -0.00000000000E+00 -0.00000000000E+00 -0.45593999997E+02  0.45594000000E+02  0.51100000000E-03 0. -1.
    9900012    2    1    2    0    0  0.28671303846E+02  0.18315515671E+02 -0.22263587155E+02  0.50528817869E+02  0.29999872394E+02 0.  0.
        -12    1    1    2    0    0 -0.28671303846E+02 -0.18315515671E+02  0.22263587155E+02  0.40659182131E+02  0.00000000000E+00 0.  1.
         11    1    3    3    0    0  0.49889947146E+01  0.87164421872E+01 -0.10406627000E+02  0.14462514250E+02  0.51100000000E-03 0. -1.
        -11    1    3    3    0    0  0.16949808250E+02  0.69359099548E+01  0.39008220032E+01  0.18724830017E+02  0.51100000000E-03 0.  1.
         12    1    3    3    0    0  0.67325008816E+01  0.26631635291E+01 -0.15757782159E+02  0.17341473602E+02  0.00000000000E+00 0. -1.
</event>
<event>
 7    1  0.3014423E-011  0.5052885E+02  0.7816164E-02  0.1300439E+00
        -11   -1    0    0    0    0  0.00000000000E+00  0.00000000000E+00  0.45593999997E+02  0.45594000000E+02  0.51100000000E-03 0.  1.
         11   -1    0    0    0    0 -0.00000000000E+00 -0.00000000000E+00 -0.45593999997E+02  0.45594000000E+02  0.51100000000E-03 0. -1.
    9900012    2    1    2    0    0 -0.36608296718E+02 -0.29797517645E+01 -0.17439037452E+02  0.50528851750E+02  0.29999975379E+02 0.  0.
        -12    1    1    2    0    0  0.36608296718E+02  0.29797517645E+01  0.17439037452E+02  0.40659148250E+02  0.00000000000E+00 0.  1.
         11    1    3    3    0    0 -0.17488002864E+02  0.19731201211E+01 -0.13842173486E+02  0.22390382182E+02  0.51100000000E-03 0. -1.
        -11    1    3    3    0    0  0.77458568047E+00  0.10905152520E+01 -0.69497934962E+01  0.70773467057E+01  0.51100000000E-03 0.  1.
         12    1    3    3    0    0 -0.19894879535E+02 -0.60433871376E+01  0.33529295298E+01  0.21061122863E+02  0.00000000000E+00 0. -1.
</event>
<event>
 7    1  0.3014423E-011  0.5052886E+02  0.7816164E-02  0.1300439E+00
        -11   -1    0    0    0    0  0.00000000000E+00  0.00000000000E+00  0.45593999997E+02  0.45594000000E+02  0.51100000000E-03 0.  1.
         11   -1    0    0    0    0 -0.00000000000E+00 -0.00000000000E+00 -0.45593999997E+02  0.45594000000E+02  0.51100000000E-03 0. -1.
    9900012    2    1    2    0    0  0.25784129750E+01 -0.12077209274E+02 -0.38738333113E+02  0.50528860195E+02  0.30000001049E+02 0.  0.
        -12    1    1    2    0    0 -0.25784129750E+01  0.12077209274E+02  0.38738333113E+02  0.40659139805E+02  0.00000000000E+00 0.  1.
         11    1    3    3    0    0  0.70185747370E+00  0.10708677522E+01 -0.12634178488E+02  0.12698890817E+02  0.51100000000E-03 0. -1.
        -11    1    3    3    0    0 -0.33882793801E+01  0.58701687403E+01 -0.11236741377E+02  0.13122639796E+02  0.51100000000E-03 0.  1.
         12    1    3    3    0    0  0.52648348814E+01 -0.19018245767E+02 -0.14867413248E+02  0.24707329581E+02  0.00000000000E+00 0. -1.
</event>
<event>
 7    1  0.3014423E-011  0.5052884E+02  0.7816164E-02  0.1300439E+00
        -11   -1    0    0    0    0  0.00000000000E+00  0.00000000000E+00  0.45593999997E+02  0.45594000000E+02  0.51100000000E-03 0.  1.
         11   -1    0    0    0    0 -0.00000000000E+00 -0.00000000000E+00 -0.45593999997E+02  0.45594000000E+02  0.51100000000E-03 0. -1.
    9900012    2    1    2    0    0 -0.83035889250E+01  0.39758391682E+02  0.18676466957E+01  0.50528838642E+02  0.29999935536E+02 0.  0.
        -12    1    1    2    0    0  0.83035889250E+01 -0.39758391682E+02 -0.18676466957E+01  0.40659161358E+02  0.00000000000E+00 0.  1.
         11    1    3    3    0    0  0.16240561401E+01  0.18516252455E+02 -0.93924857146E+01  0.20825656088E+02  0.51100000000E-03 0. -1.
        -11    1    3    3    0    0 -0.12548715711E+00  0.27402991263E+01 -0.32318843167E+01  0.42391110891E+01  0.51100000000E-03 0.  1.
        -12    1    3    3    0    0 -0.98021579080E+01  0.18501840100E+02  0.14492016727E+02  0.25464071465E+02  0.00000000000E+00 0.  1.
</event>
<event>
 7    1  0.3014423E-011  0.5052886E+02  0.7816164E-02  0.1300439E+00
        -11   -1    0    0    0    0  0.00000000000E+00  0.00000000000E+00  0.45593999997E+02  0.45594000000E+02  0.51100000000E-03 0.  1.
         11   -1    0    0    0    0 -0.00000000000E+00 -0.00000000000E+00 -0.45593999997E+02  0.45594000000E+02  0.51100000000E-03 0. -1.
    9900012    2    1    2    0    0  0.38869790899E+02 -0.11821482366E+02  0.15991823526E+01  0.50528862354E+02  0.30000007612E+02 0.  0.
        -12    1    1    2    0    0 -0.38869790899E+02  0.11821482366E+02 -0.15991823526E+01  0.40659137646E+02  0.00000000000E+00 0.  1.
         11    1    3    3    0    0 -0.14508691221E+00 -0.56394092440E+00 -0.42589806728E+01  0.42986039839E+01  0.51100000000E-03 0. -1.
        -11    1    3    3    0    0  0.17659321877E+02  0.12603557790E+01 -0.61178634251E+01  0.18731481495E+02  0.51100000000E-03 0.  1.
         12    1    3    3    0    0  0.21355555935E+02 -0.12517897220E+02  0.11976026450E+02  0.27498776875E+02  0.00000000000E+00 0. -1.
</event>
<event>
 7    1  0.3014423E-011  0.5052886E+02  0.7816164E-02  0.1300439E+00
        -11   -1    0    0    0    0  0.00000000000E+00  0.00000000000E+00  0.45593999997E+02  0.45594000000E+02  0.51100000000E-03 0. -1.
         11   -1    0    0    0    0 -0.00000000000E+00 -0.00000000000E+00 -0.45593999997E+02  0.45594000000E+02  0.51100000000E-03 0.  1.
    9900012    2    1    2    0    0 -0.32215138962E+02  0.12089444142E+01  0.24776789588E+02  0.50528855552E+02  0.29999986936E+02 0.  0.
        -12    1    1    2    0    0  0.32215138962E+02 -0.12089444142E+01 -0.24776789588E+02  0.40659144448E+02  0.00000000000E+00 0.  1.
         11    1    3    3    0    0  0.12922526766E+01  0.55890182775E+00  0.48410779274E+00  0.14888414453E+01  0.51100000000E-03 0. -1.
        -11    1    3    3    0    0  0.49730105334E+00  0.61562079588E+01 -0.10626490864E+01  0.62670110987E+01  0.51100000000E-03 0.  1.
         12    1    3    3    0    0 -0.34004692692E+02 -0.55061653723E+01  0.25355330882E+02  0.42773003008E+02  0.00000000000E+00 0. -1.
</event>
<event>
 7    1  0.3014423E-011  0.5052886E+02  0.7816164E-02  0.1300439E+00
        -11   -1    0    0    0    0  0.00000000000E+00  0.00000000000E+00  0.45593999997E+02  0.45594000000E+02  0.51100000000E-03 0.  1.
         11   -1    0    0    0    0 -0.00000000000E+00 -0.00000000000E+00 -0.45593999997E+02  0.45594000000E+02  0.51100000000E-03 0. -1.
    9900012    2    1    2    0    0 -0.90874990464E+01  0.17142761308E+01 -0.39593485818E+02  0.50528862026E+02  0.30000006614E+02 0.  0.
        -12    1    1    2    0    0  0.90874990464E+01 -0.17142761308E+01  0.39593485818E+02  0.40659137974E+02  0.00000000000E+00 0.  1.
         11    1    3    3    0    0  0.37643023796E+01  0.25309711301E+01 -0.14031688553E+01  0.47481228253E+01  0.51100000000E-03 0. -1.
        -11    1    3    3    0    0 -0.10413670758E+02  0.10485953362E+01 -0.36204287323E+01  0.11074818071E+02  0.51100000000E-03 0.  1.
        -12    1    3    3    0    0 -0.24381306678E+01 -0.18652903355E+01 -0.34569888231E+02  0.34705921130E+02  0.00000000000E+00 0.  1.
</event>
<event>
 7    1  0.3014423E-011  0.5052885E+02  0.7816164E-02  0.1300439E+00
        -11   -1    0    0    0    0  0.00000000000E+00  0.00000000000E+00  0.45593999997E+02  0.45594000000E+02  0.51100000000E-03 0.  1.
         11   -1    0    0    0    0 -0.00000000000E+00 -0.00000000000E+00 -0.45593999997E+02  0.45594000000E+02  0.51100000000E-03 0. -1.
    9900012    2    1    2    0    0 -0.70939124064E+01  0.14621627090E+02 -0.37269969937E+02  0.50528853046E+02  0.29999979317E+02 0.  0.
        -12    1    1    2    0    0  0.70939124064E+01 -0.14621627090E+02  0.37269969937E+02  0.40659146954E+02  0.00000000000E+00 0.  1.
         11    1    3    3    0    0 -0.80758052364E+01 -0.43149040820E+01 -0.71609715367E+01  0.11623964086E+02  0.51100000000E-03 0. -1.
        -11    1    3    3    0    0 -0.10443479272E+01  0.66832859249E+01 -0.48377801283E+00  0.67816675511E+01  0.51100000000E-03 0.  1.
         12    1    3    3    0    0  0.20262407572E+01  0.12253245247E+02 -0.29625220387E+02  0.32123221409E+02  0.00000000000E+00 0. -1.
</event>
<event>
 7    1  0.3014423E-011  0.5052886E+02  0.7816164E-02  0.1300439E+00
        -11   -1    0    0    0    0  0.00000000000E+00  0.00000000000E+00  0.45593999997E+02  0.45594000000E+02  0.51100000000E-03 0.  1.
         11   -1    0    0    0    0 -0.00000000000E+00 -0.00000000000E+00 -0.45593999997E+02  0.45594000000E+02  0.51100000000E-03 0. -1.
    9900012    2    1    2    0    0  0.23012769977E+02  0.33446726881E+02  0.22123698770E+01  0.50528859558E+02  0.29999999111E+02 0.  0.
        -12    1    1    2    0    0 -0.23012769977E+02 -0.33446726881E+02 -0.22123698770E+01  0.40659140442E+02  0.00000000000E+00 0.  1.
         11    1    3    3    0    0  0.86920880202E+01  0.62224586428E+01  0.58472401166E+01  0.12184482055E+02  0.51100000000E-03 0. -1.
        -11    1    3    3    0    0  0.51433156164E+01 -0.30694128616E+01  0.17417724905E+01  0.62376888760E+01  0.51100000000E-03 0.  1.
         12    1    3    3    0    0  0.91773663402E+01  0.30293681100E+02 -0.53766427301E+01  0.32106688626E+02  0.00000000000E+00 0. -1.
</event>
<event>
 7    1  0.3014423E-011  0.5052885E+02  0.7816164E-02  0.1300439E+00
        -11   -1    0    0    0    0  0.00000000000E+00  0.00000000000E+00  0.45593999997E+02  0.45594000000E+02  0.51100000000E-03 0. -1.
         11   -1    0    0    0    0 -0.00000000000E+00 -0.00000000000E+00 -0.45593999997E+02  0.45594000000E+02  0.51100000000E-03 0.  1.
    9900012    2    1    2    0    0 -0.16050184468E+02  0.14850812634E+02  0.34278438322E+02  0.50528851077E+02  0.29999973333E+02 0.  0.
        -12    1    1    2    0    0  0.16050184468E+02 -0.14850812634E+02 -0.34278438322E+02  0.40659148923E+02  0.00000000000E+00 0.  1.
         11    1    3    3    0    0  0.23245381004E+01 -0.26149878849E+01  0.17557447572E+02  0.17902670318E+02  0.51100000000E-03 0. -1.
        -11    1    3    3    0    0 -0.64436774871E+01 -0.47508478856E+00  0.42005915008E+01  0.77065981037E+01  0.51100000000E-03 0.  1.
         12    1    3    3    0    0 -0.11931045081E+02  0.17940885307E+02  0.12520399250E+02  0.24919582655E+02  0.00000000000E+00 0. -1.
</event>
<event>
 7    1  0.3014423E-011  0.5052886E+02  0.7816164E-02  0.1300439E+00
        -11   -1    0    0    0    0  0.00000000000E+00  0.00000000000E+00  0.45593999997E+02  0.45594000000E+02  0.51100000000E-03 0.  1.
         11   -1    0    0    0    0 -0.00000000000E+00 -0.00000000000E+00 -0.45593999997E+02  0.45594000000E+02  0.51100000000E-03 0. -1.
    9900012    2    1    2    0    0 -0.15195671675E+02  0.44876887189E+01 -0.37444868600E+02  0.50528856230E+02  0.29999988995E+02 0.  0.
        -12    1    1    2    0    0  0.15195671675E+02 -0.44876887189E+01  0.37444868600E+02  0.40659143770E+02  0.00000000000E+00 0.  1.
         11    1    3    3    0    0 -0.68866969523E+01  0.36555013535E+00 -0.94219189037E+01  0.11676162807E+02  0.51100000000E-03 0. -1.
        -11    1    3    3    0    0 -0.76177417257E+01  0.91200118874E+01 -0.30856858315E+02  0.33065848109E+02  0.51100000000E-03 0.  1.
        -12    1    3    3    0    0 -0.69123299664E+00 -0.49978733039E+01  0.28339086190E+01  0.57868453132E+01  0.00000000000E+00 0.  1.
</event>
<event>
 7    1  0.3014423E-011  0.5052883E+02  0.7816164E-02  0.1300439E+00
        -11   -1    0    0    0    0  0.00000000000E+00  0.00000000000E+00  0.45593999997E+02  0.45594000000E+02  0.51100000000E-03 0.  1.
         11   -1    0    0    0    0 -0.00000000000E+00 -0.00000000000E+00 -0.45593999997E+02  0.45594000000E+02  0.51100000000E-03 0. -1.
    9900012    2    1    2    0    0 -0.10351032085E+02 -0.27354143891E+02 -0.28244909784E+02  0.50528831514E+02  0.29999913871E+02 0.  0.
        -12    1    1    2    0    0  0.10351032085E+02  0.27354143891E+02  0.28244909784E+02  0.40659168486E+02  0.00000000000E+00 0.  1.
         11    1    3    3    0    0  0.55871658860E+01 -0.59704620460E+01 -0.72125191600E+01  0.10903360609E+02  0.51100000000E-03 0.  1.
        -11    1    3    3    0    0  0.31260588282E+01 -0.76971290625E+01 -0.11744867699E+02  0.14386102917E+02  0.51100000000E-03 0. -1.
         12    1    3    3    0    0 -0.19064256799E+02 -0.13686552782E+02 -0.92875229248E+01  0.25239367989E+02  0.00000000000E+00 0. -1.
</event>
<event>
 7    1  0.3014423E-011  0.5052886E+02  0.7816164E-02  0.1300439E+00
        -11   -1    0    0    0    0  0.00000000000E+00  0.00000000000E+00  0.45593999997E+02  0.45594000000E+02  0.51100000000E-03 0.  1.
         11   -1    0    0    0    0 -0.00000000000E+00 -0.00000000000E+00 -0.45593999997E+02  0.45594000000E+02  0.51100000000E-03 0. -1.
    9900012    2    1    2    0    0  0.37874634966E+02 -0.79348808894E+01 -0.12478586859E+02  0.50528862792E+02  0.30000008941E+02 0.  0.
        -12    1    1    2    0    0 -0.37874634966E+02  0.79348808894E+01  0.12478586859E+02  0.40659137208E+02  0.00000000000E+00 0.  1.
         11    1    3    3    0    0  0.19454352171E+02 -0.85997389487E+00 -0.13962940679E+01  0.19523345279E+02  0.51100000000E-03 0. -1.
        -11    1    3    3    0    0  0.11181883053E+02  0.34166631735E+01 -0.13681440526E+02  0.17996941712E+02  0.51100000000E-03 0.  1.
         12    1    3    3    0    0  0.72383997422E+01 -0.10491570168E+02  0.25991477352E+01  0.13008575801E+02  0.00000000000E+00 0. -1.
</event>
<event>
 7    1  0.3014423E-011  0.5052886E+02  0.7816164E-02  0.1300439E+00
        -11   -1    0    0    0    0  0.00000000000E+00  0.00000000000E+00  0.45593999997E+02  0.45594000000E+02  0.51100000000E-03 0.  1.
         11   -1    0    0    0    0 -0.00000000000E+00 -0.00000000000E+00 -0.45593999997E+02  0.45594000000E+02  0.51100000000E-03 0. -1.
    9900012    2    1    2    0    0 -0.11450281434E+02  0.30115241799E+02 -0.24801797571E+02  0.50528857162E+02  0.29999991831E+02 0.  0.
        -12    1    1    2    0    0  0.11450281434E+02 -0.30115241799E+02  0.24801797571E+02  0.40659142838E+02  0.00000000000E+00 0.  1.
         11    1    3    3    0    0 -0.12422523489E+02  0.38776438566E+01 -0.24576839632E+01  0.13243693686E+02  0.51100000000E-03 0. -1.
        -11    1    3    3    0    0 -0.56138846249E+01  0.67674056556E+01 -0.37159561649E+01  0.95457744772E+01  0.51100000000E-03 0.  1.
         12    1    3    3    0    0  0.65861266804E+01  0.19470192287E+02 -0.18628157443E+02  0.27739388999E+02  0.00000000000E+00 0. -1.
</event>
<event>
 7    1  0.3014423E-011  0.5052885E+02  0.7816164E-02  0.1300439E+00
        -11   -1    0    0    0    0  0.00000000000E+00  0.00000000000E+00  0.45593999997E+02  0.45594000000E+02  0.51100000000E-03 0.  1.
         11   -1    0    0    0    0 -0.00000000000E+00 -0.00000000000E+00 -0.45593999997E+02  0.45594000000E+02  0.51100000000E-03 0. -1.
    9900012    2    1    2    0    0  0.34477376102E+02  0.64000298623E+01 -0.20579517124E+02  0.50528851335E+02  0.29999974118E+02 0.  0.
        -12    1    1    2    0    0 -0.34477376102E+02 -0.64000298623E+01  0.20579517124E+02  0.40659148665E+02  0.00000000000E+00 0.  1.
         11    1    3    3    0    0  0.13968343507E+02  0.77623384932E+01  0.36303743840E+01  0.16387438410E+02  0.51100000000E-03 0. -1.
        -11    1    3    3    0    0  0.47460088921E+01 -0.13224789626E+01  0.37068085405E+00  0.49407444345E+01  0.51100000000E-03 0.  1.
         12    1    3    3    0    0  0.15763023702E+02 -0.39829668227E-01 -0.24580572362E+02  0.29200668490E+02  0.00000000000E+00 0. -1.
</event>
<event>
 7    1  0.3014423E-011  0.5052880E+02  0.7816164E-02  0.1300439E+00
        -11   -1    0    0    0    0  0.00000000000E+00  0.00000000000E+00  0.45593999997E+02  0.45594000000E+02  0.51100000000E-03 0.  1.
         11   -1    0    0    0    0 -0.00000000000E+00 -0.00000000000E+00 -0.45593999997E+02  0.45594000000E+02  0.51100000000E-03 0. -1.
    9900012    2    1    2    0    0  0.94749027176E+01  0.34603749544E+02 -0.19130537243E+02  0.50528797853E+02  0.29999811554E+02 0.  0.
        -12    1    1    2    0    0 -0.94749027176E+01 -0.34603749544E+02  0.19130537243E+02  0.40659202147E+02  0.00000000000E+00 0.  1.
         11    1    3    3    0    0  0.59993691917E+00  0.53356847215E+01 -0.78458598668E+01  0.95072063754E+01  0.51100000000E-03 0. -1.
        -11    1    3    3    0    0  0.61158098179E+01  0.10429441257E+02 -0.17253796381E+02  0.21068219301E+02  0.51100000000E-03 0.  1.
        -12    1    3    3    0    0  0.27591559806E+01  0.18838623565E+02  0.59691190054E+01  0.19953372177E+02  0.00000000000E+00 0.  1.
</event>
<event>
 7    1  0.3014423E-011  0.5052886E+02  0.7816164E-02  0.1300439E+00
        -11   -1    0    0    0    0  0.00000000000E+00  0.00000000000E+00  0.45593999997E+02  0.45594000000E+02  0.51100000000E-03 0. -1.
         11   -1    0    0    0    0 -0.00000000000E+00 -0.00000000000E+00 -0.45593999997E+02  0.45594000000E+02  0.51100000000E-03 0.  1.
    9900012    2    1    2    0    0  0.27617066726E+01 -0.37738905156E+02 -0.14876627792E+02  0.50528855388E+02  0.29999986436E+02 0.  0.
        -12    1    1    2    0    0 -0.27617066726E+01  0.37738905156E+02  0.14876627792E+02  0.40659144612E+02  0.00000000000E+00 0.  1.
         11    1    3    3    0    0 -0.13456429498E+01 -0.74963970091E+01 -0.83700492880E+01  0.11316556385E+02  0.51100000000E-03 0. -1.
        -11    1    3    3    0    0 -0.88178896793E+01 -0.14215381108E+02 -0.80512110778E+01  0.18564865702E+02  0.51100000000E-03 0.  1.
        -12    1    3    3    0    0  0.12925239302E+02 -0.16027127039E+02  0.15446325738E+01  0.20647433301E+02  0.00000000000E+00 0.  1.
</event>
<event>
 7    1  0.3014423E-011  0.5052887E+02  0.7816164E-02  0.1300439E+00
        -11   -1    0    0    0    0  0.00000000000E+00  0.00000000000E+00  0.45593999997E+02  0.45594000000E+02  0.51100000000E-03 0. -1.
         11   -1    0    0    0    0 -0.00000000000E+00 -0.00000000000E+00 -0.45593999997E+02  0.45594000000E+02  0.51100000000E-03 0.  1.
    9900012    2    1    2    0    0  0.28850656759E+02  0.28554544018E+02  0.23329672922E+01  0.50528866760E+02  0.30000021002E+02 0.  0.
        -12    1    1    2    0    0 -0.28850656759E+02 -0.28554544018E+02 -0.23329672922E+01  0.40659133240E+02  0.00000000000E+00 0.  1.
         11    1    3    3    0    0  0.14596841779E+02  0.13694374344E+02  0.94772909568E+01  0.22145489896E+02  0.51100000000E-03 0. -1.
        -11    1    3    3    0    0  0.40746436440E+01  0.86577516903E+01  0.54751173565E+01  0.11024350116E+02  0.51100000000E-03 0.  1.
         12    1    3    3    0    0  0.10179171336E+02  0.62024179832E+01 -0.12619441021E+02  0.17359026747E+02  0.00000000000E+00 0. -1.
</event>
<event>
 7    1  0.3014423E-011  0.5052886E+02  0.7816164E-02  0.1300439E+00
        -11   -1    0    0    0    0  0.00000000000E+00  0.00000000000E+00  0.45593999997E+02  0.45594000000E+02  0.51100000000E-03 0. -1.
         11   -1    0    0    0    0 -0.00000000000E+00 -0.00000000000E+00 -0.45593999997E+02  0.45594000000E+02  0.51100000000E-03 0.  1.
    9900012    2    1    2    0    0 -0.16163768811E+02  0.31169932753E+02  0.20502035650E+02  0.50528860858E+02  0.30000003065E+02 0.  0.
        -12    1    1    2    0    0  0.16163768811E+02 -0.31169932753E+02 -0.20502035650E+02  0.40659139142E+02  0.00000000000E+00 0.  1.
         11    1    3    3    0    0 -0.18862493759E+01  0.53161049718E+01  0.19120537141E+01  0.59560774379E+01  0.51100000000E-03 0.  1.
        -11    1    3    3    0    0 -0.90138693541E+01  0.84713291231E+01  0.22790792213E+02  0.25931322138E+02  0.51100000000E-03 0. -1.
        -12    1    3    3    0    0 -0.52636500806E+01  0.17382498658E+02 -0.42008102777E+01  0.18641461282E+02  0.00000000000E+00 0.  1.
</event>
<event>
 7    1  0.3014423E-011  0.5052886E+02  0.7816164E-02  0.1300439E+00
        -11   -1    0    0    0    0  0.00000000000E+00  0.00000000000E+00  0.45593999997E+02  0.45594000000E+02  0.51100000000E-03 0.  1.
         11   -1    0    0    0    0 -0.00000000000E+00 -0.00000000000E+00 -0.45593999997E+02  0.45594000000E+02  0.51100000000E-03 0. -1.
    9900012    2    1    2    0    0  0.20434852043E+02  0.31233376444E+02 -0.16126343057E+02  0.50528856840E+02  0.29999990851E+02 0.  0.
        -12    1    1    2    0    0 -0.20434852043E+02 -0.31233376444E+02  0.16126343057E+02  0.40659143160E+02  0.00000000000E+00 0.  1.
         11    1    3    3    0    0  0.36710449602E+01  0.11535593875E+02 -0.84353709300E+01  0.14754727383E+02  0.51100000000E-03 0. -1.
        -11    1    3    3    0    0  0.90936203402E+01  0.24231027872E+02 -0.71371886695E+01  0.26847273698E+02  0.51100000000E-03 0.  1.
         12    1    3    3    0    0  0.76701867423E+01 -0.45332453028E+01 -0.55378345771E+00  0.89268557597E+01  0.00000000000E+00 0. -1.
</event>
<event>
 7    1  0.3014423E-011  0.5052886E+02  0.7816164E-02  0.1300439E+00
        -11   -1    0    0    0    0  0.00000000000E+00  0.00000000000E+00  0.45593999997E+02  0.45594000000E+02  0.51100000000E-03 0. -1.
         11   -1    0    0    0    0 -0.00000000000E+00 -0.00000000000E+00 -0.45593999997E+02  0.45594000000E+02  0.51100000000E-03 0.  1.
    9900012    2    1    2    0    0  0.27992819172E+02  0.28137069411E+02  0.88245765638E+01  0.50528858940E+02  0.29999997234E+02 0.  0.
        -12    1    1    2    0    0 -0.27992819172E+02 -0.28137069411E+02 -0.88245765638E+01  0.40659141060E+02  0.00000000000E+00 0.  1.
         11    1    3    3    0    0  0.99944896625E+01  0.14101838815E+02 -0.89777718195E+01  0.19476962512E+02  0.51100000000E-03 0.  1.
        -11    1    3    3    0    0  0.83733255619E+01  0.10357380793E+02  0.41551837636E+01  0.13951826770E+02  0.51100000000E-03 0. -1.
        -12    1    3    3    0    0  0.96250039472E+01  0.36778498034E+01  0.13647164620E+02  0.17100069658E+02  0.00000000000E+00 0.  1.
</event>
<event>
 7    1  0.3014423E-011  0.5052886E+02  0.7816164E-02  0.1300439E+00
        -11   -1    0    0    0    0  0.00000000000E+00  0.00000000000E+00  0.45593999997E+02  0.45594000000E+02  0.51100000000E-03 0.  1.
         11   -1    0    0    0    0 -0.00000000000E+00 -0.00000000000E+00 -0.45593999997E+02  0.45594000000E+02  0.51100000000E-03 0. -1.
    9900012    2    1    2    0    0 -0.68649606430E+01 -0.27285637572E+02 -0.29351864041E+02  0.50528860498E+02  0.30000001970E+02 0.  0.
        -12    1    1    2    0    0  0.68649606430E+01  0.27285637572E+02  0.29351864041E+02  0.40659139502E+02  0.00000000000E+00 0.  1.
         11    1    3    3    0    0 -0.56480307404E+01 -0.21298271999E+02 -0.24227124641E+02  0.32748590962E+02  0.51100000000E-03 0. -1.
        -11    1    3    3    0    0  0.25339274894E+01 -0.38653367370E+01 -0.10154461438E+02  0.11156823202E+02  0.51100000000E-03 0.  1.
         12    1    3    3    0    0 -0.37508573919E+01 -0.21220288365E+01  0.50297220376E+01  0.66234463335E+01  0.00000000000E+00 0. -1.
</event>
<event>
 7    1  0.3014423E-011  0.5052885E+02  0.7816164E-02  0.1300439E+00
        -11   -1    0    0    0    0  0.00000000000E+00  0.00000000000E+00  0.45593999997E+02  0.45594000000E+02  0.51100000000E-03 0.  1.
         11   -1    0    0    0    0 -0.00000000000E+00 -0.00000000000E+00 -0.45593999997E+02  0.45594000000E+02  0.51100000000E-03 0. -1.
    9900012    2    1    2    0    0  0.38738525079E+02  0.10100304618E+02 -0.71046985063E+01  0.50528853187E+02  0.29999979748E+02 0.  0.
        -12    1    1    2    0    0 -0.38738525079E+02 -0.10100304618E+02  0.71046985063E+01  0.40659146813E+02  0.00000000000E+00 0.  1.
         11    1    3    3    0    0  0.34436356518E+02  0.12740514716E+02 -0.13300425539E+02  0.39052332647E+02  0.51100000000E-03 0. -1.
        -11    1    3    3    0    0  0.23702581860E+01  0.20527694081E+01 -0.39264952826E+00  0.31600886102E+01  0.51100000000E-03 0.  1.
        -12    1    3    3    0    0  0.19319103752E+01 -0.46929795059E+01  0.65883765605E+01  0.83164319298E+01  0.00000000000E+00 0.  1.
</event>
<event>
 7    1  0.3014423E-011  0.5052886E+02  0.7816164E-02  0.1300439E+00
        -11   -1    0    0    0    0  0.00000000000E+00  0.00000000000E+00  0.45593999997E+02  0.45594000000E+02  0.51100000000E-03 0.  1.
         11   -1    0    0    0    0 -0.00000000000E+00 -0.00000000000E+00 -0.45593999997E+02  0.45594000000E+02  0.51100000000E-03 0. -1.
    9900012    2    1    2    0    0 -0.47121564381E+01 -0.21428134460E+02 -0.34231514134E+02  0.50528856814E+02  0.29999990772E+02 0.  0.
        -12    1    1    2    0    0  0.47121564381E+01  0.21428134460E+02  0.34231514134E+02  0.40659143186E+02  0.00000000000E+00 0.  1.
         11    1    3    3    0    0 -0.94744771317E+01 -0.16683306688E+02 -0.25622311472E+02  0.32009393690E+02  0.51100000000E-03 0. -1.
        -11    1    3    3    0    0  0.27976724390E+01 -0.95835882951E+01 -0.21487992556E+01  0.10212221805E+02  0.51100000000E-03 0.  1.
        -12    1    3    3    0    0  0.19646482546E+01  0.48387605233E+01 -0.64604034068E+01  0.83072413197E+01  0.00000000000E+00 0.  1.
</event>
<event>
 7    1  0.3014423E-011  0.5052883E+02  0.7816164E-02  0.1300439E+00
        -11   -1    0    0    0    0  0.00000000000E+00  0.00000000000E+00  0.45593999997E+02  0.45594000000E+02  0.51100000000E-03 0.  1.
         11   -1    0    0    0    0 -0.00000000000E+00 -0.00000000000E+00 -0.45593999997E+02  0.45594000000E+02  0.51100000000E-03 0. -1.
    9900012    2    1    2    0    0 -0.22354408883E+02  0.33954141255E+02  0.75153757604E+00  0.50528829896E+02  0.29999908951E+02 0.  0.
        -12    1    1    2    0    0  0.22354408883E+02 -0.33954141255E+02 -0.75153757604E+00  0.40659170104E+02  0.00000000000E+00 0.  1.
         11    1    3    3    0    0 -0.25738171511E+00 -0.67294299697E+00 -0.15617228244E+01  0.17199058305E+01  0.51100000000E-03 0. -1.
        -11    1    3    3    0    0 -0.17324346632E+02  0.14869696867E+02 -0.10129686300E+02  0.24977017755E+02  0.51100000000E-03 0.  1.
        -12    1    3    3    0    0 -0.47726805354E+01  0.19757387385E+02  0.12442946700E+02  0.23831906310E+02  0.00000000000E+00 0.  1.
</event>
<event>
 7    1  0.3014423E-011  0.5052886E+02  0.7816164E-02  0.1300439E+00
        -11   -1    0    0    0    0  0.00000000000E+00  0.00000000000E+00  0.45593999997E+02  0.45594000000E+02  0.51100000000E-03 0.  1.
         11   -1    0    0    0    0 -0.00000000000E+00 -0.00000000000E+00 -0.45593999997E+02  0.45594000000E+02  0.51100000000E-03 0. -1.
    9900012    2    1    2    0    0 -0.38453613160E+02  0.13207561660E+02 -0.21341257347E+00  0.50528860868E+02  0.30000003094E+02 0.  0.
        -12    1    1    2    0    0  0.38453613160E+02 -0.13207561660E+02  0.21341257347E+00  0.40659139132E+02  0.00000000000E+00 0.  1.
         11    1    3    3    0    0  0.47499359005E+00 -0.60116854852E+00 -0.85086055352E+00  0.11449831776E+01  0.51100000000E-03 0. -1.
        -11    1    3    3    0    0 -0.71382180827E+01  0.14102441345E+02  0.64386169116E+01  0.17067184809E+02  0.51100000000E-03 0.  1.
         12    1    3    3    0    0 -0.31790388667E+02 -0.29371113719E+00 -0.58011689316E+01  0.32316692882E+02  0.00000000000E+00 0. -1.
</event>
<event>
 7    1  0.3014423E-011  0.5052886E+02  0.7816164E-02  0.1300439E+00
        -11   -1    0    0    0    0  0.00000000000E+00  0.00000000000E+00  0.45593999997E+02  0.45594000000E+02  0.51100000000E-03 0.  1.
         11   -1    0    0    0    0 -0.00000000000E+00 -0.00000000000E+00 -0.45593999997E+02  0.45594000000E+02  0.51100000000E-03 0. -1.
    9900012    2    1    2    0    0 -0.73663914849E+01 -0.20258135333E+02 -0.34474776230E+02  0.50528856296E+02  0.29999989196E+02 0.  0.
        -12    1    1    2    0    0  0.73663914849E+01  0.20258135333E+02  0.34474776230E+02  0.40659143704E+02  0.00000000000E+00 0.  1.
         11    1    3    3    0    0  0.81305713414E+01 -0.64940716912E+01 -0.28106769722E+01  0.10778639189E+02  0.51100000000E-03 0. -1.
        -11    1    3    3    0    0  0.14768470294E+01  0.78028760084E+00 -0.19593374826E+01  0.25746707595E+01  0.51100000000E-03 0.  1.
        -12    1    3    3    0    0 -0.16973809856E+02 -0.14544351243E+02 -0.29704761775E+02  0.37175546347E+02  0.00000000000E+00 0.  1.
</event>
<event>
 7    1  0.3014423E-011  0.5052898E+02  0.7816164E-02  0.1300438E+00
        -11   -1    0    0    0    0  0.00000000000E+00  0.00000000000E+00  0.45593999997E+02  0.45594000000E+02  0.51100000000E-03 0.  1.
         11   -1    0    0    0    0 -0.00000000000E+00 -0.00000000000E+00 -0.45593999997E+02  0.45594000000E+02  0.51100000000E-03 0. -1.
    9900012    2    1    2    0    0  0.16266226725E+02  0.33304498109E+02 -0.16714556472E+02  0.50528977333E+02  0.30000357100E+02 0.  0.
        -12    1    1    2    0    0 -0.16266226725E+02 -0.33304498109E+02  0.16714556472E+02  0.40659022667E+02  0.00000000000E+00 0.  1.
         11    1    3    3    0    0  0.87339626044E+01  0.18290257180E+02 -0.10817467449E+02  0.22974621058E+02  0.51100000000E-03 0. -1.
        -11    1    3    3    0    0  0.10705948122E+01  0.11665924349E+02 -0.12920245515E+02  0.17440547829E+02  0.51100000000E-03 0.  1.
         12    1    3    3    0    0  0.64616693081E+01  0.33483165801E+01  0.70231564917E+01  0.10113808446E+02  0.00000000000E+00 0. -1.
</event>
<event>
 7    1  0.3014423E-011  0.5052887E+02  0.7816164E-02  0.1300439E+00
        -11   -1    0    0    0    0  0.00000000000E+00  0.00000000000E+00  0.45593999997E+02  0.45594000000E+02  0.51100000000E-03 0. -1.
         11   -1    0    0    0    0 -0.00000000000E+00 -0.00000000000E+00 -0.45593999997E+02  0.45594000000E+02  0.51100000000E-03 0.  1.
    9900012    2    1    2    0    0  0.15331172433E+02 -0.36930961722E+02 -0.73637192669E+01  0.50528866422E+02  0.30000019975E+02 0.  0.
        -12    1    1    2    0    0 -0.15331172433E+02  0.36930961722E+02  0.73637192669E+01  0.40659133578E+02  0.00000000000E+00 0.  1.
         11    1    3    3    0    0  0.69500500331E+01 -0.35981110475E+02 -0.49094350017E+01  0.36973585960E+02  0.51100000000E-03 0. -1.
        -11    1    3    3    0    0 -0.21188532421E+01  0.99538070805E+00  0.65912314274E+00  0.24320290693E+01  0.51100000000E-03 0.  1.
        -12    1    3    3    0    0  0.10499975642E+02 -0.19452319557E+01 -0.31134074079E+01  0.11123251392E+02  0.00000000000E+00 0.  1.
</event>
<event>
 7    1  0.3014423E-011  0.5052887E+02  0.7816164E-02  0.1300439E+00
        -11   -1    0    0    0    0  0.00000000000E+00  0.00000000000E+00  0.45593999997E+02  0.45594000000E+02  0.51100000000E-03 0.  1.
         11   -1    0    0    0    0 -0.00000000000E+00 -0.00000000000E+00 -0.45593999997E+02  0.45594000000E+02  0.51100000000E-03 0. -1.
    9900012    2    1    2    0    0 -0.25582604525E+01  0.31509765668E+01 -0.40456043163E+02  0.50528870911E+02  0.30000033622E+02 0.  0.
        -12    1    1    2    0    0  0.25582604525E+01 -0.31509765668E+01  0.40456043163E+02  0.40659129089E+02  0.00000000000E+00 0.  1.
         11    1    3    3    0    0 -0.10806434481E+02 -0.30111379297E+01 -0.11679950355E+02  0.16194666356E+02  0.51100000000E-03 0. -1.
        -11    1    3    3    0    0 -0.76229495811E+00  0.86611775997E+00  0.17344524980E+01  0.20831656934E+01  0.51100000000E-03 0.  1.
         12    1    3    3    0    0  0.90104689867E+01  0.52959967365E+01 -0.30510545306E+02  0.32251038862E+02  0.00000000000E+00 0. -1.
</event>
<event>
 7    1  0.3014423E-011  0.5052886E+02  0.7816164E-02  0.1300439E+00
        -11   -1    0    0    0    0  0.00000000000E+00  0.00000000000E+00  0.45593999997E+02  0.45594000000E+02  0.51100000000E-03 0. -1.
         11   -1    0    0    0    0 -0.00000000000E+00 -0.00000000000E+00 -0.45593999997E+02  0.45594000000E+02  0.51100000000E-03 0.  1.
    9900012    2    1    2    0    0 -0.21260290705E+02 -0.34625881303E+02  0.14880147155E+01  0.50528858289E+02  0.29999995257E+02 0.  0.
        -12    1    1    2    0    0  0.21260290705E+02  0.34625881303E+02 -0.14880147155E+01  0.40659141711E+02  0.00000000000E+00 0.  1.
         11    1    3    3    0    0 -0.46268322314E+01  0.33051623727E+01 -0.22174355471E+01  0.61031709360E+01  0.51100000000E-03 0. -1.
        -11    1    3    3    0    0 -0.27980637713E+00  0.12386099882E+01 -0.11362416824E+01  0.17039635365E+01  0.51100000000E-03 0.  1.
        -12    1    3    3    0    0 -0.16353652097E+02 -0.39169653663E+02  0.48416919450E+01  0.42721723817E+02  0.00000000000E+00 0.  1.
</event>
<event>
 7    1  0.3014423E-011  0.5052885E+02  0.7816164E-02  0.1300439E+00
        -11   -1    0    0    0    0  0.00000000000E+00  0.00000000000E+00  0.45593999997E+02  0.45594000000E+02  0.51100000000E-03 0.  1.
         11   -1    0    0    0    0 -0.00000000000E+00 -0.00000000000E+00 -0.45593999997E+02  0.45594000000E+02  0.51100000000E-03 0. -1.
    9900012    2    1    2    0    0  0.30935358107E+02 -0.18809577233E+02 -0.18503238216E+02  0.50528850952E+02  0.29999972953E+02 0.  0.
        -12    1    1    2    0    0 -0.30935358107E+02  0.18809577233E+02  0.18503238216E+02  0.40659149048E+02  0.00000000000E+00 0.  1.
         11    1    3    3    0    0  0.31760040695E+01 -0.60954280700E+01 -0.33552872715E+01  0.76484768511E+01  0.51100000000E-03 0. -1.
        -11    1    3    3    0    0  0.18779878696E+02 -0.63566185368E+01 -0.22236903947E+02  0.29792118765E+02  0.51100000000E-03 0.  1.
         12    1    3    3    0    0  0.89794753412E+01 -0.63575306258E+01  0.70889530029E+01  0.13088255336E+02  0.00000000000E+00 0. -1.
</event>
<event>
 7    1  0.3014423E-011  0.5052886E+02  0.7816164E-02  0.1300439E+00
        -11   -1    0    0    0    0  0.00000000000E+00  0.00000000000E+00  0.45593999997E+02  0.45594000000E+02  0.51100000000E-03 0. -1.
         11   -1    0    0    0    0 -0.00000000000E+00 -0.00000000000E+00 -0.45593999997E+02  0.45594000000E+02  0.51100000000E-03 0.  1.
    9900012    2    1    2    0    0 -0.15165670461E+02 -0.32897632507E+02 -0.18463855499E+02  0.50528859023E+02  0.29999997487E+02 0.  0.
        -12    1    1    2    0    0  0.15165670461E+02  0.32897632507E+02  0.18463855499E+02  0.40659140977E+02  0.00000000000E+00 0.  1.
         11    1    3    3    0    0 -0.95700254615E+01 -0.27836549788E+02 -0.60796292394E+01  0.30056958985E+02  0.51100000000E-03 0. -1.
        -11    1    3    3    0    0 -0.49350718177E+01 -0.87336045768E+01 -0.31534844106E+01  0.10515476544E+02  0.51100000000E-03 0.  1.
        -12    1    3    3    0    0 -0.66057318181E+00  0.36725218585E+01 -0.92307418490E+01  0.99564234951E+01  0.00000000000E+00 0.  1.
</event>
<event>
 7    1  0.3014423E-011  0.5052886E+02  0.7816164E-02  0.1300439E+00
        -11   -1    0    0    0    0  0.00000000000E+00  0.00000000000E+00  0.45593999997E+02  0.45594000000E+02  0.51100000000E-03 0.  1.
         11   -1    0    0    0    0 -0.00000000000E+00 -0.00000000000E+00 -0.45593999997E+02  0.45594000000E+02  0.51100000000E-03 0. -1.
    9900012    2    1    2    0    0  0.21681870526E+02 -0.28092350651E+02 -0.19846459127E+02  0.50528860628E+02  0.30000002364E+02 0.  0.
        -12    1    1    2    0    0 -0.21681870526E+02  0.28092350651E+02  0.19846459127E+02  0.40659139372E+02  0.00000000000E+00 0.  1.
         11    1    3    3    0    0  0.10310044911E+01 -0.11553916243E-01  0.53456456330E+00  0.11614057375E+01  0.51100000000E-03 0. -1.
        -11    1    3    3    0    0  0.62394789245E+01 -0.29660259088E+02 -0.15689981023E+02  0.34129716834E+02  0.51100000000E-03 0.  1.
         12    1    3    3    0    0  0.14411387111E+02  0.15794623526E+01 -0.46910426672E+01  0.15237738057E+02  0.00000000000E+00 0. -1.
</event>
<event>
 7    1  0.3014423E-011  0.5052886E+02  0.7816164E-02  0.1300439E+00
        -11   -1    0    0    0    0  0.00000000000E+00  0.00000000000E+00  0.45593999997E+02  0.45594000000E+02  0.51100000000E-03 0.  1.
         11   -1    0    0    0    0 -0.00000000000E+00 -0.00000000000E+00 -0.45593999997E+02  0.45594000000E+02  0.51100000000E-03 0. -1.
    9900012    2    1    2    0    0  0.37172703363E+02 -0.14923253806E+02  0.69751334267E+01  0.50528857538E+02  0.29999992972E+02 0.  0.
        -12    1    1    2    0    0 -0.37172703363E+02  0.14923253806E+02 -0.69751334267E+01  0.40659142462E+02  0.00000000000E+00 0.  1.
         11    1    3    3    0    0  0.11677420123E+02 -0.92336822633E+01 -0.52788396036E+01  0.15795226390E+02  0.51100000000E-03 0.  1.
        -11    1    3    3    0    0 -0.23786909191E+00 -0.53098863051E+01 -0.15403754453E+01  0.55339164297E+01  0.51100000000E-03 0. -1.
         12    1    3    3    0    0  0.25733152331E+02 -0.37968523798E+00  0.13794348476E+02  0.29199714718E+02  0.00000000000E+00 0. -1.
</event>
<event>
 7    1  0.3014423E-011  0.5052886E+02  0.7816164E-02  0.1300439E+00
        -11   -1    0    0    0    0  0.00000000000E+00  0.00000000000E+00  0.45593999997E+02  0.45594000000E+02  0.51100000000E-03 0.  1.
         11   -1    0    0    0    0 -0.00000000000E+00 -0.00000000000E+00 -0.45593999997E+02  0.45594000000E+02  0.51100000000E-03 0. -1.
    9900012    2    1    2    0    0 -0.39469673510E+02 -0.88958194360E+01 -0.40218459327E+01  0.50528856193E+02  0.29999988884E+02 0.  0.
        -12    1    1    2    0    0  0.39469673510E+02  0.88958194360E+01  0.40218459327E+01  0.40659143807E+02  0.00000000000E+00 0.  1.
         11    1    3    3    0    0 -0.10188816866E+02  0.29700675122E+01 -0.23788842894E+01  0.10876230086E+02  0.51100000000E-03 0. -1.
        -11    1    3    3    0    0 -0.31377192598E+02 -0.42211441075E+01 -0.19487243062E+01  0.31719769854E+02  0.51100000000E-03 0.  1.
        -12    1    3    3    0    0  0.20963359540E+01 -0.76447428407E+01  0.30576266293E+00  0.79328562535E+01  0.00000000000E+00 0.  1.
</event>
<event>
 7    1  0.3014423E-011  0.5052886E+02  0.7816164E-02  0.1300439E+00
        -11   -1    0    0    0    0  0.00000000000E+00  0.00000000000E+00  0.45593999997E+02  0.45594000000E+02  0.51100000000E-03 0.  1.
         11   -1    0    0    0    0 -0.00000000000E+00 -0.00000000000E+00 -0.45593999997E+02  0.45594000000E+02  0.51100000000E-03 0. -1.
    9900012    2    1    2    0    0  0.34903850403E+01  0.21714382208E+02 -0.34197486630E+02  0.50528864813E+02  0.30000015084E+02 0.  0.
        -12    1    1    2    0    0 -0.34903850403E+01 -0.21714382208E+02  0.34197486630E+02  0.40659135187E+02  0.00000000000E+00 0.  1.
         11    1    3    3    0    0  0.37570588210E+01 -0.47556200559E+01 -0.58553393507E+01  0.84271236062E+01  0.51100000000E-03 0. -1.
        -11    1    3    3    0    0  0.81411150323E+00  0.31503754946E+01 -0.14715694969E+02  0.15071142026E+02  0.51100000000E-03 0.  1.
        -12    1    3    3    0    0 -0.10807852839E+01  0.23319626769E+02 -0.13626452310E+02  0.27030599180E+02  0.00000000000E+00 0.  1.
</event>
<event>
 7    1  0.3014423E-011  0.5052885E+02  0.7816164E-02  0.1300439E+00
        -11   -1    0    0    0    0  0.00000000000E+00  0.00000000000E+00  0.45593999997E+02  0.45594000000E+02  0.51100000000E-03 0. -1.
         11   -1    0    0    0    0 -0.00000000000E+00 -0.00000000000E+00 -0.45593999997E+02  0.45594000000E+02  0.51100000000E-03 0.  1.
    9900012    2    1    2    0    0  0.77911513326E+01 -0.26023329844E+01  0.39820751352E+02  0.50528850793E+02  0.29999972469E+02 0.  0.
        -12    1    1    2    0    0 -0.77911513326E+01  0.26023329844E+01 -0.39820751352E+02  0.40659149207E+02  0.00000000000E+00 0.  1.
         11    1    3    3    0    0  0.13054059060E+02 -0.76437168685E+00  0.18331246598E+02  0.22517267243E+02  0.51100000000E-03 0. -1.
        -11    1    3    3    0    0 -0.39692208209E+01 -0.24106503881E+01  0.24366742984E+02  0.24805324290E+02  0.51100000000E-03 0.  1.
        -12    1    3    3    0    0 -0.12936869061E+01  0.57268909057E+00 -0.28772382302E+01  0.32062592595E+01  0.00000000000E+00 0.  1.
</event>
<event>
 7    1  0.3014423E-011  0.5052888E+02  0.7816164E-02  0.1300439E+00
        -11   -1    0    0    0    0  0.00000000000E+00  0.00000000000E+00  0.45593999997E+02  0.45594000000E+02  0.51100000000E-03 0.  1.
         11   -1    0    0    0    0 -0.00000000000E+00 -0.00000000000E+00 -0.45593999997E+02  0.45594000000E+02  0.51100000000E-03 0. -1.
    9900012    2    1    2    0    0  0.37425953203E+02 -0.10972846503E+02 -0.11491694384E+02  0.50528875891E+02  0.30000048757E+02 0.  0.
        -12    1    1    2    0    0 -0.37425953203E+02  0.10972846503E+02  0.11491694384E+02  0.40659124109E+02  0.00000000000E+00 0.  1.
         11    1    3    3    0    0  0.54420163163E+00  0.10943328742E+01 -0.31452131818E+01  0.33743274998E+01  0.51100000000E-03 0. -1.
        -11    1    3    3    0    0  0.14009647897E+02  0.33087657343E+01 -0.12768628868E+02  0.19242038569E+02  0.51100000000E-03 0.  1.
         12    1    3    3    0    0  0.22872103675E+02 -0.15375945112E+02  0.44221476657E+01  0.27912509822E+02  0.00000000000E+00 0. -1.
</event>
<event>
 7    1  0.3014423E-011  0.5052886E+02  0.7816164E-02  0.1300439E+00
        -11   -1    0    0    0    0  0.00000000000E+00  0.00000000000E+00  0.45593999997E+02  0.45594000000E+02  0.51100000000E-03 0.  1.
         11   -1    0    0    0    0 -0.00000000000E+00 -0.00000000000E+00 -0.45593999997E+02  0.45594000000E+02  0.51100000000E-03 0. -1.
    9900012    2    1    2    0    0  0.39806413340E+02  0.81358456351E+01  0.15566597517E+01  0.50528859370E+02  0.29999998541E+02 0.  0.
        -12    1    1    2    0    0 -0.39806413340E+02 -0.81358456351E+01 -0.15566597517E+01  0.40659140630E+02  0.00000000000E+00 0.  1.
         11    1    3    3    0    0 -0.92428259398E+00 -0.22740000665E+01  0.34614677074E+01  0.42434813027E+01  0.51100000000E-03 0. -1.
        -11    1    3    3    0    0 -0.77274562948E+00 -0.15536173485E+01  0.23075745178E+01  0.28871721614E+01  0.51100000000E-03 0.  1.
         12    1    3    3    0    0  0.41503441563E+02  0.11963463050E+02 -0.42123824735E+01  0.43398205906E+02  0.00000000000E+00 0. -1.
</event>
<event>
 7    1  0.3014423E-011  0.5052886E+02  0.7816164E-02  0.1300439E+00
        -11   -1    0    0    0    0  0.00000000000E+00  0.00000000000E+00  0.45593999997E+02  0.45594000000E+02  0.51100000000E-03 0.  1.
         11   -1    0    0    0    0 -0.00000000000E+00 -0.00000000000E+00 -0.45593999997E+02  0.45594000000E+02  0.51100000000E-03 0. -1.
    9900012    2    1    2    0    0  0.55774014986E+01  0.39631244874E+02 -0.71709541224E+01  0.50528861288E+02  0.30000004372E+02 0.  0.
        -12    1    1    2    0    0 -0.55774014986E+01 -0.39631244874E+02  0.71709541224E+01  0.40659138712E+02  0.00000000000E+00 0.  1.
         11    1    3    3    0    0  0.36520907516E+01  0.24134875058E+01 -0.64276400151E+01  0.77767117231E+01  0.51100000000E-03 0. -1.
        -11    1    3    3    0    0  0.30399797859E+01  0.78642653073E+01 -0.89064886294E+01  0.12264325741E+02  0.51100000000E-03 0.  1.
        -12    1    3    3    0    0 -0.11146690389E+01  0.29353492061E+02  0.81631745222E+01  0.30487823824E+02  0.00000000000E+00 0.  1.
</event>
<event>
 7    1  0.3014423E-011  0.5052886E+02  0.7816164E-02  0.1300439E+00
        -11   -1    0    0    0    0  0.00000000000E+00  0.00000000000E+00  0.45593999997E+02  0.45594000000E+02  0.51100000000E-03 0.  1.
         11   -1    0    0    0    0 -0.00000000000E+00 -0.00000000000E+00 -0.45593999997E+02  0.45594000000E+02  0.51100000000E-03 0. -1.
    9900012    2    1    2    0    0  0.18832762299E+02  0.12751889100E+02 -0.33702847028E+02  0.50528861922E+02  0.30000006299E+02 0.  0.
        -12    1    1    2    0    0 -0.18832762299E+02 -0.12751889100E+02  0.33702847028E+02  0.40659138078E+02  0.00000000000E+00 0.  1.
         11    1    3    3    0    0  0.32497413042E+01 -0.37302977835E+01 -0.12426529979E+02  0.13375148137E+02  0.51100000000E-03 0. -1.
        -11    1    3    3    0    0 -0.46901996442E+01  0.21109863970E+01 -0.13950564864E+01  0.53292043620E+01  0.51100000000E-03 0.  1.
        -12    1    3    3    0    0  0.20273220639E+02  0.14371200486E+02 -0.19881260563E+02  0.31824509424E+02  0.00000000000E+00 0.  1.
</event>
<event>
 7    1  0.3014423E-011  0.5052887E+02  0.7816164E-02  0.1300439E+00
        -11   -1    0    0    0    0  0.00000000000E+00  0.00000000000E+00  0.45593999997E+02  0.45594000000E+02  0.51100000000E-03 0. -1.
         11   -1    0    0    0    0 -0.00000000000E+00 -0.00000000000E+00 -0.45593999997E+02  0.45594000000E+02  0.51100000000E-03 0.  1.
    9900012    2    1    2    0    0  0.35132227136E+02 -0.16463608557E+02  0.12159000799E+02  0.50528867069E+02  0.30000021943E+02 0.  0.
        -12    1    1    2    0    0 -0.35132227136E+02  0.16463608557E+02 -0.12159000799E+02  0.40659132931E+02  0.00000000000E+00 0.  1.
         11    1    3    3    0    0  0.27382321053E+02 -0.20019701047E+02  0.40759289283E+01  0.34164208364E+02  0.51100000000E-03 0. -1.
        -11    1    3    3    0    0  0.63018262161E+01 -0.22840213444E+01  0.55278408630E+00  0.67257220926E+01  0.51100000000E-03 0.  1.
        -12    1    3    3    0    0  0.14480798671E+01  0.58401138343E+01  0.75302877846E+01  0.96389366124E+01  0.00000000000E+00 0.  1.
</event>
<event>
 7    1  0.3014423E-011  0.5052886E+02  0.7816164E-02  0.1300439E+00
        -11   -1    0    0    0    0  0.00000000000E+00  0.00000000000E+00  0.45593999997E+02  0.45594000000E+02  0.51100000000E-03 0. -1.
         11   -1    0    0    0    0 -0.00000000000E+00 -0.00000000000E+00 -0.45593999997E+02  0.45594000000E+02  0.51100000000E-03 0.  1.
    9900012    2    1    2    0    0 -0.25908813248E+02  0.31121279923E+02  0.36558146336E+01  0.50528860209E+02  0.30000001091E+02 0.  0.
        -12    1    1    2    0    0  0.25908813248E+02 -0.31121279923E+02 -0.36558146336E+01  0.40659139791E+02  0.00000000000E+00 0.  1.
         11    1    3    3    0    0 -0.78496125715E+01  0.96317370195E+01 -0.57563650158E+01  0.13693886008E+02  0.51100000000E-03 0. -1.
        -11    1    3    3    0    0 -0.15683889957E+02  0.17928849541E+02 -0.27146516268E+01  0.23974932404E+02  0.51100000000E-03 0.  1.
         12    1    3    3    0    0 -0.23753107195E+01  0.35606933620E+01  0.12126831276E+02  0.12860041797E+02  0.00000000000E+00 0. -1.
</event>
<event>
 7    1  0.3014423E-011  0.5052886E+02  0.7816164E-02  0.1300439E+00
        -11   -1    0    0    0    0  0.00000000000E+00  0.00000000000E+00  0.45593999997E+02  0.45594000000E+02  0.51100000000E-03 0. -1.
         11   -1    0    0    0    0 -0.00000000000E+00 -0.00000000000E+00 -0.45593999997E+02  0.45594000000E+02  0.51100000000E-03 0.  1.
    9900012    2    1    2    0    0 -0.17668166653E+02  0.32402802627E+02  0.17060478970E+02  0.50528859900E+02  0.30000000152E+02 0.  0.
        -12    1    1    2    0    0  0.17668166653E+02 -0.32402802627E+02 -0.17060478970E+02  0.40659140100E+02  0.00000000000E+00 0.  1.
         11    1    3    3    0    0  0.79860113448E-01  0.22370383312E+02  0.10076016381E+02  0.24535006288E+02  0.51100000000E-03 0. -1.
        -11    1    3    3    0    0  0.55257163034E+00  0.51183977380E+01 -0.13052675304E+01  0.53110313874E+01  0.51100000000E-03 0.  1.
        -12    1    3    3    0    0 -0.18300598396E+02  0.49140215774E+01  0.82897301196E+01  0.20682822225E+02  0.00000000000E+00 0.  1.
</event>
<event>
 7    1  0.3014423E-011  0.5052885E+02  0.7816164E-02  0.1300439E+00
        -11   -1    0    0    0    0  0.00000000000E+00  0.00000000000E+00  0.45593999997E+02  0.45594000000E+02  0.51100000000E-03 0. -1.
         11   -1    0    0    0    0 -0.00000000000E+00 -0.00000000000E+00 -0.45593999997E+02  0.45594000000E+02  0.51100000000E-03 0.  1.
    9900012    2    1    2    0    0 -0.22069739116E+02 -0.77241492402E+01  0.33263055425E+02  0.50528847004E+02  0.29999960954E+02 0.  0.
        -12    1    1    2    0    0  0.22069739116E+02  0.77241492402E+01 -0.33263055425E+02  0.40659152996E+02  0.00000000000E+00 0.  1.
         11    1    3    3    0    0 -0.15426477103E+02  0.64916722761E+01  0.27568906196E+02  0.32251551806E+02  0.51100000000E-03 0. -1.
        -11    1    3    3    0    0 -0.55396240727E+00  0.65185339470E+00 -0.57545039360E+00  0.10309852635E+01  0.51100000000E-03 0.  1.
        -12    1    3    3    0    0 -0.60892996055E+01 -0.14867674911E+02  0.62695996223E+01  0.17246309935E+02  0.00000000000E+00 0.  1.
</event>
<event>
 7    1  0.3014423E-011  0.5052886E+02  0.7816164E-02  0.1300439E+00
        -11   -1    0    0    0    0  0.00000000000E+00  0.00000000000E+00  0.45593999997E+02  0.45594000000E+02  0.51100000000E-03 0.  1.
         11   -1    0    0    0    0 -0.00000000000E+00 -0.00000000000E+00 -0.45593999997E+02  0.45594000000E+02  0.51100000000E-03 0. -1.
    9900012    2    1    2    0    0  0.19515819982E+02 -0.20589009942E+02 -0.29127159194E+02  0.50528856346E+02  0.29999989348E+02 0.  0.
        -12    1    1    2    0    0 -0.19515819982E+02  0.20589009942E+02  0.29127159194E+02  0.40659143654E+02  0.00000000000E+00 0.  1.
         11    1    3    3    0    0  0.74455379410E+01  0.16247177086E+01 -0.95360746599E+01  0.12207066111E+02  0.51100000000E-03 0. -1.
        -11    1    3    3    0    0 -0.32908758055E+00  0.39554400062E+01 -0.26464249211E+01  0.47704684678E+01  0.51100000000E-03 0.  1.
         12    1    3    3    0    0  0.12399369622E+02 -0.26169167657E+02 -0.16944659613E+02  0.33551321767E+02  0.00000000000E+00 0. -1.
</event>
<event>
 7    1  0.3014423E-011  0.5052884E+02  0.7816164E-02  0.1300439E+00
        -11   -1    0    0    0    0  0.00000000000E+00  0.00000000000E+00  0.45593999997E+02  0.45594000000E+02  0.51100000000E-03 0.  1.
         11   -1    0    0    0    0 -0.00000000000E+00 -0.00000000000E+00 -0.45593999997E+02  0.45594000000E+02  0.51100000000E-03 0. -1.
    9900012    2    1    2    0    0 -0.75268787912E+01 -0.29360523143E+02 -0.27101164238E+02  0.50528839573E+02  0.29999938366E+02 0.  0.
        -12    1    1    2    0    0  0.75268787912E+01  0.29360523143E+02  0.27101164238E+02  0.40659160427E+02  0.00000000000E+00 0.  1.
         11    1    3    3    0    0 -0.23249674698E+00 -0.32229364095E+01  0.11706313512E+01  0.34368229309E+01  0.51100000000E-03 0. -1.
        -11    1    3    3    0    0 -0.43287015520E-02  0.34723836881E+01  0.20960503239E+01  0.40559702214E+01  0.51100000000E-03 0.  1.
         12    1    3    3    0    0 -0.72900533427E+01 -0.29609970421E+02 -0.30367845914E+02  0.43036046421E+02  0.00000000000E+00 0. -1.
</event>
<event>
 7    1  0.3014423E-011  0.5052886E+02  0.7816164E-02  0.1300439E+00
        -11   -1    0    0    0    0  0.00000000000E+00  0.00000000000E+00  0.45593999997E+02  0.45594000000E+02  0.51100000000E-03 0. -1.
         11   -1    0    0    0    0 -0.00000000000E+00 -0.00000000000E+00 -0.45593999997E+02  0.45594000000E+02  0.51100000000E-03 0.  1.
    9900012    2    1    2    0    0 -0.39839740745E+01 -0.37242730215E+02 -0.15820010737E+02  0.50528859048E+02  0.29999997561E+02 0.  0.
        -12    1    1    2    0    0  0.39839740745E+01  0.37242730215E+02  0.15820010737E+02  0.40659140952E+02  0.00000000000E+00 0.  1.
         11    1    3    3    0    0 -0.96003003643E+01 -0.27045444118E+02 -0.16300146875E+02  0.33004796667E+02  0.51100000000E-03 0. -1.
        -11    1    3    3    0    0  0.15597484110E+01 -0.67570148037E+01 -0.59792977111E+01  0.91565313051E+01  0.51100000000E-03 0.  1.
        -12    1    3    3    0    0  0.40565778788E+01 -0.34402712927E+01  0.64594338485E+01  0.83675310754E+01  0.00000000000E+00 0.  1.
</event>
<event>
 7    1  0.3014423E-011  0.5052886E+02  0.7816164E-02  0.1300439E+00
        -11   -1    0    0    0    0  0.00000000000E+00  0.00000000000E+00  0.45593999997E+02  0.45594000000E+02  0.51100000000E-03 0. -1.
         11   -1    0    0    0    0 -0.00000000000E+00 -0.00000000000E+00 -0.45593999997E+02  0.45594000000E+02  0.51100000000E-03 0.  1.
    9900012    2    1    2    0    0  0.36230412058E+02 -0.15308213163E+02  0.10304428633E+02  0.50528863296E+02  0.30000010473E+02 0.  0.
        -12    1    1    2    0    0 -0.36230412058E+02  0.15308213163E+02 -0.10304428633E+02  0.40659136704E+02  0.00000000000E+00 0.  1.
         11    1    3    3    0    0  0.77422937634E+01 -0.30754033682E+01  0.68899518539E+01  0.10810765718E+02  0.51100000000E-03 0. -1.
        -11    1    3    3    0    0  0.49022646916E+01  0.11562878476E+01  0.10535515741E+02  0.11677597908E+02  0.51100000000E-03 0.  1.
         12    1    3    3    0    0  0.23585853603E+02 -0.13389097642E+02 -0.71210389627E+01  0.28040499670E+02  0.00000000000E+00 0. -1.
</event>
<event>
 7    1  0.3014423E-011  0.5052887E+02  0.7816164E-02  0.1300439E+00
        -11   -1    0    0    0    0  0.00000000000E+00  0.00000000000E+00  0.45593999997E+02  0.45594000000E+02  0.51100000000E-03 0. -1.
         11   -1    0    0    0    0 -0.00000000000E+00 -0.00000000000E+00 -0.45593999997E+02  0.45594000000E+02  0.51100000000E-03 0.  1.
    9900012    2    1    2    0    0  0.12219485059E+02  0.38401866729E+02 -0.53986812600E+01  0.50528868889E+02  0.30000027474E+02 0.  0.
        -12    1    1    2    0    0 -0.12219485059E+02 -0.38401866729E+02  0.53986812600E+01  0.40659131111E+02  0.00000000000E+00 0.  1.
         11    1    3    3    0    0  0.12150633784E+02  0.36077641020E+02 -0.19662261634E+01  0.38119550476E+02  0.51100000000E-03 0. -1.
        -11    1    3    3    0    0 -0.12859014017E+01  0.32619930505E+01 -0.73587052260E+01  0.81513608643E+01  0.51100000000E-03 0.  1.
        -12    1    3    3    0    0  0.13547526769E+01 -0.93776734177E+00  0.39262501294E+01  0.42579575481E+01  0.00000000000E+00 0.  1.
</event>
<event>
 7    1  0.3014423E-011  0.5052885E+02  0.7816164E-02  0.1300439E+00
        -11   -1    0    0    0    0  0.00000000000E+00  0.00000000000E+00  0.45593999997E+02  0.45594000000E+02  0.51100000000E-03 0.  1.
         11   -1    0    0    0    0 -0.00000000000E+00 -0.00000000000E+00 -0.45593999997E+02  0.45594000000E+02  0.51100000000E-03 0. -1.
    9900012    2    1    2    0    0  0.13035699830E+02  0.12663112406E+02 -0.36371449974E+02  0.50528852701E+02  0.29999978271E+02 0.  0.
        -12    1    1    2    0    0 -0.13035699830E+02 -0.12663112406E+02  0.36371449974E+02  0.40659147299E+02  0.00000000000E+00 0.  1.
         11    1    3    3    0    0  0.11439957701E+02  0.21643633424E+01 -0.22154524228E+02  0.25027585678E+02  0.51100000000E-03 0. -1.
        -11    1    3    3    0    0  0.30377324868E+01  0.14021624844E+02 -0.15832623951E+02  0.21365995492E+02  0.51100000000E-03 0.  1.
        -12    1    3    3    0    0 -0.14419903576E+01 -0.35228757796E+01  0.16156982051E+01  0.41352715316E+01  0.00000000000E+00 0.  1.
</event>
<event>
 7    1  0.3102948E-011  0.5052887E+02  0.7816164E-02  0.1300439E+00
        -11   -1    0    0    0    0  0.00000000000E+00  0.00000000000E+00  0.45593999997E+02  0.45594000000E+02  0.51100000000E-03 0. -1.
         11   -1    0    0    0    0 -0.00000000000E+00 -0.00000000000E+00 -0.45593999997E+02  0.45594000000E+02  0.51100000000E-03 0.  1.
    9900012    2    1    2    0    0 -0.36279056424E+02  0.13980498941E+02  0.11897083235E+02  0.50528869719E+02  0.30000029999E+02 0.  0.
        -12    1    1    2    0    0  0.36279056424E+02 -0.13980498941E+02 -0.11897083235E+02  0.40659130281E+02  0.00000000000E+00 0.  1.
         11    1    3    3    0    0 -0.83150015097E+01  0.99581397601E+01  0.33743972315E+00  0.12977583111E+02  0.51100000000E-03 0. -1.
        -11    1    3    3    0    0  0.78993429507E+00  0.58202612435E+01  0.56323360959E+01  0.81377298611E+01  0.51100000000E-03 0.  1.
         12    1    3    3    0    0 -0.28753989209E+02 -0.17979020623E+01  0.59273074163E+01  0.29413556747E+02  0.00000000000E+00 0. -1.
</event>
<event>
 7    1  0.3014423E-011  0.5052886E+02  0.7816164E-02  0.1300439E+00
        -11   -1    0    0    0    0  0.00000000000E+00  0.00000000000E+00  0.45593999997E+02  0.45594000000E+02  0.51100000000E-03 0. -1.
         11   -1    0    0    0    0 -0.00000000000E+00 -0.00000000000E+00 -0.45593999997E+02  0.45594000000E+02  0.51100000000E-03 0.  1.
    9900012    2    1    2    0    0 -0.34720447089E+02  0.18006556390E+02  0.11109464995E+02  0.50528859188E+02  0.29999997987E+02 0.  0.
        -12    1    1    2    0    0  0.34720447089E+02 -0.18006556390E+02 -0.11109464995E+02  0.40659140812E+02  0.00000000000E+00 0.  1.
         11    1    3    3    0    0 -0.36826674360E+01 -0.52956909420E+00 -0.53088076080E+01  0.64827402655E+01  0.51100000000E-03 0. -1.
        -11    1    3    3    0    0 -0.38973804177E+01 -0.21421226386E+01  0.75986650003E+01  0.88044292017E+01  0.51100000000E-03 0.  1.
         12    1    3    3    0    0 -0.27140399235E+02  0.20678248123E+02  0.88196076027E+01  0.35241689721E+02  0.00000000000E+00 0. -1.
</event>
<event>
 7    1  0.3014423E-011  0.5052886E+02  0.7816164E-02  0.1300439E+00
        -11   -1    0    0    0    0  0.00000000000E+00  0.00000000000E+00  0.45593999997E+02  0.45594000000E+02  0.51100000000E-03 0. -1.
         11   -1    0    0    0    0 -0.00000000000E+00 -0.00000000000E+00 -0.45593999997E+02  0.45594000000E+02  0.51100000000E-03 0.  1.
    9900012    2    1    2    0    0 -0.37355826295E+02 -0.13580054096E+02  0.85609688374E+01  0.50528858164E+02  0.29999994874E+02 0.  0.
        -12    1    1    2    0    0  0.37355826295E+02  0.13580054096E+02 -0.85609688374E+01  0.40659141836E+02  0.00000000000E+00 0.  1.
         11    1    3    3    0    0 -0.14385548219E+02 -0.57597989017E+01  0.16779841269E+01  0.15586369428E+02  0.51100000000E-03 0. -1.
        -11    1    3    3    0    0 -0.14952979364E+02 -0.15615976911E+02  0.92431744221E+01  0.23513540788E+02  0.51100000000E-03 0.  1.
        -12    1    3    3    0    0 -0.80172987123E+01  0.77957217161E+01 -0.23601897117E+01  0.11428947948E+02  0.00000000000E+00 0.  1.
</event>
<event>
 7    1  0.3014423E-011  0.5052886E+02  0.7816164E-02  0.1300439E+00
        -11   -1    0    0    0    0  0.00000000000E+00  0.00000000000E+00  0.45593999997E+02  0.45594000000E+02  0.51100000000E-03 0.  1.
         11   -1    0    0    0    0 -0.00000000000E+00 -0.00000000000E+00 -0.45593999997E+02  0.45594000000E+02  0.51100000000E-03 0. -1.
    9900012    2    1    2    0    0  0.22412986374E+02  0.20979678193E+02 -0.26658524638E+02  0.50528858455E+02  0.29999995761E+02 0.  0.
        -12    1    1    2    0    0 -0.22412986374E+02 -0.20979678193E+02  0.26658524638E+02  0.40659141545E+02  0.00000000000E+00 0.  1.
         11    1    3    3    0    0  0.85254491767E+01  0.47996952962E+01 -0.39489578825E+01  0.10550574734E+02  0.51100000000E-03 0. -1.
        -11    1    3    3    0    0  0.20159627205E+02  0.10745183083E+02 -0.10323322167E+02  0.25068715750E+02  0.51100000000E-03 0.  1.
         12    1    3    3    0    0 -0.62720900078E+01  0.54347998138E+01 -0.12386244589E+02  0.14909567971E+02  0.00000000000E+00 0. -1.
</event>
<event>
 7    1  0.3014423E-011  0.5052887E+02  0.7816164E-02  0.1300439E+00
        -11   -1    0    0    0    0  0.00000000000E+00  0.00000000000E+00  0.45593999997E+02  0.45594000000E+02  0.51100000000E-03 0. -1.
         11   -1    0    0    0    0 -0.00000000000E+00 -0.00000000000E+00 -0.45593999997E+02  0.45594000000E+02  0.51100000000E-03 0.  1.
    9900012    2    1    2    0    0 -0.38643778829E+01  0.94278909209E+01  0.39361738549E+02  0.50528868120E+02  0.30000025138E+02 0.  0.
        -12    1    1    2    0    0  0.38643778829E+01 -0.94278909209E+01 -0.39361738549E+02  0.40659131880E+02  0.00000000000E+00 0.  1.
         11    1    3    3    0    0 -0.15453648583E+01  0.46305305105E+01 -0.32342180672E+01  0.58557776701E+01  0.51100000000E-03 0. -1.
        -11    1    3    3    0    0 -0.22490517714E+01  0.21161555000E+01  0.14012170517E+01  0.33911292304E+01  0.51100000000E-03 0.  1.
         12    1    3    3    0    0 -0.69961253308E-01  0.26812049104E+01  0.41194739564E+02  0.41281961220E+02  0.00000000000E+00 0. -1.
</event>
<event>
 7    1  0.3014423E-011  0.5052883E+02  0.7816164E-02  0.1300439E+00
        -11   -1    0    0    0    0  0.00000000000E+00  0.00000000000E+00  0.45593999997E+02  0.45594000000E+02  0.51100000000E-03 0. -1.
         11   -1    0    0    0    0 -0.00000000000E+00 -0.00000000000E+00 -0.45593999997E+02  0.45594000000E+02  0.51100000000E-03 0.  1.
    9900012    2    1    2    0    0 -0.10172284503E+02  0.14024167520E+02  0.36783362236E+02  0.50528826570E+02  0.29999898841E+02 0.  0.
        -12    1    1    2    0    0  0.10172284503E+02 -0.14024167520E+02 -0.36783362236E+02  0.40659173430E+02  0.00000000000E+00 0.  1.
         11    1    3    3    0    0 -0.10870550099E+02  0.34009806040E+01  0.32384402193E+01  0.11841580293E+02  0.51100000000E-03 0.  1.
        -11    1    3    3    0    0  0.64389532183E+01 -0.77869745594E+00  0.12175632428E+02  0.13795380153E+02  0.51100000000E-03 0. -1.
        -12    1    3    3    0    0 -0.57406876225E+01  0.11401884372E+02  0.21369289588E+02  0.24891866124E+02  0.00000000000E+00 0.  1.
</event>
<event>
 7    1  0.3014423E-011  0.5052886E+02  0.7816164E-02  0.1300439E+00
        -11   -1    0    0    0    0  0.00000000000E+00  0.00000000000E+00  0.45593999997E+02  0.45594000000E+02  0.51100000000E-03 0. -1.
         11   -1    0    0    0    0 -0.00000000000E+00 -0.00000000000E+00 -0.45593999997E+02  0.45594000000E+02  0.51100000000E-03 0.  1.
    9900012    2    1    2    0    0  0.83761083412E+01 -0.24781600773E+02  0.31126813326E+02  0.50528862827E+02  0.30000009050E+02 0.  0.
        -12    1    1    2    0    0 -0.83761083412E+01  0.24781600773E+02 -0.31126813326E+02  0.40659137173E+02  0.00000000000E+00 0.  1.
         11    1    3    3    0    0 -0.12922522740E+01  0.18819902275E+01  0.15293237831E+01  0.27478418169E+01  0.51100000000E-03 0. -1.
        -11    1    3    3    0    0 -0.21841110313E+01 -0.66528399874E+01 -0.30983908236E+01  0.76570651592E+01  0.51100000000E-03 0.  1.
         12    1    3    3    0    0  0.11852471646E+02 -0.20010751013E+02  0.32695880366E+02  0.40123955851E+02  0.00000000000E+00 0. -1.
</event>
<event>
 7    1  0.3014423E-011  0.5052886E+02  0.7816164E-02  0.1300439E+00
        -11   -1    0    0    0    0  0.00000000000E+00  0.00000000000E+00  0.45593999997E+02  0.45594000000E+02  0.51100000000E-03 0.  1.
         11   -1    0    0    0    0 -0.00000000000E+00 -0.00000000000E+00 -0.45593999997E+02  0.45594000000E+02  0.51100000000E-03 0. -1.
    9900012    2    1    2    0    0 -0.14812560140E+02 -0.13675547266E+02 -0.35309104970E+02  0.50528862962E+02  0.30000009458E+02 0.  0.
        -12    1    1    2    0    0  0.14812560140E+02  0.13675547266E+02  0.35309104970E+02  0.40659137038E+02  0.00000000000E+00 0.  1.
         11    1    3    3    0    0 -0.78070441218E+01 -0.14564757890E+02 -0.13195477895E+02  0.21147168781E+02  0.51100000000E-03 0. -1.
        -11    1    3    3    0    0 -0.24376018396E+01 -0.80367731471E+01 -0.14632944198E+02  0.16871712465E+02  0.51100000000E-03 0.  1.
        -12    1    3    3    0    0 -0.45679141786E+01  0.89259837708E+01 -0.74806828768E+01  0.12509981715E+02  0.00000000000E+00 0.  1.
</event>
<event>
 7    1  0.3014423E-011  0.5052886E+02  0.7816164E-02  0.1300439E+00
        -11   -1    0    0    0    0  0.00000000000E+00  0.00000000000E+00  0.45593999997E+02  0.45594000000E+02  0.51100000000E-03 0.  1.
         11   -1    0    0    0    0 -0.00000000000E+00 -0.00000000000E+00 -0.45593999997E+02  0.45594000000E+02  0.51100000000E-03 0. -1.
    9900012    2    1    2    0    0  0.62436040475E+01 -0.23190058427E+02 -0.32808601267E+02  0.50528859350E+02  0.29999998479E+02 0.  0.
        -12    1    1    2    0    0 -0.62436040475E+01  0.23190058427E+02  0.32808601267E+02  0.40659140650E+02  0.00000000000E+00 0.  1.
         11    1    3    3    0    0 -0.52656976289E+01  0.17570666459E+00 -0.15595797182E+02  0.16461692937E+02  0.51100000000E-03 0. -1.
        -11    1    3    3    0    0  0.33532942834E+00  0.38670021394E+00 -0.51556100149E+01  0.51809552949E+01  0.51100000000E-03 0.  1.
         12    1    3    3    0    0  0.11173972248E+02 -0.23752465306E+02 -0.12057194070E+02  0.28886211117E+02  0.00000000000E+00 0. -1.
</event>
<event>
 7    1  0.3014423E-011  0.5052886E+02  0.7816164E-02  0.1300439E+00
        -11   -1    0    0    0    0  0.00000000000E+00  0.00000000000E+00  0.45593999997E+02  0.45594000000E+02  0.51100000000E-03 0. -1.
         11   -1    0    0    0    0 -0.00000000000E+00 -0.00000000000E+00 -0.45593999997E+02  0.45594000000E+02  0.51100000000E-03 0.  1.
    9900012    2    1    2    0    0  0.39886669419E+02 -0.71316703200E+01  0.33702637490E+01  0.50528858388E+02  0.29999995555E+02 0.  0.
        -12    1    1    2    0    0 -0.39886669419E+02  0.71316703200E+01 -0.33702637490E+01  0.40659141612E+02  0.00000000000E+00 0.  1.
         11    1    3    3    0    0  0.28640848993E+02 -0.10195178155E+02  0.93296693232E+01  0.31800670096E+02  0.51100000000E-03 0. -1.
        -11    1    3    3    0    0  0.77638521117E+00 -0.20565047381E+01  0.32159540526E+01  0.38954263520E+01  0.51100000000E-03 0.  1.
        -12    1    3    3    0    0  0.10469435215E+02  0.51200125726E+01 -0.91753596269E+01  0.14832761940E+02  0.00000000000E+00 0.  1.
</event>
<event>
 7    1  0.3014423E-011  0.5052886E+02  0.7816164E-02  0.1300439E+00
        -11   -1    0    0    0    0  0.00000000000E+00  0.00000000000E+00  0.45593999997E+02  0.45594000000E+02  0.51100000000E-03 0.  1.
         11   -1    0    0    0    0 -0.00000000000E+00 -0.00000000000E+00 -0.45593999997E+02  0.45594000000E+02  0.51100000000E-03 0. -1.
    9900012    2    1    2    0    0  0.33868528990E+02 -0.20158465445E+02 -0.99862212834E+01  0.50528860799E+02  0.30000002884E+02 0.  0.
        -12    1    1    2    0    0 -0.33868528990E+02  0.20158465445E+02  0.99862212834E+01  0.40659139201E+02  0.00000000000E+00 0.  1.
         11    1    3    3    0    0  0.33845167441E+01  0.13672720038E-01  0.43339741614E+00  0.34121802584E+01  0.51100000000E-03 0. -1.
        -11    1    3    3    0    0  0.13450833887E+02 -0.39891960674E+01  0.89714470985E+01  0.16653092230E+02  0.51100000000E-03 0.  1.
         12    1    3    3    0    0  0.17033178360E+02 -0.16182942098E+02 -0.19391065798E+02  0.30463588311E+02  0.00000000000E+00 0. -1.
</event>
<event>
 7    1  0.3014423E-011  0.5052886E+02  0.7816164E-02  0.1300439E+00
        -11   -1    0    0    0    0  0.00000000000E+00  0.00000000000E+00  0.45593999997E+02  0.45594000000E+02  0.51100000000E-03 0. -1.
         11   -1    0    0    0    0 -0.00000000000E+00 -0.00000000000E+00 -0.45593999997E+02  0.45594000000E+02  0.51100000000E-03 0.  1.
    9900012    2    1    2    0    0 -0.15678027675E+02  0.31351305066E+02  0.20602448716E+02  0.50528858663E+02  0.29999996393E+02 0.  0.
        -12    1    1    2    0    0  0.15678027675E+02 -0.31351305066E+02 -0.20602448716E+02  0.40659141337E+02  0.00000000000E+00 0.  1.
         11    1    3    3    0    0  0.20740888540E+00 -0.27599126167E+01  0.21876906880E+01  0.35279068730E+01  0.51100000000E-03 0.  1.
        -11    1    3    3    0    0 -0.18909045936E+02  0.15731900247E+02  0.11173781976E+02  0.27016626501E+02  0.51100000000E-03 0. -1.
         12    1    3    3    0    0  0.30236093759E+01  0.18379317436E+02  0.72409760520E+01  0.19984325289E+02  0.00000000000E+00 0. -1.
</event>
<event>
 7    1  0.3014423E-011  0.5052886E+02  0.7816164E-02  0.1300439E+00
        -11   -1    0    0    0    0  0.00000000000E+00  0.00000000000E+00  0.45593999997E+02  0.45594000000E+02  0.51100000000E-03 0.  1.
         11   -1    0    0    0    0 -0.00000000000E+00 -0.00000000000E+00 -0.45593999997E+02  0.45594000000E+02  0.51100000000E-03 0. -1.
    9900012    2    1    2    0    0  0.32363652010E+02 -0.54737044973E+01 -0.23995801925E+02  0.50528856842E+02  0.29999990857E+02 0.  0.
        -12    1    1    2    0    0 -0.32363652010E+02  0.54737044973E+01  0.23995801925E+02  0.40659143158E+02  0.00000000000E+00 0.  1.
         11    1    3    3    0    0  0.15211303337E+02 -0.66534993741E+01 -0.12862250987E+02  0.21002149981E+02  0.51100000000E-03 0. -1.
        -11    1    3    3    0    0  0.22019336217E+01  0.67556592691E+01 -0.11554918400E+02  0.13564792049E+02  0.51100000000E-03 0.  1.
         12    1    3    3    0    0  0.14950415051E+02 -0.55758643924E+01  0.42136746192E+00  0.15961914812E+02  0.00000000000E+00 0. -1.
</event>
<event>
 7    1  0.3014423E-011  0.5052886E+02  0.7816164E-02  0.1300439E+00
        -11   -1    0    0    0    0  0.00000000000E+00  0.00000000000E+00  0.45593999997E+02  0.45594000000E+02  0.51100000000E-03 0.  1.
         11   -1    0    0    0    0 -0.00000000000E+00 -0.00000000000E+00 -0.45593999997E+02  0.45594000000E+02  0.51100000000E-03 0. -1.
    9900012    2    1    2    0    0 -0.11973932498E+02  0.21890749384E+02 -0.32102734146E+02  0.50528861941E+02  0.30000006356E+02 0.  0.
        -12    1    1    2    0    0  0.11973932498E+02 -0.21890749384E+02  0.32102734146E+02  0.40659138059E+02  0.00000000000E+00 0.  1.
         11    1    3    3    0    0 -0.30925346578E+01  0.80879131771E+01 -0.67877278680E+01  0.11002334300E+02  0.51100000000E-03 0. -1.
        -11    1    3    3    0    0 -0.15059438406E+02  0.14312071713E+02 -0.26009919458E+02  0.33288706678E+02  0.51100000000E-03 0.  1.
        -12    1    3    3    0    0  0.61780405661E+01 -0.50923550621E+00  0.69491318070E+00  0.62378209630E+01  0.00000000000E+00 0.  1.
</event>
<event>
 7    1  0.3014423E-011  0.5052886E+02  0.7816164E-02  0.1300439E+00
        -11   -1    0    0    0    0  0.00000000000E+00  0.00000000000E+00  0.45593999997E+02  0.45594000000E+02  0.51100000000E-03 0. -1.
         11   -1    0    0    0    0 -0.00000000000E+00 -0.00000000000E+00 -0.45593999997E+02  0.45594000000E+02  0.51100000000E-03 0.  1.
    9900012    2    1    2    0    0 -0.13209858650E+02  0.31086442032E+02  0.22634016129E+02  0.50528856749E+02  0.29999990575E+02 0.  0.
        -12    1    1    2    0    0  0.13209858650E+02 -0.31086442032E+02 -0.22634016129E+02  0.40659143251E+02  0.00000000000E+00 0.  1.
         11    1    3    3    0    0 -0.14485026702E+02  0.16159926168E+02  0.88900698240E+01  0.23451920050E+02  0.51100000000E-03 0. -1.
        -11    1    3    3    0    0  0.39715584346E+01  0.16609951925E+02  0.15820630863E+02  0.23279951471E+02  0.51100000000E-03 0.  1.
        -12    1    3    3    0    0 -0.26963903824E+01 -0.16834360602E+01 -0.20766845585E+01  0.37969852276E+01  0.00000000000E+00 0.  1.
</event>
<event>
 7    1  0.3014423E-011  0.5052886E+02  0.7816164E-02  0.1300439E+00
        -11   -1    0    0    0    0  0.00000000000E+00  0.00000000000E+00  0.45593999997E+02  0.45594000000E+02  0.51100000000E-03 0.  1.
         11   -1    0    0    0    0 -0.00000000000E+00 -0.00000000000E+00 -0.45593999997E+02  0.45594000000E+02  0.51100000000E-03 0. -1.
    9900012    2    1    2    0    0 -0.19373982835E+02  0.35546809832E+02 -0.37734422853E+01  0.50528858754E+02  0.29999996670E+02 0.  0.
        -12    1    1    2    0    0  0.19373982835E+02 -0.35546809832E+02  0.37734422853E+01  0.40659141246E+02  0.00000000000E+00 0.  1.
         11    1    3    3    0    0 -0.55744670678E+01  0.83209878777E+01 -0.29675890387E+01  0.10446057022E+02  0.51100000000E-03 0. -1.
        -11    1    3    3    0    0 -0.16101533337E+02  0.89577954523E+01 -0.82935368648E+01  0.20206044372E+02  0.51100000000E-03 0.  1.
        -12    1    3    3    0    0  0.23020175699E+01  0.18268026502E+02  0.74876836181E+01  0.19876757360E+02  0.00000000000E+00 0.  1.
</event>
<event>
 7    1  0.3014423E-011  0.5052886E+02  0.7816164E-02  0.1300439E+00
        -11   -1    0    0    0    0  0.00000000000E+00  0.00000000000E+00  0.45593999997E+02  0.45594000000E+02  0.51100000000E-03 0. -1.
         11   -1    0    0    0    0 -0.00000000000E+00 -0.00000000000E+00 -0.45593999997E+02  0.45594000000E+02  0.51100000000E-03 0.  1.
    9900012    2    1    2    0    0 -0.14614541359E+02 -0.37233464434E+02  0.72972344771E+01  0.50528864201E+02  0.30000013225E+02 0.  0.
        -12    1    1    2    0    0  0.14614541359E+02  0.37233464434E+02 -0.72972344771E+01  0.40659135799E+02  0.00000000000E+00 0.  1.
         11    1    3    3    0    0  0.30105597796E+01 -0.84296956878E+01  0.21113597082E+01  0.91967972498E+01  0.51100000000E-03 0.  1.
        -11    1    3    3    0    0 -0.46990411479E+01 -0.20395049694E+02  0.12379262547E+02  0.24316356248E+02  0.51100000000E-03 0. -1.
         12    1    3    3    0    0 -0.12926059991E+02 -0.84087190527E+01 -0.71933877783E+01  0.17015710703E+02  0.00000000000E+00 0. -1.
</event>
<event>
 7    1  0.3014423E-011  0.5052886E+02  0.7816164E-02  0.1300439E+00
        -11   -1    0    0    0    0  0.00000000000E+00  0.00000000000E+00  0.45593999997E+02  0.45594000000E+02  0.51100000000E-03 0.  1.
         11   -1    0    0    0    0 -0.00000000000E+00 -0.00000000000E+00 -0.45593999997E+02  0.45594000000E+02  0.51100000000E-03 0. -1.
    9900012    2    1    2    0    0 -0.18278195106E+02 -0.32238498061E+02  0.16725804702E+02  0.50528859373E+02  0.29999998550E+02 0.  0.
        -12    1    1    2    0    0  0.18278195106E+02  0.32238498061E+02 -0.16725804702E+02  0.40659140627E+02  0.00000000000E+00 0.  1.
         11    1    3    3    0    0 -0.44005489049E+01 -0.11754954941E+02 -0.59624811019E+01  0.13895861884E+02  0.51100000000E-03 0. -1.
        -11    1    3    3    0    0  0.30114424228E+01 -0.16377927854E+01  0.32401027258E+01  0.47169287263E+01  0.51100000000E-03 0.  1.
        -12    1    3    3    0    0 -0.16889088624E+02 -0.18845750335E+02  0.19448183079E+02  0.31916068763E+02  0.00000000000E+00 0.  1.
</event>
<event>
 7    1  0.3014423E-011  0.5052887E+02  0.7816164E-02  0.1300439E+00
        -11   -1    0    0    0    0  0.00000000000E+00  0.00000000000E+00  0.45593999997E+02  0.45594000000E+02  0.51100000000E-03 0.  1.
         11   -1    0    0    0    0 -0.00000000000E+00 -0.00000000000E+00 -0.45593999997E+02  0.45594000000E+02  0.51100000000E-03 0. -1.
    9900012    2    1    2    0    0  0.34249959538E+02  0.20523407030E+02 -0.76743110245E+01  0.50528868010E+02  0.30000024805E+02 0.  0.
        -12    1    1    2    0    0 -0.34249959538E+02 -0.20523407030E+02  0.76743110245E+01  0.40659131990E+02  0.00000000000E+00 0.  1.
         11    1    3    3    0    0  0.10509473700E+00 -0.12309165541E+01 -0.17274769396E+01  0.21237648893E+01  0.51100000000E-03 0. -1.
        -11    1    3    3    0    0  0.32552987832E+01 -0.44733889723E+01 -0.56132422192E+01  0.78814127882E+01  0.51100000000E-03 0.  1.
         12    1    3    3    0    0  0.30889566017E+02  0.26227712556E+02 -0.33359186570E+00  0.40523690333E+02  0.00000000000E+00 0. -1.
</event>
<event>
 7    1  0.3014423E-011  0.5052887E+02  0.7816164E-02  0.1300439E+00
        -11   -1    0    0    0    0  0.00000000000E+00  0.00000000000E+00  0.45593999997E+02  0.45594000000E+02  0.51100000000E-03 0.  1.
         11   -1    0    0    0    0 -0.00000000000E+00 -0.00000000000E+00 -0.45593999997E+02  0.45594000000E+02  0.51100000000E-03 0. -1.
    9900012    2    1    2    0    0  0.14309137833E+02  0.26424987286E+02 -0.27388570095E+02  0.50528866335E+02  0.30000019710E+02 0.  0.
        -12    1    1    2    0    0 -0.14309137833E+02 -0.26424987286E+02  0.27388570095E+02  0.40659133665E+02  0.00000000000E+00 0.  1.
         11    1    3    3    0    0  0.11093897706E+01  0.29354907411E+01  0.70477520723E+00  0.32162959920E+01  0.51100000000E-03 0. -1.
        -11    1    3    3    0    0  0.18186078794E+02  0.26555466486E+02 -0.23081608589E+02  0.39606652440E+02  0.51100000000E-03 0.  1.
        -12    1    3    3    0    0 -0.49863307314E+01 -0.30659699409E+01 -0.50117367128E+01  0.77059179025E+01  0.00000000000E+00 0.  1.
</event>
<event>
 7    1  0.3014423E-011  0.5052886E+02  0.7816164E-02  0.1300439E+00
        -11   -1    0    0    0    0  0.00000000000E+00  0.00000000000E+00  0.45593999997E+02  0.45594000000E+02  0.51100000000E-03 0.  1.
         11   -1    0    0    0    0 -0.00000000000E+00 -0.00000000000E+00 -0.45593999997E+02  0.45594000000E+02  0.51100000000E-03 0. -1.
    9900012    2    1    2    0    0 -0.57093202672E+01  0.10075493551E+02 -0.38975038923E+02  0.50528861208E+02  0.30000004129E+02 0.  0.
        -12    1    1    2    0    0  0.57093202672E+01 -0.10075493551E+02  0.38975038923E+02  0.40659138792E+02  0.00000000000E+00 0.  1.
         11    1    3    3    0    0 -0.62804333472E+01  0.27047847697E+01 -0.44750967442E+01  0.81722821054E+01  0.51100000000E-03 0. -1.
        -11    1    3    3    0    0 -0.41778588816E+01  0.11213496832E+02 -0.63412512940E+01  0.13542838856E+02  0.51100000000E-03 0.  1.
        -12    1    3    3    0    0  0.47489719616E+01 -0.38427880505E+01 -0.28158690885E+02  0.28813740247E+02  0.00000000000E+00 0.  1.
</event>
<event>
 7    1  0.3014423E-011  0.5052885E+02  0.7816164E-02  0.1300439E+00
        -11   -1    0    0    0    0  0.00000000000E+00  0.00000000000E+00  0.45593999997E+02  0.45594000000E+02  0.51100000000E-03 0.  1.
         11   -1    0    0    0    0 -0.00000000000E+00 -0.00000000000E+00 -0.45593999997E+02  0.45594000000E+02  0.51100000000E-03 0. -1.
    9900012    2    1    2    0    0  0.10956931268E+02 -0.27969366548E+02 -0.27401217608E+02  0.50528849317E+02  0.29999967984E+02 0.  0.
        -12    1    1    2    0    0 -0.10956931268E+02  0.27969366548E+02  0.27401217608E+02  0.40659150683E+02  0.00000000000E+00 0.  1.
         11    1    3    3    0    0  0.11934867912E+02 -0.11505940631E+02 -0.10536750824E+02  0.19643086827E+02  0.51100000000E-03 0. -1.
        -11    1    3    3    0    0  0.57733157100E+01 -0.15064811359E+02 -0.45332705731E+01  0.16757990868E+02  0.51100000000E-03 0.  1.
        -12    1    3    3    0    0 -0.67512523548E+01 -0.13986145576E+01 -0.12331196210E+02  0.14127771623E+02  0.00000000000E+00 0.  1.
</event>
<event>
 7    1  0.3407676E-011  0.5052884E+02  0.7816164E-02  0.1300439E+00
        -11   -1    0    0    0    0  0.00000000000E+00  0.00000000000E+00  0.45593999997E+02  0.45594000000E+02  0.51100000000E-03 0. -1.
         11   -1    0    0    0    0 -0.00000000000E+00 -0.00000000000E+00 -0.45593999997E+02  0.45594000000E+02  0.51100000000E-03 0.  1.
    9900012    2    1    2    0    0 -0.12380963737E+02  0.35521353522E+02  0.15430887810E+02  0.50528842142E+02  0.29999946176E+02 0.  0.
        -12    1    1    2    0    0  0.12380963737E+02 -0.35521353522E+02 -0.15430887810E+02  0.40659157858E+02  0.00000000000E+00 0.  1.
         11    1    3    3    0    0 -0.87275532864E+00  0.20369866839E+02  0.97305590967E+01  0.22591524019E+02  0.51100000000E-03 0. -1.
        -11    1    3    3    0    0  0.39451924687E+01 -0.44553364319E+00  0.44236274139E+01  0.59440326042E+01  0.51100000000E-03 0.  1.
         12    1    3    3    0    0 -0.15453400877E+02  0.15597020326E+02  0.12767012992E+01  0.21993285519E+02  0.00000000000E+00 0. -1.
</event>
<event>
 7    1  0.3014423E-011  0.5052886E+02  0.7816164E-02  0.1300439E+00
        -11   -1    0    0    0    0  0.00000000000E+00  0.00000000000E+00  0.45593999997E+02  0.45594000000E+02  0.51100000000E-03 0. -1.
         11   -1    0    0    0    0 -0.00000000000E+00 -0.00000000000E+00 -0.45593999997E+02  0.45594000000E+02  0.51100000000E-03 0.  1.
    9900012    2    1    2    0    0  0.37063185804E+02  0.16147405703E+02  0.43298355329E+01  0.50528856765E+02  0.29999990623E+02 0.  0.
        -12    1    1    2    0    0 -0.37063185804E+02 -0.16147405703E+02 -0.43298355329E+01  0.40659143235E+02  0.00000000000E+00 0.  1.
         11    1    3    3    0    0  0.19330796105E+02  0.11656442262E+01  0.99556544358E+01  0.21775065098E+02  0.51100000000E-03 0. -1.
        -11    1    3    3    0    0 -0.15403037146E+01 -0.13602611622E+01  0.14479116177E+01  0.25138206532E+01  0.51100000000E-03 0.  1.
         12    1    3    3    0    0  0.19272693413E+02  0.16342022639E+02 -0.70737305206E+01  0.26239971014E+02  0.00000000000E+00 0. -1.
</event>
<event>
 7    1  0.3014423E-011  0.5052885E+02  0.7816164E-02  0.1300439E+00
        -11   -1    0    0    0    0  0.00000000000E+00  0.00000000000E+00  0.45593999997E+02  0.45594000000E+02  0.51100000000E-03 0.  1.
         11   -1    0    0    0    0 -0.00000000000E+00 -0.00000000000E+00 -0.45593999997E+02  0.45594000000E+02  0.51100000000E-03 0. -1.
    9900012    2    1    2    0    0  0.48631329727E+01  0.32085839721E+02 -0.24495216987E+02  0.50528845703E+02  0.29999956998E+02 0.  0.
        -12    1    1    2    0    0 -0.48631329727E+01 -0.32085839721E+02  0.24495216987E+02  0.40659154297E+02  0.00000000000E+00 0.  1.
         11    1    3    3    0    0  0.45820635666E+00  0.12710697739E+02 -0.20374274957E+02  0.24018386090E+02  0.51100000000E-03 0. -1.
        -11    1    3    3    0    0  0.48656954153E+01  0.57049565817E+01 -0.92457040061E+01  0.11903972627E+02  0.51100000000E-03 0.  1.
         12    1    3    3    0    0 -0.46076879934E+00  0.13670185400E+02  0.51247619759E+01  0.14606486986E+02  0.00000000000E+00 0. -1.
</event>
<event>
 7    1  0.3014423E-011  0.5052886E+02  0.7816164E-02  0.1300439E+00
        -11   -1    0    0    0    0  0.00000000000E+00  0.00000000000E+00  0.45593999997E+02  0.45594000000E+02  0.51100000000E-03 0.  1.
         11   -1    0    0    0    0 -0.00000000000E+00 -0.00000000000E+00 -0.45593999997E+02  0.45594000000E+02  0.51100000000E-03 0. -1.
    9900012    2    1    2    0    0 -0.31325665403E+02  0.24211911500E+02 -0.92548034247E+01  0.50528863784E+02  0.30000011957E+02 0.  0.
        -12    1    1    2    0    0  0.31325665403E+02 -0.24211911500E+02  0.92548034247E+01  0.40659136216E+02  0.00000000000E+00 0.  1.
         11    1    3    3    0    0 -0.21218967222E+02  0.18080942544E+02 -0.11183391476E+02  0.30037198578E+02  0.51100000000E-03 0.  1.
        -11    1    3    3    0    0 -0.12621474889E+02  0.32324838234E+01 -0.38223982471E+01  0.13577971449E+02  0.51100000000E-03 0. -1.
        -12    1    3    3    0    0  0.25147767081E+01  0.28984851332E+01  0.57509862984E+01  0.69136937569E+01  0.00000000000E+00 0.  1.
</event>
<event>
 7    1  0.3014423E-011  0.5052885E+02  0.7816164E-02  0.1300439E+00
        -11   -1    0    0    0    0  0.00000000000E+00  0.00000000000E+00  0.45593999997E+02  0.45594000000E+02  0.51100000000E-03 0.  1.
         11   -1    0    0    0    0 -0.00000000000E+00 -0.00000000000E+00 -0.45593999997E+02  0.45594000000E+02  0.51100000000E-03 0. -1.
    9900012    2    1    2    0    0 -0.14890496263E+02 -0.36639256345E+02 -0.94342091066E+01  0.50528852371E+02  0.29999977267E+02 0.  0.
        -12    1    1    2    0    0  0.14890496263E+02  0.36639256345E+02  0.94342091066E+01  0.40659147629E+02  0.00000000000E+00 0.  1.
         11    1    3    3    0    0 -0.74085349624E+01 -0.86501082969E+01  0.11555342696E+01  0.11447533514E+02  0.51100000000E-03 0. -1.
        -11    1    3    3    0    0 -0.14952634596E+02 -0.12562617167E+02 -0.12689703086E+01  0.19570664714E+02  0.51100000000E-03 0.  1.
         12    1    3    3    0    0  0.74706732957E+01 -0.15426530881E+02 -0.93207730676E+01  0.19510654143E+02  0.00000000000E+00 0. -1.
</event>
<event>
 7    1  0.3014423E-011  0.5052885E+02  0.7816164E-02  0.1300439E+00
        -11   -1    0    0    0    0  0.00000000000E+00  0.00000000000E+00  0.45593999997E+02  0.45594000000E+02  0.51100000000E-03 0.  1.
         11   -1    0    0    0    0 -0.00000000000E+00 -0.00000000000E+00 -0.45593999997E+02  0.45594000000E+02  0.51100000000E-03 0. -1.
    9900012    2    1    2    0    0 -0.17993692345E+00  0.93148046517E+01 -0.39577371307E+02  0.50528852412E+02  0.29999977391E+02 0.  0.
        -12    1    1    2    0    0  0.17993692345E+00 -0.93148046517E+01  0.39577371307E+02  0.40659147588E+02  0.00000000000E+00 0.  1.
         11    1    3    3    0    0  0.58978108965E+01  0.65601982994E+01 -0.42519541321E+01  0.97928284628E+01  0.51100000000E-03 0. -1.
        -11    1    3    3    0    0  0.39616538086E+01  0.67548213698E-01 -0.51094345014E-01  0.39625590915E+01  0.51100000000E-03 0.  1.
         12    1    3    3    0    0 -0.10039401629E+02  0.26870581385E+01 -0.35274322830E+02  0.36773464858E+02  0.00000000000E+00 0. -1.
</event>
<event>
 7    1  0.3014423E-011  0.5052886E+02  0.7816164E-02  0.1300439E+00
        -11   -1    0    0    0    0  0.00000000000E+00  0.00000000000E+00  0.45593999997E+02  0.45594000000E+02  0.51100000000E-03 0. -1.
         11   -1    0    0    0    0 -0.00000000000E+00 -0.00000000000E+00 -0.45593999997E+02  0.45594000000E+02  0.51100000000E-03 0.  1.
    9900012    2    1    2    0    0 -0.24937448844E+01  0.23312255773E+02  0.33218755716E+02  0.50528858788E+02  0.29999996771E+02 0.  0.
        -12    1    1    2    0    0  0.24937448844E+01 -0.23312255773E+02 -0.33218755716E+02  0.40659141212E+02  0.00000000000E+00 0.  1.
         11    1    3    3    0    0  0.77295113620E+00  0.19010321561E+02  0.20056343525E+02  0.27645012121E+02  0.51100000000E-03 0. -1.
        -11    1    3    3    0    0  0.44146579863E+01  0.87613212156E+01  0.75193530394E+01  0.12360850495E+02  0.51100000000E-03 0.  1.
        -12    1    3    3    0    0 -0.76813540069E+01 -0.44593870036E+01  0.56430591519E+01  0.10522996171E+02  0.00000000000E+00 0.  1.
</event>
<event>
 7    1  0.3014423E-011  0.5052886E+02  0.7816164E-02  0.1300439E+00
        -11   -1    0    0    0    0  0.00000000000E+00  0.00000000000E+00  0.45593999997E+02  0.45594000000E+02  0.51100000000E-03 0.  1.
         11   -1    0    0    0    0 -0.00000000000E+00 -0.00000000000E+00 -0.45593999997E+02  0.45594000000E+02  0.51100000000E-03 0. -1.
    9900012    2    1    2    0    0  0.32117178411E+02  0.24477364302E+01 -0.24812520878E+02  0.50528858900E+02  0.29999997111E+02 0.  0.
        -12    1    1    2    0    0 -0.32117178411E+02 -0.24477364302E+01  0.24812520878E+02  0.40659141100E+02  0.00000000000E+00 0.  1.
         11    1    3    3    0    0  0.11893578449E+02 -0.25133894579E+01 -0.11133329045E+02  0.16484093872E+02  0.51100000000E-03 0. -1.
        -11    1    3    3    0    0  0.10920109603E+02 -0.30822763034E+01  0.44076227324E+01  0.12172771228E+02  0.51100000000E-03 0.  1.
         12    1    3    3    0    0  0.93034903592E+01  0.80434021916E+01 -0.18086814565E+02  0.21871993800E+02  0.00000000000E+00 0. -1.
</event>
<event>
 7    1  0.3014423E-011  0.5052885E+02  0.7816164E-02  0.1300439E+00
        -11   -1    0    0    0    0  0.00000000000E+00  0.00000000000E+00  0.45593999997E+02  0.45594000000E+02  0.51100000000E-03 0.  1.
         11   -1    0    0    0    0 -0.00000000000E+00 -0.00000000000E+00 -0.45593999997E+02  0.45594000000E+02  0.51100000000E-03 0. -1.
    9900012    2    1    2    0    0 -0.85520242739E+01 -0.39114431466E+02 -0.70774841234E+01  0.50528847898E+02  0.29999963672E+02 0.  0.
        -12    1    1    2    0    0  0.85520242739E+01  0.39114431466E+02  0.70774841234E+01  0.40659152102E+02  0.00000000000E+00 0.  1.
         11    1    3    3    0    0 -0.53225439853E+01 -0.91177923565E+01 -0.10993525889E+00  0.10558205243E+02  0.51100000000E-03 0. -1.
        -11    1    3    3    0    0 -0.95748408740E+01 -0.31397197466E+02 -0.51777127000E+01  0.33230562673E+02  0.51100000000E-03 0.  1.
        -12    1    3    3    0    0  0.63453605854E+01  0.14005583567E+01 -0.17898361645E+01  0.67400799821E+01  0.00000000000E+00 0.  1.
</event>
<event>
 7    1  0.3014423E-011  0.5052886E+02  0.7816164E-02  0.1300439E+00
        -11   -1    0    0    0    0  0.00000000000E+00  0.00000000000E+00  0.45593999997E+02  0.45594000000E+02  0.51100000000E-03 0.  1.
         11   -1    0    0    0    0 -0.00000000000E+00 -0.00000000000E+00 -0.45593999997E+02  0.45594000000E+02  0.51100000000E-03 0. -1.
    9900012    2    1    2    0    0 -0.73920206945E+01 -0.55163072784E+01 -0.39599168619E+02  0.50528858700E+02  0.29999996504E+02 0.  0.
        -12    1    1    2    0    0  0.73920206945E+01  0.55163072784E+01  0.39599168619E+02  0.40659141300E+02  0.00000000000E+00 0.  1.
         11    1    3    3    0    0 -0.11411886464E+01  0.96068652424E+01 -0.12049578773E+02  0.15452718860E+02  0.51100000000E-03 0. -1.
        -11    1    3    3    0    0 -0.16173932474E+01 -0.21484218796E+00  0.14230770214E+01  0.21650095964E+01  0.51100000000E-03 0.  1.
        -12    1    3    3    0    0 -0.46334388006E+01 -0.14908330333E+02 -0.28972666868E+02  0.32911130243E+02  0.00000000000E+00 0.  1.
</event>
<event>
 7    1  0.3014423E-011  0.5052886E+02  0.7816164E-02  0.1300439E+00
        -11   -1    0    0    0    0  0.00000000000E+00  0.00000000000E+00  0.45593999997E+02  0.45594000000E+02  0.51100000000E-03 0.  1.
         11   -1    0    0    0    0 -0.00000000000E+00 -0.00000000000E+00 -0.45593999997E+02  0.45594000000E+02  0.51100000000E-03 0. -1.
    9900012    2    1    2    0    0  0.41282218815E+01 -0.39513109656E+02 -0.86508803566E+01  0.50528858574E+02  0.29999996121E+02 0.  0.
        -12    1    1    2    0    0 -0.41282218815E+01  0.39513109656E+02  0.86508803566E+01  0.40659141426E+02  0.00000000000E+00 0.  1.
         11    1    3    3    0    0  0.76686913430E+00 -0.10345055660E+00  0.48987913590E+01  0.49595309583E+01  0.51100000000E-03 0. -1.
        -11    1    3    3    0    0  0.36273724898E+01 -0.10201956997E+02  0.39426919636E+01  0.11523132297E+02  0.51100000000E-03 0.  1.
         12    1    3    3    0    0 -0.26601974254E+00 -0.29207702102E+02 -0.17492363679E+02  0.34046195319E+02  0.00000000000E+00 0. -1.
</event>
<event>
 7    1  0.3014423E-011  0.5052886E+02  0.7816164E-02  0.1300439E+00
        -11   -1    0    0    0    0  0.00000000000E+00  0.00000000000E+00  0.45593999997E+02  0.45594000000E+02  0.51100000000E-03 0. -1.
         11   -1    0    0    0    0 -0.00000000000E+00 -0.00000000000E+00 -0.45593999997E+02  0.45594000000E+02  0.51100000000E-03 0.  1.
    9900012    2    1    2    0    0 -0.36578492807E+02  0.10674904326E+02  0.14185423602E+02  0.50528856364E+02  0.29999989405E+02 0.  0.
        -12    1    1    2    0    0  0.36578492807E+02 -0.10674904326E+02 -0.14185423602E+02  0.40659143636E+02  0.00000000000E+00 0.  1.
         11    1    3    3    0    0 -0.27589016456E+01  0.57350487546E+01 -0.56664213178E+01  0.85211884921E+01  0.51100000000E-03 0. -1.
        -11    1    3    3    0    0 -0.70548191579E+00 -0.28550719257E+01  0.95322166063E+00  0.30915646896E+01  0.51100000000E-03 0.  1.
         12    1    3    3    0    0 -0.33114109246E+02  0.77949274972E+01  0.18898623259E+02  0.38916103183E+02  0.00000000000E+00 0. -1.
</event>
<event>
 7    1  0.3014423E-011  0.5052886E+02  0.7816164E-02  0.1300439E+00
        -11   -1    0    0    0    0  0.00000000000E+00  0.00000000000E+00  0.45593999997E+02  0.45594000000E+02  0.51100000000E-03 0.  1.
         11   -1    0    0    0    0 -0.00000000000E+00 -0.00000000000E+00 -0.45593999997E+02  0.45594000000E+02  0.51100000000E-03 0. -1.
    9900012    2    1    2    0    0  0.53973163628E+01  0.85101225866E+01 -0.39390510114E+02  0.50528862068E+02  0.30000006742E+02 0.  0.
        -12    1    1    2    0    0 -0.53973163628E+01 -0.85101225866E+01  0.39390510114E+02  0.40659137932E+02  0.00000000000E+00 0.  1.
         11    1    3    3    0    0  0.52021712053E+01  0.97839740556E+00 -0.14250108530E+02  0.15201494667E+02  0.51100000000E-03 0. -1.
        -11    1    3    3    0    0  0.60987349236E+01  0.12320609740E+02 -0.23975082237E+02  0.27636869587E+02  0.51100000000E-03 0.  1.
        -12    1    3    3    0    0 -0.59035897661E+01 -0.47888845585E+01 -0.11653193459E+01  0.76904978135E+01  0.00000000000E+00 0.  1.
</event>
<event>
 7    1  0.3014423E-011  0.5052886E+02  0.7816164E-02  0.1300439E+00
        -11   -1    0    0    0    0  0.00000000000E+00  0.00000000000E+00  0.45593999997E+02  0.45594000000E+02  0.51100000000E-03 0.  1.
         11   -1    0    0    0    0 -0.00000000000E+00 -0.00000000000E+00 -0.45593999997E+02  0.45594000000E+02  0.51100000000E-03 0. -1.
    9900012    2    1    2    0    0 -0.15185870198E+02 -0.17048107002E+02 -0.33643977372E+02  0.50528858107E+02  0.29999994703E+02 0.  0.
        -12    1    1    2    0    0  0.15185870198E+02  0.17048107002E+02  0.33643977372E+02  0.40659141893E+02  0.00000000000E+00 0.  1.
         11    1    3    3    0    0 -0.10341062473E+02 -0.17780669329E+02 -0.23485176735E+02  0.31219277720E+02  0.51100000000E-03 0. -1.
        -11    1    3    3    0    0 -0.10241927816E+02 -0.18632617189E+01 -0.69297927334E+01  0.12505633019E+02  0.51100000000E-03 0.  1.
        -12    1    3    3    0    0  0.53971200902E+01  0.25958240457E+01 -0.32290079035E+01  0.68039473679E+01  0.00000000000E+00 0.  1.
</event>
<event>
 7    1  0.3014423E-011  0.5052887E+02  0.7816164E-02  0.1300439E+00
        -11   -1    0    0    0    0  0.00000000000E+00  0.00000000000E+00  0.45593999997E+02  0.45594000000E+02  0.51100000000E-03 0. -1.
         11   -1    0    0    0    0 -0.00000000000E+00 -0.00000000000E+00 -0.45593999997E+02  0.45594000000E+02  0.51100000000E-03 0.  1.
    9900012    2    1    2    0    0  0.29859434269E+02  0.27548827038E+02  0.16252839060E+01  0.50528865309E+02  0.30000016594E+02 0.  0.
        -12    1    1    2    0    0 -0.29859434269E+02 -0.27548827038E+02 -0.16252839060E+01  0.40659134691E+02  0.00000000000E+00 0.  1.
         11    1    3    3    0    0  0.25595396154E+02  0.24692718269E+02  0.15570362605E+01  0.35598862369E+02  0.51100000000E-03 0. -1.
        -11    1    3    3    0    0  0.61138670017E+01  0.71999899418E+01  0.22790831456E+01  0.97166581253E+01  0.51100000000E-03 0.  1.
        -12    1    3    3    0    0 -0.18498288872E+01 -0.43438811724E+01 -0.22108355001E+01  0.52133448150E+01  0.00000000000E+00 0.  1.
</event>
<event>
 7    1  0.3014423E-011  0.5052886E+02  0.7816164E-02  0.1300439E+00
        -11   -1    0    0    0    0  0.00000000000E+00  0.00000000000E+00  0.45593999997E+02  0.45594000000E+02  0.51100000000E-03 0. -1.
         11   -1    0    0    0    0 -0.00000000000E+00 -0.00000000000E+00 -0.45593999997E+02  0.45594000000E+02  0.51100000000E-03 0.  1.
    9900012    2    1    2    0    0 -0.28442220863E+02 -0.27690892308E+02  0.87988738484E+01  0.50528860493E+02  0.30000001955E+02 0.  0.
        -12    1    1    2    0    0  0.28442220863E+02  0.27690892308E+02 -0.87988738484E+01  0.40659139507E+02  0.00000000000E+00 0.  1.
         11    1    3    3    0    0 -0.64814412365E+01 -0.13844237381E+02  0.67485902267E+01  0.16709741454E+02  0.51100000000E-03 0. -1.
        -11    1    3    3    0    0 -0.47379676373E+01 -0.12205782706E+02 -0.63900979312E+01  0.14569242280E+02  0.51100000000E-03 0.  1.
         12    1    3    3    0    0 -0.17222811989E+02 -0.16408722214E+01  0.84403815528E+01  0.19249876759E+02  0.00000000000E+00 0. -1.
</event>
<event>
 7    1  0.3014423E-011  0.5052885E+02  0.7816164E-02  0.1300439E+00
        -11   -1    0    0    0    0  0.00000000000E+00  0.00000000000E+00  0.45593999997E+02  0.45594000000E+02  0.51100000000E-03 0. -1.
         11   -1    0    0    0    0 -0.00000000000E+00 -0.00000000000E+00 -0.45593999997E+02  0.45594000000E+02  0.51100000000E-03 0.  1.
    9900012    2    1    2    0    0  0.32215677348E+02  0.14884795322E+02  0.19843366010E+02  0.50528853755E+02  0.29999981474E+02 0.  0.
        -12    1    1    2    0    0 -0.32215677348E+02 -0.14884795322E+02 -0.19843366010E+02  0.40659146245E+02  0.00000000000E+00 0.  1.
         11    1    3    3    0    0  0.11756182380E+02 -0.12211965016E+01  0.29678749301E+01  0.12186362333E+02  0.51100000000E-03 0. -1.
        -11    1    3    3    0    0  0.93657481812E+01 -0.23968180253E+01  0.13349628714E+02  0.16482553283E+02  0.51100000000E-03 0.  1.
        -12    1    3    3    0    0  0.11093746787E+02  0.18502809848E+02  0.35258623655E+01  0.21859938140E+02  0.00000000000E+00 0.  1.
</event>
<event>
 7    1  0.3014423E-011  0.5052876E+02  0.7816164E-02  0.1300439E+00
        -11   -1    0    0    0    0  0.00000000000E+00  0.00000000000E+00  0.45593999997E+02  0.45594000000E+02  0.51100000000E-03 0.  1.
         11   -1    0    0    0    0 -0.00000000000E+00 -0.00000000000E+00 -0.45593999997E+02  0.45594000000E+02  0.51100000000E-03 0. -1.
    9900012    2    1    2    0    0 -0.31292678557E+02  0.10287658740E+02 -0.23834970533E+02  0.50528763977E+02  0.29999708584E+02 0.  0.
        -12    1    1    2    0    0  0.31292678557E+02 -0.10287658740E+02  0.23834970533E+02  0.40659236023E+02  0.00000000000E+00 0.  1.
         11    1    3    3    0    0 -0.24511289262E+01  0.25758055917E+01 -0.43882080755E+01  0.56479357144E+01  0.51100000000E-03 0. -1.
        -11    1    3    3    0    0  0.18414429560E+01  0.30321848874E+01 -0.12609274982E+02  0.13098811900E+02  0.51100000000E-03 0.  1.
        -12    1    3    3    0    0 -0.30682992587E+02  0.46796682607E+01 -0.68374874761E+01  0.31782016363E+02  0.00000000000E+00 0.  1.
</event>
<event>
 7    1  0.3014423E-011  0.5052882E+02  0.7816164E-02  0.1300439E+00
        -11   -1    0    0    0    0  0.00000000000E+00  0.00000000000E+00  0.45593999997E+02  0.45594000000E+02  0.51100000000E-03 0. -1.
         11   -1    0    0    0    0 -0.00000000000E+00 -0.00000000000E+00 -0.45593999997E+02  0.45594000000E+02  0.51100000000E-03 0.  1.
    9900012    2    1    2    0    0 -0.22090733487E+01 -0.16154386025E+02  0.37246804047E+02  0.50528823858E+02  0.29999890597E+02 0.  0.
        -12    1    1    2    0    0  0.22090733487E+01  0.16154386025E+02 -0.37246804047E+02  0.40659176142E+02  0.00000000000E+00 0.  1.
         11    1    3    3    0    0 -0.79381609398E+01 -0.51551216638E+01  0.55025300734E+01  0.10948402438E+02  0.51100000000E-03 0. -1.
        -11    1    3    3    0    0 -0.53847659809E+01 -0.51308780596E+01  0.26640831505E+01  0.79005666649E+01  0.51100000000E-03 0.  1.
         12    1    3    3    0    0  0.11113853572E+02 -0.58683863013E+01  0.29080190823E+02  0.31679854755E+02  0.00000000000E+00 0. -1.
</event>
<event>
 7    1  0.3014423E-011  0.5052888E+02  0.7816164E-02  0.1300439E+00
        -11   -1    0    0    0    0  0.00000000000E+00  0.00000000000E+00  0.45593999997E+02  0.45594000000E+02  0.51100000000E-03 0. -1.
         11   -1    0    0    0    0 -0.00000000000E+00 -0.00000000000E+00 -0.45593999997E+02  0.45594000000E+02  0.51100000000E-03 0.  1.
    9900012    2    1    2    0    0  0.33670310724E+02  0.20366404636E+02 -0.10231511427E+02  0.50528879398E+02  0.30000059419E+02 0.  0.
        -12    1    1    2    0    0 -0.33670310724E+02 -0.20366404636E+02  0.10231511427E+02  0.40659120602E+02  0.00000000000E+00 0.  1.
         11    1    3    3    0    0 -0.36377494253E+00  0.15556832324E+01 -0.28327883589E+01  0.32522565514E+01  0.51100000000E-03 0. -1.
        -11    1    3    3    0    0  0.42769161813E+01 -0.35571814518E+01 -0.83553905173E+01  0.10037833574E+02  0.51100000000E-03 0.  1.
         12    1    3    3    0    0  0.29757169485E+02  0.22367902856E+02  0.95666744877E+00  0.37238789273E+02  0.00000000000E+00 0. -1.
</event>
<event>
 7    1  0.3014423E-011  0.5052884E+02  0.7816164E-02  0.1300439E+00
        -11   -1    0    0    0    0  0.00000000000E+00  0.00000000000E+00  0.45593999997E+02  0.45594000000E+02  0.51100000000E-03 0.  1.
         11   -1    0    0    0    0 -0.00000000000E+00 -0.00000000000E+00 -0.45593999997E+02  0.45594000000E+02  0.51100000000E-03 0. -1.
    9900012    2    1    2    0    0 -0.37311177199E+02 -0.16141542255E+02 -0.70254455436E+00  0.50528844829E+02  0.29999954343E+02 0.  0.
        -12    1    1    2    0    0  0.37311177199E+02  0.16141542255E+02  0.70254455436E+00  0.40659155171E+02  0.00000000000E+00 0.  1.
         11    1    3    3    0    0 -0.80579690122E+01 -0.99122820836E+01 -0.96892065498E+01  0.16033244355E+02  0.51100000000E-03 0. -1.
        -11    1    3    3    0    0  0.64784161576E+00 -0.29330842336E+01 -0.28435195472E+00  0.30172070158E+01  0.51100000000E-03 0.  1.
        -12    1    3    3    0    0 -0.29901049802E+02 -0.32961759380E+01  0.92710139502E+01  0.31478393459E+02  0.00000000000E+00 0.  1.
</event>
<event>
 7    1  0.3014423E-011  0.5052886E+02  0.7816164E-02  0.1300439E+00
        -11   -1    0    0    0    0  0.00000000000E+00  0.00000000000E+00  0.45593999997E+02  0.45594000000E+02  0.51100000000E-03 0. -1.
         11   -1    0    0    0    0 -0.00000000000E+00 -0.00000000000E+00 -0.45593999997E+02  0.45594000000E+02  0.51100000000E-03 0.  1.
    9900012    2    1    2    0    0  0.38548063333E+02 -0.86432464324E+00  0.12902150501E+02  0.50528859191E+02  0.29999997997E+02 0.  0.
        -12    1    1    2    0    0 -0.38548063333E+02  0.86432464324E+00 -0.12902150501E+02  0.40659140809E+02  0.00000000000E+00 0.  1.
         11    1    3    3    0    0  0.13350091341E+02  0.14879736484E+01 -0.31459140384E+01  0.13796223389E+02  0.51100000000E-03 0. -1.
        -11    1    3    3    0    0  0.18760189510E+02 -0.45932033869E+00 -0.60800409534E+00  0.18775658573E+02  0.51100000000E-03 0.  1.
         12    1    3    3    0    0  0.64377824812E+01 -0.18929779529E+01  0.16656068635E+02  0.17956977228E+02  0.00000000000E+00 0. -1.
</event>
<event>
 7    1  0.3014423E-011  0.5052886E+02  0.7816164E-02  0.1300439E+00
        -11   -1    0    0    0    0  0.00000000000E+00  0.00000000000E+00  0.45593999997E+02  0.45594000000E+02  0.51100000000E-03 0. -1.
         11   -1    0    0    0    0 -0.00000000000E+00 -0.00000000000E+00 -0.45593999997E+02  0.45594000000E+02  0.51100000000E-03 0.  1.
    9900012    2    1    2    0    0 -0.34160207398E+02  0.61238621710E+01  0.21183581051E+02  0.50528861255E+02  0.30000004271E+02 0.  0.
        -12    1    1    2    0    0  0.34160207398E+02 -0.61238621710E+01 -0.21183581051E+02  0.40659138745E+02  0.00000000000E+00 0.  1.
         11    1    3    3    0    0 -0.12223326048E+02  0.53502648931E+01  0.14420775530E+02  0.19646724949E+02  0.51100000000E-03 0. -1.
        -11    1    3    3    0    0 -0.49606979083E+01  0.51671983951E+01  0.10732122925E+02  0.12902981273E+02  0.51100000000E-03 0.  1.
         12    1    3    3    0    0 -0.16976183442E+02 -0.43936011171E+01 -0.39693174044E+01  0.17979155032E+02  0.00000000000E+00 0. -1.
</event>
<event>
 7    1  0.3014423E-011  0.5052886E+02  0.7816164E-02  0.1300439E+00
        -11   -1    0    0    0    0  0.00000000000E+00  0.00000000000E+00  0.45593999997E+02  0.45594000000E+02  0.51100000000E-03 0. -1.
         11   -1    0    0    0    0 -0.00000000000E+00 -0.00000000000E+00 -0.45593999997E+02  0.45594000000E+02  0.51100000000E-03 0.  1.
    9900012    2    1    2    0    0  0.28514792982E+02 -0.26242524349E+02 -0.12304571333E+02  0.50528856149E+02  0.29999988751E+02 0.  0.
        -12    1    1    2    0    0 -0.28514792982E+02  0.26242524349E+02  0.12304571333E+02  0.40659143851E+02  0.00000000000E+00 0.  1.
         11    1    3    3    0    0  0.15865664187E+02 -0.22414979587E+02 -0.66544275052E+01  0.28256539343E+02  0.51100000000E-03 0. -1.
        -11    1    3    3    0    0 -0.22632765939E+01 -0.34271904155E+01 -0.60929923616E+01  0.73479664713E+01  0.51100000000E-03 0.  1.
         12    1    3    3    0    0  0.14912405389E+02 -0.40035434623E+00  0.44284853335E+00  0.14924350334E+02  0.00000000000E+00 0. -1.
</event>
<event>
 7    1  0.3014423E-011  0.5052892E+02  0.7816164E-02  0.1300439E+00
        -11   -1    0    0    0    0  0.00000000000E+00  0.00000000000E+00  0.45593999997E+02  0.45594000000E+02  0.51100000000E-03 0.  1.
         11   -1    0    0    0    0 -0.00000000000E+00 -0.00000000000E+00 -0.45593999997E+02  0.45594000000E+02  0.51100000000E-03 0. -1.
    9900012    2    1    2    0    0 -0.10948185032E+02 -0.33295921777E+02  0.20607750261E+02  0.50528923113E+02  0.30000192294E+02 0.  0.
        -12    1    1    2    0    0  0.10948185032E+02  0.33295921777E+02 -0.20607750261E+02  0.40659076887E+02  0.00000000000E+00 0.  1.
         11    1    3    3    0    0 -0.80015923966E+01 -0.24679694321E+02  0.17686604672E+02  0.31399502826E+02  0.51100000000E-03 0. -1.
        -11    1    3    3    0    0 -0.79063058238E+01 -0.73424832766E+01  0.67573188967E+01  0.12731185781E+02  0.51100000000E-03 0.  1.
         12    1    3    3    0    0  0.49597131882E+01 -0.12737441796E+01 -0.38361733084E+01  0.63982345062E+01  0.00000000000E+00 0. -1.
</event>
<event>
 7    1  0.3014423E-011  0.5052872E+02  0.7816164E-02  0.1300439E+00
        -11   -1    0    0    0    0  0.00000000000E+00  0.00000000000E+00  0.45593999997E+02  0.45594000000E+02  0.51100000000E-03 0.  1.
         11   -1    0    0    0    0 -0.00000000000E+00 -0.00000000000E+00 -0.45593999997E+02  0.45594000000E+02  0.51100000000E-03 0. -1.
    9900012    2    1    2    0    0  0.30484488688E+02  0.27503498838E+00 -0.26903478875E+02  0.50528722210E+02  0.29999581626E+02 0.  0.
        -12    1    1    2    0    0 -0.30484488688E+02 -0.27503498838E+00  0.26903478875E+02  0.40659277790E+02  0.00000000000E+00 0.  1.
         11    1    3    3    0    0  0.31264021155E+01  0.19038954378E+01 -0.17560633824E+02  0.17938089882E+02  0.51100000000E-03 0. -1.
        -11    1    3    3    0    0  0.11584673625E+02 -0.72592834835E+01 -0.78777026912E+01  0.15778468228E+02  0.51100000000E-03 0.  1.
        -12    1    3    3    0    0  0.15773412948E+02  0.56304230341E+01 -0.14651423597E+01  0.16812164100E+02  0.00000000000E+00 0.  1.
</event>
<event>
 7    1  0.3014423E-011  0.5052885E+02  0.7816164E-02  0.1300439E+00
        -11   -1    0    0    0    0  0.00000000000E+00  0.00000000000E+00  0.45593999997E+02  0.45594000000E+02  0.51100000000E-03 0.  1.
         11   -1    0    0    0    0 -0.00000000000E+00 -0.00000000000E+00 -0.45593999997E+02  0.45594000000E+02  0.51100000000E-03 0. -1.
    9900012    2    1    2    0    0 -0.57091829458E+01 -0.48487469472E+01 -0.39963245090E+02  0.50528854965E+02  0.29999985150E+02 0.  0.
        -12    1    1    2    0    0  0.57091829458E+01  0.48487469472E+01  0.39963245090E+02  0.40659145035E+02  0.00000000000E+00 0.  1.
         11    1    3    3    0    0 -0.64739789053E+01  0.61706911619E+01 -0.97094114163E+01  0.13200852343E+02  0.51100000000E-03 0. -1.
        -11    1    3    3    0    0 -0.72042730940E+01 -0.14785825167E+01 -0.42216607372E+01  0.84799868345E+01  0.51100000000E-03 0.  1.
        -12    1    3    3    0    0  0.79690690535E+01 -0.95408555924E+01 -0.26032172937E+02  0.28848015787E+02  0.00000000000E+00 0.  1.
</event>
<event>
 7    1  0.3014423E-011  0.5052881E+02  0.7816164E-02  0.1300439E+00
        -11   -1    0    0    0    0  0.00000000000E+00  0.00000000000E+00  0.45593999997E+02  0.45594000000E+02  0.51100000000E-03 0.  1.
         11   -1    0    0    0    0 -0.00000000000E+00 -0.00000000000E+00 -0.45593999997E+02  0.45594000000E+02  0.51100000000E-03 0. -1.
    9900012    2    1    2    0    0  0.74630460663E+01 -0.64791083799E+01 -0.39439744578E+02  0.50528814637E+02  0.29999862570E+02 0.  0.
        -12    1    1    2    0    0 -0.74630460663E+01  0.64791083799E+01  0.39439744578E+02  0.40659185363E+02  0.00000000000E+00 0.  1.
         11    1    3    3    0    0 -0.17896091841E+01 -0.63905343428E+01 -0.29163978231E+02  0.29909517829E+02  0.51100000000E-03 0. -1.
        -11    1    3    3    0    0 -0.16314445633E+01 -0.41383179329E+01  0.85911414008E+00  0.45304926933E+01  0.51100000000E-03 0.  1.
        -12    1    3    3    0    0  0.10884099814E+02  0.40497438959E+01 -0.11134880487E+02  0.16088804115E+02  0.00000000000E+00 0.  1.
</event>
<event>
 7    1  0.3014423E-011  0.5052879E+02  0.7816164E-02  0.1300439E+00
        -11   -1    0    0    0    0  0.00000000000E+00  0.00000000000E+00  0.45593999997E+02  0.45594000000E+02  0.51100000000E-03 0.  1.
         11   -1    0    0    0    0 -0.00000000000E+00 -0.00000000000E+00 -0.45593999997E+02  0.45594000000E+02  0.51100000000E-03 0. -1.
    9900012    2    1    2    0    0  0.15119451499E+02 -0.35827610604E+02  0.11872472754E+02  0.50528793115E+02  0.29999797151E+02 0.  0.
        -12    1    1    2    0    0 -0.15119451499E+02  0.35827610604E+02 -0.11872472754E+02  0.40659206885E+02  0.00000000000E+00 0.  1.
         11    1    3    3    0    0  0.71184470489E+01 -0.25988088568E+02  0.35760428647E+01  0.27181632009E+02  0.51100000000E-03 0. -1.
        -11    1    3    3    0    0  0.12814382535E+01 -0.22689502907E+01 -0.55873004310E+01  0.61650746781E+01  0.51100000000E-03 0.  1.
        -12    1    3    3    0    0  0.67195661968E+01 -0.75705717454E+01  0.13883730320E+02  0.17182086428E+02  0.00000000000E+00 0.  1.
</event>
<event>
 7    1  0.3154594E-011  0.5052887E+02  0.7816164E-02  0.1300439E+00
        -11   -1    0    0    0    0  0.00000000000E+00  0.00000000000E+00  0.45593999997E+02  0.45594000000E+02  0.51100000000E-03 0.  1.
         11   -1    0    0    0    0 -0.00000000000E+00 -0.00000000000E+00 -0.45593999997E+02  0.45594000000E+02  0.51100000000E-03 0. -1.
    9900012    2    1    2    0    0 -0.30913652256E+02 -0.22055977149E+02  0.14527388154E+02  0.50528867811E+02  0.30000024197E+02 0.  0.
        -12    1    1    2    0    0  0.30913652256E+02  0.22055977149E+02 -0.14527388154E+02  0.40659132189E+02  0.00000000000E+00 0.  1.
         11    1    3    3    0    0 -0.11523791819E+02  0.43527291891E+01  0.37537056512E+01  0.12877668098E+02  0.51100000000E-03 0. -1.
        -11    1    3    3    0    0  0.16917751045E+01  0.45074952722E+00 -0.25548064204E+00  0.17693356833E+01  0.51100000000E-03 0.  1.
         12    1    3    3    0    0 -0.21081635542E+02 -0.26859455866E+02  0.11029163145E+02  0.35881864029E+02  0.00000000000E+00 0. -1.
</event>
<event>
 7    1  0.3014423E-011  0.5052886E+02  0.7816164E-02  0.1300439E+00
        -11   -1    0    0    0    0  0.00000000000E+00  0.00000000000E+00  0.45593999997E+02  0.45594000000E+02  0.51100000000E-03 0.  1.
         11   -1    0    0    0    0 -0.00000000000E+00 -0.00000000000E+00 -0.45593999997E+02  0.45594000000E+02  0.51100000000E-03 0. -1.
    9900012    2    1    2    0    0  0.37244083267E+02  0.15767023367E+02 -0.41766881034E+01  0.50528862186E+02  0.30000007099E+02 0.  0.
        -12    1    1    2    0    0 -0.37244083267E+02 -0.15767023367E+02  0.41766881034E+01  0.40659137814E+02  0.00000000000E+00 0.  1.
         11    1    3    3    0    0  0.27071612458E+01 -0.27529408984E+01 -0.76401283287E+01  0.85603134722E+01  0.51100000000E-03 0. -1.
        -11    1    3    3    0    0 -0.63073844714E+00 -0.19389695830E+00 -0.16763209120E+01  0.18015213239E+01  0.51100000000E-03 0.  1.
         12    1    3    3    0    0  0.35167660469E+02  0.18713861224E+02  0.51397611374E+01  0.40167027390E+02  0.00000000000E+00 0. -1.
</event>
<event>
 7    1  0.3014423E-011  0.5052887E+02  0.7816164E-02  0.1300439E+00
        -11   -1    0    0    0    0  0.00000000000E+00  0.00000000000E+00  0.45593999997E+02  0.45594000000E+02  0.51100000000E-03 0. -1.
         11   -1    0    0    0    0 -0.00000000000E+00 -0.00000000000E+00 -0.45593999997E+02  0.45594000000E+02  0.51100000000E-03 0.  1.
    9900012    2    1    2    0    0 -0.28488288796E+02 -0.27670022304E+02  0.87150587110E+01  0.50528868416E+02  0.30000026038E+02 0.  0.
        -12    1    1    2    0    0  0.28488288796E+02  0.27670022304E+02 -0.87150587110E+01  0.40659131584E+02  0.00000000000E+00 0.  1.
         11    1    3    3    0    0 -0.17606346543E+02 -0.13093720711E+02  0.63533851350E+01  0.22842820832E+02  0.51100000000E-03 0. -1.
        -11    1    3    3    0    0 -0.78527730999E+01 -0.15133294712E+02  0.97789107847E+01  0.19654764069E+02  0.51100000000E-03 0.  1.
        -12    1    3    3    0    0 -0.30291691534E+01  0.55699311890E+00 -0.74172372087E+01  0.80312835154E+01  0.00000000000E+00 0.  1.
</event>
<event>
 7    1  0.3014423E-011  0.5052887E+02  0.7816164E-02  0.1300439E+00
        -11   -1    0    0    0    0  0.00000000000E+00  0.00000000000E+00  0.45593999997E+02  0.45594000000E+02  0.51100000000E-03 0.  1.
         11   -1    0    0    0    0 -0.00000000000E+00 -0.00000000000E+00 -0.45593999997E+02  0.45594000000E+02  0.51100000000E-03 0. -1.
    9900012    2    1    2    0    0  0.23565881864E+02  0.10135125845E+02 -0.31545103866E+02  0.50528866440E+02  0.30000020032E+02 0.  0.
        -12    1    1    2    0    0 -0.23565881864E+02 -0.10135125845E+02  0.31545103866E+02  0.40659133560E+02  0.00000000000E+00 0.  1.
         11    1    3    3    0    0  0.16828191033E+01 -0.32864298985E+01 -0.93319504256E+01  0.10035825856E+02  0.51100000000E-03 0.  1.
        -11    1    3    3    0    0  0.17646867343E+02  0.18850683336E+02 -0.12773081363E+02  0.28808189756E+02  0.51100000000E-03 0. -1.
         12    1    3    3    0    0  0.42361954185E+01 -0.54291275931E+01 -0.94400720770E+01  0.11684850828E+02  0.00000000000E+00 0. -1.
</event>
<event>
 7    1  0.3014423E-011  0.5052886E+02  0.7816164E-02  0.1300439E+00
        -11   -1    0    0    0    0  0.00000000000E+00  0.00000000000E+00  0.45593999997E+02  0.45594000000E+02  0.51100000000E-03 0. -1.
         11   -1    0    0    0    0 -0.00000000000E+00 -0.00000000000E+00 -0.45593999997E+02  0.45594000000E+02  0.51100000000E-03 0.  1.
    9900012    2    1    2    0    0  0.88685542994E+01 -0.30802901789E+01  0.39560411753E+02  0.50528860548E+02  0.30000002120E+02 0.  0.
        -12    1    1    2    0    0 -0.88685542994E+01  0.30802901789E+01 -0.39560411753E+02  0.40659139452E+02  0.00000000000E+00 0.  1.
         11    1    3    3    0    0  0.69607067225E-01  0.24315157421E+01  0.63089660136E+01  0.67616689042E+01  0.51100000000E-03 0. -1.
        -11    1    3    3    0    0 -0.88218374338E+01 -0.39194603645E+01  0.17926097073E+02  0.20360057509E+02  0.51100000000E-03 0.  1.
         12    1    3    3    0    0  0.17620784666E+02 -0.15923455566E+01  0.15325348666E+02  0.23407134134E+02  0.00000000000E+00 0. -1.
</event>
<event>
 7    1  0.3014423E-011  0.5052886E+02  0.7816164E-02  0.1300439E+00
        -11   -1    0    0    0    0  0.00000000000E+00  0.00000000000E+00  0.45593999997E+02  0.45594000000E+02  0.51100000000E-03 0.  1.
         11   -1    0    0    0    0 -0.00000000000E+00 -0.00000000000E+00 -0.45593999997E+02  0.45594000000E+02  0.51100000000E-03 0. -1.
    9900012    2    1    2    0    0  0.30955369651E+02  0.24989626352E+02 -0.83934083273E+01  0.50528860330E+02  0.30000001458E+02 0.  0.
        -12    1    1    2    0    0 -0.30955369651E+02 -0.24989626352E+02  0.83934083273E+01  0.40659139670E+02  0.00000000000E+00 0.  1.
         11    1    3    3    0    0  0.32046499154E+02  0.16733583647E+02  0.12303345279E+01  0.36173258811E+02  0.51100000000E-03 0. -1.
        -11    1    3    3    0    0  0.19548286240E+00 -0.96594488030E+00 -0.29653980177E-01  0.98597296156E+00  0.51100000000E-03 0.  1.
        -12    1    3    3    0    0 -0.12866123662E+01  0.92219875851E+01 -0.95940888751E+01  0.13369628557E+02  0.00000000000E+00 0.  1.
</event>
<event>
 7    1  0.3014423E-011  0.5052885E+02  0.7816164E-02  0.1300439E+00
        -11   -1    0    0    0    0  0.00000000000E+00  0.00000000000E+00  0.45593999997E+02  0.45594000000E+02  0.51100000000E-03 0.  1.
         11   -1    0    0    0    0 -0.00000000000E+00 -0.00000000000E+00 -0.45593999997E+02  0.45594000000E+02  0.51100000000E-03 0. -1.
    9900012    2    1    2    0    0 -0.33014771323E+02 -0.23101767843E+02 -0.54313973767E+01  0.50528845060E+02  0.29999955045E+02 0.  0.
        -12    1    1    2    0    0  0.33014771323E+02  0.23101767843E+02  0.54313973767E+01  0.40659154940E+02  0.00000000000E+00 0.  1.
         11    1    3    3    0    0 -0.45131587412E+01 -0.15538762334E+02 -0.92285665493E+01  0.18627618675E+02  0.51100000000E-03 0. -1.
        -11    1    3    3    0    0 -0.14087736727E+02 -0.24016916020E+01 -0.38316385946E+01  0.14795739360E+02  0.51100000000E-03 0.  1.
        -12    1    3    3    0    0 -0.14413875855E+02 -0.51613139069E+01  0.76288077671E+01  0.17105487025E+02  0.00000000000E+00 0.  1.
</event>
<event>
 7    1  0.3014423E-011  0.5052886E+02  0.7816164E-02  0.1300439E+00
        -11   -1    0    0    0    0  0.00000000000E+00  0.00000000000E+00  0.45593999997E+02  0.45594000000E+02  0.51100000000E-03 0.  1.
         11   -1    0    0    0    0 -0.00000000000E+00 -0.00000000000E+00 -0.45593999997E+02  0.45594000000E+02  0.51100000000E-03 0. -1.
    9900012    2    1    2    0    0  0.36254059459E+02 -0.15707381332E+01 -0.18339619543E+02  0.50528859692E+02  0.29999999521E+02 0.  0.
        -12    1    1    2    0    0 -0.36254059459E+02  0.15707381332E+01  0.18339619543E+02  0.40659140308E+02  0.00000000000E+00 0.  1.
         11    1    3    3    0    0  0.20959097400E+02 -0.87666667709E+01 -0.94515599357E+01  0.24606303981E+02  0.51100000000E-03 0. -1.
        -11    1    3    3    0    0  0.14058233931E+02  0.16772846420E+01  0.13542526905E+01  0.14222560446E+02  0.51100000000E-03 0.  1.
        -12    1    3    3    0    0  0.12367281279E+01  0.55186439957E+01 -0.10242312298E+02  0.11699995266E+02  0.00000000000E+00 0.  1.
</event>
<event>
 7    1  0.3014423E-011  0.5052887E+02  0.7816164E-02  0.1300439E+00
        -11   -1    0    0    0    0  0.00000000000E+00  0.00000000000E+00  0.45593999997E+02  0.45594000000E+02  0.51100000000E-03 0.  1.
         11   -1    0    0    0    0 -0.00000000000E+00 -0.00000000000E+00 -0.45593999997E+02  0.45594000000E+02  0.51100000000E-03 0. -1.
    9900012    2    1    2    0    0 -0.20310225412E+02 -0.34679253604E+02  0.61651592358E+01  0.50528867259E+02  0.30000022522E+02 0.  0.
        -12    1    1    2    0    0  0.20310225412E+02  0.34679253604E+02 -0.61651592358E+01  0.40659132741E+02  0.00000000000E+00 0.  1.
         11    1    3    3    0    0 -0.61906632438E+01 -0.12571837841E+02  0.14610097768E+02  0.20244267711E+02  0.51100000000E-03 0. -1.
        -11    1    3    3    0    0 -0.92997503936E+00  0.11598144655E+01 -0.24650225190E+01  0.28786037325E+01  0.51100000000E-03 0.  1.
         12    1    3    3    0    0 -0.13189587129E+02 -0.23267230229E+02 -0.59799160134E+01  0.27405995816E+02  0.00000000000E+00 0. -1.
</event>
<event>
 7    1  0.3014423E-011  0.5052886E+02  0.7816164E-02  0.1300439E+00
        -11   -1    0    0    0    0  0.00000000000E+00  0.00000000000E+00  0.45593999997E+02  0.45594000000E+02  0.51100000000E-03 0.  1.
         11   -1    0    0    0    0 -0.00000000000E+00 -0.00000000000E+00 -0.45593999997E+02  0.45594000000E+02  0.51100000000E-03 0. -1.
    9900012    2    1    2    0    0 -0.37191464564E+02 -0.79454714562E+01  0.14381595621E+02  0.50528857785E+02  0.29999993723E+02 0.  0.
        -12    1    1    2    0    0  0.37191464564E+02  0.79454714562E+01 -0.14381595621E+02  0.40659142215E+02  0.00000000000E+00 0.  1.
         11    1    3    3    0    0 -0.15531295131E+02 -0.94730444203E+01 -0.16382431260E+01  0.18265911963E+02  0.51100000000E-03 0. -1.
        -11    1    3    3    0    0 -0.83358281671E+00  0.64735727363E+00 -0.35301637975E+01  0.36845608219E+01  0.51100000000E-03 0.  1.
        -12    1    3    3    0    0 -0.20826586616E+02  0.88021569043E+00  0.19550002545E+02  0.28578385000E+02  0.00000000000E+00 0.  1.
</event>
<event>
 7    1  0.3014423E-011  0.5052888E+02  0.7816164E-02  0.1300439E+00
        -11   -1    0    0    0    0  0.00000000000E+00  0.00000000000E+00  0.45593999997E+02  0.45594000000E+02  0.51100000000E-03 0.  1.
         11   -1    0    0    0    0 -0.00000000000E+00 -0.00000000000E+00 -0.45593999997E+02  0.45594000000E+02  0.51100000000E-03 0. -1.
    9900012    2    1    2    0    0 -0.48846009155E+01  0.25685229112E+02 -0.31137982496E+02  0.50528877105E+02  0.30000052449E+02 0.  0.
        -12    1    1    2    0    0  0.48846009155E+01 -0.25685229112E+02  0.31137982496E+02  0.40659122895E+02  0.00000000000E+00 0.  1.
         11    1    3    3    0    0 -0.75067395417E+01  0.99397791421E+01 -0.12183656274E+01  0.12515381057E+02  0.51100000000E-03 0.  1.
        -11    1    3    3    0    0 -0.69768687800E+01  0.97776733646E+01 -0.13379862653E+02  0.17980553920E+02  0.51100000000E-03 0. -1.
         12    1    3    3    0    0  0.95990074061E+01  0.59677766055E+01 -0.16539754216E+02  0.20032942128E+02  0.00000000000E+00 0. -1.
</event>
<event>
 7    1  0.3014423E-011  0.5052886E+02  0.7816164E-02  0.1300439E+00
        -11   -1    0    0    0    0  0.00000000000E+00  0.00000000000E+00  0.45593999997E+02  0.45594000000E+02  0.51100000000E-03 0.  1.
         11   -1    0    0    0    0 -0.00000000000E+00 -0.00000000000E+00 -0.45593999997E+02  0.45594000000E+02  0.51100000000E-03 0. -1.
    9900012    2    1    2    0    0 -0.11194931656E+02 -0.13555533203E+02 -0.36661790511E+02  0.50528857625E+02  0.29999993237E+02 0.  0.
        -12    1    1    2    0    0  0.11194931656E+02  0.13555533203E+02  0.36661790511E+02  0.40659142375E+02  0.00000000000E+00 0.  1.
         11    1    3    3    0    0 -0.12218329572E+02 -0.12044093188E+02 -0.17117819742E+02  0.24235666098E+02  0.51100000000E-03 0. -1.
        -11    1    3    3    0    0 -0.65256088855E+01 -0.52043275121E+01 -0.13751653567E+02  0.16086533880E+02  0.51100000000E-03 0.  1.
         12    1    3    3    0    0  0.75490068016E+01  0.36928874970E+01 -0.57923172024E+01  0.10206657647E+02  0.00000000000E+00 0. -1.
</event>
<event>
 7    1  0.3014423E-011  0.5052886E+02  0.7816164E-02  0.1300439E+00
        -11   -1    0    0    0    0  0.00000000000E+00  0.00000000000E+00  0.45593999997E+02  0.45594000000E+02  0.51100000000E-03 0.  1.
         11   -1    0    0    0    0 -0.00000000000E+00 -0.00000000000E+00 -0.45593999997E+02  0.45594000000E+02  0.51100000000E-03 0. -1.
    9900012    2    1    2    0    0 -0.13429138636E+02  0.13516479690E+02 -0.35918360207E+02  0.50528860957E+02  0.30000003366E+02 0.  0.
        -12    1    1    2    0    0  0.13429138636E+02 -0.13516479690E+02  0.35918360207E+02  0.40659139043E+02  0.00000000000E+00 0.  1.
         11    1    3    3    0    0 -0.52588697474E+01 -0.19621118110E+01 -0.17404492734E+01  0.58766280905E+01  0.51100000000E-03 0. -1.
        -11    1    3    3    0    0 -0.13484170302E+02  0.10283023525E+02 -0.10760005523E+02  0.20083354816E+02  0.51100000000E-03 0.  1.
         12    1    3    3    0    0  0.53139014134E+01  0.51955679757E+01 -0.23417905411E+02  0.24568878050E+02  0.00000000000E+00 0. -1.
</event>
<event>
 7    1  0.3014423E-011  0.5052887E+02  0.7816164E-02  0.1300439E+00
        -11   -1    0    0    0    0  0.00000000000E+00  0.00000000000E+00  0.45593999997E+02  0.45594000000E+02  0.51100000000E-03 0. -1.
         11   -1    0    0    0    0 -0.00000000000E+00 -0.00000000000E+00 -0.45593999997E+02  0.45594000000E+02  0.51100000000E-03 0.  1.
    9900012    2    1    2    0    0 -0.38468276183E+02 -0.13024912395E+02 -0.19257535667E+01  0.50528866436E+02  0.30000020018E+02 0.  0.
        -12    1    1    2    0    0  0.38468276183E+02  0.13024912395E+02  0.19257535667E+01  0.40659133564E+02  0.00000000000E+00 0.  1.
         11    1    3    3    0    0 -0.87043256525E+01  0.16046216164E+01 -0.28853824498E+01  0.93094321921E+01  0.51100000000E-03 0. -1.
        -11    1    3    3    0    0 -0.27671261786E+02 -0.41372420473E+01 -0.57868441390E+01  0.28571017937E+02  0.51100000000E-03 0.  1.
        -12    1    3    3    0    0 -0.20926887446E+01 -0.10492291964E+02  0.67464730221E+01  0.12648416307E+02  0.00000000000E+00 0.  1.
</event>
<event>
 7    1  0.3014423E-011  0.5052885E+02  0.7816164E-02  0.1300439E+00
        -11   -1    0    0    0    0  0.00000000000E+00  0.00000000000E+00  0.45593999997E+02  0.45594000000E+02  0.51100000000E-03 0.  1.
         11   -1    0    0    0    0 -0.00000000000E+00 -0.00000000000E+00 -0.45593999997E+02  0.45594000000E+02  0.51100000000E-03 0. -1.
    9900012    2    1    2    0    0 -0.25212464832E+02  0.19106183385E+02 -0.25543132497E+02  0.50528852884E+02  0.29999978827E+02 0.  0.
        -12    1    1    2    0    0  0.25212464832E+02 -0.19106183385E+02  0.25543132497E+02  0.40659147116E+02  0.00000000000E+00 0.  1.
         11    1    3    3    0    0 -0.80216479055E+01 -0.49834912193E+01 -0.16364426059E+02  0.18893820692E+02  0.51100000000E-03 0. -1.
        -11    1    3    3    0    0 -0.15874761365E+01  0.74300442357E+00  0.67110806775E+00  0.18768383940E+01  0.51100000000E-03 0.  1.
         12    1    3    3    0    0 -0.15603340790E+02  0.23346670180E+02 -0.98498145061E+01  0.29758193798E+02  0.00000000000E+00 0. -1.
</event>
<event>
 7    1  0.3014423E-011  0.5052887E+02  0.7816164E-02  0.1300439E+00
        -11   -1    0    0    0    0  0.00000000000E+00  0.00000000000E+00  0.45593999997E+02  0.45594000000E+02  0.51100000000E-03 0. -1.
         11   -1    0    0    0    0 -0.00000000000E+00 -0.00000000000E+00 -0.45593999997E+02  0.45594000000E+02  0.51100000000E-03 0.  1.
    9900012    2    1    2    0    0 -0.36445359457E+02  0.94540484942E+01  0.15346722948E+02  0.50528866166E+02  0.30000019197E+02 0.  0.
        -12    1    1    2    0    0  0.36445359457E+02 -0.94540484942E+01 -0.15346722948E+02  0.40659133834E+02  0.00000000000E+00 0.  1.
         11    1    3    3    0    0 -0.24137255019E+02 -0.70638042933E+01  0.35867351726E+01  0.25404115423E+02  0.51100000000E-03 0. -1.
        -11    1    3    3    0    0 -0.21115880312E+01  0.17113949114E+00  0.36520988253E+01  0.42220751805E+01  0.51100000000E-03 0.  1.
         12    1    3    3    0    0 -0.10196516407E+02  0.16346713296E+02  0.81078889505E+01  0.20902675562E+02  0.00000000000E+00 0. -1.
</event>
<event>
 7    1  0.3014423E-011  0.5052885E+02  0.7816164E-02  0.1300439E+00
        -11   -1    0    0    0    0  0.00000000000E+00  0.00000000000E+00  0.45593999997E+02  0.45594000000E+02  0.51100000000E-03 0. -1.
         11   -1    0    0    0    0 -0.00000000000E+00 -0.00000000000E+00 -0.45593999997E+02  0.45594000000E+02  0.51100000000E-03 0.  1.
    9900012    2    1    2    0    0  0.63835163957E+01  0.25508767189E+01  0.40073811367E+02  0.50528848372E+02  0.29999965112E+02 0.  0.
        -12    1    1    2    0    0 -0.63835163957E+01 -0.25508767189E+01 -0.40073811367E+02  0.40659151628E+02  0.00000000000E+00 0.  1.
         11    1    3    3    0    0  0.29899500941E+01 -0.37321510384E+00  0.44395928179E+01  0.53655452406E+01  0.51100000000E-03 0. -1.
        -11    1    3    3    0    0  0.66418861088E+01 -0.11092615214E+02  0.12938739993E+02  0.18291302748E+02  0.51100000000E-03 0.  1.
         12    1    3    3    0    0 -0.32483198072E+01  0.14016707036E+02  0.22695478556E+02  0.26872000384E+02  0.00000000000E+00 0. -1.
</event>
<event>
 7    1  0.3014423E-011  0.5052886E+02  0.7816164E-02  0.1300439E+00
        -11   -1    0    0    0    0  0.00000000000E+00  0.00000000000E+00  0.45593999997E+02  0.45594000000E+02  0.51100000000E-03 0.  1.
         11   -1    0    0    0    0 -0.00000000000E+00 -0.00000000000E+00 -0.45593999997E+02  0.45594000000E+02  0.51100000000E-03 0. -1.
    9900012    2    1    2    0    0  0.28171362441E+02  0.17947093685E+02 -0.23182786921E+02  0.50528862737E+02  0.30000008776E+02 0.  0.
        -12    1    1    2    0    0 -0.28171362441E+02 -0.17947093685E+02  0.23182786921E+02  0.40659137263E+02  0.00000000000E+00 0.  1.
         11    1    3    3    0    0  0.16166651877E+02  0.10887026202E+02 -0.13689559484E+02  0.23817892677E+02  0.51100000000E-03 0. -1.
        -11    1    3    3    0    0  0.13895562763E+02  0.10979482084E+01  0.15445409006E+01  0.14024184882E+02  0.51100000000E-03 0.  1.
        -12    1    3    3    0    0 -0.18908521987E+01  0.59621192740E+01 -0.11037768338E+02  0.12686785178E+02  0.00000000000E+00 0.  1.
</event>
<event>
 7    1  0.3014423E-011  0.5052887E+02  0.7816164E-02  0.1300439E+00
        -11   -1    0    0    0    0  0.00000000000E+00  0.00000000000E+00  0.45593999997E+02  0.45594000000E+02  0.51100000000E-03 0.  1.
         11   -1    0    0    0    0 -0.00000000000E+00 -0.00000000000E+00 -0.45593999997E+02  0.45594000000E+02  0.51100000000E-03 0. -1.
    9900012    2    1    2    0    0 -0.15869816296E+02  0.37220542269E+02 -0.39931637527E+01  0.50528865813E+02  0.30000018126E+02 0.  0.
        -12    1    1    2    0    0  0.15869816296E+02 -0.37220542269E+02  0.39931637527E+01  0.40659134187E+02  0.00000000000E+00 0.  1.
         11    1    3    3    0    0 -0.59456471647E+00  0.10616812933E+01 -0.22431914617E+01  0.25519762078E+01  0.51100000000E-03 0. -1.
        -11    1    3    3    0    0 -0.13480043023E+02  0.47607426778E+01  0.61307395798E+01  0.15555134163E+02  0.51100000000E-03 0.  1.
        -12    1    3    3    0    0 -0.17952085565E+01  0.31398118298E+02 -0.78807118708E+01  0.32421755443E+02  0.00000000000E+00 0.  1.
</event>
<event>
 7    1  0.3014423E-011  0.5052888E+02  0.7816164E-02  0.1300439E+00
        -11   -1    0    0    0    0  0.00000000000E+00  0.00000000000E+00  0.45593999997E+02  0.45594000000E+02  0.51100000000E-03 0.  1.
         11   -1    0    0    0    0 -0.00000000000E+00 -0.00000000000E+00 -0.45593999997E+02  0.45594000000E+02  0.51100000000E-03 0. -1.
    9900012    2    1    2    0    0 -0.22987222625E+02  0.21186909392E+02 -0.25997439645E+02  0.50528875542E+02  0.30000047697E+02 0.  0.
        -12    1    1    2    0    0  0.22987222625E+02 -0.21186909392E+02  0.25997439645E+02  0.40659124458E+02  0.00000000000E+00 0.  1.
         11    1    3    3    0    0 -0.36007642854E+01  0.66916456780E+01 -0.27621283973E+01  0.80853558278E+01  0.51100000000E-03 0. -1.
        -11    1    3    3    0    0  0.20145592419E+01  0.13953056552E+02 -0.97893214398E+01  0.17163247088E+02  0.51100000000E-03 0.  1.
        -12    1    3    3    0    0 -0.21401017581E+02  0.54220716190E+00 -0.13445989808E+02  0.25280272626E+02  0.00000000000E+00 0.  1.
</event>
<event>
 7    1  0.3014423E-011  0.5052886E+02  0.7816164E-02  0.1300439E+00
        -11   -1    0    0    0    0  0.00000000000E+00  0.00000000000E+00  0.45593999997E+02  0.45594000000E+02  0.51100000000E-03 0.  1.
         11   -1    0    0    0    0 -0.00000000000E+00 -0.00000000000E+00 -0.45593999997E+02  0.45594000000E+02  0.51100000000E-03 0. -1.
    9900012    2    1    2    0    0  0.22178544104E+02 -0.21648646496E+02 -0.26317555702E+02  0.50528862628E+02  0.30000008444E+02 0.  0.
        -12    1    1    2    0    0 -0.22178544104E+02  0.21648646496E+02  0.26317555702E+02  0.40659137372E+02  0.00000000000E+00 0.  1.
         11    1    3    3    0    0 -0.31454225039E+01 -0.46265131020E+00 -0.54998181613E+01  0.63526159203E+01  0.51100000000E-03 0. -1.
        -11    1    3    3    0    0  0.75013485027E+01  0.33140505224E+01 -0.73818706605E+01  0.11033819599E+02  0.51100000000E-03 0.  1.
         12    1    3    3    0    0  0.17822618106E+02 -0.24500045708E+02 -0.13435866881E+02  0.33142427109E+02  0.00000000000E+00 0. -1.
</event>
<event>
 7    1  0.3014423E-011  0.5052886E+02  0.7816164E-02  0.1300439E+00
        -11   -1    0    0    0    0  0.00000000000E+00  0.00000000000E+00  0.45593999997E+02  0.45594000000E+02  0.51100000000E-03 0. -1.
         11   -1    0    0    0    0 -0.00000000000E+00 -0.00000000000E+00 -0.45593999997E+02  0.45594000000E+02  0.51100000000E-03 0.  1.
    9900012    2    1    2    0    0 -0.15367577027E+02  0.95059209917E+00  0.37631102443E+02  0.50528856870E+02  0.29999990941E+02 0.  0.
        -12    1    1    2    0    0  0.15367577027E+02 -0.95059209917E+00 -0.37631102443E+02  0.40659143130E+02  0.00000000000E+00 0.  1.
         11    1    3    3    0    0  0.72102766761E+00  0.29274171535E+01  0.33142798904E+01  0.44804133226E+01  0.51100000000E-03 0. -1.
        -11    1    3    3    0    0  0.64546089399E+01 -0.39875994805E+01  0.53284764621E+01  0.92712236437E+01  0.51100000000E-03 0.  1.
         12    1    3    3    0    0 -0.22543213635E+02  0.20107744262E+01  0.28988346090E+02  0.36777219903E+02  0.00000000000E+00 0. -1.
</event>
<event>
 7    1  0.3014423E-011  0.5052887E+02  0.7816164E-02  0.1300439E+00
        -11   -1    0    0    0    0  0.00000000000E+00  0.00000000000E+00  0.45593999997E+02  0.45594000000E+02  0.51100000000E-03 0. -1.
         11   -1    0    0    0    0 -0.00000000000E+00 -0.00000000000E+00 -0.45593999997E+02  0.45594000000E+02  0.51100000000E-03 0.  1.
    9900012    2    1    2    0    0 -0.28230054324E+02  0.25681534921E+02 -0.14024529264E+02  0.50528872807E+02  0.30000039384E+02 0.  0.
        -12    1    1    2    0    0  0.28230054324E+02 -0.25681534921E+02  0.14024529264E+02  0.40659127193E+02  0.00000000000E+00 0.  1.
         11    1    3    3    0    0  0.12719714856E+01  0.63854808347E+01  0.13982010841E+01  0.66593726043E+01  0.51100000000E-03 0. -1.
        -11    1    3    3    0    0  0.19488724302E+01  0.53300812049E+01  0.96112839470E+00  0.57560088128E+01  0.51100000000E-03 0.  1.
         12    1    3    3    0    0 -0.31450898240E+02  0.13965972881E+02 -0.16383858743E+02  0.38113491390E+02  0.00000000000E+00 0. -1.
</event>
<event>
 7    1  0.3014423E-011  0.5052886E+02  0.7816164E-02  0.1300439E+00
        -11   -1    0    0    0    0  0.00000000000E+00  0.00000000000E+00  0.45593999997E+02  0.45594000000E+02  0.51100000000E-03 0.  1.
         11   -1    0    0    0    0 -0.00000000000E+00 -0.00000000000E+00 -0.45593999997E+02  0.45594000000E+02  0.51100000000E-03 0. -1.
    9900012    2    1    2    0    0  0.12142633505E+02  0.45225833068E+00 -0.38801001106E+02  0.50528858680E+02  0.29999996443E+02 0.  0.
        -12    1    1    2    0    0 -0.12142633505E+02 -0.45225833068E+00  0.38801001106E+02  0.40659141320E+02  0.00000000000E+00 0.  1.
         11    1    3    3    0    0 -0.33522318797E+01  0.29897138669E+01 -0.96185772576E+01  0.10615690100E+02  0.51100000000E-03 0. -1.
        -11    1    3    3    0    0  0.33576758818E+01  0.84360367295E+01 -0.17797067364E+02  0.19979397139E+02  0.51100000000E-03 0.  1.
        -12    1    3    3    0    0  0.12137189503E+02 -0.10973492266E+02 -0.11385356485E+02  0.19933771441E+02  0.00000000000E+00 0.  1.
</event>
<event>
 7    1  0.3014423E-011  0.5052886E+02  0.7816164E-02  0.1300439E+00
        -11   -1    0    0    0    0  0.00000000000E+00  0.00000000000E+00  0.45593999997E+02  0.45594000000E+02  0.51100000000E-03 0.  1.
         11   -1    0    0    0    0 -0.00000000000E+00 -0.00000000000E+00 -0.45593999997E+02  0.45594000000E+02  0.51100000000E-03 0. -1.
    9900012    2    1    2    0    0 -0.20344396307E+02 -0.10784421630E+02 -0.33510709286E+02  0.50528857758E+02  0.29999993641E+02 0.  0.
        -12    1    1    2    0    0  0.20344396307E+02  0.10784421630E+02  0.33510709286E+02  0.40659142242E+02  0.00000000000E+00 0.  1.
         11    1    3    3    0    0  0.31120640836E+01 -0.37904292989E+01 -0.75081959277E+01  0.89680155821E+01  0.51100000000E-03 0. -1.
        -11    1    3    3    0    0  0.16563197235E+01  0.32614872405E+01 -0.85650956771E+01  0.93135148181E+01  0.51100000000E-03 0.  1.
        -12    1    3    3    0    0 -0.25112780114E+02 -0.10255479572E+02 -0.17437417681E+02  0.32247327358E+02  0.00000000000E+00 0.  1.
</event>
<event>
 7    1  0.3014423E-011  0.5052886E+02  0.7816164E-02  0.1300439E+00
        -11   -1    0    0    0    0  0.00000000000E+00  0.00000000000E+00  0.45593999997E+02  0.45594000000E+02  0.51100000000E-03 0.  1.
         11   -1    0    0    0    0 -0.00000000000E+00 -0.00000000000E+00 -0.45593999997E+02  0.45594000000E+02  0.51100000000E-03 0. -1.
    9900012    2    1    2    0    0 -0.23491461859E+02 -0.85156209474E+01 -0.32074931105E+02  0.50528858522E+02  0.29999995962E+02 0.  0.
        -12    1    1    2    0    0  0.23491461859E+02  0.85156209474E+01  0.32074931105E+02  0.40659141478E+02  0.00000000000E+00 0.  1.
         11    1    3    3    0    0 -0.43678480316E+00 -0.33042784758E+01 -0.68740146449E+01  0.76394446663E+01  0.51100000000E-03 0. -1.
        -11    1    3    3    0    0 -0.37375491680E+01 -0.56452927120E+01 -0.22356476258E+02  0.23359165964E+02  0.51100000000E-03 0.  1.
        -12    1    3    3    0    0 -0.19317127887E+02  0.43395024042E+00 -0.28444402018E+01  0.19530247891E+02  0.00000000000E+00 0.  1.
</event>
<event>
 7    1  0.3014423E-011  0.5052885E+02  0.7816164E-02  0.1300439E+00
        -11   -1    0    0    0    0  0.00000000000E+00  0.00000000000E+00  0.45593999997E+02  0.45594000000E+02  0.51100000000E-03 0.  1.
         11   -1    0    0    0    0 -0.00000000000E+00 -0.00000000000E+00 -0.45593999997E+02  0.45594000000E+02  0.51100000000E-03 0. -1.
    9900012    2    1    2    0    0 -0.15179561247E+02 -0.37695103038E+02  0.13514105303E+01  0.50528853635E+02  0.29999981110E+02 0.  0.
        -12    1    1    2    0    0  0.15179561247E+02  0.37695103038E+02 -0.13514105303E+01  0.40659146365E+02  0.00000000000E+00 0.  1.
         11    1    3    3    0    0  0.28057123465E+01 -0.56844521185E+00  0.43811184396E+00  0.28960479932E+01  0.51100000000E-03 0.  1.
        -11    1    3    3    0    0  0.38473021870E+01 -0.17787607226E+02 -0.20619803745E+01  0.18315361538E+02  0.51100000000E-03 0. -1.
         12    1    3    3    0    0 -0.21832575780E+02 -0.19339050600E+02  0.29752790609E+01  0.29317444104E+02  0.00000000000E+00 0. -1.
</event>
<event>
 7    1  0.3014423E-011  0.5052886E+02  0.7816164E-02  0.1300439E+00
        -11   -1    0    0    0    0  0.00000000000E+00  0.00000000000E+00  0.45593999997E+02  0.45594000000E+02  0.51100000000E-03 0.  1.
         11   -1    0    0    0    0 -0.00000000000E+00 -0.00000000000E+00 -0.45593999997E+02  0.45594000000E+02  0.51100000000E-03 0. -1.
    9900012    2    1    2    0    0 -0.26037497752E+02  0.22085613065E+02 -0.22078042170E+02  0.50528861547E+02  0.30000005159E+02 0.  0.
        -12    1    1    2    0    0  0.26037497752E+02 -0.22085613065E+02  0.22078042170E+02  0.40659138453E+02  0.00000000000E+00 0.  1.
         11    1    3    3    0    0  0.24205085992E+01  0.64915615638E+01 -0.15306687043E+01  0.70952223615E+01  0.51100000000E-03 0. -1.
        -11    1    3    3    0    0  0.18425980936E+01  0.84967982296E+00  0.20312874858E+01  0.28711065197E+01  0.51100000000E-03 0.  1.
         12    1    3    3    0    0 -0.30300604445E+02  0.14744371678E+02 -0.22578660952E+02  0.40562532666E+02  0.00000000000E+00 0. -1.
</event>
<event>
 7    1  0.3014423E-011  0.5052886E+02  0.7816164E-02  0.1300439E+00
        -11   -1    0    0    0    0  0.00000000000E+00  0.00000000000E+00  0.45593999997E+02  0.45594000000E+02  0.51100000000E-03 0.  1.
         11   -1    0    0    0    0 -0.00000000000E+00 -0.00000000000E+00 -0.45593999997E+02  0.45594000000E+02  0.51100000000E-03 0. -1.
    9900012    2    1    2    0    0 -0.32206981315E+02 -0.45721527116E+01 -0.24392040290E+02  0.50528857666E+02  0.29999993361E+02 0.  0.
        -12    1    1    2    0    0  0.32206981315E+02  0.45721527116E+01  0.24392040290E+02  0.40659142334E+02  0.00000000000E+00 0.  1.
         11    1    3    3    0    0 -0.12766002226E+02 -0.50454083968E+01 -0.21233435886E+01  0.13890124081E+02  0.51100000000E-03 0. -1.
        -11    1    3    3    0    0 -0.64299887046E+01  0.18489732103E+01  0.36380319874E+01  0.76156899671E+01  0.51100000000E-03 0.  1.
        -12    1    3    3    0    0 -0.13010990384E+02 -0.13757175251E+01 -0.25906728689E+02  0.29023043618E+02  0.00000000000E+00 0.  1.
</event>
<event>
 7    1  0.3014423E-011  0.5052892E+02  0.7816164E-02  0.1300439E+00
        -11   -1    0    0    0    0  0.00000000000E+00  0.00000000000E+00  0.45593999997E+02  0.45594000000E+02  0.51100000000E-03 0. -1.
         11   -1    0    0    0    0 -0.00000000000E+00 -0.00000000000E+00 -0.45593999997E+02  0.45594000000E+02  0.51100000000E-03 0.  1.
    9900012    2    1    2    0    0 -0.22419377207E+02  0.32668841502E+02  0.91257495225E+01  0.50528917573E+02  0.30000175456E+02 0.  0.
        -12    1    1    2    0    0  0.22419377207E+02 -0.32668841502E+02 -0.91257495225E+01  0.40659082427E+02  0.00000000000E+00 0.  1.
         11    1    3    3    0    0 -0.17747776167E+02  0.19655610606E+02  0.12922427945E+02  0.29467197550E+02  0.51100000000E-03 0. -1.
        -11    1    3    3    0    0 -0.37346341168E+01  0.12852629279E+02  0.33945030654E+01  0.13807976777E+02  0.51100000000E-03 0.  1.
        -12    1    3    3    0    0 -0.93696692247E+00  0.16060161692E+00 -0.71911814876E+01  0.72537432462E+01  0.00000000000E+00 0.  1.
</event>
<event>
 7    1  0.3014423E-011  0.5052886E+02  0.7816164E-02  0.1300439E+00
        -11   -1    0    0    0    0  0.00000000000E+00  0.00000000000E+00  0.45593999997E+02  0.45594000000E+02  0.51100000000E-03 0.  1.
         11   -1    0    0    0    0 -0.00000000000E+00 -0.00000000000E+00 -0.45593999997E+02  0.45594000000E+02  0.51100000000E-03 0. -1.
    9900012    2    1    2    0    0  0.13135082206E+02  0.12332348977E+02 -0.36449262049E+02  0.50528856874E+02  0.29999990954E+02 0.  0.
        -12    1    1    2    0    0 -0.13135082206E+02 -0.12332348977E+02  0.36449262049E+02  0.40659143126E+02  0.00000000000E+00 0.  1.
         11    1    3    3    0    0  0.79828773505E+01  0.13601428163E+02 -0.13692035130E+02  0.20885329902E+02  0.51100000000E-03 0. -1.
        -11    1    3    3    0    0 -0.60512029449E+01  0.25238935553E+01 -0.11906372971E+02  0.13592233567E+02  0.51100000000E-03 0.  1.
        -12    1    3    3    0    0  0.11203407800E+02 -0.37929727413E+01 -0.10850853949E+02  0.16051293405E+02  0.00000000000E+00 0.  1.
</event>
<event>
 7    1  0.3014423E-011  0.5052885E+02  0.7816164E-02  0.1300439E+00
        -11   -1    0    0    0    0  0.00000000000E+00  0.00000000000E+00  0.45593999997E+02  0.45594000000E+02  0.51100000000E-03 0. -1.
         11   -1    0    0    0    0 -0.00000000000E+00 -0.00000000000E+00 -0.45593999997E+02  0.45594000000E+02  0.51100000000E-03 0.  1.
    9900012    2    1    2    0    0 -0.37421159914E+02  0.12047242273E+02  0.10377244389E+02  0.50528850270E+02  0.29999970881E+02 0.  0.
        -12    1    1    2    0    0  0.37421159914E+02 -0.12047242273E+02 -0.10377244389E+02  0.40659149730E+02  0.00000000000E+00 0.  1.
         11    1    3    3    0    0 -0.89911151645E+01  0.52537537231E+01  0.10429017656E+02  0.14737926910E+02  0.51100000000E-03 0. -1.
        -11    1    3    3    0    0 -0.21876604431E+02  0.13695552510E+02  0.25178306421E+01  0.25932478697E+02  0.51100000000E-03 0.  1.
         12    1    3    3    0    0 -0.65534403183E+01 -0.69020639599E+01 -0.25696039096E+01  0.98584446626E+01  0.00000000000E+00 0. -1.
</event>
<event>
 7    1  0.3014423E-011  0.5052885E+02  0.7816164E-02  0.1300439E+00
        -11   -1    0    0    0    0  0.00000000000E+00  0.00000000000E+00  0.45593999997E+02  0.45594000000E+02  0.51100000000E-03 0.  1.
         11   -1    0    0    0    0 -0.00000000000E+00 -0.00000000000E+00 -0.45593999997E+02  0.45594000000E+02  0.51100000000E-03 0. -1.
    9900012    2    1    2    0    0 -0.30411203503E+02  0.32835437617E+01 -0.26787001503E+02  0.50528850874E+02  0.29999972715E+02 0.  0.
        -12    1    1    2    0    0  0.30411203503E+02 -0.32835437617E+01  0.26787001503E+02  0.40659149126E+02  0.00000000000E+00 0.  1.
         11    1    3    3    0    0 -0.73064243015E+01 -0.50884861520E+01 -0.74537887831E+00  0.89348820544E+01  0.51100000000E-03 0. -1.
        -11    1    3    3    0    0 -0.15319097300E+02 -0.33899069481E+01 -0.21810864192E+02  0.26867824778E+02  0.51100000000E-03 0.  1.
        -12    1    3    3    0    0 -0.77856819018E+01  0.11761936862E+02 -0.42307584326E+01  0.14726144042E+02  0.00000000000E+00 0.  1.
</event>
<event>
 7    1  0.3014423E-011  0.5052886E+02  0.7816164E-02  0.1300439E+00
        -11   -1    0    0    0    0  0.00000000000E+00  0.00000000000E+00  0.45593999997E+02  0.45594000000E+02  0.51100000000E-03 0. -1.
         11   -1    0    0    0    0 -0.00000000000E+00 -0.00000000000E+00 -0.45593999997E+02  0.45594000000E+02  0.51100000000E-03 0.  1.
    9900012    2    1    2    0    0 -0.89607895908E+01  0.37494230913E+02  0.12924874018E+02  0.50528862401E+02  0.30000007755E+02 0.  0.
        -12    1    1    2    0    0  0.89607895908E+01 -0.37494230913E+02 -0.12924874018E+02  0.40659137599E+02  0.00000000000E+00 0.  1.
         11    1    3    3    0    0 -0.87151882902E+01  0.18284674911E+02  0.18785809917E+02  0.27625902665E+02  0.51100000000E-03 0. -1.
        -11    1    3    3    0    0 -0.17654875312E+01  0.25812722610E+01 -0.53506910719E+01  0.61975646762E+01  0.51100000000E-03 0.  1.
        -12    1    3    3    0    0  0.15198862307E+01  0.16628283741E+02 -0.51024482716E+00  0.16705395060E+02  0.00000000000E+00 0.  1.
</event>
<event>
 7    1  0.3014423E-011  0.5052887E+02  0.7816164E-02  0.1300439E+00
        -11   -1    0    0    0    0  0.00000000000E+00  0.00000000000E+00  0.45593999997E+02  0.45594000000E+02  0.51100000000E-03 0. -1.
         11   -1    0    0    0    0 -0.00000000000E+00 -0.00000000000E+00 -0.45593999997E+02  0.45594000000E+02  0.51100000000E-03 0.  1.
    9900012    2    1    2    0    0  0.76816027870E+00 -0.38551840562E+02  0.12896928015E+02  0.50528865317E+02  0.30000016619E+02 0.  0.
        -12    1    1    2    0    0 -0.76816027870E+00  0.38551840562E+02 -0.12896928015E+02  0.40659134683E+02  0.00000000000E+00 0.  1.
         11    1    3    3    0    0  0.96622131315E+01 -0.28415073560E+02  0.49667668860E+01  0.30421103556E+02  0.51100000000E-03 0.  1.
        -11    1    3    3    0    0  0.80746640373E+00 -0.46549197715E+01 -0.20487472353E+01  0.51495286743E+01  0.51100000000E-03 0. -1.
         12    1    3    3    0    0 -0.97015192565E+01 -0.54818472304E+01  0.99789083645E+01  0.14958233087E+02  0.00000000000E+00 0. -1.
</event>
<event>
 7    1  0.3014423E-011  0.5052886E+02  0.7816164E-02  0.1300439E+00
        -11   -1    0    0    0    0  0.00000000000E+00  0.00000000000E+00  0.45593999997E+02  0.45594000000E+02  0.51100000000E-03 0.  1.
         11   -1    0    0    0    0 -0.00000000000E+00 -0.00000000000E+00 -0.45593999997E+02  0.45594000000E+02  0.51100000000E-03 0. -1.
    9900012    2    1    2    0    0  0.26311937271E+02 -0.19601067647E+02 -0.24013450099E+02  0.50528859804E+02  0.29999999859E+02 0.  0.
        -12    1    1    2    0    0 -0.26311937271E+02  0.19601067647E+02  0.24013450099E+02  0.40659140196E+02  0.00000000000E+00 0.  1.
         11    1    3    3    0    0  0.10505652413E+02 -0.94001114426E+01 -0.45857900133E+01  0.14824314422E+02  0.51100000000E-03 0. -1.
        -11    1    3    3    0    0  0.59326201136E+01 -0.16799488041E+02 -0.13943093012E+02  0.22623629746E+02  0.51100000000E-03 0.  1.
         12    1    3    3    0    0  0.98736647444E+01  0.65985318375E+01 -0.54845670740E+01  0.13080915636E+02  0.00000000000E+00 0. -1.
</event>
<event>
 7    1  0.3014423E-011  0.5052888E+02  0.7816164E-02  0.1300439E+00
        -11   -1    0    0    0    0  0.00000000000E+00  0.00000000000E+00  0.45593999997E+02  0.45594000000E+02  0.51100000000E-03 0.  1.
         11   -1    0    0    0    0 -0.00000000000E+00 -0.00000000000E+00 -0.45593999997E+02  0.45594000000E+02  0.51100000000E-03 0. -1.
    9900012    2    1    2    0    0  0.31867106240E+00  0.35933623011E+02 -0.19022017077E+02  0.50528881126E+02  0.30000064672E+02 0.  0.
        -12    1    1    2    0    0 -0.31867106240E+00 -0.35933623011E+02  0.19022017077E+02  0.40659118874E+02  0.00000000000E+00 0.  1.
         11    1    3    3    0    0 -0.14509806055E+01  0.15065114108E+02 -0.14620964906E+02  0.21043659921E+02  0.51100000000E-03 0. -1.
        -11    1    3    3    0    0 -0.81725453472E+01  0.10179625544E+02 -0.67553908070E+01  0.14698659084E+02  0.51100000000E-03 0.  1.
        -12    1    3    3    0    0  0.99421970151E+01  0.10688883359E+02  0.23543386367E+01  0.14786562121E+02  0.00000000000E+00 0.  1.
</event>
<event>
 7    1  0.3014423E-011  0.5052886E+02  0.7816164E-02  0.1300439E+00
        -11   -1    0    0    0    0  0.00000000000E+00  0.00000000000E+00  0.45593999997E+02  0.45594000000E+02  0.51100000000E-03 0. -1.
         11   -1    0    0    0    0 -0.00000000000E+00 -0.00000000000E+00 -0.45593999997E+02  0.45594000000E+02  0.51100000000E-03 0.  1.
    9900012    2    1    2    0    0  0.21154406606E+02 -0.33967591326E+02  0.72013739914E+01  0.50528856296E+02  0.29999989199E+02 0.  0.
        -12    1    1    2    0    0 -0.21154406606E+02  0.33967591326E+02 -0.72013739914E+01  0.40659143704E+02  0.00000000000E+00 0.  1.
         11    1    3    3    0    0  0.83042871262E+01 -0.16724957134E+02  0.13871863323E+02  0.23261856507E+02  0.51100000000E-03 0. -1.
        -11    1    3    3    0    0  0.97687286798E+01 -0.99914872431E+01  0.34967893611E+01  0.14404353975E+02  0.51100000000E-03 0.  1.
        -12    1    3    3    0    0  0.30813907996E+01 -0.72511469487E+01 -0.10167278693E+02  0.12862645814E+02  0.00000000000E+00 0.  1.
</event>
<event>
 7    1  0.3014423E-011  0.5052886E+02  0.7816164E-02  0.1300439E+00
        -11   -1    0    0    0    0  0.00000000000E+00  0.00000000000E+00  0.45593999997E+02  0.45594000000E+02  0.51100000000E-03 0.  1.
         11   -1    0    0    0    0 -0.00000000000E+00 -0.00000000000E+00 -0.45593999997E+02  0.45594000000E+02  0.51100000000E-03 0. -1.
    9900012    2    1    2    0    0 -0.38396579701E+02  0.13215764119E+02  0.20523452367E+01  0.50528857425E+02  0.29999992629E+02 0.  0.
        -12    1    1    2    0    0  0.38396579701E+02 -0.13215764119E+02 -0.20523452367E+01  0.40659142575E+02  0.00000000000E+00 0.  1.
         11    1    3    3    0    0 -0.43562407228E+01 -0.23081216104E+01 -0.11403456541E+01  0.50601034649E+01  0.51100000000E-03 0. -1.
        -11    1    3    3    0    0  0.33916779184E+01  0.22687024861E+00  0.37054614264E+01  0.50284583975E+01  0.51100000000E-03 0.  1.
         12    1    3    3    0    0 -0.37432016897E+02  0.15297015481E+02 -0.51277053557E+00  0.40440295562E+02  0.00000000000E+00 0. -1.
</event>
<event>
 7    1  0.3014423E-011  0.5052887E+02  0.7816164E-02  0.1300439E+00
        -11   -1    0    0    0    0  0.00000000000E+00  0.00000000000E+00  0.45593999997E+02  0.45594000000E+02  0.51100000000E-03 0.  1.
         11   -1    0    0    0    0 -0.00000000000E+00 -0.00000000000E+00 -0.45593999997E+02  0.45594000000E+02  0.51100000000E-03 0. -1.
    9900012    2    1    2    0    0 -0.22346367685E+02  0.16314444735E+02 -0.29793353877E+02  0.50528865836E+02  0.30000018196E+02 0.  0.
        -12    1    1    2    0    0  0.22346367685E+02 -0.16314444735E+02  0.29793353877E+02  0.40659134164E+02  0.00000000000E+00 0.  1.
         11    1    3    3    0    0 -0.23726386974E+02  0.95172413615E+01 -0.21888708895E+02  0.33654641572E+02  0.51100000000E-03 0. -1.
        -11    1    3    3    0    0 -0.37375281953E+01 -0.11688020833E+00 -0.73595004641E+01  0.82550000204E+01  0.51100000000E-03 0.  1.
        -12    1    3    3    0    0  0.51175474841E+01  0.69140835815E+01 -0.54514451726E+00  0.86192242440E+01  0.00000000000E+00 0.  1.
</event>
<event>
 7    1  0.3014423E-011  0.5052886E+02  0.7816164E-02  0.1300439E+00
        -11   -1    0    0    0    0  0.00000000000E+00  0.00000000000E+00  0.45593999997E+02  0.45594000000E+02  0.51100000000E-03 0.  1.
         11   -1    0    0    0    0 -0.00000000000E+00 -0.00000000000E+00 -0.45593999997E+02  0.45594000000E+02  0.51100000000E-03 0. -1.
    9900012    2    1    2    0    0  0.28539808236E+02  0.29503896906E+01 -0.28808686735E+02  0.50528857302E+02  0.29999992257E+02 0.  0.
        -12    1    1    2    0    0 -0.28539808236E+02 -0.29503896906E+01  0.28808686735E+02  0.40659142698E+02  0.00000000000E+00 0.  1.
         11    1    3    3    0    0  0.51354718040E+01  0.83692419458E+01 -0.16932364919E+02  0.19573509226E+02  0.51100000000E-03 0. -1.
        -11    1    3    3    0    0  0.18787056944E+01 -0.15578051957E+01 -0.84797700792E+01  0.88239896289E+01  0.51100000000E-03 0.  1.
        -12    1    3    3    0    0  0.21525630738E+02 -0.38610470595E+01 -0.33965517373E+01  0.22131358448E+02  0.00000000000E+00 0.  1.
</event>
<event>
 7    1  0.3014423E-011  0.5052886E+02  0.7816164E-02  0.1300439E+00
        -11   -1    0    0    0    0  0.00000000000E+00  0.00000000000E+00  0.45593999997E+02  0.45594000000E+02  0.51100000000E-03 0.  1.
         11   -1    0    0    0    0 -0.00000000000E+00 -0.00000000000E+00 -0.45593999997E+02  0.45594000000E+02  0.51100000000E-03 0. -1.
    9900012    2    1    2    0    0 -0.31122151156E+02 -0.25606076093E+02 -0.53764697030E+01  0.50528857708E+02  0.29999993489E+02 0.  0.
        -12    1    1    2    0    0  0.31122151156E+02  0.25606076093E+02  0.53764697030E+01  0.40659142292E+02  0.00000000000E+00 0.  1.
         11    1    3    3    0    0 -0.21873425973E+01 -0.41825223556E+00 -0.28548751002E+01  0.36207339959E+01  0.51100000000E-03 0. -1.
        -11    1    3    3    0    0 -0.83726700136E+01 -0.19354827331E+02 -0.11155111208E+02  0.23856811407E+02  0.51100000000E-03 0.  1.
        -12    1    3    3    0    0 -0.20562138545E+02 -0.58329965263E+01  0.86335166051E+01  0.23051312305E+02  0.00000000000E+00 0.  1.
</event>
<event>
 7    1  0.3014423E-011  0.5052886E+02  0.7816164E-02  0.1300439E+00
        -11   -1    0    0    0    0  0.00000000000E+00  0.00000000000E+00  0.45593999997E+02  0.45594000000E+02  0.51100000000E-03 0.  1.
         11   -1    0    0    0    0 -0.00000000000E+00 -0.00000000000E+00 -0.45593999997E+02  0.45594000000E+02  0.51100000000E-03 0. -1.
    9900012    2    1    2    0    0  0.29538999633E+02  0.38693929846E+01 -0.27670220012E+02  0.50528858630E+02  0.29999996293E+02 0.  0.
        -12    1    1    2    0    0 -0.29538999633E+02 -0.38693929846E+01  0.27670220012E+02  0.40659141370E+02  0.00000000000E+00 0.  1.
         11    1    3    3    0    0  0.90718951924E+00 -0.12431232401E+01 -0.11636556793E+02  0.11737878960E+02  0.51100000000E-03 0. -1.
        -11    1    3    3    0    0  0.90679966558E+01 -0.60656830886E+01 -0.11415801192E+02  0.15790553878E+02  0.51100000000E-03 0.  1.
        -12    1    3    3    0    0  0.19563813458E+02  0.11178199313E+02 -0.46178620275E+01  0.23000425792E+02  0.00000000000E+00 0.  1.
</event>
<event>
 7    1  0.3014423E-011  0.5052886E+02  0.7816164E-02  0.1300439E+00
        -11   -1    0    0    0    0  0.00000000000E+00  0.00000000000E+00  0.45593999997E+02  0.45594000000E+02  0.51100000000E-03 0.  1.
         11   -1    0    0    0    0 -0.00000000000E+00 -0.00000000000E+00 -0.45593999997E+02  0.45594000000E+02  0.51100000000E-03 0. -1.
    9900012    2    1    2    0    0 -0.29436768422E+02  0.16974018726E+02 -0.22327669618E+02  0.50528862313E+02  0.30000007487E+02 0.  0.
        -12    1    1    2    0    0  0.29436768422E+02 -0.16974018726E+02  0.22327669618E+02  0.40659137687E+02  0.00000000000E+00 0.  1.
         11    1    3    3    0    0 -0.17053718095E+02  0.12196853205E+02 -0.14846909935E+02  0.25690917925E+02  0.51100000000E-03 0. -1.
        -11    1    3    3    0    0 -0.12133776478E+02  0.11332088189E+02 -0.29421687744E+01  0.16861231026E+02  0.51100000000E-03 0.  1.
         12    1    3    3    0    0 -0.24927384940E+00 -0.65549226676E+01 -0.45385909085E+01  0.79767133624E+01  0.00000000000E+00 0. -1.
</event>
<event>
 7    1  0.3112298E-011  0.5052885E+02  0.7816164E-02  0.1300439E+00
        -11   -1    0    0    0    0  0.00000000000E+00  0.00000000000E+00  0.45593999997E+02  0.45594000000E+02  0.51100000000E-03 0. -1.
         11   -1    0    0    0    0 -0.00000000000E+00 -0.00000000000E+00 -0.45593999997E+02  0.45594000000E+02  0.51100000000E-03 0.  1.
    9900012    2    1    2    0    0 -0.33483200246E+02  0.15887901500E+02  0.16721724411E+02  0.50528853672E+02  0.29999981223E+02 0.  0.
        -12    1    1    2    0    0  0.33483200246E+02 -0.15887901500E+02 -0.16721724411E+02  0.40659146328E+02  0.00000000000E+00 0.  1.
         11    1    3    3    0    0  0.75112877333E+00 -0.20908656811E+01 -0.11855512253E+01  0.25182227264E+01  0.51100000000E-03 0. -1.
        -11    1    3    3    0    0 -0.42741976454E+01  0.99766383650E+01 -0.21696867663E+01  0.11068406367E+02  0.51100000000E-03 0.  1.
         12    1    3    3    0    0 -0.29960131374E+02  0.80021288166E+01  0.20076962402E+02  0.36942224579E+02  0.00000000000E+00 0. -1.
</event>
<event>
 7    1  0.3014423E-011  0.5052886E+02  0.7816164E-02  0.1300439E+00
        -11   -1    0    0    0    0  0.00000000000E+00  0.00000000000E+00  0.45593999997E+02  0.45594000000E+02  0.51100000000E-03 0. -1.
         11   -1    0    0    0    0 -0.00000000000E+00 -0.00000000000E+00 -0.45593999997E+02  0.45594000000E+02  0.51100000000E-03 0.  1.
    9900012    2    1    2    0    0 -0.26322844863E+02 -0.19028576319E+02  0.24457862381E+02  0.50528856985E+02  0.29999991292E+02 0.  0.
        -12    1    1    2    0    0  0.26322844863E+02  0.19028576319E+02 -0.24457862381E+02  0.40659143015E+02  0.00000000000E+00 0.  1.
         11    1    3    3    0    0  0.43898028545E-01 -0.88805135083E+01  0.13783451150E+02  0.16396614683E+02  0.51100000000E-03 0. -1.
        -11    1    3    3    0    0 -0.82036806795E+01 -0.65807329179E+01  0.11525421423E+02  0.15602620346E+02  0.51100000000E-03 0.  1.
        -12    1    3    3    0    0 -0.18163062213E+02 -0.35673298928E+01 -0.85101019069E+00  0.18529621956E+02  0.00000000000E+00 0.  1.
</event>
<event>
 7    1  0.3014423E-011  0.5052886E+02  0.7816164E-02  0.1300439E+00
        -11   -1    0    0    0    0  0.00000000000E+00  0.00000000000E+00  0.45593999997E+02  0.45594000000E+02  0.51100000000E-03 0. -1.
         11   -1    0    0    0    0 -0.00000000000E+00 -0.00000000000E+00 -0.45593999997E+02  0.45594000000E+02  0.51100000000E-03 0.  1.
    9900012    2    1    2    0    0  0.38771900802E+01  0.39159951609E+02 -0.10228943177E+02  0.50528859682E+02  0.29999999488E+02 0.  0.
        -12    1    1    2    0    0 -0.38771900802E+01 -0.39159951609E+02  0.10228943177E+02  0.40659140318E+02  0.00000000000E+00 0.  1.
         11    1    3    3    0    0 -0.55870411482E+01  0.55648223872E+01 -0.19837208984E+01  0.81312622548E+01  0.51100000000E-03 0. -1.
        -11    1    3    3    0    0 -0.40138697037E+00  0.95504716662E+01 -0.12837133463E+02  0.16005143435E+02  0.51100000000E-03 0.  1.
        -12    1    3    3    0    0  0.98656181988E+01  0.24044657555E+02  0.45919111850E+01  0.26392453992E+02  0.00000000000E+00 0.  1.
</event>
<event>
 7    1  0.3014423E-011  0.5052886E+02  0.7816164E-02  0.1300439E+00
        -11   -1    0    0    0    0  0.00000000000E+00  0.00000000000E+00  0.45593999997E+02  0.45594000000E+02  0.51100000000E-03 0.  1.
         11   -1    0    0    0    0 -0.00000000000E+00 -0.00000000000E+00 -0.45593999997E+02  0.45594000000E+02  0.51100000000E-03 0. -1.
    9900012    2    1    2    0    0 -0.15358513566E+01  0.39450172339E+02 -0.97206289436E+01  0.50528861248E+02  0.30000004249E+02 0.  0.
        -12    1    1    2    0    0  0.15358513566E+01 -0.39450172339E+02  0.97206289436E+01  0.40659138752E+02  0.00000000000E+00 0.  1.
         11    1    3    3    0    0 -0.52294552197E+00  0.10589833170E+02 -0.18648989521E+01  0.10765495202E+02  0.51100000000E-03 0. -1.
        -11    1    3    3    0    0 -0.13571407645E+02  0.15550216372E+02 -0.32593673679E+01  0.20895353804E+02  0.51100000000E-03 0.  1.
        -12    1    3    3    0    0  0.12558501810E+02  0.13310122798E+02 -0.45963626236E+01  0.18868012242E+02  0.00000000000E+00 0.  1.
</event>
<event>
 7    1  0.3014423E-011  0.5052886E+02  0.7816164E-02  0.1300439E+00
        -11   -1    0    0    0    0  0.00000000000E+00  0.00000000000E+00  0.45593999997E+02  0.45594000000E+02  0.51100000000E-03 0. -1.
         11   -1    0    0    0    0 -0.00000000000E+00 -0.00000000000E+00 -0.45593999997E+02  0.45594000000E+02  0.51100000000E-03 0.  1.
    9900012    2    1    2    0    0 -0.38214493010E+02 -0.70233091880E+00  0.13868117475E+02  0.50528862933E+02  0.30000009372E+02 0.  0.
        -12    1    1    2    0    0  0.38214493010E+02  0.70233091880E+00 -0.13868117475E+02  0.40659137067E+02  0.00000000000E+00 0.  1.
         11    1    3    3    0    0 -0.40775236257E+01 -0.43053250083E+01 -0.65586735379E-01  0.59301200853E+01  0.51100000000E-03 0. -1.
        -11    1    3    3    0    0  0.11137106991E+01 -0.16967254454E+01 -0.41556030352E+01  0.46247449233E+01  0.51100000000E-03 0.  1.
         12    1    3    3    0    0 -0.35250680083E+02  0.52997195349E+01  0.18089307245E+02  0.39973997925E+02  0.00000000000E+00 0. -1.
</event>
<event>
 7    1  0.3014423E-011  0.5052886E+02  0.7816164E-02  0.1300439E+00
        -11   -1    0    0    0    0  0.00000000000E+00  0.00000000000E+00  0.45593999997E+02  0.45594000000E+02  0.51100000000E-03 0. -1.
         11   -1    0    0    0    0 -0.00000000000E+00 -0.00000000000E+00 -0.45593999997E+02  0.45594000000E+02  0.51100000000E-03 0.  1.
    9900012    2    1    2    0    0 -0.39753223870E+01 -0.31532565931E+02 -0.25358628917E+02  0.50528856344E+02  0.29999989344E+02 0.  0.
        -12    1    1    2    0    0  0.39753223870E+01  0.31532565931E+02  0.25358628917E+02  0.40659143656E+02  0.00000000000E+00 0.  1.
         11    1    3    3    0    0 -0.16785247715E+01 -0.47761783997E+01  0.60647132453E+01  0.79000045901E+01  0.51100000000E-03 0. -1.
        -11    1    3    3    0    0 -0.27752468977E+01 -0.13820636464E+01 -0.16683061092E+01  0.35207017484E+01  0.51100000000E-03 0.  1.
        -12    1    3    3    0    0  0.47844928229E+00 -0.25374323885E+02 -0.29755036053E+02  0.39108150006E+02  0.00000000000E+00 0.  1.
</event>
<event>
 7    1  0.3014423E-011  0.5052886E+02  0.7816164E-02  0.1300439E+00
        -11   -1    0    0    0    0  0.00000000000E+00  0.00000000000E+00  0.45593999997E+02  0.45594000000E+02  0.51100000000E-03 0. -1.
         11   -1    0    0    0    0 -0.00000000000E+00 -0.00000000000E+00 -0.45593999997E+02  0.45594000000E+02  0.51100000000E-03 0.  1.
    9900012    2    1    2    0    0 -0.38558122094E+02 -0.10782944249E+02 -0.70827139639E+01  0.50528861996E+02  0.30000006524E+02 0.  0.
        -12    1    1    2    0    0  0.38558122094E+02  0.10782944249E+02  0.70827139639E+01  0.40659138004E+02  0.00000000000E+00 0.  1.
         11    1    3    3    0    0 -0.23317642165E+02  0.33270189632E+00  0.62712571417E+01  0.24148536044E+02  0.51100000000E-03 0. -1.
        -11    1    3    3    0    0 -0.40039187284E+00 -0.22127108392E+01  0.21751828958E+01  0.31285497920E+01  0.51100000000E-03 0.  1.
        -12    1    3    3    0    0 -0.14840088056E+02 -0.89029353063E+01 -0.15529154001E+02  0.23251776160E+02  0.00000000000E+00 0.  1.
</event>
<event>
 7    1  0.3014423E-011  0.5052886E+02  0.7816164E-02  0.1300439E+00
        -11   -1    0    0    0    0  0.00000000000E+00  0.00000000000E+00  0.45593999997E+02  0.45594000000E+02  0.51100000000E-03 0. -1.
         11   -1    0    0    0    0 -0.00000000000E+00 -0.00000000000E+00 -0.45593999997E+02  0.45594000000E+02  0.51100000000E-03 0.  1.
    9900012    2    1    2    0    0  0.10104369830E+01  0.40214473818E+02  0.59110783511E+01  0.50528859150E+02  0.29999997872E+02 0.  0.
        -12    1    1    2    0    0 -0.10104369830E+01 -0.40214473818E+02 -0.59110783511E+01  0.40659140850E+02  0.00000000000E+00 0.  1.
         11    1    3    3    0    0  0.54628762015E+01  0.29993167558E+02  0.90926157862E+01  0.31813657109E+02  0.51100000000E-03 0. -1.
        -11    1    3    3    0    0 -0.58796762144E+00  0.96224110273E+01  0.40795487369E+01  0.10468009269E+02  0.51100000000E-03 0.  1.
        -12    1    3    3    0    0 -0.38644715970E+01  0.59889523362E+00 -0.72610861719E+01  0.82471927721E+01  0.00000000000E+00 0.  1.
</event>
<event>
 7    1  0.3014423E-011  0.5052886E+02  0.7816164E-02  0.1300439E+00
        -11   -1    0    0    0    0  0.00000000000E+00  0.00000000000E+00  0.45593999997E+02  0.45594000000E+02  0.51100000000E-03 0.  1.
         11   -1    0    0    0    0 -0.00000000000E+00 -0.00000000000E+00 -0.45593999997E+02  0.45594000000E+02  0.51100000000E-03 0. -1.
    9900012    2    1    2    0    0  0.39936036593E+02  0.93178072237E+00 -0.75769409605E+01  0.50528864884E+02  0.30000015301E+02 0.  0.
        -12    1    1    2    0    0 -0.39936036593E+02 -0.93178072237E+00  0.75769409605E+01  0.40659135116E+02  0.00000000000E+00 0.  1.
         11    1    3    3    0    0  0.23447337106E+02 -0.89144120024E+01 -0.24723916975E+01  0.25206290479E+02  0.51100000000E-03 0. -1.
        -11    1    3    3    0    0 -0.23680237114E+01 -0.11404883326E+01 -0.19480640665E+01  0.32715751256E+01  0.51100000000E-03 0.  1.
         12    1    3    3    0    0  0.18856723198E+02  0.10986681057E+02 -0.31564851966E+01  0.22050999280E+02  0.00000000000E+00 0. -1.
</event>
<event>
 7    1  0.3014423E-011  0.5052878E+02  0.7816164E-02  0.1300439E+00
        -11   -1    0    0    0    0  0.00000000000E+00  0.00000000000E+00  0.45593999997E+02  0.45594000000E+02  0.51100000000E-03 0.  1.
         11   -1    0    0    0    0 -0.00000000000E+00 -0.00000000000E+00 -0.45593999997E+02  0.45594000000E+02  0.51100000000E-03 0. -1.
    9900012    2    1    2    0    0 -0.18499408286E+02  0.22912793491E+02 -0.28034759039E+02  0.50528783002E+02  0.29999766413E+02 0.  0.
        -12    1    1    2    0    0  0.18499408286E+02 -0.22912793491E+02  0.28034759039E+02  0.40659216998E+02  0.00000000000E+00 0.  1.
         11    1    3    3    0    0 -0.34824692172E+01  0.11748070773E+02 -0.39338966939E+01  0.12869355159E+02  0.51100000000E-03 0. -1.
        -11    1    3    3    0    0 -0.39813742940E+01  0.13187407780E+02 -0.35180685181E+01  0.14217449546E+02  0.51100000000E-03 0.  1.
        -12    1    3    3    0    0 -0.11035564775E+02 -0.20226850630E+01 -0.20582793827E+02  0.23441978297E+02  0.00000000000E+00 0.  1.
</event>
<event>
 7    1  0.3014423E-011  0.5052888E+02  0.7816164E-02  0.1300439E+00
        -11   -1    0    0    0    0  0.00000000000E+00  0.00000000000E+00  0.45593999997E+02  0.45594000000E+02  0.51100000000E-03 0.  1.
         11   -1    0    0    0    0 -0.00000000000E+00 -0.00000000000E+00 -0.45593999997E+02  0.45594000000E+02  0.51100000000E-03 0. -1.
    9900012    2    1    2    0    0  0.15468317009E+00  0.40082167065E+02  0.68234806062E+01  0.50528881329E+02  0.30000065288E+02 0.  0.
        -12    1    1    2    0    0 -0.15468317009E+00 -0.40082167065E+02 -0.68234806062E+01  0.40659118671E+02  0.00000000000E+00 0.  1.
         11    1    3    3    0    0  0.86805784378E+01  0.23267463824E+02  0.72495732833E+01  0.25870516575E+02  0.51100000000E-03 0. -1.
        -11    1    3    3    0    0  0.47204748604E+00 -0.23203050611E+01  0.23450368598E+01  0.33325429541E+01  0.51100000000E-03 0.  1.
         12    1    3    3    0    0 -0.89979427538E+01  0.19135008302E+02 -0.27711295369E+01  0.21325821800E+02  0.00000000000E+00 0. -1.
</event>
<event>
 7    1  0.3014423E-011  0.5052885E+02  0.7816164E-02  0.1300439E+00
        -11   -1    0    0    0    0  0.00000000000E+00  0.00000000000E+00  0.45593999997E+02  0.45594000000E+02  0.51100000000E-03 0.  1.
         11   -1    0    0    0    0 -0.00000000000E+00 -0.00000000000E+00 -0.45593999997E+02  0.45594000000E+02  0.51100000000E-03 0. -1.
    9900012    2    1    2    0    0  0.10162476776E+02 -0.24998671938E+02 -0.30413100256E+02  0.50528853427E+02  0.29999980476E+02 0.  0.
        -12    1    1    2    0    0 -0.10162476776E+02  0.24998671938E+02  0.30413100256E+02  0.40659146573E+02  0.00000000000E+00 0.  1.
         11    1    3    3    0    0  0.11882175846E+02 -0.39349947223E+01 -0.98024766287E+01  0.15898390944E+02  0.51100000000E-03 0. -1.
        -11    1    3    3    0    0  0.69897842070E+01 -0.29355856833E+01 -0.41593366837E+01  0.86472439814E+01  0.51100000000E-03 0.  1.
        -12    1    3    3    0    0 -0.87094832770E+01 -0.18128091533E+02 -0.16451286943E+02  0.25983218501E+02  0.00000000000E+00 0.  1.
</event>
<event>
 7    1  0.3014423E-011  0.5052886E+02  0.7816164E-02  0.1300439E+00
        -11   -1    0    0    0    0  0.00000000000E+00  0.00000000000E+00  0.45593999997E+02  0.45594000000E+02  0.51100000000E-03 0. -1.
         11   -1    0    0    0    0 -0.00000000000E+00 -0.00000000000E+00 -0.45593999997E+02  0.45594000000E+02  0.51100000000E-03 0.  1.
    9900012    2    1    2    0    0 -0.26493027303E+02 -0.27037048531E+02  0.14841952954E+02  0.50528855193E+02  0.29999985846E+02 0.  0.
        -12    1    1    2    0    0  0.26493027303E+02  0.27037048531E+02 -0.14841952954E+02  0.40659144807E+02  0.00000000000E+00 0.  1.
         11    1    3    3    0    0 -0.56001016947E+01  0.35629002813E+01  0.32696872429E+01  0.73990710453E+01  0.51100000000E-03 0. -1.
        -11    1    3    3    0    0  0.15088828286E+01 -0.20367398985E+00  0.44516433004E+01  0.47048208064E+01  0.51100000000E-03 0.  1.
         12    1    3    3    0    0 -0.22401808437E+02 -0.30396274822E+02  0.71206224103E+01  0.38424963342E+02  0.00000000000E+00 0. -1.
</event>
<event>
 7    1  0.3014423E-011  0.5052885E+02  0.7816164E-02  0.1300439E+00
        -11   -1    0    0    0    0  0.00000000000E+00  0.00000000000E+00  0.45593999997E+02  0.45594000000E+02  0.51100000000E-03 0.  1.
         11   -1    0    0    0    0 -0.00000000000E+00 -0.00000000000E+00 -0.45593999997E+02  0.45594000000E+02  0.51100000000E-03 0. -1.
    9900012    2    1    2    0    0  0.57487485974E+01  0.10977428741E+02 -0.38724851746E+02  0.50528853490E+02  0.29999980668E+02 0.  0.
        -12    1    1    2    0    0 -0.57487485974E+01 -0.10977428741E+02  0.38724851746E+02  0.40659146510E+02  0.00000000000E+00 0.  1.
         11    1    3    3    0    0  0.53435950644E+01  0.78276362054E+01 -0.14695937059E+02  0.17487037001E+02  0.51100000000E-03 0. -1.
        -11    1    3    3    0    0 -0.19029238398E+01  0.52288951511E+01 -0.27688197951E+02  0.28241791191E+02  0.51100000000E-03 0.  1.
        -12    1    3    3    0    0  0.23080773729E+01 -0.20791026159E+01  0.36592832645E+01  0.48000252975E+01  0.00000000000E+00 0.  1.
</event>
<event>
 7    1  0.3014423E-011  0.5052886E+02  0.7816164E-02  0.1300439E+00
        -11   -1    0    0    0    0  0.00000000000E+00  0.00000000000E+00  0.45593999997E+02  0.45594000000E+02  0.51100000000E-03 0.  1.
         11   -1    0    0    0    0 -0.00000000000E+00 -0.00000000000E+00 -0.45593999997E+02  0.45594000000E+02  0.51100000000E-03 0. -1.
    9900012    2    1    2    0    0 -0.32665049402E+02  0.17912815273E+02 -0.16287760369E+02  0.50528861528E+02  0.30000005101E+02 0.  0.
        -12    1    1    2    0    0  0.32665049402E+02 -0.17912815273E+02  0.16287760369E+02  0.40659138472E+02  0.00000000000E+00 0.  1.
         11    1    3    3    0    0 -0.77650791024E+01  0.15657509808E+02 -0.48548203265E+01  0.18139000731E+02  0.51100000000E-03 0. -1.
        -11    1    3    3    0    0  0.13557462051E+01  0.36790613811E+01 -0.66851082646E+00  0.39774926027E+01  0.51100000000E-03 0.  1.
         12    1    3    3    0    0 -0.26255716504E+02 -0.14237559162E+01 -0.10764429216E+02  0.28412368194E+02  0.00000000000E+00 0. -1.
</event>
<event>
 7    1  0.3014423E-011  0.5052886E+02  0.7816164E-02  0.1300439E+00
        -11   -1    0    0    0    0  0.00000000000E+00  0.00000000000E+00  0.45593999997E+02  0.45594000000E+02  0.51100000000E-03 0.  1.
         11   -1    0    0    0    0 -0.00000000000E+00 -0.00000000000E+00 -0.45593999997E+02  0.45594000000E+02  0.51100000000E-03 0. -1.
    9900012    2    1    2    0    0  0.24808929990E+02 -0.31767299037E+02 -0.53405328231E+01  0.50528860976E+02  0.30000003421E+02 0.  0.
        -12    1    1    2    0    0 -0.24808929990E+02  0.31767299037E+02  0.53405328231E+01  0.40659139024E+02  0.00000000000E+00 0.  1.
         11    1    3    3    0    0  0.79727267055E+01  0.33301377648E+00 -0.70845212642E+01  0.10670787745E+02  0.51100000000E-03 0.  1.
        -11    1    3    3    0    0  0.19754736568E+02 -0.26086263753E+02 -0.72947332923E+00  0.32730336159E+02  0.51100000000E-03 0. -1.
         12    1    3    3    0    0 -0.29185332838E+01 -0.60140490608E+01  0.24734617704E+01  0.71277370717E+01  0.00000000000E+00 0. -1.
</event>
<event>
 7    1  0.3014423E-011  0.5052886E+02  0.7816164E-02  0.1300439E+00
        -11   -1    0    0    0    0  0.00000000000E+00  0.00000000000E+00  0.45593999997E+02  0.45594000000E+02  0.51100000000E-03 0.  1.
         11   -1    0    0    0    0 -0.00000000000E+00 -0.00000000000E+00 -0.45593999997E+02  0.45594000000E+02  0.51100000000E-03 0. -1.
    9900012    2    1    2    0    0 -0.49732432597E+01 -0.29703351871E+02 -0.27315631743E+02  0.50528855907E+02  0.29999988013E+02 0.  0.
        -12    1    1    2    0    0  0.49732432597E+01  0.29703351871E+02  0.27315631743E+02  0.40659144093E+02  0.00000000000E+00 0.  1.
         11    1    3    3    0    0 -0.17556594678E+01 -0.92577137899E+01 -0.11127243401E+02  0.14580917350E+02  0.51100000000E-03 0. -1.
        -11    1    3    3    0    0  0.64720944244E+01  0.95864250824E+00 -0.94709875669E+01  0.11511151439E+02  0.51100000000E-03 0.  1.
        -12    1    3    3    0    0 -0.96896782164E+01 -0.21404280589E+02 -0.67174007750E+01  0.24436787118E+02  0.00000000000E+00 0.  1.
</event>
<event>
 7    1  0.3014423E-011  0.5052886E+02  0.7816164E-02  0.1300439E+00
        -11   -1    0    0    0    0  0.00000000000E+00  0.00000000000E+00  0.45593999997E+02  0.45594000000E+02  0.51100000000E-03 0.  1.
         11   -1    0    0    0    0 -0.00000000000E+00 -0.00000000000E+00 -0.45593999997E+02  0.45594000000E+02  0.51100000000E-03 0. -1.
    9900012    2    1    2    0    0  0.51375204596E+01  0.22395436476E+02 -0.33544238471E+02  0.50528860486E+02  0.30000001933E+02 0.  0.
        -12    1    1    2    0    0 -0.51375204596E+01 -0.22395436476E+02  0.33544238471E+02  0.40659139514E+02  0.00000000000E+00 0.  1.
         11    1    3    3    0    0 -0.47897870427E+01  0.52750458904E+01 -0.47785896867E+01  0.85792242490E+01  0.51100000000E-03 0. -1.
        -11    1    3    3    0    0 -0.33799954270E+01  0.14528406427E+02 -0.74137232587E+01  0.16657198300E+02  0.51100000000E-03 0.  1.
        -12    1    3    3    0    0  0.13307302929E+02  0.25919841589E+01 -0.21351925526E+02  0.25292437937E+02  0.00000000000E+00 0.  1.
</event>
<event>
 7    1  0.3014423E-011  0.5052886E+02  0.7816164E-02  0.1300439E+00
        -11   -1    0    0    0    0  0.00000000000E+00  0.00000000000E+00  0.45593999997E+02  0.45594000000E+02  0.51100000000E-03 0.  1.
         11   -1    0    0    0    0 -0.00000000000E+00 -0.00000000000E+00 -0.45593999997E+02  0.45594000000E+02  0.51100000000E-03 0. -1.
    9900012    2    1    2    0    0  0.19312364085E+02  0.12530217708E+02 -0.33514049600E+02  0.50528864705E+02  0.30000014758E+02 0.  0.
        -12    1    1    2    0    0 -0.19312364085E+02 -0.12530217708E+02  0.33514049600E+02  0.40659135295E+02  0.00000000000E+00 0.  1.
         11    1    3    3    0    0  0.14930310533E+02 -0.10206257744E+01 -0.22495323063E+02  0.27018427222E+02  0.51100000000E-03 0. -1.
        -11    1    3    3    0    0 -0.19838353628E+01  0.12999202099E+01 -0.93000523952E+01  0.95977273410E+01  0.51100000000E-03 0.  1.
        -12    1    3    3    0    0  0.63658889139E+01  0.12250923272E+02 -0.17186741416E+01  0.13912710142E+02  0.00000000000E+00 0.  1.
</event>
<event>
 7    1  0.3014423E-011  0.5052884E+02  0.7816164E-02  0.1300439E+00
        -11   -1    0    0    0    0  0.00000000000E+00  0.00000000000E+00  0.45593999997E+02  0.45594000000E+02  0.51100000000E-03 0.  1.
         11   -1    0    0    0    0 -0.00000000000E+00 -0.00000000000E+00 -0.45593999997E+02  0.45594000000E+02  0.51100000000E-03 0. -1.
    9900012    2    1    2    0    0  0.32376750379E+02 -0.13061282043E+01 -0.24560281543E+02  0.50528839096E+02  0.29999936915E+02 0.  0.
        -12    1    1    2    0    0 -0.32376750379E+02  0.13061282043E+01  0.24560281543E+02  0.40659160904E+02  0.00000000000E+00 0.  1.
         11    1    3    3    0    0  0.84572066703E+01  0.55464251819E+01 -0.14091585932E+02  0.17345315544E+02  0.51100000000E-03 0. -1.
        -11    1    3    3    0    0 -0.89092805385E+00 -0.60453254207E+01 -0.46721823970E+01  0.76921388996E+01  0.51100000000E-03 0.  1.
         12    1    3    3    0    0  0.24810471762E+02 -0.80722796549E+00 -0.57965132141E+01  0.25491384652E+02  0.00000000000E+00 0. -1.
</event>
<event>
 7    1  0.3014423E-011  0.5052887E+02  0.7816164E-02  0.1300439E+00
        -11   -1    0    0    0    0  0.00000000000E+00  0.00000000000E+00  0.45593999997E+02  0.45594000000E+02  0.51100000000E-03 0. -1.
         11   -1    0    0    0    0 -0.00000000000E+00 -0.00000000000E+00 -0.45593999997E+02  0.45594000000E+02  0.51100000000E-03 0.  1.
    9900012    2    1    2    0    0 -0.28013324574E+02  0.19824578328E+02  0.21803772242E+02  0.50528871338E+02  0.30000034920E+02 0.  0.
        -12    1    1    2    0    0  0.28013324574E+02 -0.19824578328E+02 -0.21803772242E+02  0.40659128662E+02  0.00000000000E+00 0.  1.
         11    1    3    3    0    0 -0.56032574811E+01  0.87796862494E+01  0.75618431799E+01  0.12870930719E+02  0.51100000000E-03 0. -1.
        -11    1    3    3    0    0 -0.13121592901E+02  0.15286051304E+02  0.14363981027E-01  0.20145465279E+02  0.51100000000E-03 0.  1.
        -12    1    3    3    0    0 -0.92884741915E+01 -0.42411592262E+01  0.14227565081E+02  0.17512475340E+02  0.00000000000E+00 0.  1.
</event>
<event>
 7    1  0.3014423E-011  0.5052874E+02  0.7816164E-02  0.1300439E+00
        -11   -1    0    0    0    0  0.00000000000E+00  0.00000000000E+00  0.45593999997E+02  0.45594000000E+02  0.51100000000E-03 0. -1.
         11   -1    0    0    0    0 -0.00000000000E+00 -0.00000000000E+00 -0.45593999997E+02  0.45594000000E+02  0.51100000000E-03 0.  1.
    9900012    2    1    2    0    0  0.29246125199E+02 -0.22780995541E+02  0.16699277670E+02  0.50528739410E+02  0.29999633909E+02 0.  0.
        -12    1    1    2    0    0 -0.29246125199E+02  0.22780995541E+02 -0.16699277670E+02  0.40659260590E+02  0.00000000000E+00 0.  1.
         11    1    3    3    0    0  0.49446693081E+01 -0.96575254334E+01  0.10968747887E+02  0.15428252738E+02  0.51100000000E-03 0. -1.
        -11    1    3    3    0    0  0.12530818830E+02  0.10605077740E+00  0.10947927653E+02  0.16640005633E+02  0.51100000000E-03 0.  1.
         12    1    3    3    0    0  0.11770637061E+02 -0.13229520885E+02 -0.52173978701E+01  0.18460481039E+02  0.00000000000E+00 0. -1.
</event>
<event>
 7    1  0.3014423E-011  0.5052886E+02  0.7816164E-02  0.1300439E+00
        -11   -1    0    0    0    0  0.00000000000E+00  0.00000000000E+00  0.45593999997E+02  0.45594000000E+02  0.51100000000E-03 0.  1.
         11   -1    0    0    0    0 -0.00000000000E+00 -0.00000000000E+00 -0.45593999997E+02  0.45594000000E+02  0.51100000000E-03 0. -1.
    9900012    2    1    2    0    0 -0.26852324116E+02  0.95035653094E+01 -0.29013794529E+02  0.50528864040E+02  0.30000012737E+02 0.  0.
        -12    1    1    2    0    0  0.26852324116E+02 -0.95035653094E+01  0.29013794529E+02  0.40659135960E+02  0.00000000000E+00 0.  1.
         11    1    3    3    0    0 -0.12598473298E+02 -0.19614337369E+01 -0.85182954849E+01  0.15333952849E+02  0.51100000000E-03 0. -1.
        -11    1    3    3    0    0 -0.14407543801E+02 -0.24559113253E+01 -0.92280963777E+01  0.17284865687E+02  0.51100000000E-03 0.  1.
         12    1    3    3    0    0  0.15369298275E+00  0.13920910372E+02 -0.11267402666E+02  0.17910045504E+02  0.00000000000E+00 0. -1.
</event>
<event>
 7    1  0.3014423E-011  0.5052887E+02  0.7816164E-02  0.1300439E+00
        -11   -1    0    0    0    0  0.00000000000E+00  0.00000000000E+00  0.45593999997E+02  0.45594000000E+02  0.51100000000E-03 0. -1.
         11   -1    0    0    0    0 -0.00000000000E+00 -0.00000000000E+00 -0.45593999997E+02  0.45594000000E+02  0.51100000000E-03 0.  1.
    9900012    2    1    2    0    0 -0.20132697992E+02 -0.19631419235E+02  0.29367439035E+02  0.50528872795E+02  0.30000039348E+02 0.  0.
        -12    1    1    2    0    0  0.20132697992E+02  0.19631419235E+02 -0.29367439035E+02  0.40659127205E+02  0.00000000000E+00 0.  1.
         11    1    3    3    0    0 -0.82166108239E+01 -0.67198361003E+01 -0.24836872651E+01  0.10901265676E+02  0.51100000000E-03 0. -1.
        -11    1    3    3    0    0  0.15738444531E+01 -0.12849179111E+01 -0.99642180095E+00  0.22629310788E+01  0.51100000000E-03 0.  1.
         12    1    3    3    0    0 -0.13489931621E+02 -0.11626665224E+02  0.32847548101E+02  0.37364676040E+02  0.00000000000E+00 0. -1.
</event>
<event>
 7    1  0.3014423E-011  0.5052886E+02  0.7816164E-02  0.1300439E+00
        -11   -1    0    0    0    0  0.00000000000E+00  0.00000000000E+00  0.45593999997E+02  0.45594000000E+02  0.51100000000E-03 0.  1.
         11   -1    0    0    0    0 -0.00000000000E+00 -0.00000000000E+00 -0.45593999997E+02  0.45594000000E+02  0.51100000000E-03 0. -1.
    9900012    2    1    2    0    0 -0.92399274664E+01 -0.35033461474E+02 -0.18451179399E+02  0.50528859531E+02  0.29999999031E+02 0.  0.
        -12    1    1    2    0    0  0.92399274664E+01  0.35033461474E+02  0.18451179399E+02  0.40659140469E+02  0.00000000000E+00 0.  1.
         11    1    3    3    0    0 -0.70839321992E+01 -0.25541521785E+02  0.94799116106E+00  0.26522634070E+02  0.51100000000E-03 0. -1.
        -11    1    3    3    0    0 -0.56902132644E+01 -0.24443970766E+01 -0.96775445301E+01  0.11489494003E+02  0.51100000000E-03 0.  1.
        -12    1    3    3    0    0  0.35342179972E+01 -0.70475426125E+01 -0.97216260299E+01  0.12516731458E+02  0.00000000000E+00 0.  1.
</event>
<event>
 7    1  0.3014423E-011  0.5052885E+02  0.7816164E-02  0.1300439E+00
        -11   -1    0    0    0    0  0.00000000000E+00  0.00000000000E+00  0.45593999997E+02  0.45594000000E+02  0.51100000000E-03 0.  1.
         11   -1    0    0    0    0 -0.00000000000E+00 -0.00000000000E+00 -0.45593999997E+02  0.45594000000E+02  0.51100000000E-03 0. -1.
    9900012    2    1    2    0    0  0.12656407744E+02  0.97743310920E+01 -0.37382402294E+02  0.50528853347E+02  0.29999980233E+02 0.  0.
        -12    1    1    2    0    0 -0.12656407744E+02 -0.97743310920E+01  0.37382402294E+02  0.40659146653E+02  0.00000000000E+00 0.  1.
         11    1    3    3    0    0  0.10679918814E+02 -0.44945562386E+01 -0.94076995939E+01  0.14925364772E+02  0.51100000000E-03 0. -1.
        -11    1    3    3    0    0 -0.43976272492E+01 -0.13716234086E+01 -0.31593100323E+01  0.55858496524E+01  0.51100000000E-03 0.  1.
        -12    1    3    3    0    0  0.63741161794E+01  0.15640510739E+02 -0.24815392668E+02  0.30017638923E+02  0.00000000000E+00 0.  1.
</event>
<event>
 7    1  0.3014423E-011  0.5052886E+02  0.7816164E-02  0.1300439E+00
        -11   -1    0    0    0    0  0.00000000000E+00  0.00000000000E+00  0.45593999997E+02  0.45594000000E+02  0.51100000000E-03 0. -1.
         11   -1    0    0    0    0 -0.00000000000E+00 -0.00000000000E+00 -0.45593999997E+02  0.45594000000E+02  0.51100000000E-03 0.  1.
    9900012    2    1    2    0    0 -0.39602499066E+02  0.31365401110E+01 -0.86584979333E+01  0.50528863234E+02  0.30000010286E+02 0.  0.
        -12    1    1    2    0    0  0.39602499066E+02 -0.31365401110E+01  0.86584979333E+01  0.40659136766E+02  0.00000000000E+00 0.  1.
         11    1    3    3    0    0 -0.44814980989E+01  0.41135137134E+01 -0.47913966728E+01  0.77435329545E+01  0.51100000000E-03 0. -1.
        -11    1    3    3    0    0 -0.51727313887E+01  0.80647067442E+01 -0.62047624205E+01  0.11414715145E+02  0.51100000000E-03 0.  1.
         12    1    3    3    0    0 -0.29948269578E+02 -0.90416803465E+01  0.23376611600E+01  0.31370615134E+02  0.00000000000E+00 0. -1.
</event>
<event>
 7    1  0.3014423E-011  0.5052886E+02  0.7816164E-02  0.1300439E+00
        -11   -1    0    0    0    0  0.00000000000E+00  0.00000000000E+00  0.45593999997E+02  0.45594000000E+02  0.51100000000E-03 0.  1.
         11   -1    0    0    0    0 -0.00000000000E+00 -0.00000000000E+00 -0.45593999997E+02  0.45594000000E+02  0.51100000000E-03 0. -1.
    9900012    2    1    2    0    0 -0.40094671235E+02 -0.41067237328E+01 -0.53588902493E+01  0.50528861470E+02  0.30000004926E+02 0.  0.
        -12    1    1    2    0    0  0.40094671235E+02  0.41067237328E+01  0.53588902493E+01  0.40659138530E+02  0.00000000000E+00 0.  1.
         11    1    3    3    0    0 -0.14476504037E-01 -0.37568513251E+00 -0.67986969096E+00  0.77689892893E+00  0.51100000000E-03 0. -1.
        -11    1    3    3    0    0 -0.41179865097E+02 -0.94059355589E+01  0.11755254954E+00  0.42240581578E+02  0.51100000000E-03 0.  1.
        -12    1    3    3    0    0  0.10996703662E+01  0.56748969587E+01 -0.47965731079E+01  0.75113809639E+01  0.00000000000E+00 0.  1.
</event>
<event>
 7    1  0.3014423E-011  0.5052892E+02  0.7816164E-02  0.1300439E+00
        -11   -1    0    0    0    0  0.00000000000E+00  0.00000000000E+00  0.45593999997E+02  0.45594000000E+02  0.51100000000E-03 0. -1.
         11   -1    0    0    0    0 -0.00000000000E+00 -0.00000000000E+00 -0.45593999997E+02  0.45594000000E+02  0.51100000000E-03 0.  1.
    9900012    2    1    2    0    0 -0.27843286979E+02  0.24365587851E+02 -0.16859123056E+02  0.50528923137E+02  0.30000192367E+02 0.  0.
        -12    1    1    2    0    0  0.27843286979E+02 -0.24365587851E+02  0.16859123056E+02  0.40659076863E+02  0.00000000000E+00 0.  1.
         11    1    3    3    0    0 -0.50983240563E+01  0.66385865638E+01  0.32142742435E+01  0.89663425610E+01  0.51100000000E-03 0. -1.
        -11    1    3    3    0    0 -0.15049969514E+02  0.17139900774E+02 -0.32323303849E+01  0.23037485559E+02  0.51100000000E-03 0.  1.
        -12    1    3    3    0    0 -0.76949934090E+01  0.58710051335E+00 -0.16841066914E+02  0.18525095017E+02  0.00000000000E+00 0.  1.
</event>
<event>
 7    1  0.3014423E-011  0.5052887E+02  0.7816164E-02  0.1300439E+00
        -11   -1    0    0    0    0  0.00000000000E+00  0.00000000000E+00  0.45593999997E+02  0.45594000000E+02  0.51100000000E-03 0.  1.
         11   -1    0    0    0    0 -0.00000000000E+00 -0.00000000000E+00 -0.45593999997E+02  0.45594000000E+02  0.51100000000E-03 0. -1.
    9900012    2    1    2    0    0 -0.92196305266E+00 -0.33910609384E+02 -0.22413946755E+02  0.50528874902E+02  0.30000045751E+02 0.  0.
        -12    1    1    2    0    0  0.92196305266E+00  0.33910609384E+02  0.22413946755E+02  0.40659125098E+02  0.00000000000E+00 0.  1.
         11    1    3    3    0    0  0.10770221638E+01 -0.68270194807E+01 -0.11954438327E+02  0.13808575875E+02  0.51100000000E-03 0. -1.
        -11    1    3    3    0    0 -0.28227067171E+01 -0.43464685835E+01 -0.12837659385E+02  0.13844311507E+02  0.51100000000E-03 0.  1.
         12    1    3    3    0    0  0.82372150062E+00 -0.22737121319E+02  0.23781509572E+01  0.22875987519E+02  0.00000000000E+00 0. -1.
</event>
<event>
 7    1  0.3014423E-011  0.5052886E+02  0.7816164E-02  0.1300439E+00
        -11   -1    0    0    0    0  0.00000000000E+00  0.00000000000E+00  0.45593999997E+02  0.45594000000E+02  0.51100000000E-03 0.  1.
         11   -1    0    0    0    0 -0.00000000000E+00 -0.00000000000E+00 -0.45593999997E+02  0.45594000000E+02  0.51100000000E-03 0. -1.
    9900012    2    1    2    0    0 -0.24047262784E+02 -0.17422440647E+01 -0.32739261626E+02  0.50528861868E+02  0.30000006135E+02 0.  0.
        -12    1    1    2    0    0  0.24047262784E+02  0.17422440647E+01  0.32739261626E+02  0.40659138132E+02  0.00000000000E+00 0.  1.
         11    1    3    3    0    0 -0.13195315770E+02  0.15348105514E+01 -0.69292014404E+01  0.14982851350E+02  0.51100000000E-03 0. -1.
        -11    1    3    3    0    0 -0.16789408609E+02  0.14020028556E+01 -0.16941735550E+02  0.23892933206E+02  0.51100000000E-03 0.  1.
        -12    1    3    3    0    0  0.59374615954E+01 -0.46790574717E+01 -0.88683246358E+01  0.11653077313E+02  0.00000000000E+00 0.  1.
</event>
<event>
 7    1  0.3014423E-011  0.5052888E+02  0.7816164E-02  0.1300439E+00
        -11   -1    0    0    0    0  0.00000000000E+00  0.00000000000E+00  0.45593999997E+02  0.45594000000E+02  0.51100000000E-03 0.  1.
         11   -1    0    0    0    0 -0.00000000000E+00 -0.00000000000E+00 -0.45593999997E+02  0.45594000000E+02  0.51100000000E-03 0. -1.
    9900012    2    1    2    0    0  0.26506986221E+02  0.30185595675E+02  0.62748504558E+01  0.50528877371E+02  0.30000053256E+02 0.  0.
        -12    1    1    2    0    0 -0.26506986221E+02 -0.30185595675E+02 -0.62748504558E+01  0.40659122629E+02  0.00000000000E+00 0.  1.
         11    1    3    3    0    0  0.77395179054E+01 -0.29540445286E+01  0.41207892494E+00  0.82943550555E+01  0.51100000000E-03 0. -1.
        -11    1    3    3    0    0 -0.28559809077E+00 -0.17736292267E+01  0.12621365719E+01  0.21955217809E+01  0.51100000000E-03 0.  1.
        -12    1    3    3    0    0  0.19053066406E+02  0.34913269430E+02  0.46006349590E+01  0.40039000534E+02  0.00000000000E+00 0.  1.
</event>
<event>
 7    1  0.3014423E-011  0.5052886E+02  0.7816164E-02  0.1300439E+00
        -11   -1    0    0    0    0  0.00000000000E+00  0.00000000000E+00  0.45593999997E+02  0.45594000000E+02  0.51100000000E-03 0.  1.
         11   -1    0    0    0    0 -0.00000000000E+00 -0.00000000000E+00 -0.45593999997E+02  0.45594000000E+02  0.51100000000E-03 0. -1.
    9900012    2    1    2    0    0  0.27045914846E+02  0.25117029912E+02 -0.17053405657E+02  0.50528863930E+02  0.30000012402E+02 0.  0.
        -12    1    1    2    0    0 -0.27045914846E+02 -0.25117029912E+02  0.17053405657E+02  0.40659136070E+02  0.00000000000E+00 0.  1.
         11    1    3    3    0    0  0.12621674370E+02  0.77329547652E+01 -0.10525746246E+02  0.18163055569E+02  0.51100000000E-03 0. -1.
        -11    1    3    3    0    0  0.18121783523E+02  0.55896962339E+01 -0.15049728538E+01  0.19023897749E+02  0.51100000000E-03 0.  1.
        -12    1    3    3    0    0 -0.36975430466E+01  0.11794378913E+02 -0.50226865572E+01  0.13341910612E+02  0.00000000000E+00 0.  1.
</event>
<event>
 7    1  0.3014423E-011  0.5052886E+02  0.7816164E-02  0.1300439E+00
        -11   -1    0    0    0    0  0.00000000000E+00  0.00000000000E+00  0.45593999997E+02  0.45594000000E+02  0.51100000000E-03 0. -1.
         11   -1    0    0    0    0 -0.00000000000E+00 -0.00000000000E+00 -0.45593999997E+02  0.45594000000E+02  0.51100000000E-03 0.  1.
    9900012    2    1    2    0    0 -0.11806897714E+02 -0.38842329409E+02  0.22441234143E+01  0.50528862313E+02  0.30000007487E+02 0.  0.
        -12    1    1    2    0    0  0.11806897714E+02  0.38842329409E+02 -0.22441234143E+01  0.40659137687E+02  0.00000000000E+00 0.  1.
         11    1    3    3    0    0 -0.10137410661E+02 -0.22267993150E+02 -0.10887468390E+02  0.26779984729E+02  0.51100000000E-03 0.  1.
        -11    1    3    3    0    0 -0.48387839072E+01 -0.67206616987E+01  0.19421168650E+01  0.85060532298E+01  0.51100000000E-03 0. -1.
         12    1    3    3    0    0  0.31692968537E+01 -0.98536745597E+01  0.11189474940E+02  0.15242824355E+02  0.00000000000E+00 0. -1.
</event>
<event>
 7    1  0.3014423E-011  0.5052886E+02  0.7816164E-02  0.1300439E+00
        -11   -1    0    0    0    0  0.00000000000E+00  0.00000000000E+00  0.45593999997E+02  0.45594000000E+02  0.51100000000E-03 0. -1.
         11   -1    0    0    0    0 -0.00000000000E+00 -0.00000000000E+00 -0.45593999997E+02  0.45594000000E+02  0.51100000000E-03 0.  1.
    9900012    2    1    2    0    0  0.27184603633E+02 -0.22252191008E+02 -0.20469566971E+02  0.50528857715E+02  0.29999993511E+02 0.  0.
        -12    1    1    2    0    0 -0.27184603633E+02  0.22252191008E+02  0.20469566971E+02  0.40659142285E+02  0.00000000000E+00 0.  1.
         11    1    3    3    0    0  0.61386445119E+01  0.38631976348E+00 -0.34208356569E+01  0.70380619673E+01  0.51100000000E-03 0. -1.
        -11    1    3    3    0    0  0.20068030923E+02 -0.33483627503E+01 -0.11609020285E+02  0.23424490400E+02  0.51100000000E-03 0.  1.
        -12    1    3    3    0    0  0.97792819804E+00 -0.19290148021E+02 -0.54397110293E+01  0.20066305348E+02  0.00000000000E+00 0.  1.
</event>
<event>
 7    1  0.3014423E-011  0.5052883E+02  0.7816164E-02  0.1300439E+00
        -11   -1    0    0    0    0  0.00000000000E+00  0.00000000000E+00  0.45593999997E+02  0.45594000000E+02  0.51100000000E-03 0. -1.
         11   -1    0    0    0    0 -0.00000000000E+00 -0.00000000000E+00 -0.45593999997E+02  0.45594000000E+02  0.51100000000E-03 0.  1.
    9900012    2    1    2    0    0  0.14392419013E+02  0.33997623118E+02  0.17034915411E+02  0.50528825810E+02  0.29999896533E+02 0.  0.
        -12    1    1    2    0    0 -0.14392419013E+02 -0.33997623118E+02 -0.17034915411E+02  0.40659174190E+02  0.00000000000E+00 0.  1.
         11    1    3    3    0    0  0.11615346586E+02  0.14524128286E+02 -0.58345526572E-01  0.18597580037E+02  0.51100000000E-03 0. -1.
        -11    1    3    3    0    0  0.37264841038E+01 -0.27932559108E+01  0.24281198641E+01  0.52521165919E+01  0.51100000000E-03 0.  1.
         12    1    3    3    0    0 -0.94941167675E+00  0.22266750742E+02  0.14665141073E+02  0.26679129181E+02  0.00000000000E+00 0. -1.
</event>
<event>
 7    1  0.3014423E-011  0.5052886E+02  0.7816164E-02  0.1300439E+00
        -11   -1    0    0    0    0  0.00000000000E+00  0.00000000000E+00  0.45593999997E+02  0.45594000000E+02  0.51100000000E-03 0.  1.
         11   -1    0    0    0    0 -0.00000000000E+00 -0.00000000000E+00 -0.45593999997E+02  0.45594000000E+02  0.51100000000E-03 0. -1.
    9900012    2    1    2    0    0 -0.17446917049E+02  0.34948496156E+02 -0.11285976901E+02  0.50528861142E+02  0.30000003928E+02 0.  0.
        -12    1    1    2    0    0  0.17446917049E+02 -0.34948496156E+02  0.11285976901E+02  0.40659138858E+02  0.00000000000E+00 0.  1.
         11    1    3    3    0    0 -0.76797204407E+01 -0.20080713105E+01 -0.13856421688E+01  0.80579439634E+01  0.51100000000E-03 0. -1.
        -11    1    3    3    0    0 -0.53594524796E+01  0.18016811173E+01  0.10496093616E+00  0.56551571852E+01  0.51100000000E-03 0.  1.
         12    1    3    3    0    0 -0.44077441289E+01  0.35154886349E+02 -0.10005295668E+02  0.36815759994E+02  0.00000000000E+00 0. -1.
</event>
<event>
 7    1  0.3014423E-011  0.5052886E+02  0.7816164E-02  0.1300439E+00
        -11   -1    0    0    0    0  0.00000000000E+00  0.00000000000E+00  0.45593999997E+02  0.45594000000E+02  0.51100000000E-03 0.  1.
         11   -1    0    0    0    0 -0.00000000000E+00 -0.00000000000E+00 -0.45593999997E+02  0.45594000000E+02  0.51100000000E-03 0. -1.
    9900012    2    1    2    0    0 -0.11396780511E+02 -0.39019613619E+02 -0.86538346100E+00  0.50528859066E+02  0.29999997616E+02 0.  0.
        -12    1    1    2    0    0  0.11396780511E+02  0.39019613619E+02  0.86538346100E+00  0.40659140934E+02  0.00000000000E+00 0.  1.
         11    1    3    3    0    0 -0.12228561467E+01 -0.14721958265E+02 -0.11273664650E+02  0.18582974660E+02  0.51100000000E-03 0. -1.
        -11    1    3    3    0    0  0.34728933908E+01 -0.69548925680E+01  0.49388164389E+01  0.92099634752E+01  0.51100000000E-03 0.  1.
        -12    1    3    3    0    0 -0.13646817755E+02 -0.17342762786E+02  0.54694647505E+01  0.22735920930E+02  0.00000000000E+00 0.  1.
</event>
<event>
 7    1  0.3014423E-011  0.5052887E+02  0.7816164E-02  0.1300439E+00
        -11   -1    0    0    0    0  0.00000000000E+00  0.00000000000E+00  0.45593999997E+02  0.45594000000E+02  0.51100000000E-03 0.  1.
         11   -1    0    0    0    0 -0.00000000000E+00 -0.00000000000E+00 -0.45593999997E+02  0.45594000000E+02  0.51100000000E-03 0. -1.
    9900012    2    1    2    0    0  0.15429208113E+02 -0.21047793206E+01 -0.37558947095E+02  0.50528867374E+02  0.30000022870E+02 0.  0.
        -12    1    1    2    0    0 -0.15429208113E+02  0.21047793206E+01  0.37558947095E+02  0.40659132626E+02  0.00000000000E+00 0.  1.
         11    1    3    3    0    0  0.49721205836E+01 -0.26068968683E+01 -0.18094611901E+02  0.18945523865E+02  0.51100000000E-03 0. -1.
        -11    1    3    3    0    0  0.98039720141E+01 -0.15855727344E+01 -0.24313497755E+02  0.26263626587E+02  0.51100000000E-03 0.  1.
        -12    1    3    3    0    0  0.65311551499E+00  0.20876902820E+01  0.48491625613E+01  0.53197169225E+01  0.00000000000E+00 0.  1.
</event>
<event>
 7    1  0.3014423E-011  0.5052886E+02  0.7816164E-02  0.1300439E+00
        -11   -1    0    0    0    0  0.00000000000E+00  0.00000000000E+00  0.45593999997E+02  0.45594000000E+02  0.51100000000E-03 0. -1.
         11   -1    0    0    0    0 -0.00000000000E+00 -0.00000000000E+00 -0.45593999997E+02  0.45594000000E+02  0.51100000000E-03 0.  1.
    9900012    2    1    2    0    0 -0.29199590186E+02  0.26756289356E+02 -0.92005924242E+01  0.50528856034E+02  0.29999988400E+02 0.  0.
        -12    1    1    2    0    0  0.29199590186E+02 -0.26756289356E+02  0.92005924242E+01  0.40659143966E+02  0.00000000000E+00 0.  1.
         11    1    3    3    0    0 -0.15058341402E+01  0.27101340651E+01 -0.38520053706E+00  0.31242187541E+01  0.51100000000E-03 0. -1.
        -11    1    3    3    0    0 -0.17479949020E+02 -0.11761121952E+01 -0.99897287151E+01  0.20167462351E+02  0.51100000000E-03 0.  1.
        -12    1    3    3    0    0 -0.10213807026E+02  0.25222267486E+02  0.11743368279E+01  0.27237174928E+02  0.00000000000E+00 0.  1.
</event>
<event>
 7    1  0.3014423E-011  0.5052886E+02  0.7816164E-02  0.1300439E+00
        -11   -1    0    0    0    0  0.00000000000E+00  0.00000000000E+00  0.45593999997E+02  0.45594000000E+02  0.51100000000E-03 0. -1.
         11   -1    0    0    0    0 -0.00000000000E+00 -0.00000000000E+00 -0.45593999997E+02  0.45594000000E+02  0.51100000000E-03 0.  1.
    9900012    2    1    2    0    0 -0.12603274202E+02 -0.15691190909E+02  0.35328598577E+02  0.50528857484E+02  0.29999992808E+02 0.  0.
        -12    1    1    2    0    0  0.12603274202E+02  0.15691190909E+02 -0.35328598577E+02  0.40659142516E+02  0.00000000000E+00 0.  1.
         11    1    3    3    0    0 -0.53260782083E+00 -0.52369178049E+01  0.83651696527E+01  0.98835743922E+01  0.51100000000E-03 0. -1.
        -11    1    3    3    0    0  0.79210791161E+01 -0.53432642989E+01  0.10901827268E+02  0.14496337668E+02  0.51100000000E-03 0.  1.
        -12    1    3    3    0    0 -0.19991745497E+02 -0.51110088050E+01  0.16061601656E+02  0.26148945424E+02  0.00000000000E+00 0.  1.
</event>
<event>
 7    1  0.3014423E-011  0.5052885E+02  0.7816164E-02  0.1300439E+00
        -11   -1    0    0    0    0  0.00000000000E+00  0.00000000000E+00  0.45593999997E+02  0.45594000000E+02  0.51100000000E-03 0.  1.
         11   -1    0    0    0    0 -0.00000000000E+00 -0.00000000000E+00 -0.45593999997E+02  0.45594000000E+02  0.51100000000E-03 0. -1.
    9900012    2    1    2    0    0 -0.27647984174E+02  0.27233003772E+02 -0.12129262848E+02  0.50528849240E+02  0.29999967749E+02 0.  0.
        -12    1    1    2    0    0  0.27647984174E+02 -0.27233003772E+02  0.12129262848E+02  0.40659150760E+02  0.00000000000E+00 0.  1.
         11    1    3    3    0    0 -0.20501272837E+02  0.94269035144E+01 -0.63020328636E+01  0.23428280267E+02  0.51100000000E-03 0. -1.
        -11    1    3    3    0    0 -0.10884725131E+02  0.61993017767E+01  0.18925365758E+01  0.12668475783E+02  0.51100000000E-03 0.  1.
         12    1    3    3    0    0  0.37380137940E+01  0.11606798481E+02 -0.77197665602E+01  0.14432093190E+02  0.00000000000E+00 0. -1.
</event>
<event>
 7    1  0.3014423E-011  0.5052886E+02  0.7816164E-02  0.1300439E+00
        -11   -1    0    0    0    0  0.00000000000E+00  0.00000000000E+00  0.45593999997E+02  0.45594000000E+02  0.51100000000E-03 0. -1.
         11   -1    0    0    0    0 -0.00000000000E+00 -0.00000000000E+00 -0.45593999997E+02  0.45594000000E+02  0.51100000000E-03 0.  1.
    9900012    2    1    2    0    0 -0.20315301579E+02 -0.54864660132E+01  0.34790127729E+02  0.50528858654E+02  0.29999996365E+02 0.  0.
        -12    1    1    2    0    0  0.20315301579E+02  0.54864660132E+01 -0.34790127729E+02  0.40659141346E+02  0.00000000000E+00 0.  1.
         11    1    3    3    0    0  0.24553844787E+01  0.74040808886E+00  0.10523369935E+02  0.10831363355E+02  0.51100000000E-03 0. -1.
        -11    1    3    3    0    0  0.31015947782E+01  0.11554688112E+01  0.69599659786E+01  0.77068881545E+01  0.51100000000E-03 0.  1.
         12    1    3    3    0    0 -0.25872280836E+02 -0.73823429133E+01  0.17306791815E+02  0.31990607144E+02  0.00000000000E+00 0. -1.
</event>
<event>
 7    1  0.3014423E-011  0.5052886E+02  0.7816164E-02  0.1300439E+00
        -11   -1    0    0    0    0  0.00000000000E+00  0.00000000000E+00  0.45593999997E+02  0.45594000000E+02  0.51100000000E-03 0.  1.
         11   -1    0    0    0    0 -0.00000000000E+00 -0.00000000000E+00 -0.45593999997E+02  0.45594000000E+02  0.51100000000E-03 0. -1.
    9900012    2    1    2    0    0  0.27934999369E+01 -0.35760695544E+02 -0.19145096664E+02  0.50528859405E+02  0.29999998647E+02 0.  0.
        -12    1    1    2    0    0 -0.27934999369E+01  0.35760695544E+02  0.19145096664E+02  0.40659140595E+02  0.00000000000E+00 0.  1.
         11    1    3    3    0    0  0.31620155869E+00 -0.12106024561E+02 -0.14726754340E+02  0.19066544200E+02  0.51100000000E-03 0. -1.
        -11    1    3    3    0    0 -0.39717233759E+01 -0.54832796970E+01 -0.93649382550E+01  0.11556081152E+02  0.51100000000E-03 0.  1.
        -12    1    3    3    0    0  0.64490217541E+01 -0.18171391286E+02  0.49465959313E+01  0.19906234053E+02  0.00000000000E+00 0.  1.
</event>
<event>
 7    1  0.3014423E-011  0.5052887E+02  0.7816164E-02  0.1300439E+00
        -11   -1    0    0    0    0  0.00000000000E+00  0.00000000000E+00  0.45593999997E+02  0.45594000000E+02  0.51100000000E-03 0.  1.
         11   -1    0    0    0    0 -0.00000000000E+00 -0.00000000000E+00 -0.45593999997E+02  0.45594000000E+02  0.51100000000E-03 0. -1.
    9900012    2    1    2    0    0  0.11070663276E+02  0.31815898195E+01 -0.38993367097E+02  0.50528870930E+02  0.30000033680E+02 0.  0.
        -12    1    1    2    0    0 -0.11070663276E+02 -0.31815898195E+01  0.38993367097E+02  0.40659129070E+02  0.00000000000E+00 0.  1.
         11    1    3    3    0    0 -0.19680443167E+01  0.15848203956E+00 -0.19151015531E+00  0.19836812723E+01  0.51100000000E-03 0. -1.
        -11    1    3    3    0    0  0.69424515296E+01 -0.11050068243E+02 -0.12341955705E+02  0.17961779208E+02  0.51100000000E-03 0.  1.
         12    1    3    3    0    0  0.60962560633E+01  0.14073176023E+02 -0.26459901236E+02  0.30583410450E+02  0.00000000000E+00 0. -1.
</event>
<event>
 7    1  0.3014423E-011  0.5052885E+02  0.7816164E-02  0.1300439E+00
        -11   -1    0    0    0    0  0.00000000000E+00  0.00000000000E+00  0.45593999997E+02  0.45594000000E+02  0.51100000000E-03 0.  1.
         11   -1    0    0    0    0 -0.00000000000E+00 -0.00000000000E+00 -0.45593999997E+02  0.45594000000E+02  0.51100000000E-03 0. -1.
    9900012    2    1    2    0    0 -0.40573322230E+02  0.25676763802E+01  0.61564814967E+00  0.50528850213E+02  0.29999970707E+02 0.  0.
        -12    1    1    2    0    0  0.40573322230E+02 -0.25676763802E+01 -0.61564814967E+00  0.40659149787E+02  0.00000000000E+00 0.  1.
         11    1    3    3    0    0  0.88817660501E+00 -0.12463270139E+00 -0.16263072771E+01  0.18572201303E+01  0.51100000000E-03 0. -1.
        -11    1    3    3    0    0 -0.86962066011E+01  0.10109723160E+02 -0.51123461291E+01  0.14281687394E+02  0.51100000000E-03 0.  1.
         12    1    3    3    0    0 -0.32765292234E+02 -0.74174140780E+01  0.73543015558E+01  0.34389942689E+02  0.00000000000E+00 0. -1.
</event>
<event>
 7    1  0.3014423E-011  0.5052892E+02  0.7816164E-02  0.1300439E+00
        -11   -1    0    0    0    0  0.00000000000E+00  0.00000000000E+00  0.45593999997E+02  0.45594000000E+02  0.51100000000E-03 0. -1.
         11   -1    0    0    0    0 -0.00000000000E+00 -0.00000000000E+00 -0.45593999997E+02  0.45594000000E+02  0.51100000000E-03 0.  1.
    9900012    2    1    2    0    0 -0.25585390248E+02 -0.29621449820E+02  0.11005390493E+02  0.50528916101E+02  0.30000170981E+02 0.  0.
        -12    1    1    2    0    0  0.25585390248E+02  0.29621449820E+02 -0.11005390493E+02  0.40659083899E+02  0.00000000000E+00 0.  1.
         11    1    3    3    0    0 -0.24789136560E+01 -0.80645350549E+01 -0.28388655389E+01  0.89017355822E+01  0.51100000000E-03 0. -1.
        -11    1    3    3    0    0 -0.93055050669E+01 -0.23500155671E+02  0.79651671277E+01  0.26500823171E+02  0.51100000000E-03 0.  1.
         12    1    3    3    0    0 -0.13800971526E+02  0.19432409066E+01  0.58790889043E+01  0.15126357348E+02  0.00000000000E+00 0. -1.
</event>
<event>
 7    1  0.3014423E-011  0.5052886E+02  0.7816164E-02  0.1300439E+00
        -11   -1    0    0    0    0  0.00000000000E+00  0.00000000000E+00  0.45593999997E+02  0.45594000000E+02  0.51100000000E-03 0.  1.
         11   -1    0    0    0    0 -0.00000000000E+00 -0.00000000000E+00 -0.45593999997E+02  0.45594000000E+02  0.51100000000E-03 0. -1.
    9900012    2    1    2    0    0 -0.15007545026E+02  0.23524111333E+02 -0.29572877070E+02  0.50528864742E+02  0.30000014871E+02 0.  0.
        -12    1    1    2    0    0  0.15007545026E+02 -0.23524111333E+02  0.29572877070E+02  0.40659135258E+02  0.00000000000E+00 0.  1.
         11    1    3    3    0    0  0.27340002217E+01 -0.23277157509E+01 -0.24881797674E+01  0.43685302615E+01  0.51100000000E-03 0. -1.
        -11    1    3    3    0    0 -0.10947747710E+02  0.22897146704E+02 -0.95363987545E+01  0.27112274132E+02  0.51100000000E-03 0.  1.
         12    1    3    3    0    0 -0.67937975382E+01  0.29546803792E+01 -0.17548298548E+02  0.19048060349E+02  0.00000000000E+00 0. -1.
</event>
<event>
 7    1  0.3014423E-011  0.5052887E+02  0.7816164E-02  0.1300439E+00
        -11   -1    0    0    0    0  0.00000000000E+00  0.00000000000E+00  0.45593999997E+02  0.45594000000E+02  0.51100000000E-03 0. -1.
         11   -1    0    0    0    0 -0.00000000000E+00 -0.00000000000E+00 -0.45593999997E+02  0.45594000000E+02  0.51100000000E-03 0.  1.
    9900012    2    1    2    0    0  0.21547201984E+02 -0.33751962829E+02 -0.70489939384E+01  0.50528865433E+02  0.30000016971E+02 0.  0.
        -12    1    1    2    0    0 -0.21547201984E+02  0.33751962829E+02  0.70489939384E+01  0.40659134567E+02  0.00000000000E+00 0.  1.
         11    1    3    3    0    0  0.76248732609E+01 -0.46287824331E+01  0.26700603107E+01  0.93109366543E+01  0.51100000000E-03 0. -1.
        -11    1    3    3    0    0  0.10713511929E+02 -0.85619445172E-01 -0.40795483809E+01  0.11464265515E+02  0.51100000000E-03 0.  1.
        -12    1    3    3    0    0  0.32088167938E+01 -0.29037560951E+02 -0.56395058682E+01  0.29753663264E+02  0.00000000000E+00 0.  1.
</event>
<event>
 7    1  0.3014423E-011  0.5052886E+02  0.7816164E-02  0.1300439E+00
        -11   -1    0    0    0    0  0.00000000000E+00  0.00000000000E+00  0.45593999997E+02  0.45594000000E+02  0.51100000000E-03 0. -1.
         11   -1    0    0    0    0 -0.00000000000E+00 -0.00000000000E+00 -0.45593999997E+02  0.45594000000E+02  0.51100000000E-03 0.  1.
    9900012    2    1    2    0    0  0.22557121196E+02  0.32846388953E+02 -0.80905495581E+01  0.50528856181E+02  0.29999988849E+02 0.  0.
        -12    1    1    2    0    0 -0.22557121196E+02 -0.32846388953E+02  0.80905495581E+01  0.40659143819E+02  0.00000000000E+00 0.  1.
         11    1    3    3    0    0  0.72693946397E+01  0.75457514349E+01  0.45172005395E+01  0.11409976517E+02  0.51100000000E-03 0. -1.
        -11    1    3    3    0    0  0.12978146028E+02  0.14447403882E+01 -0.47762563582E+01  0.13904394060E+02  0.51100000000E-03 0.  1.
        -12    1    3    3    0    0  0.23095805282E+01  0.23855897130E+02 -0.78314937394E+01  0.25214485604E+02  0.00000000000E+00 0.  1.
</event>
<event>
 7    1  0.3014423E-011  0.5052885E+02  0.7816164E-02  0.1300439E+00
        -11   -1    0    0    0    0  0.00000000000E+00  0.00000000000E+00  0.45593999997E+02  0.45594000000E+02  0.51100000000E-03 0.  1.
         11   -1    0    0    0    0 -0.00000000000E+00 -0.00000000000E+00 -0.45593999997E+02  0.45594000000E+02  0.51100000000E-03 0. -1.
    9900012    2    1    2    0    0 -0.15860988397E+02  0.28380612963E+02 -0.24415910370E+02  0.50528845751E+02  0.29999957144E+02 0.  0.
        -12    1    1    2    0    0  0.15860988397E+02 -0.28380612963E+02  0.24415910370E+02  0.40659154249E+02  0.00000000000E+00 0.  1.
         11    1    3    3    0    0  0.31204769547E+01  0.46308449701E+01 -0.35283009893E+01  0.66053773317E+01  0.51100000000E-03 0. -1.
        -11    1    3    3    0    0  0.34962766096E+01 -0.12091961890E+01  0.10006171324E+01  0.38324066148E+01  0.51100000000E-03 0.  1.
         12    1    3    3    0    0 -0.22477741962E+02  0.24958964182E+02 -0.21888226513E+02  0.40091061804E+02  0.00000000000E+00 0. -1.
</event>
<event>
 7    1  0.3014423E-011  0.5052886E+02  0.7816164E-02  0.1300439E+00
        -11   -1    0    0    0    0  0.00000000000E+00  0.00000000000E+00  0.45593999997E+02  0.45594000000E+02  0.51100000000E-03 0.  1.
         11   -1    0    0    0    0 -0.00000000000E+00 -0.00000000000E+00 -0.45593999997E+02  0.45594000000E+02  0.51100000000E-03 0. -1.
    9900012    2    1    2    0    0 -0.29592335072E+02 -0.23601457075E+02 -0.14846912604E+02  0.50528857302E+02  0.29999992255E+02 0.  0.
        -12    1    1    2    0    0  0.29592335072E+02  0.23601457075E+02  0.14846912604E+02  0.40659142698E+02  0.00000000000E+00 0.  1.
         11    1    3    3    0    0 -0.12451899523E+02  0.41047922348E+01 -0.75815314519E+01  0.15145254717E+02  0.51100000000E-03 0. -1.
        -11    1    3    3    0    0 -0.19756146069E+01  0.12155843931E+00  0.15213243430E+01  0.24964489874E+01  0.51100000000E-03 0.  1.
         12    1    3    3    0    0 -0.15164820943E+02 -0.27827807749E+02 -0.87867054946E+01  0.32887153598E+02  0.00000000000E+00 0. -1.
</event>
<event>
 7    1  0.3014423E-011  0.5052885E+02  0.7816164E-02  0.1300439E+00
        -11   -1    0    0    0    0  0.00000000000E+00  0.00000000000E+00  0.45593999997E+02  0.45594000000E+02  0.51100000000E-03 0.  1.
         11   -1    0    0    0    0 -0.00000000000E+00 -0.00000000000E+00 -0.45593999997E+02  0.45594000000E+02  0.51100000000E-03 0. -1.
    9900012    2    1    2    0    0 -0.32258493406E+02 -0.22739830477E+02 -0.97701573692E+01  0.50528852665E+02  0.29999978162E+02 0.  0.
        -12    1    1    2    0    0  0.32258493406E+02  0.22739830477E+02  0.97701573692E+01  0.40659147335E+02  0.00000000000E+00 0.  1.
         11    1    3    3    0    0 -0.69045021563E+01 -0.96690456049E+01  0.25517513130E+01  0.12152120307E+02  0.51100000000E-03 0. -1.
        -11    1    3    3    0    0 -0.13700374922E+02 -0.59489634018E+01  0.55059942930E+01  0.15918744045E+02  0.51100000000E-03 0.  1.
         12    1    3    3    0    0 -0.11653616327E+02 -0.71218214704E+01 -0.17827902975E+02  0.22457988313E+02  0.00000000000E+00 0. -1.
</event>
<event>
 7    1  0.3014423E-011  0.5052886E+02  0.7816164E-02  0.1300439E+00
        -11   -1    0    0    0    0  0.00000000000E+00  0.00000000000E+00  0.45593999997E+02  0.45594000000E+02  0.51100000000E-03 0. -1.
         11   -1    0    0    0    0 -0.00000000000E+00 -0.00000000000E+00 -0.45593999997E+02  0.45594000000E+02  0.51100000000E-03 0.  1.
    9900012    2    1    2    0    0 -0.36931837385E+02  0.10772560131E+02 -0.13158921831E+02  0.50528857262E+02  0.29999992134E+02 0.  0.
        -12    1    1    2    0    0  0.36931837385E+02 -0.10772560131E+02  0.13158921831E+02  0.40659142738E+02  0.00000000000E+00 0.  1.
         11    1    3    3    0    0 -0.43156354997E+01 -0.24397046514E+01 -0.58602082122E+01  0.76758653651E+01  0.51100000000E-03 0. -1.
        -11    1    3    3    0    0 -0.13972318947E+02 -0.40306555526E+01 -0.94881334811E+01  0.17363656244E+02  0.51100000000E-03 0.  1.
         12    1    3    3    0    0 -0.18643882938E+02  0.17242920335E+02  0.21894198624E+01  0.25489335653E+02  0.00000000000E+00 0. -1.
</event>
<event>
 7    1  0.3014423E-011  0.5052886E+02  0.7816164E-02  0.1300439E+00
        -11   -1    0    0    0    0  0.00000000000E+00  0.00000000000E+00  0.45593999997E+02  0.45594000000E+02  0.51100000000E-03 0.  1.
         11   -1    0    0    0    0 -0.00000000000E+00 -0.00000000000E+00 -0.45593999997E+02  0.45594000000E+02  0.51100000000E-03 0. -1.
    9900012    2    1    2    0    0  0.28137035690E+02  0.27907374007E+02 -0.90912827558E+01  0.50528859287E+02  0.29999998288E+02 0.  0.
        -12    1    1    2    0    0 -0.28137035690E+02 -0.27907374007E+02  0.90912827558E+01  0.40659140713E+02  0.00000000000E+00 0.  1.
         11    1    3    3    0    0  0.38528296964E+01  0.80387259819E+01 -0.12455657092E+01  0.90009358557E+01  0.51100000000E-03 0. -1.
        -11    1    3    3    0    0  0.23059216716E+02  0.16440015809E+02  0.44835064922E+01  0.28672346016E+02  0.51100000000E-03 0.  1.
        -12    1    3    3    0    0  0.12249892782E+01  0.34286322154E+01 -0.12329223539E+02  0.12855577415E+02  0.00000000000E+00 0.  1.
</event>
<event>
 7    1  0.3014423E-011  0.5052884E+02  0.7816164E-02  0.1300439E+00
        -11   -1    0    0    0    0  0.00000000000E+00  0.00000000000E+00  0.45593999997E+02  0.45594000000E+02  0.51100000000E-03 0.  1.
         11   -1    0    0    0    0 -0.00000000000E+00 -0.00000000000E+00 -0.45593999997E+02  0.45594000000E+02  0.51100000000E-03 0. -1.
    9900012    2    1    2    0    0  0.16779760356E+02  0.32598690048E+02 -0.17576471763E+02  0.50528839776E+02  0.29999938984E+02 0.  0.
        -12    1    1    2    0    0 -0.16779760356E+02 -0.32598690048E+02  0.17576471763E+02  0.40659160224E+02  0.00000000000E+00 0.  1.
         11    1    3    3    0    0  0.42549415844E+01  0.71083487907E+01 -0.15866854371E+01  0.84350886987E+01  0.51100000000E-03 0. -1.
        -11    1    3    3    0    0  0.18473051618E+02  0.26600350711E+02 -0.15813559427E+02  0.36040268534E+02  0.51100000000E-03 0.  1.
        -12    1    3    3    0    0 -0.59482328466E+01 -0.11100094533E+01 -0.17622689887E+00  0.60534825435E+01  0.00000000000E+00 0.  1.
</event>
<event>
 7    1  0.3014423E-011  0.5052887E+02  0.7816164E-02  0.1300439E+00
        -11   -1    0    0    0    0  0.00000000000E+00  0.00000000000E+00  0.45593999997E+02  0.45594000000E+02  0.51100000000E-03 0.  1.
         11   -1    0    0    0    0 -0.00000000000E+00 -0.00000000000E+00 -0.45593999997E+02  0.45594000000E+02  0.51100000000E-03 0. -1.
    9900012    2    1    2    0    0  0.33252060379E+02  0.23300984861E+02 -0.21283380937E+01  0.50528865257E+02  0.30000016436E+02 0.  0.
        -12    1    1    2    0    0 -0.33252060379E+02 -0.23300984861E+02  0.21283380937E+01  0.40659134743E+02  0.00000000000E+00 0.  1.
         11    1    3    3    0    0  0.82857988682E+01  0.10973097145E+02 -0.79892034106E+01  0.15902537384E+02  0.51100000000E-03 0. -1.
        -11    1    3    3    0    0  0.16855773391E+02  0.15425284888E+02 -0.19716957959E+01  0.22933471064E+02  0.51100000000E-03 0.  1.
        -12    1    3    3    0    0  0.81104881197E+01 -0.30973971716E+01  0.78325611128E+01  0.11692856809E+02  0.00000000000E+00 0.  1.
</event>
<event>
 7    1  0.3014423E-011  0.5052886E+02  0.7816164E-02  0.1300439E+00
        -11   -1    0    0    0    0  0.00000000000E+00  0.00000000000E+00  0.45593999997E+02  0.45594000000E+02  0.51100000000E-03 0.  1.
         11   -1    0    0    0    0 -0.00000000000E+00 -0.00000000000E+00 -0.45593999997E+02  0.45594000000E+02  0.51100000000E-03 0. -1.
    9900012    2    1    2    0    0  0.13033399610E+02  0.35590094995E+01 -0.38348789386E+02  0.50528859559E+02  0.29999999116E+02 0.  0.
        -12    1    1    2    0    0 -0.13033399610E+02 -0.35590094995E+01  0.38348789386E+02  0.40659140441E+02  0.00000000000E+00 0.  1.
         11    1    3    3    0    0  0.13725142419E+02  0.73056047599E+01 -0.29217606123E+02  0.33097128322E+02  0.51100000000E-03 0. -1.
        -11    1    3    3    0    0  0.30775817302E+01  0.46830285501E+01 -0.31243261552E+01  0.64158927588E+01  0.51100000000E-03 0.  1.
         12    1    3    3    0    0 -0.37693245394E+01 -0.84296238105E+01 -0.60068571084E+01  0.11015838479E+02  0.00000000000E+00 0. -1.
</event>
<event>
 7    1  0.3014423E-011  0.5052887E+02  0.7816164E-02  0.1300439E+00
        -11   -1    0    0    0    0  0.00000000000E+00  0.00000000000E+00  0.45593999997E+02  0.45594000000E+02  0.51100000000E-03 0.  1.
         11   -1    0    0    0    0 -0.00000000000E+00 -0.00000000000E+00 -0.45593999997E+02  0.45594000000E+02  0.51100000000E-03 0. -1.
    9900012    2    1    2    0    0  0.17836739960E+02 -0.36273865400E+02  0.43843082208E+01  0.50528871111E+02  0.30000034230E+02 0.  0.
        -12    1    1    2    0    0 -0.17836739960E+02  0.36273865400E+02 -0.43843082208E+01  0.40659128889E+02  0.00000000000E+00 0.  1.
         11    1    3    3    0    0 -0.41075850556E+01 -0.12487604030E+02  0.41881474687E+00  0.13152487044E+02  0.51100000000E-03 0. -1.
        -11    1    3    3    0    0  0.60605130568E+01 -0.37684850027E+01 -0.66034480810E+01  0.97230049134E+01  0.51100000000E-03 0.  1.
        -12    1    3    3    0    0  0.15883811958E+02 -0.20017776367E+02  0.10568941555E+02  0.27653379153E+02  0.00000000000E+00 0.  1.
</event>
<event>
 7    1  0.3014423E-011  0.5052886E+02  0.7816164E-02  0.1300439E+00
        -11   -1    0    0    0    0  0.00000000000E+00  0.00000000000E+00  0.45593999997E+02  0.45594000000E+02  0.51100000000E-03 0. -1.
         11   -1    0    0    0    0 -0.00000000000E+00 -0.00000000000E+00 -0.45593999997E+02  0.45594000000E+02  0.51100000000E-03 0.  1.
    9900012    2    1    2    0    0 -0.16051932450E+02 -0.30853382994E+02  0.21061102841E+02  0.50528857972E+02  0.29999994293E+02 0.  0.
        -12    1    1    2    0    0  0.16051932450E+02  0.30853382994E+02 -0.21061102841E+02  0.40659142028E+02  0.00000000000E+00 0.  1.
         11    1    3    3    0    0 -0.82331303783E+01 -0.14983774308E+02  0.10366229055E+02  0.19993914910E+02  0.51100000000E-03 0. -1.
        -11    1    3    3    0    0 -0.58923302892E+01 -0.19468357076E+02  0.14063663829E+01  0.20389074284E+02  0.51100000000E-03 0.  1.
        -12    1    3    3    0    0 -0.19264717824E+01  0.35987483901E+01  0.92885074025E+01  0.10145868778E+02  0.00000000000E+00 0.  1.
</event>
<event>
 7    1  0.3014423E-011  0.5052881E+02  0.7816164E-02  0.1300439E+00
        -11   -1    0    0    0    0  0.00000000000E+00  0.00000000000E+00  0.45593999997E+02  0.45594000000E+02  0.51100000000E-03 0. -1.
         11   -1    0    0    0    0 -0.00000000000E+00 -0.00000000000E+00 -0.45593999997E+02  0.45594000000E+02  0.51100000000E-03 0.  1.
    9900012    2    1    2    0    0 -0.36202227391E+02  0.17779091588E+02  0.51451050248E+01  0.50528813197E+02  0.29999858194E+02 0.  0.
        -12    1    1    2    0    0  0.36202227391E+02 -0.17779091588E+02 -0.51451050248E+01  0.40659186803E+02  0.00000000000E+00 0.  1.
         11    1    3    3    0    0 -0.22945974882E+01  0.75935808764E+01  0.54283800793E+01  0.96122296428E+01  0.51100000000E-03 0. -1.
        -11    1    3    3    0    0 -0.54089751638E+01  0.11042996169E+02 -0.14464383510E+01  0.12381314989E+02  0.51100000000E-03 0.  1.
         12    1    3    3    0    0 -0.28498654739E+02 -0.85748545711E+00  0.11631632965E+01  0.28535268565E+02  0.00000000000E+00 0. -1.
</event>
<event>
 7    1  0.3014423E-011  0.5052887E+02  0.7816164E-02  0.1300439E+00
        -11   -1    0    0    0    0  0.00000000000E+00  0.00000000000E+00  0.45593999997E+02  0.45594000000E+02  0.51100000000E-03 0.  1.
         11   -1    0    0    0    0 -0.00000000000E+00 -0.00000000000E+00 -0.45593999997E+02  0.45594000000E+02  0.51100000000E-03 0. -1.
    9900012    2    1    2    0    0  0.78448357129E+01 -0.38646118042E+02 -0.99046130293E+01  0.50528865155E+02  0.30000016125E+02 0.  0.
        -12    1    1    2    0    0 -0.78448357129E+01  0.38646118042E+02  0.99046130293E+01  0.40659134845E+02  0.00000000000E+00 0.  1.
         11    1    3    3    0    0  0.57509909761E+01  0.51350927300E+00 -0.21757330682E+01  0.61702028837E+01  0.51100000000E-03 0. -1.
        -11    1    3    3    0    0 -0.15712782363E+01  0.15002270300E+01  0.13214673187E+01  0.25428080095E+01  0.51100000000E-03 0.  1.
         12    1    3    3    0    0  0.36651229731E+01 -0.40659854345E+02 -0.90503472799E+01  0.41815854262E+02  0.00000000000E+00 0. -1.
</event>
<event>
 7    1  0.3014423E-011  0.5052882E+02  0.7816164E-02  0.1300439E+00
        -11   -1    0    0    0    0  0.00000000000E+00  0.00000000000E+00  0.45593999997E+02  0.45594000000E+02  0.51100000000E-03 0.  1.
         11   -1    0    0    0    0 -0.00000000000E+00 -0.00000000000E+00 -0.45593999997E+02  0.45594000000E+02  0.51100000000E-03 0. -1.
    9900012    2    1    2    0    0  0.27454920229E+02  0.13634939330E+02 -0.26711133104E+02  0.50528820876E+02  0.29999881535E+02 0.  0.
        -12    1    1    2    0    0 -0.27454920229E+02 -0.13634939330E+02  0.26711133104E+02  0.40659179124E+02  0.00000000000E+00 0.  1.
         11    1    3    3    0    0  0.90242684259E+01  0.59769333822E+01 -0.12193116834E+02  0.16304393631E+02  0.51100000000E-03 0. -1.
        -11    1    3    3    0    0  0.12812579734E+02  0.15994522510E+02 -0.12393063224E+02  0.23949425173E+02  0.51100000000E-03 0.  1.
        -12    1    3    3    0    0  0.56180720685E+01 -0.83365165616E+01 -0.21249530461E+01  0.10275002073E+02  0.00000000000E+00 0.  1.
</event>
<event>
 7    1  0.3014423E-011  0.5052886E+02  0.7816164E-02  0.1300439E+00
        -11   -1    0    0    0    0  0.00000000000E+00  0.00000000000E+00  0.45593999997E+02  0.45594000000E+02  0.51100000000E-03 0.  1.
         11   -1    0    0    0    0 -0.00000000000E+00 -0.00000000000E+00 -0.45593999997E+02  0.45594000000E+02  0.51100000000E-03 0. -1.
    9900012    2    1    2    0    0 -0.33455108094E+02 -0.22462523918E+02  0.54181475178E+01  0.50528861287E+02  0.30000004367E+02 0.  0.
        -12    1    1    2    0    0  0.33455108094E+02  0.22462523918E+02 -0.54181475178E+01  0.40659138713E+02  0.00000000000E+00 0.  1.
         11    1    3    3    0    0 -0.11207891310E+02 -0.20210607395E+02 -0.53272891329E+00  0.23116428773E+02  0.51100000000E-03 0. -1.
        -11    1    3    3    0    0 -0.11345953726E+02 -0.85152367445E+01  0.30853790239E+01  0.14517557878E+02  0.51100000000E-03 0.  1.
        -12    1    3    3    0    0 -0.10901263059E+02  0.62633202210E+01  0.28654974072E+01  0.12894874635E+02  0.00000000000E+00 0.  1.
</event>
<event>
 7    1  0.3014423E-011  0.5052886E+02  0.7816164E-02  0.1300439E+00
        -11   -1    0    0    0    0  0.00000000000E+00  0.00000000000E+00  0.45593999997E+02  0.45594000000E+02  0.51100000000E-03 0. -1.
         11   -1    0    0    0    0 -0.00000000000E+00 -0.00000000000E+00 -0.45593999997E+02  0.45594000000E+02  0.51100000000E-03 0.  1.
    9900012    2    1    2    0    0 -0.11388444644E+02 -0.18673910408E+02  0.34274684690E+02  0.50528860659E+02  0.30000002459E+02 0.  0.
        -12    1    1    2    0    0  0.11388444644E+02  0.18673910408E+02 -0.34274684690E+02  0.40659139341E+02  0.00000000000E+00 0.  1.
         11    1    3    3    0    0 -0.10630398769E+02 -0.16962669341E+02  0.12689460348E+02  0.23701475341E+02  0.51100000000E-03 0. -1.
        -11    1    3    3    0    0 -0.66039389035E+01 -0.22254403612E+01  0.34692726108E+01  0.77846288640E+01  0.51100000000E-03 0.  1.
        -12    1    3    3    0    0  0.58458930284E+01  0.51419929427E+00  0.18115951732E+02  0.19042756454E+02  0.00000000000E+00 0.  1.
</event>
<event>
 7    1  0.3014423E-011  0.5052886E+02  0.7816164E-02  0.1300439E+00
        -11   -1    0    0    0    0  0.00000000000E+00  0.00000000000E+00  0.45593999997E+02  0.45594000000E+02  0.51100000000E-03 0.  1.
         11   -1    0    0    0    0 -0.00000000000E+00 -0.00000000000E+00 -0.45593999997E+02  0.45594000000E+02  0.51100000000E-03 0. -1.
    9900012    2    1    2    0    0  0.37714096712E+02 -0.15079529837E+02 -0.18493645186E+01  0.50528862527E+02  0.30000008138E+02 0.  0.
        -12    1    1    2    0    0 -0.37714096712E+02  0.15079529837E+02  0.18493645186E+01  0.40659137473E+02  0.00000000000E+00 0.  1.
         11    1    3    3    0    0  0.19189714612E+02 -0.14171333115E+02 -0.22989456438E+00  0.23856334189E+02  0.51100000000E-03 0. -1.
        -11    1    3    3    0    0  0.48380384771E+01 -0.92000333680E+01  0.10564682577E+01  0.10448126900E+02  0.51100000000E-03 0.  1.
         12    1    3    3    0    0  0.13686343623E+02  0.82918366458E+01 -0.26759382119E+01  0.16224401439E+02  0.00000000000E+00 0. -1.
</event>
<event>
 7    1  0.3014423E-011  0.5052886E+02  0.7816164E-02  0.1300439E+00
        -11   -1    0    0    0    0  0.00000000000E+00  0.00000000000E+00  0.45593999997E+02  0.45594000000E+02  0.51100000000E-03 0.  1.
         11   -1    0    0    0    0 -0.00000000000E+00 -0.00000000000E+00 -0.45593999997E+02  0.45594000000E+02  0.51100000000E-03 0. -1.
    9900012    2    1    2    0    0  0.10283435023E+02  0.88316976855E+00 -0.39327303597E+02  0.50528857941E+02  0.29999994199E+02 0.  0.
        -12    1    1    2    0    0 -0.10283435023E+02 -0.88316976855E+00  0.39327303597E+02  0.40659142059E+02  0.00000000000E+00 0.  1.
         11    1    3    3    0    0  0.22238378201E+01  0.31972685741E+01 -0.20849620301E+02  0.21210248654E+02  0.51100000000E-03 0. -1.
        -11    1    3    3    0    0 -0.64008101630E+00 -0.44789065686E+01 -0.19751963565E+02  0.20263523205E+02  0.51100000000E-03 0.  1.
        -12    1    3    3    0    0  0.86996782187E+01  0.21648077631E+01  0.12742802686E+01  0.90550860826E+01  0.00000000000E+00 0.  1.
</event>
<event>
 7    1  0.3014423E-011  0.5052888E+02  0.7816164E-02  0.1300439E+00
        -11   -1    0    0    0    0  0.00000000000E+00  0.00000000000E+00  0.45593999997E+02  0.45594000000E+02  0.51100000000E-03 0.  1.
         11   -1    0    0    0    0 -0.00000000000E+00 -0.00000000000E+00 -0.45593999997E+02  0.45594000000E+02  0.51100000000E-03 0. -1.
    9900012    2    1    2    0    0 -0.20533238262E+02 -0.35087388887E+02 -0.65235264616E+00  0.50528876837E+02  0.30000051632E+02 0.  0.
        -12    1    1    2    0    0  0.20533238262E+02  0.35087388887E+02  0.65235264616E+00  0.40659123163E+02  0.00000000000E+00 0.  1.
         11    1    3    3    0    0 -0.17673671893E+02 -0.31300999353E+02 -0.44947398004E+01  0.36225873693E+02  0.51100000000E-03 0. -1.
        -11    1    3    3    0    0 -0.62037619747E+01 -0.55957038470E+00  0.64562137828E+01  0.89712027245E+01  0.51100000000E-03 0.  1.
        -12    1    3    3    0    0  0.33441956051E+01 -0.32268191494E+01 -0.26138266285E+01  0.53318004194E+01  0.00000000000E+00 0.  1.
</event>
<event>
 7    1  0.3014423E-011  0.5052887E+02  0.7816164E-02  0.1300439E+00
        -11   -1    0    0    0    0  0.00000000000E+00  0.00000000000E+00  0.45593999997E+02  0.45594000000E+02  0.51100000000E-03 0.  1.
         11   -1    0    0    0    0 -0.00000000000E+00 -0.00000000000E+00 -0.45593999997E+02  0.45594000000E+02  0.51100000000E-03 0. -1.
    9900012    2    1    2    0    0 -0.21544789405E+02  0.79008493478E+01 -0.33564323605E+02  0.50528865848E+02  0.30000018230E+02 0.  0.
        -12    1    1    2    0    0  0.21544789405E+02 -0.79008493478E+01  0.33564323605E+02  0.40659134152E+02  0.00000000000E+00 0.  1.
         11    1    3    3    0    0  0.80417277590E-01 -0.56886829106E+01 -0.90854833632E+01  0.10719775576E+02  0.51100000000E-03 0. -1.
        -11    1    3    3    0    0  0.30284227171E+01  0.27440789825E+01 -0.55360321306E+01  0.68810584671E+01  0.51100000000E-03 0.  1.
        -12    1    3    3    0    0 -0.24653629400E+02  0.10845453276E+02 -0.18942808112E+02  0.32928031804E+02  0.00000000000E+00 0.  1.
</event>
<event>
 7    1  0.3014423E-011  0.5052887E+02  0.7816164E-02  0.1300439E+00
        -11   -1    0    0    0    0  0.00000000000E+00  0.00000000000E+00  0.45593999997E+02  0.45594000000E+02  0.51100000000E-03 0.  1.
         11   -1    0    0    0    0 -0.00000000000E+00 -0.00000000000E+00 -0.45593999997E+02  0.45594000000E+02  0.51100000000E-03 0. -1.
    9900012    2    1    2    0    0  0.14828297237E+01  0.83002321009E+01 -0.39775274652E+02  0.50528866825E+02  0.30000021202E+02 0.  0.
        -12    1    1    2    0    0 -0.14828297237E+01 -0.83002321009E+01  0.39775274652E+02  0.40659133175E+02  0.00000000000E+00 0.  1.
         11    1    3    3    0    0 -0.11634412932E+01  0.53245919056E+01 -0.14944315984E+02  0.15907151068E+02  0.51100000000E-03 0. -1.
        -11    1    3    3    0    0  0.88845030931E+01  0.10867913475E+02 -0.15299097882E+02  0.20763148480E+02  0.51100000000E-03 0.  1.
        -12    1    3    3    0    0 -0.62382320762E+01 -0.78922732797E+01 -0.95318607853E+01  0.13858567278E+02  0.00000000000E+00 0.  1.
</event>
<event>
 7    1  0.3014423E-011  0.5052887E+02  0.7816164E-02  0.1300439E+00
        -11   -1    0    0    0    0  0.00000000000E+00  0.00000000000E+00  0.45593999997E+02  0.45594000000E+02  0.51100000000E-03 0.  1.
         11   -1    0    0    0    0 -0.00000000000E+00 -0.00000000000E+00 -0.45593999997E+02  0.45594000000E+02  0.51100000000E-03 0. -1.
    9900012    2    1    2    0    0  0.22913557110E+02 -0.17425075124E+02 -0.28714118735E+02  0.50528868710E+02  0.30000026931E+02 0.  0.
        -12    1    1    2    0    0 -0.22913557110E+02  0.17425075124E+02  0.28714118735E+02  0.40659131290E+02  0.00000000000E+00 0.  1.
         11    1    3    3    0    0  0.21002275107E+01  0.22876312201E+01 -0.31516719360E+00  0.31214648512E+01  0.51100000000E-03 0. -1.
        -11    1    3    3    0    0 -0.53754862288E+01 -0.40679741184E+01 -0.19116442334E+01  0.70070428541E+01  0.51100000000E-03 0.  1.
         12    1    3    3    0    0  0.26188815828E+02 -0.15644732226E+02 -0.26487307308E+02  0.40400361005E+02  0.00000000000E+00 0. -1.
</event>
<event>
 7    1  0.3014423E-011  0.5052898E+02  0.7816164E-02  0.1300438E+00
        -11   -1    0    0    0    0  0.00000000000E+00  0.00000000000E+00  0.45593999997E+02  0.45594000000E+02  0.51100000000E-03 0.  1.
         11   -1    0    0    0    0 -0.00000000000E+00 -0.00000000000E+00 -0.45593999997E+02  0.45594000000E+02  0.51100000000E-03 0. -1.
    9900012    2    1    2    0    0  0.29498046421E+02  0.22820037888E+02 -0.16194662780E+02  0.50528979175E+02  0.30000362699E+02 0.  0.
        -12    1    1    2    0    0 -0.29498046421E+02 -0.22820037888E+02  0.16194662780E+02  0.40659020825E+02  0.00000000000E+00 0.  1.
         11    1    3    3    0    0  0.11476880614E+02  0.90548553363E+01 -0.17481248882E+01  0.14722945856E+02  0.51100000000E-03 0.  1.
        -11    1    3    3    0    0  0.65312012143E+01  0.18996167484E+02 -0.98294323158E+01  0.22363557595E+02  0.51100000000E-03 0. -1.
        -12    1    3    3    0    0  0.11489964592E+02 -0.52309849324E+01 -0.46171055759E+01  0.13442475724E+02  0.00000000000E+00 0.  1.
</event>
<event>
 7    1  0.3014423E-011  0.5052886E+02  0.7816164E-02  0.1300439E+00
        -11   -1    0    0    0    0  0.00000000000E+00  0.00000000000E+00  0.45593999997E+02  0.45594000000E+02  0.51100000000E-03 0.  1.
         11   -1    0    0    0    0 -0.00000000000E+00 -0.00000000000E+00 -0.45593999997E+02  0.45594000000E+02  0.51100000000E-03 0. -1.
    9900012    2    1    2    0    0 -0.37057226679E+02 -0.83605641410E+00 -0.16710142252E+02  0.50528857196E+02  0.29999991933E+02 0.  0.
        -12    1    1    2    0    0  0.37057226679E+02  0.83605641410E+00  0.16710142252E+02  0.40659142804E+02  0.00000000000E+00 0.  1.
         11    1    3    3    0    0  0.94168565936E+00  0.74236268015E+00 -0.18774687339E+01  0.22277260464E+01  0.51100000000E-03 0.  1.
        -11    1    3    3    0    0 -0.23664597859E+02  0.97909801086E+01 -0.15603536889E+02  0.29989112141E+02  0.51100000000E-03 0. -1.
        -12    1    3    3    0    0 -0.14334314480E+02 -0.11369399203E+02  0.77086337095E+00  0.18312019009E+02  0.00000000000E+00 0.  1.
</event>
<event>
 7    1  0.3014423E-011  0.5052883E+02  0.7816164E-02  0.1300439E+00
        -11   -1    0    0    0    0  0.00000000000E+00  0.00000000000E+00  0.45593999997E+02  0.45594000000E+02  0.51100000000E-03 0. -1.
         11   -1    0    0    0    0 -0.00000000000E+00 -0.00000000000E+00 -0.45593999997E+02  0.45594000000E+02  0.51100000000E-03 0.  1.
    9900012    2    1    2    0    0 -0.19063803506E+02  0.72248483330E+01  0.35178696726E+02  0.50528834478E+02  0.29999922881E+02 0.  0.
        -12    1    1    2    0    0  0.19063803506E+02 -0.72248483330E+01 -0.35178696726E+02  0.40659165522E+02  0.00000000000E+00 0.  1.
         11    1    3    3    0    0 -0.15564965247E+01  0.79821224222E+01  0.11479798142E+01  0.82130881957E+01  0.51100000000E-03 0. -1.
        -11    1    3    3    0    0 -0.40944407358E+01  0.44607923236E+01  0.80677809991E+00  0.61085189905E+01  0.51100000000E-03 0.  1.
         12    1    3    3    0    0 -0.13412866245E+02 -0.52180664129E+01  0.33223938812E+02  0.36207227292E+02  0.00000000000E+00 0. -1.
</event>
<event>
 7    1  0.3014423E-011  0.5052886E+02  0.7816164E-02  0.1300439E+00
        -11   -1    0    0    0    0  0.00000000000E+00  0.00000000000E+00  0.45593999997E+02  0.45594000000E+02  0.51100000000E-03 0.  1.
         11   -1    0    0    0    0 -0.00000000000E+00 -0.00000000000E+00 -0.45593999997E+02  0.45594000000E+02  0.51100000000E-03 0. -1.
    9900012    2    1    2    0    0 -0.13412194822E+02  0.19693570032E+01 -0.38332760035E+02  0.50528857992E+02  0.29999994352E+02 0.  0.
        -12    1    1    2    0    0  0.13412194822E+02 -0.19693570032E+01  0.38332760035E+02  0.40659142008E+02  0.00000000000E+00 0.  1.
         11    1    3    3    0    0  0.21288179800E+01  0.92626405807E+00 -0.36500113074E+00  0.23501185467E+01  0.51100000000E-03 0. -1.
        -11    1    3    3    0    0 -0.23206473000E+01  0.96044248329E+01 -0.38564376254E+01  0.10606719176E+02  0.51100000000E-03 0.  1.
         12    1    3    3    0    0 -0.13220365502E+02 -0.85613318878E+01 -0.34111321279E+02  0.37572020269E+02  0.00000000000E+00 0. -1.
</event>
<event>
 7    1  0.3014423E-011  0.5052886E+02  0.7816164E-02  0.1300439E+00
        -11   -1    0    0    0    0  0.00000000000E+00  0.00000000000E+00  0.45593999997E+02  0.45594000000E+02  0.51100000000E-03 0. -1.
         11   -1    0    0    0    0 -0.00000000000E+00 -0.00000000000E+00 -0.45593999997E+02  0.45594000000E+02  0.51100000000E-03 0.  1.
    9900012    2    1    2    0    0 -0.36975496522E+02 -0.12297411091E+02  0.11608282659E+02  0.50528857254E+02  0.29999992108E+02 0.  0.
        -12    1    1    2    0    0  0.36975496522E+02  0.12297411091E+02 -0.11608282659E+02  0.40659142746E+02  0.00000000000E+00 0.  1.
         11    1    3    3    0    0 -0.15360517831E+02 -0.10252473802E+02  0.13995868422E+02  0.23172031855E+02  0.51100000000E-03 0. -1.
        -11    1    3    3    0    0  0.15643847028E+01 -0.20177481861E+01  0.26031782134E+01  0.36462507199E+01  0.51100000000E-03 0.  1.
         12    1    3    3    0    0 -0.23179363393E+02 -0.27189102968E-01 -0.49907639763E+01  0.23710574679E+02  0.00000000000E+00 0. -1.
</event>
<event>
 7    1  0.3014423E-011  0.5052886E+02  0.7816164E-02  0.1300439E+00
        -11   -1    0    0    0    0  0.00000000000E+00  0.00000000000E+00  0.45593999997E+02  0.45594000000E+02  0.51100000000E-03 0.  1.
         11   -1    0    0    0    0 -0.00000000000E+00 -0.00000000000E+00 -0.45593999997E+02  0.45594000000E+02  0.51100000000E-03 0. -1.
    9900012    2    1    2    0    0  0.34262302948E+02 -0.11497034955E+01 -0.21861806463E+02  0.50528858306E+02  0.29999995307E+02 0.  0.
        -12    1    1    2    0    0 -0.34262302948E+02  0.11497034955E+01  0.21861806463E+02  0.40659141694E+02  0.00000000000E+00 0.  1.
         11    1    3    3    0    0 -0.37650509850E+00  0.20627913656E+01 -0.57905089791E+01  0.61584786113E+01  0.51100000000E-03 0. -1.
        -11    1    3    3    0    0  0.67116894611E+01 -0.39597012312E+01 -0.14412179339E+02  0.16384044764E+02  0.51100000000E-03 0.  1.
        -12    1    3    3    0    0  0.27927118586E+02  0.74720637009E+00 -0.16591181454E+01  0.27986334931E+02  0.00000000000E+00 0.  1.
</event>
<event>
 7    1  0.3014423E-011  0.5052886E+02  0.7816164E-02  0.1300439E+00
        -11   -1    0    0    0    0  0.00000000000E+00  0.00000000000E+00  0.45593999997E+02  0.45594000000E+02  0.51100000000E-03 0.  1.
         11   -1    0    0    0    0 -0.00000000000E+00 -0.00000000000E+00 -0.45593999997E+02  0.45594000000E+02  0.51100000000E-03 0. -1.
    9900012    2    1    2    0    0 -0.10133872986E+02 -0.38677201581E+02 -0.73854245283E+01  0.50528858355E+02  0.29999995457E+02 0.  0.
        -12    1    1    2    0    0  0.10133872986E+02  0.38677201581E+02  0.73854245283E+01  0.40659141645E+02  0.00000000000E+00 0.  1.
         11    1    3    3    0    0 -0.32095791671E+00 -0.10951568797E+02 -0.12786742475E+02  0.16838665520E+02  0.51100000000E-03 0. -1.
        -11    1    3    3    0    0 -0.10772159549E+02 -0.18006709140E+02 -0.24956221325E+01  0.21130762540E+02  0.51100000000E-03 0.  1.
        -12    1    3    3    0    0  0.95924447982E+00 -0.97189236433E+01  0.78969400788E+01  0.12559430296E+02  0.00000000000E+00 0.  1.
</event>
<event>
 7    1  0.3014423E-011  0.5052886E+02  0.7816164E-02  0.1300439E+00
        -11   -1    0    0    0    0  0.00000000000E+00  0.00000000000E+00  0.45593999997E+02  0.45594000000E+02  0.51100000000E-03 0. -1.
         11   -1    0    0    0    0 -0.00000000000E+00 -0.00000000000E+00 -0.45593999997E+02  0.45594000000E+02  0.51100000000E-03 0.  1.
    9900012    2    1    2    0    0  0.10633526973E+02  0.26344153034E+02 -0.29087443804E+02  0.50528859797E+02  0.29999999840E+02 0.  0.
        -12    1    1    2    0    0 -0.10633526973E+02 -0.26344153034E+02  0.29087443804E+02  0.40659140203E+02  0.00000000000E+00 0.  1.
         11    1    3    3    0    0  0.49183355171E+01 -0.25747316748E+00 -0.24915696977E+01  0.55194416847E+01  0.51100000000E-03 0. -1.
        -11    1    3    3    0    0  0.68705341608E+01  0.19055604124E+02 -0.30360504801E+02  0.36497678560E+02  0.51100000000E-03 0.  1.
         12    1    3    3    0    0 -0.11553427049E+01  0.75460220770E+01  0.37646306948E+01  0.85117395532E+01  0.00000000000E+00 0. -1.
</event>
<event>
 7    1  0.3501840E-011  0.5052886E+02  0.7816164E-02  0.1300439E+00
        -11   -1    0    0    0    0  0.00000000000E+00  0.00000000000E+00  0.45593999997E+02  0.45594000000E+02  0.51100000000E-03 0.  1.
         11   -1    0    0    0    0 -0.00000000000E+00 -0.00000000000E+00 -0.45593999997E+02  0.45594000000E+02  0.51100000000E-03 0. -1.
    9900012    2    1    2    0    0 -0.97639694032E+01  0.38036117649E+02 -0.10539654134E+02  0.50528860147E+02  0.30000000902E+02 0.  0.
        -12    1    1    2    0    0  0.97639694032E+01 -0.38036117649E+02  0.10539654134E+02  0.40659139853E+02  0.00000000000E+00 0.  1.
         11    1    3    3    0    0 -0.66510052476E+01  0.61270936709E+01  0.33221688660E+01  0.96339998905E+01  0.51100000000E-03 0. -1.
        -11    1    3    3    0    0  0.82303377703E+01  0.62654269287E+01 -0.49892919341E+01  0.11484209536E+02  0.51100000000E-03 0.  1.
         12    1    3    3    0    0 -0.11343301926E+02  0.25643597050E+02 -0.88725310660E+01  0.29410650720E+02  0.00000000000E+00 0. -1.
</event>
<event>
 7    1  0.3014423E-011  0.5052885E+02  0.7816164E-02  0.1300439E+00
        -11   -1    0    0    0    0  0.00000000000E+00  0.00000000000E+00  0.45593999997E+02  0.45594000000E+02  0.51100000000E-03 0.  1.
         11   -1    0    0    0    0 -0.00000000000E+00 -0.00000000000E+00 -0.45593999997E+02  0.45594000000E+02  0.51100000000E-03 0. -1.
    9900012    2    1    2    0    0  0.24499161575E+02 -0.87917102387E+01 -0.31235615135E+02  0.50528846791E+02  0.29999960307E+02 0.  0.
        -12    1    1    2    0    0 -0.24499161575E+02  0.87917102387E+01  0.31235615135E+02  0.40659153209E+02  0.00000000000E+00 0.  1.
         11    1    3    3    0    0  0.56166142679E+01 -0.33225239946E+01 -0.11158672402E+02  0.12926774214E+02  0.51100000000E-03 0. -1.
        -11    1    3    3    0    0  0.59205395858E+01  0.39080236849E+01 -0.20402315335E+02  0.21600460861E+02  0.51100000000E-03 0.  1.
        -12    1    3    3    0    0  0.12962007721E+02 -0.93772099291E+01  0.32537260224E+00  0.16001611717E+02  0.00000000000E+00 0.  1.
</event>
<event>
 7    1  0.3014423E-011  0.5052888E+02  0.7816164E-02  0.1300439E+00
        -11   -1    0    0    0    0  0.00000000000E+00  0.00000000000E+00  0.45593999997E+02  0.45594000000E+02  0.51100000000E-03 0.  1.
         11   -1    0    0    0    0 -0.00000000000E+00 -0.00000000000E+00 -0.45593999997E+02  0.45594000000E+02  0.51100000000E-03 0. -1.
    9900012    2    1    2    0    0 -0.23221351436E+02 -0.15637063323E+02 -0.29485846882E+02  0.50528879520E+02  0.30000059789E+02 0.  0.
        -12    1    1    2    0    0  0.23221351436E+02  0.15637063323E+02  0.29485846882E+02  0.40659120480E+02  0.00000000000E+00 0.  1.
         11    1    3    3    0    0 -0.17581615556E+02 -0.60853001778E+01 -0.12644323796E+02  0.22494955175E+02  0.51100000000E-03 0. -1.
        -11    1    3    3    0    0 -0.94130965057E+01 -0.10689978222E+02 -0.42863102727E+01  0.14874625246E+02  0.51100000000E-03 0.  1.
         12    1    3    3    0    0  0.37733606257E+01  0.11382150767E+01 -0.12555212814E+02  0.13159299099E+02  0.00000000000E+00 0. -1.
</event>
<event>
 7    1  0.3014423E-011  0.5052885E+02  0.7816164E-02  0.1300439E+00
        -11   -1    0    0    0    0  0.00000000000E+00  0.00000000000E+00  0.45593999997E+02  0.45594000000E+02  0.51100000000E-03 0.  1.
         11   -1    0    0    0    0 -0.00000000000E+00 -0.00000000000E+00 -0.45593999997E+02  0.45594000000E+02  0.51100000000E-03 0. -1.
    9900012    2    1    2    0    0 -0.19246051273E+02  0.12645509005E+02 -0.33508906644E+02  0.50528853279E+02  0.29999980027E+02 0.  0.
        -12    1    1    2    0    0  0.19246051273E+02 -0.12645509005E+02  0.33508906644E+02  0.40659146721E+02  0.00000000000E+00 0.  1.
         11    1    3    3    0    0 -0.21168144272E+02  0.75535982685E+01 -0.27449591827E+02  0.35477137293E+02  0.51100000000E-03 0. -1.
        -11    1    3    3    0    0 -0.29075139300E+01 -0.95236110505E+00 -0.66218398347E+01  0.72944768136E+01  0.51100000000E-03 0.  1.
        -12    1    3    3    0    0  0.48296069290E+01  0.60442718420E+01  0.56252501851E+00  0.77572391728E+01  0.00000000000E+00 0.  1.
</event>
<event>
 7    1  0.3014423E-011  0.5052886E+02  0.7816164E-02  0.1300439E+00
        -11   -1    0    0    0    0  0.00000000000E+00  0.00000000000E+00  0.45593999997E+02  0.45594000000E+02  0.51100000000E-03 0.  1.
         11   -1    0    0    0    0 -0.00000000000E+00 -0.00000000000E+00 -0.45593999997E+02  0.45594000000E+02  0.51100000000E-03 0. -1.
    9900012    2    1    2    0    0 -0.24831730001E+02 -0.34715095959E+01 -0.32007809228E+02  0.50528855330E+02  0.29999986262E+02 0.  0.
        -12    1    1    2    0    0  0.24831730001E+02  0.34715095959E+01  0.32007809228E+02  0.40659144670E+02  0.00000000000E+00 0.  1.
         11    1    3    3    0    0 -0.45632840941E+01  0.58317770376E+01 -0.15034976107E+02  0.16759585077E+02  0.51100000000E-03 0. -1.
        -11    1    3    3    0    0 -0.36580041106E+01  0.56867809254E+01 -0.48556042529E+01  0.83245038464E+01  0.51100000000E-03 0.  1.
        -12    1    3    3    0    0 -0.16610441796E+02 -0.14990067559E+02 -0.12117228868E+02  0.25444766407E+02  0.00000000000E+00 0.  1.
</event>
<event>
 7    1  0.3014423E-011  0.5052887E+02  0.7816164E-02  0.1300439E+00
        -11   -1    0    0    0    0  0.00000000000E+00  0.00000000000E+00  0.45593999997E+02  0.45594000000E+02  0.51100000000E-03 0.  1.
         11   -1    0    0    0    0 -0.00000000000E+00 -0.00000000000E+00 -0.45593999997E+02  0.45594000000E+02  0.51100000000E-03 0. -1.
    9900012    2    1    2    0    0 -0.89111113967E+01 -0.10096945455E+01 -0.39657755980E+02  0.50528868200E+02  0.30000025379E+02 0.  0.
        -12    1    1    2    0    0  0.89111113967E+01  0.10096945455E+01  0.39657755980E+02  0.40659131800E+02  0.00000000000E+00 0.  1.
         11    1    3    3    0    0  0.52536715141E+01 -0.78657747702E+01 -0.66088658111E+01  0.11539002759E+02  0.51100000000E-03 0. -1.
        -11    1    3    3    0    0 -0.25523520913E-01  0.60143801253E+01 -0.14125005776E+02  0.15352172751E+02  0.51100000000E-03 0.  1.
         12    1    3    3    0    0 -0.14139259390E+02  0.84170009941E+00 -0.18923884393E+02  0.23637692689E+02  0.00000000000E+00 0. -1.
</event>
<event>
 7    1  0.3014423E-011  0.5052885E+02  0.7816164E-02  0.1300439E+00
        -11   -1    0    0    0    0  0.00000000000E+00  0.00000000000E+00  0.45593999997E+02  0.45594000000E+02  0.51100000000E-03 0. -1.
         11   -1    0    0    0    0 -0.00000000000E+00 -0.00000000000E+00 -0.45593999997E+02  0.45594000000E+02  0.51100000000E-03 0.  1.
    9900012    2    1    2    0    0 -0.29602181366E+02 -0.26707735607E+02  0.79733491692E+01  0.50528848757E+02  0.29999966280E+02 0.  0.
        -12    1    1    2    0    0  0.29602181366E+02  0.26707735607E+02 -0.79733491692E+01  0.40659151243E+02  0.00000000000E+00 0.  1.
         11    1    3    3    0    0 -0.11316022584E+02 -0.13500061325E+02  0.78224295249E+00  0.17632808262E+02  0.51100000000E-03 0. -1.
        -11    1    3    3    0    0 -0.66928197650E+01 -0.11188933566E+02 -0.67260381269E+01  0.14670571219E+02  0.51100000000E-03 0.  1.
        -12    1    3    3    0    0 -0.11593339017E+02 -0.20187407163E+01  0.13917144344E+02  0.18225469276E+02  0.00000000000E+00 0.  1.
</event>
<event>
 7    1  0.3014423E-011  0.5052886E+02  0.7816164E-02  0.1300439E+00
        -11   -1    0    0    0    0  0.00000000000E+00  0.00000000000E+00  0.45593999997E+02  0.45594000000E+02  0.51100000000E-03 0.  1.
         11   -1    0    0    0    0 -0.00000000000E+00 -0.00000000000E+00 -0.45593999997E+02  0.45594000000E+02  0.51100000000E-03 0. -1.
    9900012    2    1    2    0    0 -0.13449422813E+02 -0.17429789395E+02 -0.34183050808E+02  0.50528862099E+02  0.30000006835E+02 0.  0.
        -12    1    1    2    0    0  0.13449422813E+02  0.17429789395E+02  0.34183050808E+02  0.40659137901E+02  0.00000000000E+00 0.  1.
         11    1    3    3    0    0  0.51327239618E+01 -0.57138482461E+01 -0.34233789916E+01  0.84090689751E+01  0.51100000000E-03 0. -1.
        -11    1    3    3    0    0 -0.19239311181E+01 -0.37756515789E+01  0.18711166672E+01  0.46322924816E+01  0.51100000000E-03 0.  1.
         12    1    3    3    0    0 -0.16658215656E+02 -0.79402895697E+01 -0.32630788484E+02  0.37487500642E+02  0.00000000000E+00 0. -1.
</event>
<event>
 7    1  0.3014423E-011  0.5052885E+02  0.7816164E-02  0.1300439E+00
        -11   -1    0    0    0    0  0.00000000000E+00  0.00000000000E+00  0.45593999997E+02  0.45594000000E+02  0.51100000000E-03 0.  1.
         11   -1    0    0    0    0 -0.00000000000E+00 -0.00000000000E+00 -0.45593999997E+02  0.45594000000E+02  0.51100000000E-03 0. -1.
    9900012    2    1    2    0    0 -0.29175719316E+02 -0.23904443983E+02  0.15182940647E+02  0.50528846954E+02  0.29999960801E+02 0.  0.
        -12    1    1    2    0    0  0.29175719316E+02  0.23904443983E+02 -0.15182940647E+02  0.40659153046E+02  0.00000000000E+00 0.  1.
         11    1    3    3    0    0 -0.20166661281E+02 -0.91570034649E+01 -0.33355581814E+01  0.22398010811E+02  0.51100000000E-03 0. -1.
        -11    1    3    3    0    0 -0.56119726546E+01 -0.29060348805E+01  0.54826333194E+00  0.63434902652E+01  0.51100000000E-03 0.  1.
        -12    1    3    3    0    0 -0.33970853804E+01 -0.11841405638E+02  0.17970235497E+02  0.21787345877E+02  0.00000000000E+00 0.  1.
</event>
<event>
 7    1  0.3014423E-011  0.5052886E+02  0.7816164E-02  0.1300439E+00
        -11   -1    0    0    0    0  0.00000000000E+00  0.00000000000E+00  0.45593999997E+02  0.45594000000E+02  0.51100000000E-03 0. -1.
         11   -1    0    0    0    0 -0.00000000000E+00 -0.00000000000E+00 -0.45593999997E+02  0.45594000000E+02  0.51100000000E-03 0.  1.
    9900012    2    1    2    0    0  0.17042726950E+01 -0.18252011556E+02  0.36292218797E+02  0.50528860603E+02  0.30000002289E+02 0.  0.
        -12    1    1    2    0    0 -0.17042726950E+01  0.18252011556E+02 -0.36292218797E+02  0.40659139397E+02  0.00000000000E+00 0.  1.
         11    1    3    3    0    0  0.93498889886E+01 -0.13348809541E+02  0.16225721297E+02  0.22997503607E+02  0.51100000000E-03 0. -1.
        -11    1    3    3    0    0 -0.71493810398E+01 -0.10349068485E+02  0.99754582773E+01  0.16053866695E+02  0.51100000000E-03 0.  1.
         12    1    3    3    0    0 -0.49623525377E+00  0.54458664693E+01  0.10091039223E+02  0.11477490302E+02  0.00000000000E+00 0. -1.
</event>
<event>
 7    1  0.3014423E-011  0.5052886E+02  0.7816164E-02  0.1300439E+00
        -11   -1    0    0    0    0  0.00000000000E+00  0.00000000000E+00  0.45593999997E+02  0.45594000000E+02  0.51100000000E-03 0.  1.
         11   -1    0    0    0    0 -0.00000000000E+00 -0.00000000000E+00 -0.45593999997E+02  0.45594000000E+02  0.51100000000E-03 0. -1.
    9900012    2    1    2    0    0 -0.23783703289E+02  0.13060207331E+02 -0.30280888785E+02  0.50528858552E+02  0.29999996054E+02 0.  0.
        -12    1    1    2    0    0  0.23783703289E+02 -0.13060207331E+02  0.30280888785E+02  0.40659141448E+02  0.00000000000E+00 0.  1.
         11    1    3    3    0    0 -0.11565089482E+02  0.12160513670E+02 -0.21116057643E+02  0.26972528211E+02  0.51100000000E-03 0. -1.
        -11    1    3    3    0    0 -0.15033607843E+02  0.42019512686E+01 -0.28090260582E+01  0.15860529213E+02  0.51100000000E-03 0.  1.
         12    1    3    3    0    0  0.28149940367E+01 -0.33022576077E+01 -0.63558050845E+01  0.76958011283E+01  0.00000000000E+00 0. -1.
</event>
<event>
 7    1  0.3014423E-011  0.5052887E+02  0.7816164E-02  0.1300439E+00
        -11   -1    0    0    0    0  0.00000000000E+00  0.00000000000E+00  0.45593999997E+02  0.45594000000E+02  0.51100000000E-03 0.  1.
         11   -1    0    0    0    0 -0.00000000000E+00 -0.00000000000E+00 -0.45593999997E+02  0.45594000000E+02  0.51100000000E-03 0. -1.
    9900012    2    1    2    0    0 -0.48653388445E+01 -0.39217608134E+02 -0.95641369943E+01  0.50528867862E+02  0.30000024352E+02 0.  0.
        -12    1    1    2    0    0  0.48653388445E+01  0.39217608134E+02  0.95641369943E+01  0.40659132138E+02  0.00000000000E+00 0.  1.
         11    1    3    3    0    0 -0.76007936318E+01 -0.25353660732E+02 -0.12840653801E+02  0.29418745158E+02  0.51100000000E-03 0. -1.
        -11    1    3    3    0    0 -0.52725096257E+01 -0.58688995247E+01  0.54481455564E+01  0.95877854403E+01  0.51100000000E-03 0.  1.
        -12    1    3    3    0    0  0.80079644129E+01 -0.79950478768E+01 -0.21716287496E+01  0.11522337264E+02  0.00000000000E+00 0.  1.
</event>
<event>
 7    1  0.3014423E-011  0.5052886E+02  0.7816164E-02  0.1300439E+00
        -11   -1    0    0    0    0  0.00000000000E+00  0.00000000000E+00  0.45593999997E+02  0.45594000000E+02  0.51100000000E-03 0. -1.
         11   -1    0    0    0    0 -0.00000000000E+00 -0.00000000000E+00 -0.45593999997E+02  0.45594000000E+02  0.51100000000E-03 0.  1.
    9900012    2    1    2    0    0 -0.18227541892E+02  0.10730794206E+02 -0.34724230804E+02  0.50528862864E+02  0.30000009161E+02 0.  0.
        -12    1    1    2    0    0  0.18227541892E+02 -0.10730794206E+02  0.34724230804E+02  0.40659137136E+02  0.00000000000E+00 0.  1.
         11    1    3    3    0    0 -0.40127154121E+01  0.12117990468E+02 -0.79218040458E+01  0.15023400333E+02  0.51100000000E-03 0.  1.
        -11    1    3    3    0    0  0.39416473688E+01  0.13972139168E+01 -0.19836351995E+01  0.46285634462E+01  0.51100000000E-03 0. -1.
        -12    1    3    3    0    0 -0.18156473849E+02 -0.27844101784E+01 -0.24818791559E+02  0.30876899085E+02  0.00000000000E+00 0.  1.
</event>
<event>
 7    1  0.3014423E-011  0.5052886E+02  0.7816164E-02  0.1300439E+00
        -11   -1    0    0    0    0  0.00000000000E+00  0.00000000000E+00  0.45593999997E+02  0.45594000000E+02  0.51100000000E-03 0.  1.
         11   -1    0    0    0    0 -0.00000000000E+00 -0.00000000000E+00 -0.45593999997E+02  0.45594000000E+02  0.51100000000E-03 0. -1.
    9900012    2    1    2    0    0  0.36036740138E+02 -0.26427563622E+01 -0.18642278922E+02  0.50528863703E+02  0.30000011712E+02 0.  0.
        -12    1    1    2    0    0 -0.36036740138E+02  0.26427563622E+01  0.18642278922E+02  0.40659136297E+02  0.00000000000E+00 0.  1.
         11    1    3    3    0    0  0.28021741954E+02  0.26880840718E+01 -0.35804097339E+01  0.28377158988E+02  0.51100000000E-03 0. -1.
        -11    1    3    3    0    0  0.10815413611E+02 -0.25576413513E+01 -0.14344017370E+02  0.18145675392E+02  0.51100000000E-03 0.  1.
        -12    1    3    3    0    0 -0.28004154259E+01 -0.27731990827E+01 -0.71785181836E+00  0.40060293237E+01  0.00000000000E+00 0.  1.
</event>
<event>
 7    1  0.3163257E-011  0.5052896E+02  0.7816164E-02  0.1300438E+00
        -11   -1    0    0    0    0  0.00000000000E+00  0.00000000000E+00  0.45593999997E+02  0.45594000000E+02  0.51100000000E-03 0. -1.
         11   -1    0    0    0    0 -0.00000000000E+00 -0.00000000000E+00 -0.45593999997E+02  0.45594000000E+02  0.51100000000E-03 0.  1.
    9900012    2    1    2    0    0 -0.15956765716E+02 -0.26234684267E+02  0.26651090801E+02  0.50528958305E+02  0.30000299263E+02 0.  0.
        -12    1    1    2    0    0  0.15956765716E+02  0.26234684267E+02 -0.26651090801E+02  0.40659041695E+02  0.00000000000E+00 0.  1.
         11    1    3    3    0    0 -0.10011379805E+02 -0.59914126666E+01 -0.24369650532E+01  0.11919041499E+02  0.51100000000E-03 0. -1.
        -11    1    3    3    0    0  0.47720319355E+00  0.18571236870E+01  0.64751764927E+00  0.20238356268E+01  0.51100000000E-03 0.  1.
         12    1    3    3    0    0 -0.64225891047E+01 -0.22100395287E+02  0.28440538205E+02  0.36586081179E+02  0.00000000000E+00 0. -1.
</event>
<event>
 7    1  0.3014423E-011  0.5052886E+02  0.7816164E-02  0.1300439E+00
        -11   -1    0    0    0    0  0.00000000000E+00  0.00000000000E+00  0.45593999997E+02  0.45594000000E+02  0.51100000000E-03 0.  1.
         11   -1    0    0    0    0 -0.00000000000E+00 -0.00000000000E+00 -0.45593999997E+02  0.45594000000E+02  0.51100000000E-03 0. -1.
    9900012    2    1    2    0    0  0.85569218866E+01  0.30120444041E+02 -0.25936525395E+02  0.50528863131E+02  0.30000009974E+02 0.  0.
        -12    1    1    2    0    0 -0.85569218866E+01 -0.30120444041E+02  0.25936525395E+02  0.40659136869E+02  0.00000000000E+00 0.  1.
         11    1    3    3    0    0  0.41922303400E+01  0.13601145556E+02 -0.12221491150E+02  0.18759818812E+02  0.51100000000E-03 0. -1.
        -11    1    3    3    0    0 -0.53145130570E+01  0.12651365211E+02 -0.16020170963E+02  0.21093766109E+02  0.51100000000E-03 0.  1.
         12    1    3    3    0    0  0.96792046036E+01  0.38679332736E+01  0.23051367186E+01  0.10675278210E+02  0.00000000000E+00 0. -1.
</event>
<event>
 7    1  0.3682588E-011  0.5052886E+02  0.7816164E-02  0.1300439E+00
        -11   -1    0    0    0    0  0.00000000000E+00  0.00000000000E+00  0.45593999997E+02  0.45594000000E+02  0.51100000000E-03 0. -1.
         11   -1    0    0    0    0 -0.00000000000E+00 -0.00000000000E+00 -0.45593999997E+02  0.45594000000E+02  0.51100000000E-03 0.  1.
    9900012    2    1    2    0    0  0.97632156092E+00 -0.38434743184E+02  0.13228106991E+02  0.50528862011E+02  0.30000006570E+02 0.  0.
        -12    1    1    2    0    0 -0.97632156092E+00  0.38434743184E+02 -0.13228106991E+02  0.40659137989E+02  0.00000000000E+00 0.  1.
         11    1    3    3    0    0  0.32658499110E+01  0.16002718269E+01  0.64339287029E+00  0.36933183193E+01  0.51100000000E-03 0. -1.
        -11    1    3    3    0    0  0.80195283263E+01 -0.10172403721E+02  0.35270759144E+00  0.12958203385E+02  0.51100000000E-03 0.  1.
         12    1    3    3    0    0 -0.10309056676E+02 -0.29862611289E+02  0.12232006529E+02  0.33877340308E+02  0.00000000000E+00 0. -1.
</event>
<event>
 7    1  0.3014423E-011  0.5052886E+02  0.7816164E-02  0.1300439E+00
        -11   -1    0    0    0    0  0.00000000000E+00  0.00000000000E+00  0.45593999997E+02  0.45594000000E+02  0.51100000000E-03 0.  1.
         11   -1    0    0    0    0 -0.00000000000E+00 -0.00000000000E+00 -0.45593999997E+02  0.45594000000E+02  0.51100000000E-03 0. -1.
    9900012    2    1    2    0    0  0.26135260542E+02 -0.29760281915E+02  0.91890964804E+01  0.50528859363E+02  0.29999998519E+02 0.  0.
        -12    1    1    2    0    0 -0.26135260542E+02  0.29760281915E+02 -0.91890964804E+01  0.40659140637E+02  0.00000000000E+00 0.  1.
         11    1    3    3    0    0  0.28777242158E+02 -0.11878515189E+02  0.40209648861E+01  0.31391032927E+02  0.51100000000E-03 0. -1.
        -11    1    3    3    0    0  0.73523360841E+00 -0.48022955083E+01  0.20567880260E+01  0.52756978546E+01  0.51100000000E-03 0.  1.
         12    1    3    3    0    0 -0.33772152249E+01 -0.13079471218E+02  0.31113435683E+01  0.13862128582E+02  0.00000000000E+00 0. -1.
</event>
<event>
 7    1  0.3014423E-011  0.5052886E+02  0.7816164E-02  0.1300439E+00
        -11   -1    0    0    0    0  0.00000000000E+00  0.00000000000E+00  0.45593999997E+02  0.45594000000E+02  0.51100000000E-03 0.  1.
         11   -1    0    0    0    0 -0.00000000000E+00 -0.00000000000E+00 -0.45593999997E+02  0.45594000000E+02  0.51100000000E-03 0. -1.
    9900012    2    1    2    0    0 -0.17664569031E+02  0.13574070708E+01 -0.36596259619E+02  0.50528858702E+02  0.29999996511E+02 0.  0.
        -12    1    1    2    0    0  0.17664569031E+02 -0.13574070708E+01  0.36596259619E+02  0.40659141298E+02  0.00000000000E+00 0.  1.
         11    1    3    3    0    0 -0.16145287916E+02 -0.20501345906E+01 -0.18168605574E+02  0.24392039736E+02  0.51100000000E-03 0. -1.
        -11    1    3    3    0    0 -0.73309447268E+01 -0.28200337057E+01 -0.15044387875E+02  0.16971415600E+02  0.51100000000E-03 0.  1.
        -12    1    3    3    0    0  0.58116636112E+01  0.62275753671E+01 -0.33832661702E+01  0.91654033660E+01  0.00000000000E+00 0.  1.
</event>
<event>
 7    1  0.3014423E-011  0.5052887E+02  0.7816164E-02  0.1300439E+00
        -11   -1    0    0    0    0  0.00000000000E+00  0.00000000000E+00  0.45593999997E+02  0.45594000000E+02  0.51100000000E-03 0.  1.
         11   -1    0    0    0    0 -0.00000000000E+00 -0.00000000000E+00 -0.45593999997E+02  0.45594000000E+02  0.51100000000E-03 0. -1.
    9900012    2    1    2    0    0  0.28710516867E+01  0.40533140015E+02 -0.14094984927E+01  0.50528867406E+02  0.30000022968E+02 0.  0.
        -12    1    1    2    0    0 -0.28710516867E+01 -0.40533140015E+02  0.14094984927E+01  0.40659132594E+02  0.00000000000E+00 0.  1.
         11    1    3    3    0    0 -0.25810205955E+01  0.22690681795E+01 -0.36192649627E+01  0.49909334647E+01  0.51100000000E-03 0. -1.
        -11    1    3    3    0    0 -0.95566408064E+01  0.14001596393E+02  0.10649700453E+01  0.16985530505E+02  0.51100000000E-03 0.  1.
         12    1    3    3    0    0  0.15008713089E+02  0.24262475442E+02  0.11447964247E+01  0.28552403437E+02  0.00000000000E+00 0. -1.
</event>
<event>
 7    1  0.3014423E-011  0.5052886E+02  0.7816164E-02  0.1300439E+00
        -11   -1    0    0    0    0  0.00000000000E+00  0.00000000000E+00  0.45593999997E+02  0.45594000000E+02  0.51100000000E-03 0.  1.
         11   -1    0    0    0    0 -0.00000000000E+00 -0.00000000000E+00 -0.45593999997E+02  0.45594000000E+02  0.51100000000E-03 0. -1.
    9900012    2    1    2    0    0 -0.11897625725E+02  0.34556880313E+02 -0.17816688020E+02  0.50528857770E+02  0.29999993678E+02 0.  0.
        -12    1    1    2    0    0  0.11897625725E+02 -0.34556880313E+02  0.17816688020E+02  0.40659142230E+02  0.00000000000E+00 0.  1.
         11    1    3    3    0    0 -0.28846034588E+01  0.82030766228E+01 -0.11079854935E+02  0.14084551424E+02  0.51100000000E-03 0. -1.
        -11    1    3    3    0    0 -0.25018992135E+01  0.26046334577E+02 -0.11285027289E+02  0.28496015261E+02  0.51100000000E-03 0.  1.
         12    1    3    3    0    0 -0.65111230528E+01  0.30746911305E+00  0.45481942030E+01  0.79482910850E+01  0.00000000000E+00 0. -1.
</event>
<event>
 7    1  0.3014423E-011  0.5052886E+02  0.7816164E-02  0.1300439E+00
        -11   -1    0    0    0    0  0.00000000000E+00  0.00000000000E+00  0.45593999997E+02  0.45594000000E+02  0.51100000000E-03 0.  1.
         11   -1    0    0    0    0 -0.00000000000E+00 -0.00000000000E+00 -0.45593999997E+02  0.45594000000E+02  0.51100000000E-03 0. -1.
    9900012    2    1    2    0    0 -0.28174324479E+02  0.65680780235E+01 -0.28569798204E+02  0.50528861074E+02  0.30000003721E+02 0.  0.
        -12    1    1    2    0    0  0.28174324479E+02 -0.65680780235E+01  0.28569798204E+02  0.40659138926E+02  0.00000000000E+00 0.  1.
         11    1    3    3    0    0 -0.14659206156E+02  0.23873880379E+01 -0.10083142973E+02  0.17951649485E+02  0.51100000000E-03 0. -1.
        -11    1    3    3    0    0 -0.19659574334E+02  0.52311154870E+01 -0.12186729443E+02  0.23714548425E+02  0.51100000000E-03 0.  1.
        -12    1    3    3    0    0  0.61444560112E+01 -0.10504255014E+01 -0.62999257888E+01  0.88626631637E+01  0.00000000000E+00 0.  1.
</event>
<event>
 7    1  0.3014423E-011  0.5052887E+02  0.7816164E-02  0.1300439E+00
        -11   -1    0    0    0    0  0.00000000000E+00  0.00000000000E+00  0.45593999997E+02  0.45594000000E+02  0.51100000000E-03 0. -1.
         11   -1    0    0    0    0 -0.00000000000E+00 -0.00000000000E+00 -0.45593999997E+02  0.45594000000E+02  0.51100000000E-03 0.  1.
    9900012    2    1    2    0    0 -0.19556001363E+02  0.20287798621E+02  0.29310975283E+02  0.50528865304E+02  0.30000016577E+02 0.  0.
        -12    1    1    2    0    0  0.19556001363E+02 -0.20287798621E+02 -0.29310975283E+02  0.40659134696E+02  0.00000000000E+00 0.  1.
         11    1    3    3    0    0 -0.82896297317E+01  0.11901117848E+02  0.15967609695E+01  0.14591237541E+02  0.51100000000E-03 0. -1.
        -11    1    3    3    0    0 -0.56969516564E+01  0.77873883995E-01 -0.76894159897E+00  0.57491385407E+01  0.51100000000E-03 0.  1.
         12    1    3    3    0    0 -0.55694199748E+01  0.83088068892E+01  0.28483155913E+02  0.30188489222E+02  0.00000000000E+00 0. -1.
</event>
<event>
 7    1  0.3014423E-011  0.5052888E+02  0.7816164E-02  0.1300439E+00
        -11   -1    0    0    0    0  0.00000000000E+00  0.00000000000E+00  0.45593999997E+02  0.45594000000E+02  0.51100000000E-03 0.  1.
         11   -1    0    0    0    0 -0.00000000000E+00 -0.00000000000E+00 -0.45593999997E+02  0.45594000000E+02  0.51100000000E-03 0. -1.
    9900012    2    1    2    0    0 -0.22201638775E+02  0.30639151134E+02 -0.14882668275E+02  0.50528878496E+02  0.30000056677E+02 0.  0.
        -12    1    1    2    0    0  0.22201638775E+02 -0.30639151134E+02  0.14882668275E+02  0.40659121504E+02  0.00000000000E+00 0.  1.
         11    1    3    3    0    0  0.20054426598E+01  0.86091247802E+01 -0.60408230729E+01  0.10706557495E+02  0.51100000000E-03 0.  1.
        -11    1    3    3    0    0 -0.13103305129E+02  0.24149227861E+02 -0.53504749523E+01  0.27991237809E+02  0.51100000000E-03 0. -1.
         12    1    3    3    0    0 -0.11103776306E+02 -0.21192015072E+01 -0.34913702494E+01  0.11831083192E+02  0.00000000000E+00 0. -1.
</event>
<event>
 7    1  0.3014423E-011  0.5052887E+02  0.7816164E-02  0.1300439E+00
        -11   -1    0    0    0    0  0.00000000000E+00  0.00000000000E+00  0.45593999997E+02  0.45594000000E+02  0.51100000000E-03 0.  1.
         11   -1    0    0    0    0 -0.00000000000E+00 -0.00000000000E+00 -0.45593999997E+02  0.45594000000E+02  0.51100000000E-03 0. -1.
    9900012    2    1    2    0    0  0.22727892686E+02  0.12616867283E+02 -0.31263761923E+02  0.50528865041E+02  0.30000015779E+02 0.  0.
        -12    1    1    2    0    0 -0.22727892686E+02 -0.12616867283E+02  0.31263761923E+02  0.40659134959E+02  0.00000000000E+00 0.  1.
         11    1    3    3    0    0 -0.16787546466E+01  0.39448326847E+01 -0.10483726897E+02  0.11326449222E+02  0.51100000000E-03 0.  1.
        -11    1    3    3    0    0  0.24146059564E+02  0.12165115410E+02 -0.22614590474E+02  0.35248289717E+02  0.51100000000E-03 0. -1.
         12    1    3    3    0    0  0.26058776885E+00 -0.34930808118E+01  0.18345554471E+01  0.39541261021E+01  0.00000000000E+00 0. -1.
</event>
<event>
 7    1  0.3014423E-011  0.5052876E+02  0.7816164E-02  0.1300439E+00
        -11   -1    0    0    0    0  0.00000000000E+00  0.00000000000E+00  0.45593999997E+02  0.45594000000E+02  0.51100000000E-03 0. -1.
         11   -1    0    0    0    0 -0.00000000000E+00 -0.00000000000E+00 -0.45593999997E+02  0.45594000000E+02  0.51100000000E-03 0.  1.
    9900012    2    1    2    0    0 -0.12117330511E+02 -0.36719951431E+02  0.12569365244E+02  0.50528763971E+02  0.29999708564E+02 0.  0.
        -12    1    1    2    0    0  0.12117330511E+02  0.36719951431E+02 -0.12569365244E+02  0.40659236029E+02  0.00000000000E+00 0.  1.
         11    1    3    3    0    0 -0.82373040562E+01 -0.14952470351E+02  0.76426553244E+01  0.18704003004E+02  0.51100000000E-03 0. -1.
        -11    1    3    3    0    0 -0.11436071990E+02 -0.18825747760E+02  0.75774409141E+01  0.23293993482E+02  0.51100000000E-03 0.  1.
         12    1    3    3    0    0  0.75560455359E+01 -0.29417333208E+01 -0.26507309942E+01  0.85307674846E+01  0.00000000000E+00 0. -1.
</event>
<event>
 7    1  0.3014423E-011  0.5052898E+02  0.7816164E-02  0.1300438E+00
        -11   -1    0    0    0    0  0.00000000000E+00  0.00000000000E+00  0.45593999997E+02  0.45594000000E+02  0.51100000000E-03 0. -1.
         11   -1    0    0    0    0 -0.00000000000E+00 -0.00000000000E+00 -0.45593999997E+02  0.45594000000E+02  0.51100000000E-03 0.  1.
    9900012    2    1    2    0    0 -0.38104008955E+02 -0.36122368261E+01  0.13718311538E+02  0.50528981016E+02  0.30000368294E+02 0.  0.
        -12    1    1    2    0    0  0.38104008955E+02  0.36122368261E+01 -0.13718311538E+02  0.40659018984E+02  0.00000000000E+00 0.  1.
         11    1    3    3    0    0 -0.15056880639E+02 -0.52952764988E+01  0.58992534208E+01  0.17016192258E+02  0.51100000000E-03 0. -1.
        -11    1    3    3    0    0  0.26077433840E+01 -0.53778997626E+00  0.72851066376E+01  0.77564374940E+01  0.51100000000E-03 0.  1.
         12    1    3    3    0    0 -0.25654871699E+02  0.22208296490E+01  0.53395147915E+00  0.25756351264E+02  0.00000000000E+00 0. -1.
</event>
<event>
 7    1  0.3014423E-011  0.5052886E+02  0.7816164E-02  0.1300439E+00
        -11   -1    0    0    0    0  0.00000000000E+00  0.00000000000E+00  0.45593999997E+02  0.45594000000E+02  0.51100000000E-03 0.  1.
         11   -1    0    0    0    0 -0.00000000000E+00 -0.00000000000E+00 -0.45593999997E+02  0.45594000000E+02  0.51100000000E-03 0. -1.
    9900012    2    1    2    0    0  0.33464780837E+02  0.22745053480E+02 -0.39920956243E+01  0.50528857833E+02  0.29999993870E+02 0.  0.
        -12    1    1    2    0    0 -0.33464780837E+02 -0.22745053480E+02  0.39920956243E+01  0.40659142167E+02  0.00000000000E+00 0.  1.
         11    1    3    3    0    0  0.30009529354E+02  0.21219978104E+02  0.37587674884E+01  0.36945739349E+02  0.51100000000E-03 0. -1.
        -11    1    3    3    0    0  0.68544429247E+01 -0.65379503211E+00 -0.61751707328E+01  0.92489766781E+01  0.51100000000E-03 0.  1.
        -12    1    3    3    0    0 -0.33991914419E+01  0.21788704084E+01 -0.15756923799E+01  0.43341418056E+01  0.00000000000E+00 0.  1.
</event>
<event>
 7    1  0.3014423E-011  0.5052887E+02  0.7816164E-02  0.1300439E+00
        -11   -1    0    0    0    0  0.00000000000E+00  0.00000000000E+00  0.45593999997E+02  0.45594000000E+02  0.51100000000E-03 0. -1.
         11   -1    0    0    0    0 -0.00000000000E+00 -0.00000000000E+00 -0.45593999997E+02  0.45594000000E+02  0.51100000000E-03 0.  1.
    9900012    2    1    2    0    0  0.68877215983E+01 -0.39708686361E+02  0.53800141989E+01  0.50528867765E+02  0.30000024059E+02 0.  0.
        -12    1    1    2    0    0 -0.68877215983E+01  0.39708686361E+02 -0.53800141989E+01  0.40659132235E+02  0.00000000000E+00 0.  1.
         11    1    3    3    0    0  0.81399227120E+01 -0.15055758679E+02  0.37068262313E+01  0.17512132141E+02  0.51100000000E-03 0. -1.
        -11    1    3    3    0    0  0.86652976346E+01 -0.19063239370E+02 -0.20469225496E+01  0.21040065840E+02  0.51100000000E-03 0.  1.
        -12    1    3    3    0    0 -0.99174987483E+01 -0.55896883116E+01  0.37201105171E+01  0.11976669784E+02  0.00000000000E+00 0.  1.
</event>
<event>
 7    1  0.3014423E-011  0.5052886E+02  0.7816164E-02  0.1300439E+00
        -11   -1    0    0    0    0  0.00000000000E+00  0.00000000000E+00  0.45593999997E+02  0.45594000000E+02  0.51100000000E-03 0. -1.
         11   -1    0    0    0    0 -0.00000000000E+00 -0.00000000000E+00 -0.45593999997E+02  0.45594000000E+02  0.51100000000E-03 0.  1.
    9900012    2    1    2    0    0 -0.35386447589E+02  0.11230954286E+02 -0.16578007068E+02  0.50528864182E+02  0.30000013168E+02 0.  0.
        -12    1    1    2    0    0  0.35386447589E+02 -0.11230954286E+02  0.16578007068E+02  0.40659135818E+02  0.00000000000E+00 0.  1.
         11    1    3    3    0    0 -0.17515865665E+02 -0.62427010415E+01 -0.42359412732E+01  0.19071446327E+02  0.51100000000E-03 0.  1.
        -11    1    3    3    0    0 -0.50719871208E+01  0.12162842483E+01  0.27034063421E+01  0.58747601516E+01  0.51100000000E-03 0. -1.
        -12    1    3    3    0    0 -0.12798594803E+02  0.16257371079E+02 -0.15045472137E+02  0.25582657703E+02  0.00000000000E+00 0.  1.
</event>
<event>
 7    1  0.3014423E-011  0.5052885E+02  0.7816164E-02  0.1300439E+00
        -11   -1    0    0    0    0  0.00000000000E+00  0.00000000000E+00  0.45593999997E+02  0.45594000000E+02  0.51100000000E-03 0.  1.
         11   -1    0    0    0    0 -0.00000000000E+00 -0.00000000000E+00 -0.45593999997E+02  0.45594000000E+02  0.51100000000E-03 0. -1.
    9900012    2    1    2    0    0  0.86260672785E+01 -0.21270082936E+02  0.33560999248E+02  0.50528854223E+02  0.29999982896E+02 0.  0.
        -12    1    1    2    0    0 -0.86260672785E+01  0.21270082936E+02 -0.33560999248E+02  0.40659145777E+02  0.00000000000E+00 0.  1.
         11    1    3    3    0    0 -0.18271623825E+01 -0.35749686630E+01  0.43522139960E+01  0.59212068230E+01  0.51100000000E-03 0. -1.
        -11    1    3    3    0    0  0.47876274957E+01 -0.23595160554E+02  0.26915801230E+02  0.36112509394E+02  0.51100000000E-03 0.  1.
        -12    1    3    3    0    0  0.56656021652E+01  0.59000462814E+01  0.22929840222E+01  0.84951380061E+01  0.00000000000E+00 0.  1.
</event>
<event>
 7    1  0.3014423E-011  0.5052898E+02  0.7816164E-02  0.1300438E+00
        -11   -1    0    0    0    0  0.00000000000E+00  0.00000000000E+00  0.45593999997E+02  0.45594000000E+02  0.51100000000E-03 0.  1.
         11   -1    0    0    0    0 -0.00000000000E+00 -0.00000000000E+00 -0.45593999997E+02  0.45594000000E+02  0.51100000000E-03 0. -1.
    9900012    2    1    2    0    0  0.37962783984E+02  0.26758711345E+01 -0.14311628124E+02  0.50528979430E+02  0.30000363473E+02 0.  0.
        -12    1    1    2    0    0 -0.37962783984E+02 -0.26758711345E+01  0.14311628124E+02  0.40659020570E+02  0.00000000000E+00 0.  1.
         11    1    3    3    0    0  0.58720750254E+01  0.11863605028E+01 -0.14270214600E+02  0.15476683797E+02  0.51100000000E-03 0. -1.
        -11    1    3    3    0    0  0.47213885368E+01  0.49618381908E+01 -0.26424552444E+01  0.73412477092E+01  0.51100000000E-03 0.  1.
        -12    1    3    3    0    0  0.27369320422E+02 -0.34723275591E+01  0.26010417202E+01  0.27711047924E+02  0.00000000000E+00 0.  1.
</event>
<event>
 7    1  0.3014423E-011  0.5052887E+02  0.7816164E-02  0.1300439E+00
        -11   -1    0    0    0    0  0.00000000000E+00  0.00000000000E+00  0.45593999997E+02  0.45594000000E+02  0.51100000000E-03 0.  1.
         11   -1    0    0    0    0 -0.00000000000E+00 -0.00000000000E+00 -0.45593999997E+02  0.45594000000E+02  0.51100000000E-03 0. -1.
    9900012    2    1    2    0    0 -0.48069934900E+01 -0.23061949059E+02 -0.33139165226E+02  0.50528868766E+02  0.30000027100E+02 0.  0.
        -12    1    1    2    0    0  0.48069934900E+01  0.23061949059E+02  0.33139165226E+02  0.40659131234E+02  0.00000000000E+00 0.  1.
         11    1    3    3    0    0  0.10630050140E+01 -0.37239866024E+00  0.10884183391E+01  0.15663062165E+01  0.51100000000E-03 0. -1.
        -11    1    3    3    0    0  0.88480284620E+01 -0.12773269252E+02 -0.85105855143E+01  0.17716491783E+02  0.51100000000E-03 0.  1.
         12    1    3    3    0    0 -0.14718026966E+02 -0.99162811474E+01 -0.25716998051E+02  0.31246070766E+02  0.00000000000E+00 0. -1.
</event>
<event>
 7    1  0.3014423E-011  0.5052886E+02  0.7816164E-02  0.1300439E+00
        -11   -1    0    0    0    0  0.00000000000E+00  0.00000000000E+00  0.45593999997E+02  0.45594000000E+02  0.51100000000E-03 0. -1.
         11   -1    0    0    0    0 -0.00000000000E+00 -0.00000000000E+00 -0.45593999997E+02  0.45594000000E+02  0.51100000000E-03 0.  1.
    9900012    2    1    2    0    0 -0.35946043910E+02  0.11210168749E+02  0.15342098635E+02  0.50528856543E+02  0.29999989947E+02 0.  0.
        -12    1    1    2    0    0  0.35946043910E+02 -0.11210168749E+02 -0.15342098635E+02  0.40659143457E+02  0.00000000000E+00 0.  1.
         11    1    3    3    0    0 -0.30831898098E+01 -0.34426376215E+01 -0.29430284325E+01  0.54789807274E+01  0.51100000000E-03 0. -1.
        -11    1    3    3    0    0 -0.69148093648E+01  0.11540317827E+01 -0.41862014147E+01  0.81652103741E+01  0.51100000000E-03 0.  1.
        -12    1    3    3    0    0 -0.25948044735E+02  0.13498774588E+02  0.22471328482E+02  0.36884665441E+02  0.00000000000E+00 0.  1.
</event>
<event>
 7    1  0.3014423E-011  0.5052886E+02  0.7816164E-02  0.1300439E+00
        -11   -1    0    0    0    0  0.00000000000E+00  0.00000000000E+00  0.45593999997E+02  0.45594000000E+02  0.51100000000E-03 0.  1.
         11   -1    0    0    0    0 -0.00000000000E+00 -0.00000000000E+00 -0.45593999997E+02  0.45594000000E+02  0.51100000000E-03 0. -1.
    9900012    2    1    2    0    0  0.16040720188E+02  0.11297756208E+02 -0.35612100497E+02  0.50528859560E+02  0.29999999119E+02 0.  0.
        -12    1    1    2    0    0 -0.16040720188E+02 -0.11297756208E+02  0.35612100497E+02  0.40659140440E+02  0.00000000000E+00 0.  1.
         11    1    3    3    0    0 -0.26246614097E+00  0.73183146868E+01 -0.93630566656E+01  0.11886692085E+02  0.51100000000E-03 0. -1.
        -11    1    3    3    0    0 -0.38987558313E+01  0.41267987519E+01 -0.13774691694E+02  0.14898754864E+02  0.51100000000E-03 0.  1.
        -12    1    3    3    0    0  0.20201942160E+02 -0.14735723073E+00 -0.12474352138E+02  0.23743412612E+02  0.00000000000E+00 0.  1.
</event>
<event>
 7    1  0.3014423E-011  0.5052885E+02  0.7816164E-02  0.1300439E+00
        -11   -1    0    0    0    0  0.00000000000E+00  0.00000000000E+00  0.45593999997E+02  0.45594000000E+02  0.51100000000E-03 0.  1.
         11   -1    0    0    0    0 -0.00000000000E+00 -0.00000000000E+00 -0.45593999997E+02  0.45594000000E+02  0.51100000000E-03 0. -1.
    9900012    2    1    2    0    0  0.34116110249E+02 -0.79706692928E+01 -0.20633119129E+02  0.50528854012E+02  0.29999982256E+02 0.  0.
        -12    1    1    2    0    0 -0.34116110249E+02  0.79706692928E+01  0.20633119129E+02  0.40659145988E+02  0.00000000000E+00 0.  1.
         11    1    3    3    0    0  0.15835324988E+02  0.20454811366E+01 -0.75652097915E+01  0.17668443905E+02  0.51100000000E-03 0. -1.
        -11    1    3    3    0    0  0.22398573504E+02 -0.44607127243E+01 -0.12195041417E+02  0.25890405336E+02  0.51100000000E-03 0.  1.
        -12    1    3    3    0    0 -0.41177882436E+01 -0.55554377050E+01 -0.87286791998E+00  0.69700047718E+01  0.00000000000E+00 0.  1.
</event>
<event>
 7    1  0.3014423E-011  0.5052886E+02  0.7816164E-02  0.1300439E+00
        -11   -1    0    0    0    0  0.00000000000E+00  0.00000000000E+00  0.45593999997E+02  0.45594000000E+02  0.51100000000E-03 0.  1.
         11   -1    0    0    0    0 -0.00000000000E+00 -0.00000000000E+00 -0.45593999997E+02  0.45594000000E+02  0.51100000000E-03 0. -1.
    9900012    2    1    2    0    0 -0.65092680997E+01 -0.29171298111E+02 -0.27565026157E+02  0.50528857465E+02  0.29999992750E+02 0.  0.
        -12    1    1    2    0    0  0.65092680997E+01  0.29171298111E+02  0.27565026157E+02  0.40659142535E+02  0.00000000000E+00 0.  1.
         11    1    3    3    0    0  0.40387985398E+01 -0.47694747565E+01 -0.13667158302E+02  0.15028339875E+02  0.51100000000E-03 0. -1.
        -11    1    3    3    0    0  0.65753429099E-01 -0.17122595183E+02 -0.80560995113E+00  0.17141662608E+02  0.51100000000E-03 0.  1.
        -12    1    3    3    0    0 -0.10613820069E+02 -0.72792281718E+01 -0.13092257904E+02  0.18358854982E+02  0.00000000000E+00 0.  1.
</event>
<event>
 7    1  0.3014423E-011  0.5052886E+02  0.7816164E-02  0.1300439E+00
        -11   -1    0    0    0    0  0.00000000000E+00  0.00000000000E+00  0.45593999997E+02  0.45594000000E+02  0.51100000000E-03 0.  1.
         11   -1    0    0    0    0 -0.00000000000E+00 -0.00000000000E+00 -0.45593999997E+02  0.45594000000E+02  0.51100000000E-03 0. -1.
    9900012    2    1    2    0    0 -0.33585366443E+02  0.14661442599E+02 -0.17613375601E+02  0.50528859106E+02  0.29999997739E+02 0.  0.
        -12    1    1    2    0    0  0.33585366443E+02 -0.14661442599E+02  0.17613375601E+02  0.40659140894E+02  0.00000000000E+00 0.  1.
         11    1    3    3    0    0 -0.57167751792E+01 -0.63930912187E+00 -0.34148900181E+01  0.66896717932E+01  0.51100000000E-03 0. -1.
        -11    1    3    3    0    0 -0.29217709391E+02  0.40444069234E+01 -0.13615969122E+02  0.32487326525E+02  0.51100000000E-03 0.  1.
         12    1    3    3    0    0  0.13491181270E+01  0.11256344797E+02 -0.58251646097E+00  0.11351860788E+02  0.00000000000E+00 0. -1.
</event>
<event>
 7    1  0.3014423E-011  0.5052886E+02  0.7816164E-02  0.1300439E+00
        -11   -1    0    0    0    0  0.00000000000E+00  0.00000000000E+00  0.45593999997E+02  0.45594000000E+02  0.51100000000E-03 0. -1.
         11   -1    0    0    0    0 -0.00000000000E+00 -0.00000000000E+00 -0.45593999997E+02  0.45594000000E+02  0.51100000000E-03 0.  1.
    9900012    2    1    2    0    0  0.24349148456E+02 -0.32428288317E+02 -0.29480557289E+01  0.50528856547E+02  0.29999989961E+02 0.  0.
        -12    1    1    2    0    0 -0.24349148456E+02  0.32428288317E+02  0.29480557289E+01  0.40659143453E+02  0.00000000000E+00 0.  1.
         11    1    3    3    0    0  0.41107838147E+01 -0.10998458649E+02 -0.38168823563E+01  0.12346385196E+02  0.51100000000E-03 0. -1.
        -11    1    3    3    0    0  0.17911070710E+02 -0.23438660345E+02 -0.64926348625E+01  0.30204826774E+02  0.51100000000E-03 0.  1.
         12    1    3    3    0    0  0.23272939312E+01  0.20088306762E+01  0.73614614898E+01  0.79776445768E+01  0.00000000000E+00 0. -1.
</event>
<event>
 7    1  0.3014423E-011  0.5052886E+02  0.7816164E-02  0.1300439E+00
        -11   -1    0    0    0    0  0.00000000000E+00  0.00000000000E+00  0.45593999997E+02  0.45594000000E+02  0.51100000000E-03 0.  1.
         11   -1    0    0    0    0 -0.00000000000E+00 -0.00000000000E+00 -0.45593999997E+02  0.45594000000E+02  0.51100000000E-03 0. -1.
    9900012    2    1    2    0    0  0.12432388991E-01  0.35530857678E+02 -0.19766726785E+02  0.50528862162E+02  0.30000007028E+02 0.  0.
        -12    1    1    2    0    0 -0.12432388991E-01 -0.35530857678E+02  0.19766726785E+02  0.40659137838E+02  0.00000000000E+00 0.  1.
         11    1    3    3    0    0 -0.42346181722E+01  0.17350312890E+02 -0.99630087304E+01  0.20450596364E+02  0.51100000000E-03 0. -1.
        -11    1    3    3    0    0 -0.37938091845E+01  0.76645476969E+01 -0.13813367330E+02  0.16246457977E+02  0.51100000000E-03 0.  1.
        -12    1    3    3    0    0  0.80408597457E+01  0.10515997092E+02  0.40096492757E+01  0.13831807821E+02  0.00000000000E+00 0.  1.
</event>
<event>
 7    1  0.3014423E-011  0.5052886E+02  0.7816164E-02  0.1300439E+00
        -11   -1    0    0    0    0  0.00000000000E+00  0.00000000000E+00  0.45593999997E+02  0.45594000000E+02  0.51100000000E-03 0.  1.
         11   -1    0    0    0    0 -0.00000000000E+00 -0.00000000000E+00 -0.45593999997E+02  0.45594000000E+02  0.51100000000E-03 0. -1.
    9900012    2    1    2    0    0  0.34271676512E+02  0.15422503973E+02 -0.15516585833E+02  0.50528857416E+02  0.29999992601E+02 0.  0.
        -12    1    1    2    0    0 -0.34271676512E+02 -0.15422503973E+02  0.15516585833E+02  0.40659142584E+02  0.00000000000E+00 0.  1.
         11    1    3    3    0    0  0.18690071791E+02  0.19649734207E+01 -0.38566352442E+01  0.19184721519E+02  0.51100000000E-03 0. -1.
        -11    1    3    3    0    0  0.18326710374E+02  0.53915086344E+01 -0.32601968483E+01  0.19379513984E+02  0.51100000000E-03 0.  1.
         12    1    3    3    0    0 -0.27451056527E+01  0.80660219181E+01 -0.83997537408E+01  0.11964621914E+02  0.00000000000E+00 0. -1.
</event>
<event>
 7    1  0.3014423E-011  0.5052886E+02  0.7816164E-02  0.1300439E+00
        -11   -1    0    0    0    0  0.00000000000E+00  0.00000000000E+00  0.45593999997E+02  0.45594000000E+02  0.51100000000E-03 0. -1.
         11   -1    0    0    0    0 -0.00000000000E+00 -0.00000000000E+00 -0.45593999997E+02  0.45594000000E+02  0.51100000000E-03 0.  1.
    9900012    2    1    2    0    0  0.34866881693E+02  0.82642633571E+01  0.19213746828E+02  0.50528861359E+02  0.30000004588E+02 0.  0.
        -12    1    1    2    0    0 -0.34866881693E+02 -0.82642633571E+01 -0.19213746828E+02  0.40659138641E+02  0.00000000000E+00 0.  1.
         11    1    3    3    0    0  0.59827280621E+01 -0.57456760075E+01  0.82924763558E+01  0.11729066127E+02  0.51100000000E-03 0.  1.
        -11    1    3    3    0    0  0.31852835263E+01  0.22169600215E+01  0.97567944359E+01  0.10500284796E+02  0.51100000000E-03 0. -1.
         12    1    3    3    0    0  0.25698870105E+02  0.11792979343E+02  0.11644760360E+01  0.28299510436E+02  0.00000000000E+00 0. -1.
</event>
<event>
 7    1  0.3014423E-011  0.5052886E+02  0.7816164E-02  0.1300439E+00
        -11   -1    0    0    0    0  0.00000000000E+00  0.00000000000E+00  0.45593999997E+02  0.45594000000E+02  0.51100000000E-03 0.  1.
         11   -1    0    0    0    0 -0.00000000000E+00 -0.00000000000E+00 -0.45593999997E+02  0.45594000000E+02  0.51100000000E-03 0. -1.
    9900012    2    1    2    0    0  0.76361875668E+01 -0.24320594163E+02 -0.31675907606E+02  0.50528858547E+02  0.29999996040E+02 0.  0.
        -12    1    1    2    0    0 -0.76361875668E+01  0.24320594163E+02  0.31675907606E+02  0.40659141453E+02  0.00000000000E+00 0.  1.
         11    1    3    3    0    0  0.13171164271E+02 -0.13136521430E+02 -0.58075312284E+01  0.19487821397E+02  0.51100000000E-03 0. -1.
        -11    1    3    3    0    0  0.26230505737E+01 -0.22772344913E+01 -0.13832969031E+01  0.37389439450E+01  0.51100000000E-03 0.  1.
         12    1    3    3    0    0 -0.81580272784E+01 -0.89068382415E+01 -0.24485079475E+02  0.27302093206E+02  0.00000000000E+00 0. -1.
</event>
<event>
 7    1  0.3014423E-011  0.5052887E+02  0.7816164E-02  0.1300439E+00
        -11   -1    0    0    0    0  0.00000000000E+00  0.00000000000E+00  0.45593999997E+02  0.45594000000E+02  0.51100000000E-03 0. -1.
         11   -1    0    0    0    0 -0.00000000000E+00 -0.00000000000E+00 -0.45593999997E+02  0.45594000000E+02  0.51100000000E-03 0.  1.
    9900012    2    1    2    0    0 -0.37353910127E+02 -0.15970158232E+02  0.16746381107E+01  0.50528868571E+02  0.30000026508E+02 0.  0.
        -12    1    1    2    0    0  0.37353910127E+02  0.15970158232E+02 -0.16746381107E+01  0.40659131429E+02  0.00000000000E+00 0.  1.
         11    1    3    3    0    0 -0.50329684808E+01 -0.12388381008E+01  0.33213487430E+01  0.61560416911E+01  0.51100000000E-03 0. -1.
        -11    1    3    3    0    0 -0.20903076209E+02 -0.31969633591E+01  0.10964006445E+02  0.23819500567E+02  0.51100000000E-03 0.  1.
        -12    1    3    3    0    0 -0.11417865438E+02 -0.11534356772E+02 -0.12610717077E+02  0.20553326312E+02  0.00000000000E+00 0.  1.
</event>
<event>
 7    1  0.3014423E-011  0.5052885E+02  0.7816164E-02  0.1300439E+00
        -11   -1    0    0    0    0  0.00000000000E+00  0.00000000000E+00  0.45593999997E+02  0.45594000000E+02  0.51100000000E-03 0. -1.
         11   -1    0    0    0    0 -0.00000000000E+00 -0.00000000000E+00 -0.45593999997E+02  0.45594000000E+02  0.51100000000E-03 0.  1.
    9900012    2    1    2    0    0 -0.40987998960E+01 -0.23717205953E+02  0.32769805363E+02  0.50528853891E+02  0.29999981887E+02 0.  0.
        -12    1    1    2    0    0  0.40987998960E+01  0.23717205953E+02 -0.32769805363E+02  0.40659146109E+02  0.00000000000E+00 0.  1.
         11    1    3    3    0    0 -0.73564447053E+01 -0.15054039008E+02  0.83548609969E+01  0.18722848920E+02  0.51100000000E-03 0. -1.
        -11    1    3    3    0    0  0.17705730991E+01 -0.11810399298E+02  0.65811648084E+01  0.13635695478E+02  0.51100000000E-03 0.  1.
         12    1    3    3    0    0  0.14870717102E+01  0.31472323530E+01  0.17833779558E+02  0.18170309493E+02  0.00000000000E+00 0. -1.
</event>
<event>
 7    1  0.3014423E-011  0.5052885E+02  0.7816164E-02  0.1300439E+00
        -11   -1    0    0    0    0  0.00000000000E+00  0.00000000000E+00  0.45593999997E+02  0.45594000000E+02  0.51100000000E-03 0. -1.
         11   -1    0    0    0    0 -0.00000000000E+00 -0.00000000000E+00 -0.45593999997E+02  0.45594000000E+02  0.51100000000E-03 0.  1.
    9900012    2    1    2    0    0 -0.33442305059E+02  0.16201905710E+02 -0.16500806901E+02  0.50528854108E+02  0.29999982547E+02 0.  0.
        -12    1    1    2    0    0  0.33442305059E+02 -0.16201905710E+02  0.16500806901E+02  0.40659145892E+02  0.00000000000E+00 0.  1.
         11    1    3    3    0    0 -0.55388609888E+00  0.36159633379E+01  0.26637363092E+01  0.45252040902E+01  0.51100000000E-03 0.  1.
        -11    1    3    3    0    0 -0.22133881916E+02 -0.28698647097E+01 -0.14465377817E+02  0.26596842064E+02  0.51100000000E-03 0. -1.
         12    1    3    3    0    0 -0.10754537044E+02  0.15455807082E+02 -0.46991653931E+01  0.19406807954E+02  0.00000000000E+00 0. -1.
</event>
<event>
 7    1  0.3014423E-011  0.5052888E+02  0.7816164E-02  0.1300439E+00
        -11   -1    0    0    0    0  0.00000000000E+00  0.00000000000E+00  0.45593999997E+02  0.45594000000E+02  0.51100000000E-03 0. -1.
         11   -1    0    0    0    0 -0.00000000000E+00 -0.00000000000E+00 -0.45593999997E+02  0.45594000000E+02  0.51100000000E-03 0.  1.
    9900012    2    1    2    0    0  0.10832829934E+02 -0.22181895947E+02  0.32307548314E+02  0.50528875683E+02  0.30000048125E+02 0.  0.
        -12    1    1    2    0    0 -0.10832829934E+02  0.22181895947E+02 -0.32307548314E+02  0.40659124317E+02  0.00000000000E+00 0.  1.
         11    1    3    3    0    0  0.46680423088E+01 -0.12439707391E+02  0.10266760287E+02  0.16791167501E+02  0.51100000000E-03 0. -1.
        -11    1    3    3    0    0  0.39198513949E+01 -0.15092244106E+02  0.60476697975E+01  0.16724693640E+02  0.51100000000E-03 0.  1.
        -12    1    3    3    0    0  0.22449362302E+01  0.53500555514E+01  0.15993118230E+02  0.17013014541E+02  0.00000000000E+00 0.  1.
</event>
<event>
 7    1  0.3014423E-011  0.5052886E+02  0.7816164E-02  0.1300439E+00
        -11   -1    0    0    0    0  0.00000000000E+00  0.00000000000E+00  0.45593999997E+02  0.45594000000E+02  0.51100000000E-03 0. -1.
         11   -1    0    0    0    0 -0.00000000000E+00 -0.00000000000E+00 -0.45593999997E+02  0.45594000000E+02  0.51100000000E-03 0.  1.
    9900012    2    1    2    0    0  0.19453317563E+02  0.24880231792E+02  0.25606799872E+02  0.50528859602E+02  0.29999999246E+02 0.  0.
        -12    1    1    2    0    0 -0.19453317563E+02 -0.24880231792E+02 -0.25606799872E+02  0.40659140398E+02  0.00000000000E+00 0.  1.
         11    1    3    3    0    0  0.11246313500E+02  0.10615008183E+02  0.20374105818E+02  0.25578548712E+02  0.51100000000E-03 0. -1.
        -11    1    3    3    0    0  0.74993465759E+01  0.12217479474E+02  0.11462366793E+02  0.18354641280E+02  0.51100000000E-03 0.  1.
        -12    1    3    3    0    0  0.70765748708E+00  0.20477441350E+01 -0.62296727392E+01  0.65956696096E+01  0.00000000000E+00 0.  1.
</event>
<event>
 7    1  0.3014423E-011  0.5052885E+02  0.7816164E-02  0.1300439E+00
        -11   -1    0    0    0    0  0.00000000000E+00  0.00000000000E+00  0.45593999997E+02  0.45594000000E+02  0.51100000000E-03 0. -1.
         11   -1    0    0    0    0 -0.00000000000E+00 -0.00000000000E+00 -0.45593999997E+02  0.45594000000E+02  0.51100000000E-03 0.  1.
    9900012    2    1    2    0    0 -0.36124778360E+02  0.11836476769E+02 -0.14424436979E+02  0.50528853723E+02  0.29999981375E+02 0.  0.
        -12    1    1    2    0    0  0.36124778360E+02 -0.11836476769E+02  0.14424436979E+02  0.40659146277E+02  0.00000000000E+00 0.  1.
         11    1    3    3    0    0 -0.10508208007E+02  0.68544602385E+01 -0.13714264989E+02  0.18587283963E+02  0.51100000000E-03 0.  1.
        -11    1    3    3    0    0 -0.17149433926E+02  0.86412766787E+01 -0.73651119352E+01  0.20567440791E+02  0.51100000000E-03 0. -1.
        -12    1    3    3    0    0 -0.84671364268E+01 -0.36592601484E+01  0.66549399457E+01  0.11374128968E+02  0.00000000000E+00 0.  1.
</event>
<event>
 7    1  0.3014423E-011  0.5052885E+02  0.7816164E-02  0.1300439E+00
        -11   -1    0    0    0    0  0.00000000000E+00  0.00000000000E+00  0.45593999997E+02  0.45594000000E+02  0.51100000000E-03 0.  1.
         11   -1    0    0    0    0 -0.00000000000E+00 -0.00000000000E+00 -0.45593999997E+02  0.45594000000E+02  0.51100000000E-03 0. -1.
    9900012    2    1    2    0    0  0.40268961285E+02  0.41783816249E+01 -0.37574322327E+01  0.50528850809E+02  0.29999972518E+02 0.  0.
        -12    1    1    2    0    0 -0.40268961285E+02 -0.41783816249E+01  0.37574322327E+01  0.40659149191E+02  0.00000000000E+00 0.  1.
         11    1    3    3    0    0  0.11135509813E+02  0.12195299275E+02 -0.50284891960E+01  0.17262983724E+02  0.51100000000E-03 0. -1.
        -11    1    3    3    0    0  0.69743495173E+01  0.27520171183E+01  0.39653575207E+01  0.84816985290E+01  0.51100000000E-03 0.  1.
         12    1    3    3    0    0  0.22159101955E+02 -0.10768934768E+02 -0.26943005575E+01  0.24784168555E+02  0.00000000000E+00 0. -1.
</event>
<event>
 7    1  0.3014423E-011  0.5052882E+02  0.7816164E-02  0.1300439E+00
        -11   -1    0    0    0    0  0.00000000000E+00  0.00000000000E+00  0.45593999997E+02  0.45594000000E+02  0.51100000000E-03 0. -1.
         11   -1    0    0    0    0 -0.00000000000E+00 -0.00000000000E+00 -0.45593999997E+02  0.45594000000E+02  0.51100000000E-03 0.  1.
    9900012    2    1    2    0    0 -0.27124756204E+02  0.26419213068E+02  0.14813571947E+02  0.50528817371E+02  0.29999870880E+02 0.  0.
        -12    1    1    2    0    0  0.27124756204E+02 -0.26419213068E+02 -0.14813571947E+02  0.40659182629E+02  0.00000000000E+00 0.  1.
         11    1    3    3    0    0 -0.12145320929E+02  0.16978740990E+02  0.49314635015E+01  0.21450076890E+02  0.51100000000E-03 0. -1.
        -11    1    3    3    0    0 -0.62643753291E+01  0.15465529151E+02  0.70305764883E+01  0.18106738972E+02  0.51100000000E-03 0.  1.
        -12    1    3    3    0    0 -0.87150599461E+01 -0.60250570732E+01  0.28515319572E+01  0.10972001509E+02  0.00000000000E+00 0.  1.
</event>
<event>
 7    1  0.3014423E-011  0.5052883E+02  0.7816164E-02  0.1300439E+00
        -11   -1    0    0    0    0  0.00000000000E+00  0.00000000000E+00  0.45593999997E+02  0.45594000000E+02  0.51100000000E-03 0.  1.
         11   -1    0    0    0    0 -0.00000000000E+00 -0.00000000000E+00 -0.45593999997E+02  0.45594000000E+02  0.51100000000E-03 0. -1.
    9900012    2    1    2    0    0 -0.11796708806E+02 -0.26283533156E+02 -0.28691136309E+02  0.50528834286E+02  0.29999922296E+02 0.  0.
        -12    1    1    2    0    0  0.11796708806E+02  0.26283533156E+02  0.28691136309E+02  0.40659165714E+02  0.00000000000E+00 0.  1.
         11    1    3    3    0    0  0.38703805952E+01  0.84400309307E+00  0.10881363910E+01  0.41080686751E+01  0.51100000000E-03 0. -1.
        -11    1    3    3    0    0 -0.42321261722E+01  0.16910526980E+01 -0.30369606947E+01  0.54766487643E+01  0.51100000000E-03 0.  1.
         12    1    3    3    0    0 -0.11434963229E+02 -0.28818588948E+02 -0.26742312005E+02  0.40944116847E+02  0.00000000000E+00 0. -1.
</event>
<event>
 7    1  0.3014423E-011  0.5052886E+02  0.7816164E-02  0.1300439E+00
        -11   -1    0    0    0    0  0.00000000000E+00  0.00000000000E+00  0.45593999997E+02  0.45594000000E+02  0.51100000000E-03 0.  1.
         11   -1    0    0    0    0 -0.00000000000E+00 -0.00000000000E+00 -0.45593999997E+02  0.45594000000E+02  0.51100000000E-03 0. -1.
    9900012    2    1    2    0    0 -0.26666699901E+02 -0.24552188099E+02 -0.18418547250E+02  0.50528859492E+02  0.29999998911E+02 0.  0.
        -12    1    1    2    0    0  0.26666699901E+02  0.24552188099E+02  0.18418547250E+02  0.40659140508E+02  0.00000000000E+00 0.  1.
         11    1    3    3    0    0 -0.62606987784E+00 -0.12723400036E+02 -0.11622184758E+02  0.17243898944E+02  0.51100000000E-03 0. -1.
        -11    1    3    3    0    0 -0.93686328380E+00 -0.20526762374E+01 -0.59146112506E+01  0.63303885390E+01  0.51100000000E-03 0.  1.
        -12    1    3    3    0    0 -0.25103766740E+02 -0.97761118251E+01 -0.88175124175E+00  0.26954572009E+02  0.00000000000E+00 0.  1.
</event>
<event>
 7    1  0.3014423E-011  0.5052886E+02  0.7816164E-02  0.1300439E+00
        -11   -1    0    0    0    0  0.00000000000E+00  0.00000000000E+00  0.45593999997E+02  0.45594000000E+02  0.51100000000E-03 0. -1.
         11   -1    0    0    0    0 -0.00000000000E+00 -0.00000000000E+00 -0.45593999997E+02  0.45594000000E+02  0.51100000000E-03 0.  1.
    9900012    2    1    2    0    0  0.26828864779E+02  0.38660874701E+01  0.30305621068E+02  0.50528864667E+02  0.30000014643E+02 0.  0.
        -12    1    1    2    0    0 -0.26828864779E+02 -0.38660874701E+01 -0.30305621068E+02  0.40659135333E+02  0.00000000000E+00 0.  1.
         11    1    3    3    0    0  0.61157660041E+01 -0.13253535090E+01  0.24177902008E+02  0.24974589116E+02  0.51100000000E-03 0. -1.
        -11    1    3    3    0    0  0.13869518152E+02 -0.21643280005E+01  0.65673502977E+01  0.15497675299E+02  0.51100000000E-03 0.  1.
        -12    1    3    3    0    0  0.68435806229E+01  0.73557689796E+01 -0.43963123733E+00  0.10056600253E+02  0.00000000000E+00 0.  1.
</event>
<event>
 7    1  0.3014423E-011  0.5052886E+02  0.7816164E-02  0.1300439E+00
        -11   -1    0    0    0    0  0.00000000000E+00  0.00000000000E+00  0.45593999997E+02  0.45594000000E+02  0.51100000000E-03 0.  1.
         11   -1    0    0    0    0 -0.00000000000E+00 -0.00000000000E+00 -0.45593999997E+02  0.45594000000E+02  0.51100000000E-03 0. -1.
    9900012    2    1    2    0    0  0.37296990513E+02  0.85246500134E+01 -0.13763377507E+02  0.50528859335E+02  0.29999998436E+02 0.  0.
        -12    1    1    2    0    0 -0.37296990513E+02 -0.85246500134E+01  0.13763377507E+02  0.40659140665E+02  0.00000000000E+00 0.  1.
         11    1    3    3    0    0  0.15019862887E+01 -0.53724064241E+01 -0.39263811353E+01  0.68216700798E+01  0.51100000000E-03 0. -1.
        -11    1    3    3    0    0  0.91126876353E+01 -0.44790823013E+01 -0.16083491319E+01  0.10280566200E+02  0.51100000000E-03 0.  1.
         12    1    3    3    0    0  0.26682316589E+02  0.18376138739E+02 -0.82286472402E+01  0.33426623056E+02  0.00000000000E+00 0. -1.
</event>
<event>
 7    1  0.3014423E-011  0.5052886E+02  0.7816164E-02  0.1300439E+00
        -11   -1    0    0    0    0  0.00000000000E+00  0.00000000000E+00  0.45593999997E+02  0.45594000000E+02  0.51100000000E-03 0.  1.
         11   -1    0    0    0    0 -0.00000000000E+00 -0.00000000000E+00 -0.45593999997E+02  0.45594000000E+02  0.51100000000E-03 0. -1.
    9900012    2    1    2    0    0 -0.26511355848E+02 -0.18839963911E+02 -0.24400196604E+02  0.50528858059E+02  0.29999994556E+02 0.  0.
        -12    1    1    2    0    0  0.26511355848E+02  0.18839963911E+02  0.24400196604E+02  0.40659141941E+02  0.00000000000E+00 0.  1.
         11    1    3    3    0    0 -0.20370874645E+02 -0.12302163419E+02 -0.27813381584E+02  0.36604643885E+02  0.51100000000E-03 0. -1.
        -11    1    3    3    0    0 -0.28661325755E+01 -0.52670868261E+01 -0.29296868167E+01  0.66738283375E+01  0.51100000000E-03 0.  1.
        -12    1    3    3    0    0 -0.32743486271E+01 -0.12707136655E+01  0.63428717958E+01  0.72503858359E+01  0.00000000000E+00 0.  1.
</event>
<event>
 7    1  0.3014423E-011  0.5052883E+02  0.7816164E-02  0.1300439E+00
        -11   -1    0    0    0    0  0.00000000000E+00  0.00000000000E+00  0.45593999997E+02  0.45594000000E+02  0.51100000000E-03 0. -1.
         11   -1    0    0    0    0 -0.00000000000E+00 -0.00000000000E+00 -0.45593999997E+02  0.45594000000E+02  0.51100000000E-03 0.  1.
    9900012    2    1    2    0    0 -0.21565898844E+02  0.33306582863E+02  0.88741929885E+01  0.50528834291E+02  0.29999922312E+02 0.  0.
        -12    1    1    2    0    0  0.21565898844E+02 -0.33306582863E+02 -0.88741929885E+01  0.40659165709E+02  0.00000000000E+00 0.  1.
         11    1    3    3    0    0 -0.90165112101E+00 -0.16391504432E+01 -0.12444531608E+01  0.22468762427E+01  0.51100000000E-03 0. -1.
        -11    1    3    3    0    0 -0.15106446787E+02  0.48859541577E+01 -0.59924007524E+00  0.15888246332E+02  0.51100000000E-03 0.  1.
        -12    1    3    3    0    0 -0.55578009357E+01  0.30059779148E+02  0.10717886224E+02  0.32393711717E+02  0.00000000000E+00 0.  1.
</event>
<event>
 7    1  0.3014423E-011  0.5052885E+02  0.7816164E-02  0.1300439E+00
        -11   -1    0    0    0    0  0.00000000000E+00  0.00000000000E+00  0.45593999997E+02  0.45594000000E+02  0.51100000000E-03 0.  1.
         11   -1    0    0    0    0 -0.00000000000E+00 -0.00000000000E+00 -0.45593999997E+02  0.45594000000E+02  0.51100000000E-03 0. -1.
    9900012    2    1    2    0    0  0.73307162379E+01 -0.11837729490E+02 -0.38200724584E+02  0.50528848523E+02  0.29999965572E+02 0.  0.
        -12    1    1    2    0    0 -0.73307162379E+01  0.11837729490E+02  0.38200724584E+02  0.40659151477E+02  0.00000000000E+00 0.  1.
         11    1    3    3    0    0  0.18658880781E+00 -0.11083238712E+02 -0.28544848741E+02  0.30621583657E+02  0.51100000000E-03 0. -1.
        -11    1    3    3    0    0  0.78025816962E+01 -0.69680155975E+01 -0.86591988423E+01  0.13579957560E+02  0.51100000000E-03 0.  1.
        -12    1    3    3    0    0 -0.65845426609E+00  0.62135248195E+01 -0.99667700057E+00  0.63273073062E+01  0.00000000000E+00 0.  1.
</event>
<event>
 7    1  0.3014423E-011  0.5052898E+02  0.7816164E-02  0.1300438E+00
        -11   -1    0    0    0    0  0.00000000000E+00  0.00000000000E+00  0.45593999997E+02  0.45594000000E+02  0.51100000000E-03 0.  1.
         11   -1    0    0    0    0 -0.00000000000E+00 -0.00000000000E+00 -0.45593999997E+02  0.45594000000E+02  0.51100000000E-03 0. -1.
    9900012    2    1    2    0    0 -0.24006309013E+02  0.22624136732E+02 -0.23769764681E+02  0.50528977037E+02  0.30000356201E+02 0.  0.
        -12    1    1    2    0    0  0.24006309013E+02 -0.22624136732E+02  0.23769764681E+02  0.40659022963E+02  0.00000000000E+00 0.  1.
         11    1    3    3    0    0 -0.13790940785E+02  0.73287820630E+01 -0.17145151951E+02  0.23191751334E+02  0.51100000000E-03 0. -1.
        -11    1    3    3    0    0 -0.12955745914E+02  0.17001420414E+02 -0.16917960947E+01  0.21442057330E+02  0.51100000000E-03 0.  1.
        -12    1    3    3    0    0  0.27403776855E+01 -0.17060657453E+01 -0.49328166359E+01  0.58951683733E+01  0.00000000000E+00 0.  1.
</event>
<event>
 7    1  0.3014423E-011  0.5052886E+02  0.7816164E-02  0.1300439E+00
        -11   -1    0    0    0    0  0.00000000000E+00  0.00000000000E+00  0.45593999997E+02  0.45594000000E+02  0.51100000000E-03 0. -1.
         11   -1    0    0    0    0 -0.00000000000E+00 -0.00000000000E+00 -0.45593999997E+02  0.45594000000E+02  0.51100000000E-03 0.  1.
    9900012    2    1    2    0    0 -0.44429116948E+01  0.66038646586E+01  0.39872489095E+02  0.50528857370E+02  0.29999992463E+02 0.  0.
        -12    1    1    2    0    0  0.44429116948E+01 -0.66038646586E+01 -0.39872489095E+02  0.40659142630E+02  0.00000000000E+00 0.  1.
         11    1    3    3    0    0 -0.33531519715E+00 -0.85585027881E+01  0.37928741392E+01  0.93672995443E+01  0.51100000000E-03 0. -1.
        -11    1    3    3    0    0 -0.75127818861E+01  0.81018094570E+01  0.14694492041E+02  0.18385029365E+02  0.51100000000E-03 0.  1.
        -12    1    3    3    0    0  0.34051853885E+01  0.70605579897E+01  0.21385122915E+02  0.22776528461E+02  0.00000000000E+00 0.  1.
</event>
<event>
 7    1  0.3014423E-011  0.5052885E+02  0.7816164E-02  0.1300439E+00
        -11   -1    0    0    0    0  0.00000000000E+00  0.00000000000E+00  0.45593999997E+02  0.45594000000E+02  0.51100000000E-03 0.  1.
         11   -1    0    0    0    0 -0.00000000000E+00 -0.00000000000E+00 -0.45593999997E+02  0.45594000000E+02  0.51100000000E-03 0. -1.
    9900012    2    1    2    0    0  0.26181692854E+01  0.36576644241E+02 -0.17563053668E+02  0.50528848896E+02  0.29999966705E+02 0.  0.
        -12    1    1    2    0    0 -0.26181692854E+01 -0.36576644241E+02  0.17563053668E+02  0.40659151104E+02  0.00000000000E+00 0.  1.
         11    1    3    3    0    0  0.65378991255E+01  0.79979222230E+01 -0.81150386244E+01  0.13136389801E+02  0.51100000000E-03 0. -1.
        -11    1    3    3    0    0  0.53366603453E+01  0.31473320317E+00 -0.50014941465E+01  0.73207885224E+01  0.51100000000E-03 0.  1.
         12    1    3    3    0    0 -0.92563901854E+01  0.28263988815E+02 -0.44465208971E+01  0.30071670573E+02  0.00000000000E+00 0. -1.
</event>
<event>
 7    1  0.3014423E-011  0.5052886E+02  0.7816164E-02  0.1300439E+00
        -11   -1    0    0    0    0  0.00000000000E+00  0.00000000000E+00  0.45593999997E+02  0.45594000000E+02  0.51100000000E-03 0.  1.
         11   -1    0    0    0    0 -0.00000000000E+00 -0.00000000000E+00 -0.45593999997E+02  0.45594000000E+02  0.51100000000E-03 0. -1.
    9900012    2    1    2    0    0  0.18383681063E+01 -0.17906909023E+00 -0.40617162315E+02  0.50528861574E+02  0.30000005239E+02 0.  0.
        -12    1    1    2    0    0 -0.18383681063E+01  0.17906909023E+00  0.40617162315E+02  0.40659138426E+02  0.00000000000E+00 0.  1.
         11    1    3    3    0    0  0.16005029775E+01 -0.17084688053E+01 -0.17128883883E+02  0.17288121320E+02  0.51100000000E-03 0. -1.
        -11    1    3    3    0    0  0.55692973023E+01 -0.85264947654E+01 -0.45700541888E+01  0.11162597412E+02  0.51100000000E-03 0.  1.
         12    1    3    3    0    0 -0.53314321735E+01  0.10055894480E+02 -0.18918224244E+02  0.22078142842E+02  0.00000000000E+00 0. -1.
</event>
<event>
 7    1  0.3014423E-011  0.5052886E+02  0.7816164E-02  0.1300439E+00
        -11   -1    0    0    0    0  0.00000000000E+00  0.00000000000E+00  0.45593999997E+02  0.45594000000E+02  0.51100000000E-03 0.  1.
         11   -1    0    0    0    0 -0.00000000000E+00 -0.00000000000E+00 -0.45593999997E+02  0.45594000000E+02  0.51100000000E-03 0. -1.
    9900012    2    1    2    0    0 -0.28011387343E+02  0.29259545528E+02 -0.35223604620E+01  0.50528857748E+02  0.29999993611E+02 0.  0.
        -12    1    1    2    0    0  0.28011387343E+02 -0.29259545528E+02  0.35223604620E+01  0.40659142252E+02  0.00000000000E+00 0.  1.
         11    1    3    3    0    0 -0.10017513246E+02  0.10187453612E+02  0.62768423135E+01  0.15605560946E+02  0.51100000000E-03 0. -1.
        -11    1    3    3    0    0 -0.85327762688E+01  0.96967438573E+01  0.60140851324E+01  0.14247958890E+02  0.51100000000E-03 0.  1.
         12    1    3    3    0    0 -0.94610978288E+01  0.93753480586E+01 -0.15813287908E+02  0.20675337913E+02  0.00000000000E+00 0. -1.
</event>
<event>
 7    1  0.3014423E-011  0.5052884E+02  0.7816164E-02  0.1300439E+00
        -11   -1    0    0    0    0  0.00000000000E+00  0.00000000000E+00  0.45593999997E+02  0.45594000000E+02  0.51100000000E-03 0.  1.
         11   -1    0    0    0    0 -0.00000000000E+00 -0.00000000000E+00 -0.45593999997E+02  0.45594000000E+02  0.51100000000E-03 0. -1.
    9900012    2    1    2    0    0  0.30643423246E+02 -0.13846935701E+02 -0.22856301864E+02  0.50528836808E+02  0.29999929961E+02 0.  0.
        -12    1    1    2    0    0 -0.30643423246E+02  0.13846935701E+02  0.22856301864E+02  0.40659163192E+02  0.00000000000E+00 0.  1.
         11    1    3    3    0    0  0.13417920096E+01  0.39528267158E+01 -0.26095383205E+01  0.49228990797E+01  0.51100000000E-03 0. -1.
        -11    1    3    3    0    0 -0.21842744197E+01  0.16672776128E+01 -0.47241242112E+01  0.54651824492E+01  0.51100000000E-03 0.  1.
         12    1    3    3    0    0  0.31485905656E+02 -0.19467040030E+02 -0.15522639332E+02  0.40140755279E+02  0.00000000000E+00 0. -1.
</event>
<event>
 7    1  0.3014423E-011  0.5052886E+02  0.7816164E-02  0.1300439E+00
        -11   -1    0    0    0    0  0.00000000000E+00  0.00000000000E+00  0.45593999997E+02  0.45594000000E+02  0.51100000000E-03 0.  1.
         11   -1    0    0    0    0 -0.00000000000E+00 -0.00000000000E+00 -0.45593999997E+02  0.45594000000E+02  0.51100000000E-03 0. -1.
    9900012    2    1    2    0    0 -0.33084802933E+02  0.71974585183E+01 -0.22511294771E+02  0.50528856053E+02  0.29999988459E+02 0.  0.
        -12    1    1    2    0    0  0.33084802933E+02 -0.71974585183E+01  0.22511294771E+02  0.40659143947E+02  0.00000000000E+00 0.  1.
         11    1    3    3    0    0 -0.22546479388E+02  0.85386044036E+01 -0.27398735834E+02  0.36495783640E+02  0.51100000000E-03 0. -1.
        -11    1    3    3    0    0  0.80563924304E+00 -0.15469245434E+01  0.11431018369E+01  0.20853566130E+01  0.51100000000E-03 0.  1.
        -12    1    3    3    0    0 -0.11343962788E+02  0.20577865810E+00  0.37443392260E+01  0.11947715800E+02  0.00000000000E+00 0.  1.
</event>
<event>
 7    1  0.3014423E-011  0.5052884E+02  0.7816164E-02  0.1300439E+00
        -11   -1    0    0    0    0  0.00000000000E+00  0.00000000000E+00  0.45593999997E+02  0.45594000000E+02  0.51100000000E-03 0.  1.
         11   -1    0    0    0    0 -0.00000000000E+00 -0.00000000000E+00 -0.45593999997E+02  0.45594000000E+02  0.51100000000E-03 0. -1.
    9900012    2    1    2    0    0 -0.22266016225E+01 -0.26195536442E+02 -0.31016178935E+02  0.50528840638E+02  0.29999941604E+02 0.  0.
        -12    1    1    2    0    0  0.22266016225E+01  0.26195536442E+02  0.31016178935E+02  0.40659159362E+02  0.00000000000E+00 0.  1.
         11    1    3    3    0    0  0.25488585167E+01 -0.11739480946E+02 -0.11705308681E+01  0.12069889618E+02  0.51100000000E-03 0. -1.
        -11    1    3    3    0    0 -0.54660479588E+01 -0.13818651615E+02 -0.85539286407E+01  0.17146501340E+02  0.51100000000E-03 0.  1.
         12    1    3    3    0    0  0.69058781951E+00 -0.63740388077E+00 -0.21291719426E+02  0.21312449680E+02  0.00000000000E+00 0. -1.
</event>
<event>
 7    1  0.3014423E-011  0.5052886E+02  0.7816164E-02  0.1300439E+00
        -11   -1    0    0    0    0  0.00000000000E+00  0.00000000000E+00  0.45593999997E+02  0.45594000000E+02  0.51100000000E-03 0. -1.
         11   -1    0    0    0    0 -0.00000000000E+00 -0.00000000000E+00 -0.45593999997E+02  0.45594000000E+02  0.51100000000E-03 0.  1.
    9900012    2    1    2    0    0  0.23010893315E+02 -0.31608304839E+02  0.11161533858E+02  0.50528856084E+02  0.29999988552E+02 0.  0.
        -12    1    1    2    0    0 -0.23010893315E+02  0.31608304839E+02 -0.11161533858E+02  0.40659143916E+02  0.00000000000E+00 0.  1.
         11    1    3    3    0    0  0.22898503243E+02 -0.19252767003E+02 -0.13150453023E+01  0.29945614578E+02  0.51100000000E-03 0. -1.
        -11    1    3    3    0    0 -0.27876087587E+01 -0.22099771731E+01 -0.77795727363E+00  0.36414254734E+01  0.51100000000E-03 0.  1.
        -12    1    3    3    0    0  0.28999988306E+01 -0.10145560663E+02  0.13254536434E+02  0.16941816032E+02  0.00000000000E+00 0.  1.
</event>
<event>
 7    1  0.3014423E-011  0.5052877E+02  0.7816164E-02  0.1300439E+00
        -11   -1    0    0    0    0  0.00000000000E+00  0.00000000000E+00  0.45593999997E+02  0.45594000000E+02  0.51100000000E-03 0.  1.
         11   -1    0    0    0    0 -0.00000000000E+00 -0.00000000000E+00 -0.45593999997E+02  0.45594000000E+02  0.51100000000E-03 0. -1.
    9900012    2    1    2    0    0 -0.29148992784E+02  0.17333066952E+02 -0.22429309526E+02  0.50528770838E+02  0.29999729438E+02 0.  0.
        -12    1    1    2    0    0  0.29148992784E+02 -0.17333066952E+02  0.22429309526E+02  0.40659229162E+02  0.00000000000E+00 0.  1.
         11    1    3    3    0    0 -0.53691414341E+01  0.16267191124E+02 -0.15647459331E+02  0.23201124338E+02  0.51100000000E-03 0. -1.
        -11    1    3    3    0    0 -0.11288185112E+02  0.18727430121E+01  0.25391222058E+01  0.11720811889E+02  0.51100000000E-03 0.  1.
        -12    1    3    3    0    0 -0.12491666238E+02 -0.80686718453E+00 -0.93209724013E+01  0.15606834610E+02  0.00000000000E+00 0.  1.
</event>
<event>
 7    1  0.3014423E-011  0.5052886E+02  0.7816164E-02  0.1300439E+00
        -11   -1    0    0    0    0  0.00000000000E+00  0.00000000000E+00  0.45593999997E+02  0.45594000000E+02  0.51100000000E-03 0. -1.
         11   -1    0    0    0    0 -0.00000000000E+00 -0.00000000000E+00 -0.45593999997E+02  0.45594000000E+02  0.51100000000E-03 0.  1.
    9900012    2    1    2    0    0 -0.11748360317E+00 -0.40468688806E+02 -0.39290339793E+01  0.50528857313E+02  0.29999992287E+02 0.  0.
        -12    1    1    2    0    0  0.11748360317E+00  0.40468688806E+02  0.39290339793E+01  0.40659142687E+02  0.00000000000E+00 0.  1.
         11    1    3    3    0    0 -0.11251102503E+02 -0.16338538732E+02 -0.55714896443E+01  0.20605257886E+02  0.51100000000E-03 0. -1.
        -11    1    3    3    0    0  0.23915789217E+00 -0.24176793893E+01  0.48459848117E+01  0.54208799271E+01  0.51100000000E-03 0.  1.
         12    1    3    3    0    0  0.10894461008E+02 -0.21712470684E+02 -0.32035291468E+01  0.24502719499E+02  0.00000000000E+00 0. -1.
</event>
<event>
 7    1  0.3014423E-011  0.5052887E+02  0.7816164E-02  0.1300439E+00
        -11   -1    0    0    0    0  0.00000000000E+00  0.00000000000E+00  0.45593999997E+02  0.45594000000E+02  0.51100000000E-03 0.  1.
         11   -1    0    0    0    0 -0.00000000000E+00 -0.00000000000E+00 -0.45593999997E+02  0.45594000000E+02  0.51100000000E-03 0. -1.
    9900012    2    1    2    0    0  0.36385776161E+02  0.12180381949E+02 -0.13449118268E+02  0.50528865806E+02  0.30000018103E+02 0.  0.
        -12    1    1    2    0    0 -0.36385776161E+02 -0.12180381949E+02  0.13449118268E+02  0.40659134194E+02  0.00000000000E+00 0.  1.
         11    1    3    3    0    0  0.18822317351E+02  0.14505698013E+02 -0.28792417292E+01  0.23937103804E+02  0.51100000000E-03 0. -1.
        -11    1    3    3    0    0  0.93548145426E-01  0.29297885562E+01  0.27375136758E+01  0.40107846646E+01  0.51100000000E-03 0.  1.
        -12    1    3    3    0    0  0.17469910664E+02 -0.52551046202E+01 -0.13307390215E+02  0.22580977337E+02  0.00000000000E+00 0.  1.
</event>
<event>
 7    1  0.3014423E-011  0.5052887E+02  0.7816164E-02  0.1300439E+00
        -11   -1    0    0    0    0  0.00000000000E+00  0.00000000000E+00  0.45593999997E+02  0.45594000000E+02  0.51100000000E-03 0. -1.
         11   -1    0    0    0    0 -0.00000000000E+00 -0.00000000000E+00 -0.45593999997E+02  0.45594000000E+02  0.51100000000E-03 0.  1.
    9900012    2    1    2    0    0  0.27610800759E+02 -0.29779622252E+02  0.19955849589E+01  0.50528873357E+02  0.30000041056E+02 0.  0.
        -12    1    1    2    0    0 -0.27610800759E+02  0.29779622252E+02 -0.19955849589E+01  0.40659126643E+02  0.00000000000E+00 0.  1.
         11    1    3    3    0    0  0.46001404304E+01 -0.23164387936E+02  0.18676026048E+01  0.23690464330E+02  0.51100000000E-03 0. -1.
        -11    1    3    3    0    0  0.17419548499E+02 -0.86302616051E+01  0.38612782182E+01  0.19819978684E+02  0.51100000000E-03 0.  1.
        -12    1    3    3    0    0  0.55911118302E+01  0.20150272894E+01 -0.37332958640E+01  0.70184303432E+01  0.00000000000E+00 0.  1.
</event>
<event>
 7    1  0.3014423E-011  0.5052886E+02  0.7816164E-02  0.1300439E+00
        -11   -1    0    0    0    0  0.00000000000E+00  0.00000000000E+00  0.45593999997E+02  0.45594000000E+02  0.51100000000E-03 0. -1.
         11   -1    0    0    0    0 -0.00000000000E+00 -0.00000000000E+00 -0.45593999997E+02  0.45594000000E+02  0.51100000000E-03 0.  1.
    9900012    2    1    2    0    0  0.86564948317E+01 -0.39655431083E+02 -0.23828017016E+01  0.50528857595E+02  0.29999993146E+02 0.  0.
        -12    1    1    2    0    0 -0.86564948317E+01  0.39655431083E+02  0.23828017016E+01  0.40659142405E+02  0.00000000000E+00 0.  1.
         11    1    3    3    0    0  0.61076904436E+00 -0.65211925731E+01 -0.34390127280E+01  0.73976888421E+01  0.51100000000E-03 0. -1.
        -11    1    3    3    0    0 -0.55944737441E+01 -0.18332349267E+02 -0.83580190080E+01  0.20910037019E+02  0.51100000000E-03 0.  1.
         12    1    3    3    0    0  0.13640199532E+02 -0.14801889242E+02  0.94142300344E+01  0.22221131734E+02  0.00000000000E+00 0. -1.
</event>
<event>
 7    1  0.3014423E-011  0.5052890E+02  0.7816164E-02  0.1300439E+00
        -11   -1    0    0    0    0  0.00000000000E+00  0.00000000000E+00  0.45593999997E+02  0.45594000000E+02  0.51100000000E-03 0.  1.
         11   -1    0    0    0    0 -0.00000000000E+00 -0.00000000000E+00 -0.45593999997E+02  0.45594000000E+02  0.51100000000E-03 0. -1.
    9900012    2    1    2    0    0  0.36480702506E+02  0.16907225048E+02 -0.60387682949E+01  0.50528897248E+02  0.30000113674E+02 0.  0.
        -12    1    1    2    0    0 -0.36480702506E+02 -0.16907225048E+02  0.60387682949E+01  0.40659102752E+02  0.00000000000E+00 0.  1.
         11    1    3    3    0    0  0.19141258427E+02  0.54945947790E+01 -0.11587570388E+02  0.23040185192E+02  0.51100000000E-03 0. -1.
        -11    1    3    3    0    0  0.57173914400E+01  0.88360904259E+00 -0.57526312290E+01  0.81585596851E+01  0.51100000000E-03 0.  1.
        -12    1    3    3    0    0  0.11622052639E+02  0.10529021226E+02  0.11301433322E+02  0.19330152370E+02  0.00000000000E+00 0.  1.
</event>
<event>
 7    1  0.3014423E-011  0.5052886E+02  0.7816164E-02  0.1300439E+00
        -11   -1    0    0    0    0  0.00000000000E+00  0.00000000000E+00  0.45593999997E+02  0.45594000000E+02  0.51100000000E-03 0.  1.
         11   -1    0    0    0    0 -0.00000000000E+00 -0.00000000000E+00 -0.45593999997E+02  0.45594000000E+02  0.51100000000E-03 0. -1.
    9900012    2    1    2    0    0 -0.17349088453E+02  0.29841898772E+02 -0.21485708636E+02  0.50528862429E+02  0.30000007839E+02 0.  0.
        -12    1    1    2    0    0  0.17349088453E+02 -0.29841898772E+02  0.21485708636E+02  0.40659137571E+02  0.00000000000E+00 0.  1.
         11    1    3    3    0    0 -0.11855048554E+02  0.14808103150E+02 -0.17377998628E+02  0.25725802838E+02  0.51100000000E-03 0. -1.
        -11    1    3    3    0    0  0.61295561554E+01  0.18045722418E+01 -0.32579877383E+01  0.71723374155E+01  0.51100000000E-03 0.  1.
        -12    1    3    3    0    0 -0.11623596055E+02  0.13229223380E+02 -0.84972226968E+00  0.17630722175E+02  0.00000000000E+00 0.  1.
</event>
<event>
 7    1  0.3014423E-011  0.5052885E+02  0.7816164E-02  0.1300439E+00
        -11   -1    0    0    0    0  0.00000000000E+00  0.00000000000E+00  0.45593999997E+02  0.45594000000E+02  0.51100000000E-03 0. -1.
         11   -1    0    0    0    0 -0.00000000000E+00 -0.00000000000E+00 -0.45593999997E+02  0.45594000000E+02  0.51100000000E-03 0.  1.
    9900012    2    1    2    0    0 -0.26062267819E+02 -0.23952137908E+02  0.20005494980E+02  0.50528849202E+02  0.29999967634E+02 0.  0.
        -12    1    1    2    0    0  0.26062267819E+02  0.23952137908E+02 -0.20005494980E+02  0.40659150798E+02  0.00000000000E+00 0.  1.
         11    1    3    3    0    0 -0.13739647986E+02 -0.21210630788E+02  0.17321463195E+02  0.30638241997E+02  0.51100000000E-03 0. -1.
        -11    1    3    3    0    0 -0.30342617770E+01 -0.56827349206E+01  0.67523178908E+01  0.93324175790E+01  0.51100000000E-03 0.  1.
        -12    1    3    3    0    0 -0.92883580554E+01  0.29412278001E+01 -0.40682861057E+01  0.10558189626E+02  0.00000000000E+00 0.  1.
</event>
<event>
 7    1  0.3014423E-011  0.5052886E+02  0.7816164E-02  0.1300439E+00
        -11   -1    0    0    0    0  0.00000000000E+00  0.00000000000E+00  0.45593999997E+02  0.45594000000E+02  0.51100000000E-03 0.  1.
         11   -1    0    0    0    0 -0.00000000000E+00 -0.00000000000E+00 -0.45593999997E+02  0.45594000000E+02  0.51100000000E-03 0. -1.
    9900012    2    1    2    0    0 -0.22609731500E+02  0.29163867432E+02 -0.17071450102E+02  0.50528861659E+02  0.30000005498E+02 0.  0.
        -12    1    1    2    0    0  0.22609731500E+02 -0.29163867432E+02  0.17071450102E+02  0.40659138341E+02  0.00000000000E+00 0.  1.
         11    1    3    3    0    0 -0.10539193218E+02  0.27301212778E+02 -0.75897210074E+01  0.30233006434E+02  0.51100000000E-03 0. -1.
        -11    1    3    3    0    0 -0.90522987821E+01  0.29241962972E+01 -0.12626939366E+02  0.15809321150E+02  0.51100000000E-03 0.  1.
        -12    1    3    3    0    0 -0.30182395007E+01 -0.10615416436E+01  0.31452102718E+01  0.44865340741E+01  0.00000000000E+00 0.  1.
</event>
<event>
 7    1  0.3014423E-011  0.5052886E+02  0.7816164E-02  0.1300439E+00
        -11   -1    0    0    0    0  0.00000000000E+00  0.00000000000E+00  0.45593999997E+02  0.45594000000E+02  0.51100000000E-03 0.  1.
         11   -1    0    0    0    0 -0.00000000000E+00 -0.00000000000E+00 -0.45593999997E+02  0.45594000000E+02  0.51100000000E-03 0. -1.
    9900012    2    1    2    0    0  0.69946497818E+01 -0.28040284375E+02 -0.28600399435E+02  0.50528861774E+02  0.30000005849E+02 0.  0.
        -12    1    1    2    0    0 -0.69946497818E+01  0.28040284375E+02  0.28600399435E+02  0.40659138226E+02  0.00000000000E+00 0.  1.
         11    1    3    3    0    0  0.11722255426E+02 -0.10677113172E+02 -0.16682503621E+02  0.23015602215E+02  0.51100000000E-03 0. -1.
        -11    1    3    3    0    0  0.25047875010E+01 -0.13369256339E+02 -0.13429235552E+02  0.19114270671E+02  0.51100000000E-03 0.  1.
        -12    1    3    3    0    0 -0.72323931456E+01 -0.39939148635E+01  0.15113397381E+01  0.83989888887E+01  0.00000000000E+00 0.  1.
</event>
<event>
 7    1  0.3014423E-011  0.5052886E+02  0.7816164E-02  0.1300439E+00
        -11   -1    0    0    0    0  0.00000000000E+00  0.00000000000E+00  0.45593999997E+02  0.45594000000E+02  0.51100000000E-03 0.  1.
         11   -1    0    0    0    0 -0.00000000000E+00 -0.00000000000E+00 -0.45593999997E+02  0.45594000000E+02  0.51100000000E-03 0. -1.
    9900012    2    1    2    0    0 -0.18411412488E+02 -0.84215450980E+01 -0.35259937369E+02  0.50528859393E+02  0.29999998612E+02 0.  0.
        -12    1    1    2    0    0  0.18411412488E+02  0.84215450980E+01  0.35259937369E+02  0.40659140607E+02  0.00000000000E+00 0.  1.
         11    1    3    3    0    0 -0.12569609432E+02 -0.57782083976E+01 -0.27487852548E+02  0.30772793366E+02  0.51100000000E-03 0. -1.
        -11    1    3    3    0    0  0.50013986156E+01  0.11936286221E+01 -0.63433878248E+01  0.81656173530E+01  0.51100000000E-03 0.  1.
        -12    1    3    3    0    0 -0.10843201671E+02 -0.38369653225E+01 -0.14286969955E+01  0.11590448674E+02  0.00000000000E+00 0.  1.
</event>
<event>
 7    1  0.3014423E-011  0.5052884E+02  0.7816164E-02  0.1300439E+00
        -11   -1    0    0    0    0  0.00000000000E+00  0.00000000000E+00  0.45593999997E+02  0.45594000000E+02  0.51100000000E-03 0. -1.
         11   -1    0    0    0    0 -0.00000000000E+00 -0.00000000000E+00 -0.45593999997E+02  0.45594000000E+02  0.51100000000E-03 0.  1.
    9900012    2    1    2    0    0 -0.36362678057E+02 -0.16925278063E+02  0.66676558214E+01  0.50528843256E+02  0.29999949562E+02 0.  0.
        -12    1    1    2    0    0  0.36362678057E+02  0.16925278063E+02 -0.66676558214E+01  0.40659156744E+02  0.00000000000E+00 0.  1.
         11    1    3    3    0    0 -0.39512505140E+01  0.18644110180E+01 -0.65865585891E+00  0.44183975455E+01  0.51100000000E-03 0. -1.
        -11    1    3    3    0    0  0.33724741989E+01 -0.43376488285E+01 -0.28634045336E+01  0.61957941674E+01  0.51100000000E-03 0.  1.
         12    1    3    3    0    0 -0.35783901742E+02 -0.14452040252E+02  0.10189716214E+02  0.39914651543E+02  0.00000000000E+00 0. -1.
</event>
<event>
 7    1  0.3014423E-011  0.5052886E+02  0.7816164E-02  0.1300439E+00
        -11   -1    0    0    0    0  0.00000000000E+00  0.00000000000E+00  0.45593999997E+02  0.45594000000E+02  0.51100000000E-03 0. -1.
         11   -1    0    0    0    0 -0.00000000000E+00 -0.00000000000E+00 -0.45593999997E+02  0.45594000000E+02  0.51100000000E-03 0.  1.
    9900012    2    1    2    0    0  0.15943412453E+02 -0.22265995823E+02  0.30053262701E+02  0.50528861179E+02  0.30000004041E+02 0.  0.
        -12    1    1    2    0    0 -0.15943412453E+02  0.22265995823E+02 -0.30053262701E+02  0.40659138821E+02  0.00000000000E+00 0.  1.
         11    1    3    3    0    0  0.13055651889E+01 -0.15048110938E+02  0.11506022125E+02  0.18987856347E+02  0.51100000000E-03 0. -1.
        -11    1    3    3    0    0 -0.26649177881E+01 -0.62963038546E+01  0.10520689040E+01  0.69175196629E+01  0.51100000000E-03 0.  1.
        -12    1    3    3    0    0  0.17302765052E+02 -0.92158103087E+00  0.17495171672E+02  0.24623485169E+02  0.00000000000E+00 0.  1.
</event>
<event>
 7    1  0.3014423E-011  0.5052886E+02  0.7816164E-02  0.1300439E+00
        -11   -1    0    0    0    0  0.00000000000E+00  0.00000000000E+00  0.45593999997E+02  0.45594000000E+02  0.51100000000E-03 0.  1.
         11   -1    0    0    0    0 -0.00000000000E+00 -0.00000000000E+00 -0.45593999997E+02  0.45594000000E+02  0.51100000000E-03 0. -1.
    9900012    2    1    2    0    0 -0.15612535930E+02 -0.54797611135E+01 -0.37140090487E+02  0.50528863494E+02  0.30000011076E+02 0.  0.
        -12    1    1    2    0    0  0.15612535930E+02  0.54797611135E+01  0.37140090487E+02  0.40659136506E+02  0.00000000000E+00 0.  1.
         11    1    3    3    0    0 -0.62892972994E+01 -0.94152964881E+01 -0.10269424245E+02  0.15286076772E+02  0.51100000000E-03 0. -1.
        -11    1    3    3    0    0 -0.15170514607E+02 -0.65212298435E+00 -0.15845770817E+02  0.21946713441E+02  0.51100000000E-03 0.  1.
         12    1    3    3    0    0  0.58472759763E+01  0.45876583589E+01 -0.11024895425E+02  0.13296073281E+02  0.00000000000E+00 0. -1.
</event>
<event>
 7    1  0.3014423E-011  0.5052886E+02  0.7816164E-02  0.1300439E+00
        -11   -1    0    0    0    0  0.00000000000E+00  0.00000000000E+00  0.45593999997E+02  0.45594000000E+02  0.51100000000E-03 0.  1.
         11   -1    0    0    0    0 -0.00000000000E+00 -0.00000000000E+00 -0.45593999997E+02  0.45594000000E+02  0.51100000000E-03 0. -1.
    9900012    2    1    2    0    0  0.17534220931E+02  0.28226202972E+02 -0.23430703029E+02  0.50528864712E+02  0.30000014779E+02 0.  0.
        -12    1    1    2    0    0 -0.17534220931E+02 -0.28226202972E+02  0.23430703029E+02  0.40659135288E+02  0.00000000000E+00 0.  1.
         11    1    3    3    0    0  0.78040306347E+01  0.11518572741E+02 -0.23123745943E+02  0.26986812313E+02  0.51100000000E-03 0. -1.
        -11    1    3    3    0    0  0.11486027406E+01  0.46048151348E+01 -0.60006197341E+01  0.76505586813E+01  0.51100000000E-03 0.  1.
        -12    1    3    3    0    0  0.85815875561E+01  0.12102815097E+02  0.56936626477E+01  0.15891493718E+02  0.00000000000E+00 0.  1.
</event>
<event>
 7    1  0.3014423E-011  0.5052886E+02  0.7816164E-02  0.1300439E+00
        -11   -1    0    0    0    0  0.00000000000E+00  0.00000000000E+00  0.45593999997E+02  0.45594000000E+02  0.51100000000E-03 0.  1.
         11   -1    0    0    0    0 -0.00000000000E+00 -0.00000000000E+00 -0.45593999997E+02  0.45594000000E+02  0.51100000000E-03 0. -1.
    9900012    2    1    2    0    0  0.32656006251E+02  0.13471078912E+02 -0.20131598365E+02  0.50528856329E+02  0.29999989298E+02 0.  0.
        -12    1    1    2    0    0 -0.32656006251E+02 -0.13471078912E+02  0.20131598365E+02  0.40659143671E+02  0.00000000000E+00 0.  1.
         11    1    3    3    0    0  0.99158547619E+01  0.69488026932E+01  0.20193990969E+01  0.12275504368E+02  0.51100000000E-03 0.  1.
        -11    1    3    3    0    0  0.13207698327E+02  0.96147820282E+00 -0.23660902125E+02  0.27114682832E+02  0.51100000000E-03 0. -1.
         12    1    3    3    0    0  0.95324531625E+01  0.55607980162E+01  0.15099046635E+01  0.11138669129E+02  0.00000000000E+00 0. -1.
</event>
<event>
 7    1  0.3014423E-011  0.5052886E+02  0.7816164E-02  0.1300439E+00
        -11   -1    0    0    0    0  0.00000000000E+00  0.00000000000E+00  0.45593999997E+02  0.45594000000E+02  0.51100000000E-03 0.  1.
         11   -1    0    0    0    0 -0.00000000000E+00 -0.00000000000E+00 -0.45593999997E+02  0.45594000000E+02  0.51100000000E-03 0. -1.
    9900012    2    1    2    0    0 -0.33626000328E+02  0.13459670111E+02 -0.18474167521E+02  0.50528862243E+02  0.30000007273E+02 0.  0.
        -12    1    1    2    0    0  0.33626000328E+02 -0.13459670111E+02  0.18474167521E+02  0.40659137757E+02  0.00000000000E+00 0.  1.
         11    1    3    3    0    0 -0.48356927987E+01  0.36315137882E+01  0.34666619419E+01  0.69706213868E+01  0.51100000000E-03 0. -1.
        -11    1    3    3    0    0 -0.69133964855E+01  0.75415481689E+01  0.26467807934E+01  0.10567660506E+02  0.51100000000E-03 0.  1.
         12    1    3    3    0    0 -0.21876911044E+02  0.22866081540E+01 -0.24587610257E+02  0.32990580350E+02  0.00000000000E+00 0. -1.
</event>
<event>
 7    1  0.3014423E-011  0.5052885E+02  0.7816164E-02  0.1300439E+00
        -11   -1    0    0    0    0  0.00000000000E+00  0.00000000000E+00  0.45593999997E+02  0.45594000000E+02  0.51100000000E-03 0. -1.
         11   -1    0    0    0    0 -0.00000000000E+00 -0.00000000000E+00 -0.45593999997E+02  0.45594000000E+02  0.51100000000E-03 0.  1.
    9900012    2    1    2    0    0 -0.11588161884E+02  0.36625709622E+02 -0.13320589553E+02  0.50528853339E+02  0.29999980209E+02 0.  0.
        -12    1    1    2    0    0  0.11588161884E+02 -0.36625709622E+02  0.13320589553E+02  0.40659146661E+02  0.00000000000E+00 0.  1.
         11    1    3    3    0    0 -0.74221131981E+01  0.73771601257E+01 -0.83249096594E+01  0.13372149302E+02  0.51100000000E-03 0.  1.
        -11    1    3    3    0    0 -0.89384131616E+01  0.26798138818E+02 -0.98542398394E+01  0.29918915706E+02  0.51100000000E-03 0. -1.
         12    1    3    3    0    0  0.47723644762E+01  0.24504106780E+01  0.48585599454E+01  0.72377883312E+01  0.00000000000E+00 0. -1.
</event>
<event>
 7    1  0.3014423E-011  0.5052886E+02  0.7816164E-02  0.1300439E+00
        -11   -1    0    0    0    0  0.00000000000E+00  0.00000000000E+00  0.45593999997E+02  0.45594000000E+02  0.51100000000E-03 0.  1.
         11   -1    0    0    0    0 -0.00000000000E+00 -0.00000000000E+00 -0.45593999997E+02  0.45594000000E+02  0.51100000000E-03 0. -1.
    9900012    2    1    2    0    0 -0.31712419459E+02  0.35359247398E+01 -0.25198914962E+02  0.50528860475E+02  0.30000001898E+02 0.  0.
        -12    1    1    2    0    0  0.31712419459E+02 -0.35359247398E+01  0.25198914962E+02  0.40659139525E+02  0.00000000000E+00 0.  1.
         11    1    3    3    0    0 -0.13080453959E+02  0.64534800305E+01 -0.61484115812E+01  0.15828728487E+02  0.51100000000E-03 0. -1.
        -11    1    3    3    0    0 -0.19506028230E+02  0.30883459331E+01 -0.65545840652E+01  0.20808305804E+02  0.51100000000E-03 0.  1.
        -12    1    3    3    0    0  0.87406273036E+00 -0.60059012238E+01 -0.12495919316E+02  0.13891826184E+02  0.00000000000E+00 0.  1.
</event>
<event>
 7    1  0.3014423E-011  0.5052886E+02  0.7816164E-02  0.1300439E+00
        -11   -1    0    0    0    0  0.00000000000E+00  0.00000000000E+00  0.45593999997E+02  0.45594000000E+02  0.51100000000E-03 0.  1.
         11   -1    0    0    0    0 -0.00000000000E+00 -0.00000000000E+00 -0.45593999997E+02  0.45594000000E+02  0.51100000000E-03 0. -1.
    9900012    2    1    2    0    0 -0.35913649409E+02 -0.76738716982E+01 -0.17449556031E+02  0.50528861711E+02  0.30000005658E+02 0.  0.
        -12    1    1    2    0    0  0.35913649409E+02  0.76738716982E+01  0.17449556031E+02  0.40659138289E+02  0.00000000000E+00 0.  1.
         11    1    3    3    0    0  0.10228273074E+01  0.27255721224E+01 -0.11302732902E+01  0.31228892178E+01  0.51100000000E-03 0. -1.
        -11    1    3    3    0    0 -0.89724026187E+01  0.61104782504E+01 -0.90384048802E+01  0.14125675780E+02  0.51100000000E-03 0.  1.
         12    1    3    3    0    0 -0.27964074098E+02 -0.16509922071E+02 -0.72808778603E+01  0.33280296714E+02  0.00000000000E+00 0. -1.
</event>
<event>
 7    1  0.3014423E-011  0.5052887E+02  0.7816164E-02  0.1300439E+00
        -11   -1    0    0    0    0  0.00000000000E+00  0.00000000000E+00  0.45593999997E+02  0.45594000000E+02  0.51100000000E-03 0.  1.
         11   -1    0    0    0    0 -0.00000000000E+00 -0.00000000000E+00 -0.45593999997E+02  0.45594000000E+02  0.51100000000E-03 0. -1.
    9900012    2    1    2    0    0  0.31274224863E+02 -0.20499859782E+02 -0.15963820719E+02  0.50528868629E+02  0.30000026684E+02 0.  0.
        -12    1    1    2    0    0 -0.31274224863E+02  0.20499859782E+02  0.15963820719E+02  0.40659131371E+02  0.00000000000E+00 0.  1.
         11    1    3    3    0    0  0.65793932063E+01 -0.93472343330E+01 -0.81334167066E+01  0.14028958344E+02  0.51100000000E-03 0.  1.
        -11    1    3    3    0    0  0.22171158344E+02 -0.12511955257E+02 -0.14459403628E+02  0.29277698683E+02  0.51100000000E-03 0. -1.
        -12    1    3    3    0    0  0.25236733135E+01  0.13593298077E+01  0.66289996150E+01  0.72222116014E+01  0.00000000000E+00 0.  1.
</event>
<event>
 7    1  0.3014423E-011  0.5052885E+02  0.7816164E-02  0.1300439E+00
        -11   -1    0    0    0    0  0.00000000000E+00  0.00000000000E+00  0.45593999997E+02  0.45594000000E+02  0.51100000000E-03 0.  1.
         11   -1    0    0    0    0 -0.00000000000E+00 -0.00000000000E+00 -0.45593999997E+02  0.45594000000E+02  0.51100000000E-03 0. -1.
    9900012    2    1    2    0    0  0.73311988363E+00  0.35785678229E+02 -0.19287679945E+02  0.50528845695E+02  0.29999956975E+02 0.  0.
        -12    1    1    2    0    0 -0.73311988363E+00 -0.35785678229E+02  0.19287679945E+02  0.40659154305E+02  0.00000000000E+00 0.  1.
         11    1    3    3    0    0 -0.14428220159E+01 -0.19644575286E+00 -0.72919332327E+01  0.74359005396E+01  0.51100000000E-03 0. -1.
        -11    1    3    3    0    0  0.14812546949E+01  0.23126865411E+01 -0.88539366933E+01  0.92701040845E+01  0.51100000000E-03 0.  1.
        -12    1    3    3    0    0  0.69468720465E+00  0.33669437441E+02 -0.31418100195E+01  0.33822841071E+02  0.00000000000E+00 0.  1.
</event>
<event>
 7    1  0.3014423E-011  0.5052890E+02  0.7816164E-02  0.1300439E+00
        -11   -1    0    0    0    0  0.00000000000E+00  0.00000000000E+00  0.45593999997E+02  0.45594000000E+02  0.51100000000E-03 0.  1.
         11   -1    0    0    0    0 -0.00000000000E+00 -0.00000000000E+00 -0.45593999997E+02  0.45594000000E+02  0.51100000000E-03 0. -1.
    9900012    2    1    2    0    0 -0.42369118763E+01  0.40343536703E+02 -0.27587032055E+01  0.50528895000E+02  0.30000106843E+02 0.  0.
        -12    1    1    2    0    0  0.42369118763E+01 -0.40343536703E+02  0.27587032055E+01  0.40659105000E+02  0.00000000000E+00 0.  1.
         11    1    3    3    0    0  0.23295781099E+00  0.21098415398E+02  0.29953903108E+00  0.21101827540E+02  0.51100000000E-03 0. -1.
        -11    1    3    3    0    0 -0.15496016290E+01  0.27936121263E+01  0.85197595684E+01  0.90990019939E+01  0.51100000000E-03 0.  1.
         12    1    3    3    0    0 -0.29202680582E+01  0.16451509180E+02 -0.11578001805E+02  0.20328065467E+02  0.00000000000E+00 0. -1.
</event>
<event>
 7    1  0.3014423E-011  0.5052885E+02  0.7816164E-02  0.1300439E+00
        -11   -1    0    0    0    0  0.00000000000E+00  0.00000000000E+00  0.45593999997E+02  0.45594000000E+02  0.51100000000E-03 0.  1.
         11   -1    0    0    0    0 -0.00000000000E+00 -0.00000000000E+00 -0.45593999997E+02  0.45594000000E+02  0.51100000000E-03 0. -1.
    9900012    2    1    2    0    0 -0.10275044637E+02  0.39074263377E+02 -0.45597693550E+01  0.50528854690E+02  0.29999984316E+02 0.  0.
        -12    1    1    2    0    0  0.10275044637E+02 -0.39074263377E+02  0.45597693550E+01  0.40659145310E+02  0.00000000000E+00 0.  1.
         11    1    3    3    0    0 -0.11854468916E+02  0.25032070187E+02  0.16185852693E+01  0.27744419072E+02  0.51100000000E-03 0. -1.
        -11    1    3    3    0    0 -0.17330965465E+01  0.12777854030E+02  0.27438497514E+01  0.13183546146E+02  0.51100000000E-03 0.  1.
         12    1    3    3    0    0  0.33125208251E+01  0.12643391595E+01 -0.89222043758E+01  0.96008894718E+01  0.00000000000E+00 0. -1.
</event>
<event>
 7    1  0.3014423E-011  0.5052886E+02  0.7816164E-02  0.1300439E+00
        -11   -1    0    0    0    0  0.00000000000E+00  0.00000000000E+00  0.45593999997E+02  0.45594000000E+02  0.51100000000E-03 0.  1.
         11   -1    0    0    0    0 -0.00000000000E+00 -0.00000000000E+00 -0.45593999997E+02  0.45594000000E+02  0.51100000000E-03 0. -1.
    9900012    2    1    2    0    0 -0.50071586202E+01 -0.24234274189E+02 -0.32261335567E+02  0.50528862583E+02  0.30000008308E+02 0.  0.
        -12    1    1    2    0    0  0.50071586202E+01  0.24234274189E+02  0.32261335567E+02  0.40659137417E+02  0.00000000000E+00 0.  1.
         11    1    3    3    0    0 -0.16161653800E+01  0.34473566690E+01  0.47472112684E+00  0.38368761966E+01  0.51100000000E-03 0. -1.
        -11    1    3    3    0    0 -0.35083452840E+01 -0.26705093629E+02 -0.19097356243E+02  0.33017866801E+02  0.51100000000E-03 0.  1.
         12    1    3    3    0    0  0.11735204380E+00 -0.97653722899E+00 -0.13638700451E+02  0.13674119586E+02  0.00000000000E+00 0. -1.
</event>
<event>
 7    1  0.3014423E-011  0.5052886E+02  0.7816164E-02  0.1300439E+00
        -11   -1    0    0    0    0  0.00000000000E+00  0.00000000000E+00  0.45593999997E+02  0.45594000000E+02  0.51100000000E-03 0.  1.
         11   -1    0    0    0    0 -0.00000000000E+00 -0.00000000000E+00 -0.45593999997E+02  0.45594000000E+02  0.51100000000E-03 0. -1.
    9900012    2    1    2    0    0 -0.37566565961E+02  0.11747278649E+01 -0.15509309383E+02  0.50528861529E+02  0.30000005105E+02 0.  0.
        -12    1    1    2    0    0  0.37566565961E+02 -0.11747278649E+01  0.15509309383E+02  0.40659138471E+02  0.00000000000E+00 0.  1.
         11    1    3    3    0    0 -0.92321476670E+01 -0.24446657080E+01  0.25749935424E+01  0.98913868074E+01  0.51100000000E-03 0. -1.
        -11    1    3    3    0    0 -0.11121443551E+02  0.84002689701E+01  0.16307367973E+01  0.14032474058E+02  0.51100000000E-03 0.  1.
         12    1    3    3    0    0 -0.17212974742E+02 -0.47808753973E+01 -0.19715039723E+02  0.26605000664E+02  0.00000000000E+00 0. -1.
</event>
<event>
 7    1  0.3014423E-011  0.5052887E+02  0.7816164E-02  0.1300439E+00
        -11   -1    0    0    0    0  0.00000000000E+00  0.00000000000E+00  0.45593999997E+02  0.45594000000E+02  0.51100000000E-03 0.  1.
         11   -1    0    0    0    0 -0.00000000000E+00 -0.00000000000E+00 -0.45593999997E+02  0.45594000000E+02  0.51100000000E-03 0. -1.
    9900012    2    1    2    0    0  0.33931123234E+02 -0.98969073762E+00 -0.22379990824E+02  0.50528873091E+02  0.30000040248E+02 0.  0.
        -12    1    1    2    0    0 -0.33931123234E+02  0.98969073762E+00  0.22379990824E+02  0.40659126909E+02  0.00000000000E+00 0.  1.
         11    1    3    3    0    0  0.10297943692E+02  0.41539996621E+01 -0.94791171332E+01  0.14599897923E+02  0.51100000000E-03 0. -1.
        -11    1    3    3    0    0  0.22163259500E+02 -0.34074215955E+01 -0.19018039324E+02  0.29402489921E+02  0.51100000000E-03 0.  1.
        -12    1    3    3    0    0  0.14699200425E+01 -0.17362688042E+01  0.61171656331E+01  0.65264852467E+01  0.00000000000E+00 0.  1.
</event>
<event>
 7    1  0.3014423E-011  0.5052886E+02  0.7816164E-02  0.1300439E+00
        -11   -1    0    0    0    0  0.00000000000E+00  0.00000000000E+00  0.45593999997E+02  0.45594000000E+02  0.51100000000E-03 0.  1.
         11   -1    0    0    0    0 -0.00000000000E+00 -0.00000000000E+00 -0.45593999997E+02  0.45594000000E+02  0.51100000000E-03 0. -1.
    9900012    2    1    2    0    0 -0.11418591094E+02 -0.35511629965E+02 -0.16177304537E+02  0.50528864896E+02  0.30000015337E+02 0.  0.
        -12    1    1    2    0    0  0.11418591094E+02  0.35511629965E+02  0.16177304537E+02  0.40659135104E+02  0.00000000000E+00 0.  1.
         11    1    3    3    0    0 -0.15118449423E+01  0.16703802616E+01 -0.76819340542E+01  0.80054953890E+01  0.51100000000E-03 0. -1.
        -11    1    3    3    0    0 -0.87415500092E+01 -0.11103301339E+02  0.22204487321E+01  0.14304837993E+02  0.51100000000E-03 0.  1.
         12    1    3    3    0    0 -0.11651961429E+01 -0.26078708888E+02 -0.10715819214E+02  0.28218531513E+02  0.00000000000E+00 0. -1.
</event>
<event>
 7    1  0.3014423E-011  0.5052886E+02  0.7816164E-02  0.1300439E+00
        -11   -1    0    0    0    0  0.00000000000E+00  0.00000000000E+00  0.45593999997E+02  0.45594000000E+02  0.51100000000E-03 0.  1.
         11   -1    0    0    0    0 -0.00000000000E+00 -0.00000000000E+00 -0.45593999997E+02  0.45594000000E+02  0.51100000000E-03 0. -1.
    9900012    2    1    2    0    0  0.40381200505E+02 -0.33572933632E+01  0.33545273756E+01  0.50528860475E+02  0.30000001901E+02 0.  0.
        -12    1    1    2    0    0 -0.40381200505E+02  0.33572933632E+01 -0.33545273756E+01  0.40659139525E+02  0.00000000000E+00 0.  1.
         11    1    3    3    0    0  0.20457278713E+02 -0.88449869924E+00 -0.49005368493E+01  0.21054639678E+02  0.51100000000E-03 0. -1.
        -11    1    3    3    0    0  0.77501350039E+00 -0.71153955800E+01 -0.17609820992E+01  0.73709265632E+01  0.51100000000E-03 0.  1.
        -12    1    3    3    0    0  0.19148908292E+02  0.46426009160E+01  0.10016046324E+02  0.22103294234E+02  0.00000000000E+00 0.  1.
</event>
<event>
 7    1  0.3014423E-011  0.5052886E+02  0.7816164E-02  0.1300439E+00
        -11   -1    0    0    0    0  0.00000000000E+00  0.00000000000E+00  0.45593999997E+02  0.45594000000E+02  0.51100000000E-03 0.  1.
         11   -1    0    0    0    0 -0.00000000000E+00 -0.00000000000E+00 -0.45593999997E+02  0.45594000000E+02  0.51100000000E-03 0. -1.
    9900012    2    1    2    0    0  0.21216614952E+02  0.32205355789E+02  0.12877729333E+02  0.50528860753E+02  0.30000002746E+02 0.  0.
        -12    1    1    2    0    0 -0.21216614952E+02 -0.32205355789E+02 -0.12877729333E+02  0.40659139247E+02  0.00000000000E+00 0.  1.
         11    1    3    3    0    0 -0.12107922483E+01 -0.12803070154E+01 -0.19729192549E+01  0.26453004687E+01  0.51100000000E-03 0. -1.
        -11    1    3    3    0    0  0.64871845290E+01 -0.63561987717E+00 -0.17152196730E+01  0.67401449932E+01  0.51100000000E-03 0.  1.
         12    1    3    3    0    0  0.15940222671E+02  0.34121282681E+02  0.16565868261E+02  0.41143415292E+02  0.00000000000E+00 0. -1.
</event>
<event>
 7    1  0.3014423E-011  0.5052885E+02  0.7816164E-02  0.1300439E+00
        -11   -1    0    0    0    0  0.00000000000E+00  0.00000000000E+00  0.45593999997E+02  0.45594000000E+02  0.51100000000E-03 0.  1.
         11   -1    0    0    0    0 -0.00000000000E+00 -0.00000000000E+00 -0.45593999997E+02  0.45594000000E+02  0.51100000000E-03 0. -1.
    9900012    2    1    2    0    0  0.81812740785E+01 -0.39045676911E+02 -0.78529077532E+01  0.50528852307E+02  0.29999977071E+02 0.  0.
        -12    1    1    2    0    0 -0.81812740785E+01  0.39045676911E+02  0.78529077532E+01  0.40659147693E+02  0.00000000000E+00 0.  1.
         11    1    3    3    0    0  0.64227574067E+01 -0.51648000207E+01 -0.56808735475E+01  0.10009959864E+02  0.51100000000E-03 0. -1.
        -11    1    3    3    0    0  0.55623666783E+01 -0.62014299352E+01  0.72395623772E+01  0.11036707841E+02  0.51100000000E-03 0.  1.
        -12    1    3    3    0    0 -0.38038500065E+01 -0.27679446955E+02 -0.94115965828E+01  0.29482184601E+02  0.00000000000E+00 0.  1.
</event>
<event>
 7    1  0.3014423E-011  0.5052887E+02  0.7816164E-02  0.1300439E+00
        -11   -1    0    0    0    0  0.00000000000E+00  0.00000000000E+00  0.45593999997E+02  0.45594000000E+02  0.51100000000E-03 0.  1.
         11   -1    0    0    0    0 -0.00000000000E+00 -0.00000000000E+00 -0.45593999997E+02  0.45594000000E+02  0.51100000000E-03 0. -1.
    9900012    2    1    2    0    0 -0.27324565874E+02 -0.25712726089E+02 -0.15664896267E+02  0.50528866239E+02  0.30000019420E+02 0.  0.
        -12    1    1    2    0    0  0.27324565874E+02  0.25712726089E+02  0.15664896267E+02  0.40659133761E+02  0.00000000000E+00 0.  1.
         11    1    3    3    0    0 -0.27735222945E+01  0.24525926043E+01  0.51566220171E+00  0.37381204058E+01  0.51100000000E-03 0. -1.
        -11    1    3    3    0    0 -0.26241309061E+02 -0.14212380086E+02 -0.10632570338E+02  0.31680429309E+02  0.51100000000E-03 0.  1.
        -12    1    3    3    0    0  0.16902654809E+01 -0.13952938607E+02 -0.55479881308E+01  0.15110316524E+02  0.00000000000E+00 0.  1.
</event>
<event>
 7    1  0.3014423E-011  0.5052885E+02  0.7816164E-02  0.1300439E+00
        -11   -1    0    0    0    0  0.00000000000E+00  0.00000000000E+00  0.45593999997E+02  0.45594000000E+02  0.51100000000E-03 0. -1.
         11   -1    0    0    0    0 -0.00000000000E+00 -0.00000000000E+00 -0.45593999997E+02  0.45594000000E+02  0.51100000000E-03 0.  1.
    9900012    2    1    2    0    0 -0.39636663897E+02  0.89423614447E+01  0.14612621308E+01  0.50528852934E+02  0.29999978979E+02 0.  0.
        -12    1    1    2    0    0  0.39636663897E+02 -0.89423614447E+01 -0.14612621308E+01  0.40659147066E+02  0.00000000000E+00 0.  1.
         11    1    3    3    0    0  0.83733516155E+00  0.48679470228E+01  0.41564344471E+01  0.64555391691E+01  0.51100000000E-03 0. -1.
        -11    1    3    3    0    0 -0.20185237917E+02 -0.62465110864E+01 -0.27677996885E+01  0.21310172358E+02  0.51100000000E-03 0.  1.
         12    1    3    3    0    0 -0.20288761141E+02  0.10320925508E+02  0.72627372271E-01  0.22763141407E+02  0.00000000000E+00 0. -1.
</event>
<event>
 7    1  0.3014423E-011  0.5052886E+02  0.7816164E-02  0.1300439E+00
        -11   -1    0    0    0    0  0.00000000000E+00  0.00000000000E+00  0.45593999997E+02  0.45594000000E+02  0.51100000000E-03 0.  1.
         11   -1    0    0    0    0 -0.00000000000E+00 -0.00000000000E+00 -0.45593999997E+02  0.45594000000E+02  0.51100000000E-03 0. -1.
    9900012    2    1    2    0    0  0.84583869573E+01 -0.31335484502E+02 -0.24488952450E+02  0.50528859687E+02  0.29999999506E+02 0.  0.
        -12    1    1    2    0    0 -0.84583869573E+01  0.31335484502E+02  0.24488952450E+02  0.40659140313E+02  0.00000000000E+00 0.  1.
         11    1    3    3    0    0  0.11250789343E+01 -0.32318012240E+02 -0.18460402751E+02  0.37235818613E+02  0.51100000000E-03 0. -1.
        -11    1    3    3    0    0  0.47516477432E+01 -0.12974246328E+01 -0.79476255341E+01  0.93501988666E+01  0.51100000000E-03 0.  1.
        -12    1    3    3    0    0  0.25816602798E+01  0.22799523713E+01  0.19190758354E+01  0.39428422080E+01  0.00000000000E+00 0.  1.
</event>
<event>
 7    1  0.3014423E-011  0.5052888E+02  0.7816164E-02  0.1300439E+00
        -11   -1    0    0    0    0  0.00000000000E+00  0.00000000000E+00  0.45593999997E+02  0.45594000000E+02  0.51100000000E-03 0.  1.
         11   -1    0    0    0    0 -0.00000000000E+00 -0.00000000000E+00 -0.45593999997E+02  0.45594000000E+02  0.51100000000E-03 0. -1.
    9900012    2    1    2    0    0 -0.90021974027E+01  0.39545853702E+02 -0.28723237134E+01  0.50528876219E+02  0.30000049756E+02 0.  0.
        -12    1    1    2    0    0  0.90021974027E+01 -0.39545853702E+02  0.28723237134E+01  0.40659123781E+02  0.00000000000E+00 0.  1.
         11    1    3    3    0    0 -0.76971909188E+01  0.20867613270E+02 -0.11445211311E+02  0.25013933993E+02  0.51100000000E-03 0. -1.
        -11    1    3    3    0    0 -0.79644372616E+01  0.12162060290E+02  0.67180246477E+01  0.16014987569E+02  0.51100000000E-03 0.  1.
         12    1    3    3    0    0  0.66594307777E+01  0.65161801420E+01  0.18548629496E+01  0.94999546571E+01  0.00000000000E+00 0. -1.
</event>
<event>
 7    1  0.3014423E-011  0.5052885E+02  0.7816164E-02  0.1300439E+00
        -11   -1    0    0    0    0  0.00000000000E+00  0.00000000000E+00  0.45593999997E+02  0.45594000000E+02  0.51100000000E-03 0.  1.
         11   -1    0    0    0    0 -0.00000000000E+00 -0.00000000000E+00 -0.45593999997E+02  0.45594000000E+02  0.51100000000E-03 0. -1.
    9900012    2    1    2    0    0 -0.21533063259E+02  0.32657882857E+02  0.11088561290E+02  0.50528851983E+02  0.29999976086E+02 0.  0.
        -12    1    1    2    0    0  0.21533063259E+02 -0.32657882857E+02 -0.11088561290E+02  0.40659148017E+02  0.00000000000E+00 0.  1.
         11    1    3    3    0    0  0.24042393074E+01  0.34130514572E+01 -0.45300566279E+01  0.61604139642E+01  0.51100000000E-03 0. -1.
        -11    1    3    3    0    0 -0.70460924822E+01  0.44470912512E+01  0.11323355945E+02  0.14058535841E+02  0.51100000000E-03 0.  1.
         12    1    3    3    0    0 -0.16891210084E+02  0.24797740149E+02  0.42952619723E+01  0.30309902177E+02  0.00000000000E+00 0. -1.
</event>
<event>
 7    1  0.3014423E-011  0.5052886E+02  0.7816164E-02  0.1300439E+00
        -11   -1    0    0    0    0  0.00000000000E+00  0.00000000000E+00  0.45593999997E+02  0.45594000000E+02  0.51100000000E-03 0.  1.
         11   -1    0    0    0    0 -0.00000000000E+00 -0.00000000000E+00 -0.45593999997E+02  0.45594000000E+02  0.51100000000E-03 0. -1.
    9900012    2    1    2    0    0  0.14270418704E+02  0.33178541183E+02 -0.18673645665E+02  0.50528862190E+02  0.30000007114E+02 0.  0.
        -12    1    1    2    0    0 -0.14270418704E+02 -0.33178541183E+02  0.18673645665E+02  0.40659137810E+02  0.00000000000E+00 0.  1.
         11    1    3    3    0    0  0.70437583411E+01  0.25245710073E+02 -0.14402894193E+02  0.29906584058E+02  0.51100000000E-03 0. -1.
        -11    1    3    3    0    0  0.83157042058E+01  0.95202123354E+01 -0.89993248052E+01  0.15516869097E+02  0.51100000000E-03 0.  1.
        -12    1    3    3    0    0 -0.10890438429E+01 -0.15873812251E+01  0.47285733339E+01  0.51054090355E+01  0.00000000000E+00 0.  1.
</event>
<event>
 7    1  0.3014423E-011  0.5052886E+02  0.7816164E-02  0.1300439E+00
        -11   -1    0    0    0    0  0.00000000000E+00  0.00000000000E+00  0.45593999997E+02  0.45594000000E+02  0.51100000000E-03 0.  1.
         11   -1    0    0    0    0 -0.00000000000E+00 -0.00000000000E+00 -0.45593999997E+02  0.45594000000E+02  0.51100000000E-03 0. -1.
    9900012    2    1    2    0    0  0.22696401886E+02 -0.27179831016E+02 -0.19982392182E+02  0.50528857487E+02  0.29999992816E+02 0.  0.
        -12    1    1    2    0    0 -0.22696401886E+02  0.27179831016E+02  0.19982392182E+02  0.40659142513E+02  0.00000000000E+00 0.  1.
         11    1    3    3    0    0  0.89964169223E+01 -0.13471065542E+02 -0.63608701544E+01  0.17403039782E+02  0.51100000000E-03 0. -1.
        -11    1    3    3    0    0 -0.47464593478E+01 -0.55347344450E+01  0.20547669808E+01  0.75752379054E+01  0.51100000000E-03 0.  1.
         12    1    3    3    0    0  0.18446444311E+02 -0.81740310287E+01 -0.15676289008E+02  0.25550579799E+02  0.00000000000E+00 0. -1.
</event>
<event>
 7    1  0.3014423E-011  0.5052887E+02  0.7816164E-02  0.1300439E+00
        -11   -1    0    0    0    0  0.00000000000E+00  0.00000000000E+00  0.45593999997E+02  0.45594000000E+02  0.51100000000E-03 0. -1.
         11   -1    0    0    0    0 -0.00000000000E+00 -0.00000000000E+00 -0.45593999997E+02  0.45594000000E+02  0.51100000000E-03 0.  1.
    9900012    2    1    2    0    0  0.14126552010E+02 -0.37514927414E+02  0.67996845026E+01  0.50528868677E+02  0.30000026831E+02 0.  0.
        -12    1    1    2    0    0 -0.14126552010E+02  0.37514927414E+02 -0.67996845026E+01  0.40659131323E+02  0.00000000000E+00 0.  1.
         11    1    3    3    0    0  0.11703327268E+02 -0.13936195591E+02  0.26057366633E+01  0.18384104017E+02  0.51100000000E-03 0. -1.
        -11    1    3    3    0    0  0.10635940365E+02 -0.87874154538E+01 -0.23683777047E+01  0.13998253856E+02  0.51100000000E-03 0.  1.
        -12    1    3    3    0    0 -0.82127156223E+01 -0.14791316369E+02  0.65623255440E+01  0.18146510805E+02  0.00000000000E+00 0.  1.
</event>
<event>
 7    1  0.3014423E-011  0.5052886E+02  0.7816164E-02  0.1300439E+00
        -11   -1    0    0    0    0  0.00000000000E+00  0.00000000000E+00  0.45593999997E+02  0.45594000000E+02  0.51100000000E-03 0. -1.
         11   -1    0    0    0    0 -0.00000000000E+00 -0.00000000000E+00 -0.45593999997E+02  0.45594000000E+02  0.51100000000E-03 0.  1.
    9900012    2    1    2    0    0 -0.23811385155E+02 -0.29607768852E+02  0.14476310463E+02  0.50528860757E+02  0.30000002756E+02 0.  0.
        -12    1    1    2    0    0  0.23811385155E+02  0.29607768852E+02 -0.14476310463E+02  0.40659139243E+02  0.00000000000E+00 0.  1.
         11    1    3    3    0    0 -0.10003300404E+02 -0.20925455294E+02  0.16408862968E+02  0.28411115473E+02  0.51100000000E-03 0. -1.
        -11    1    3    3    0    0 -0.11051097866E+01 -0.88159613115E+01  0.13745695302E+01  0.89906553232E+01  0.51100000000E-03 0.  1.
         12    1    3    3    0    0 -0.12702974965E+02  0.13364775351E+00 -0.33071220356E+01  0.13127089961E+02  0.00000000000E+00 0. -1.
</event>
<event>
 7    1  0.3014423E-011  0.5052885E+02  0.7816164E-02  0.1300439E+00
        -11   -1    0    0    0    0  0.00000000000E+00  0.00000000000E+00  0.45593999997E+02  0.45594000000E+02  0.51100000000E-03 0. -1.
         11   -1    0    0    0    0 -0.00000000000E+00 -0.00000000000E+00 -0.45593999997E+02  0.45594000000E+02  0.51100000000E-03 0.  1.
    9900012    2    1    2    0    0  0.12342281659E+02 -0.33359354796E+02  0.19697418964E+02  0.50528846261E+02  0.29999958695E+02 0.  0.
        -12    1    1    2    0    0 -0.12342281659E+02  0.33359354796E+02 -0.19697418964E+02  0.40659153739E+02  0.00000000000E+00 0.  1.
         11    1    3    3    0    0  0.13482429769E+01 -0.21446029640E+01  0.54222208452E+01  0.59847773687E+01  0.51100000000E-03 0. -1.
        -11    1    3    3    0    0  0.14776595134E+02 -0.30010849914E+02  0.18922258166E+02  0.38432417705E+02  0.51100000000E-03 0.  1.
        -12    1    3    3    0    0 -0.37825564524E+01 -0.12039019181E+01 -0.46470600475E+01  0.61116511868E+01  0.00000000000E+00 0.  1.
</event>
<event>
 7    1  0.3014423E-011  0.5052886E+02  0.7816164E-02  0.1300439E+00
        -11   -1    0    0    0    0  0.00000000000E+00  0.00000000000E+00  0.45593999997E+02  0.45594000000E+02  0.51100000000E-03 0. -1.
         11   -1    0    0    0    0 -0.00000000000E+00 -0.00000000000E+00 -0.45593999997E+02  0.45594000000E+02  0.51100000000E-03 0.  1.
    9900012    2    1    2    0    0  0.14182252824E+02 -0.98408444069E+01  0.36812869666E+02  0.50528857278E+02  0.29999992182E+02 0.  0.
        -12    1    1    2    0    0 -0.14182252824E+02  0.98408444069E+01 -0.36812869666E+02  0.40659142722E+02  0.00000000000E+00 0.  1.
         11    1    3    3    0    0  0.12579794868E+02  0.30246488829E+01  0.11318307165E+02  0.17190224464E+02  0.51100000000E-03 0. -1.
        -11    1    3    3    0    0  0.41398420687E+01  0.31360277532E+01  0.75315534068E+01  0.91486206284E+01  0.51100000000E-03 0.  1.
         12    1    3    3    0    0 -0.25373841120E+01 -0.16001521043E+02  0.17963009095E+02  0.24190012186E+02  0.00000000000E+00 0. -1.
</event>
<event>
 7    1  0.3014423E-011  0.5052886E+02  0.7816164E-02  0.1300439E+00
        -11   -1    0    0    0    0  0.00000000000E+00  0.00000000000E+00  0.45593999997E+02  0.45594000000E+02  0.51100000000E-03 0.  1.
         11   -1    0    0    0    0 -0.00000000000E+00 -0.00000000000E+00 -0.45593999997E+02  0.45594000000E+02  0.51100000000E-03 0. -1.
    9900012    2    1    2    0    0 -0.24394487193E+02  0.27994560810E+02 -0.16564408013E+02  0.50528855233E+02  0.29999985966E+02 0.  0.
        -12    1    1    2    0    0  0.24394487193E+02 -0.27994560810E+02  0.16564408013E+02  0.40659144767E+02  0.00000000000E+00 0.  1.
         11    1    3    3    0    0 -0.10914424754E+02  0.76284753697E+01 -0.46063086437E+00  0.13324056636E+02  0.51100000000E-03 0. -1.
        -11    1    3    3    0    0 -0.15765014723E+02  0.85019188760E+01 -0.11057398608E+01  0.17945500123E+02  0.51100000000E-03 0.  1.
         12    1    3    3    0    0  0.22849522839E+01  0.11864166564E+02 -0.14998037288E+02  0.19259298474E+02  0.00000000000E+00 0. -1.
</event>
<event>
 7    1  0.3014423E-011  0.5052887E+02  0.7816164E-02  0.1300439E+00
        -11   -1    0    0    0    0  0.00000000000E+00  0.00000000000E+00  0.45593999997E+02  0.45594000000E+02  0.51100000000E-03 0.  1.
         11   -1    0    0    0    0 -0.00000000000E+00 -0.00000000000E+00 -0.45593999997E+02  0.45594000000E+02  0.51100000000E-03 0. -1.
    9900012    2    1    2    0    0 -0.17490152924E+02 -0.27272286469E+02 -0.24565864743E+02  0.50528871023E+02  0.30000033963E+02 0.  0.
        -12    1    1    2    0    0  0.17490152924E+02  0.27272286469E+02  0.24565864743E+02  0.40659128977E+02  0.00000000000E+00 0.  1.
         11    1    3    3    0    0 -0.24893417655E+01 -0.11287126714E+02 -0.17364783603E+02  0.20859812121E+02  0.51100000000E-03 0. -1.
        -11    1    3    3    0    0  0.32357046763E+01 -0.48740038921E+00  0.22146704658E+01  0.39512161956E+01  0.51100000000E-03 0.  1.
         12    1    3    3    0    0 -0.18236515835E+02 -0.15497759366E+02 -0.94157516050E+01  0.25717842706E+02  0.00000000000E+00 0. -1.
</event>
<event>
 7    1  0.3014423E-011  0.5052888E+02  0.7816164E-02  0.1300439E+00
        -11   -1    0    0    0    0  0.00000000000E+00  0.00000000000E+00  0.45593999997E+02  0.45594000000E+02  0.51100000000E-03 0.  1.
         11   -1    0    0    0    0 -0.00000000000E+00 -0.00000000000E+00 -0.45593999997E+02  0.45594000000E+02  0.51100000000E-03 0. -1.
    9900012    2    1    2    0    0 -0.18632153937E+01  0.12094961085E+02 -0.38773758659E+02  0.50528880288E+02  0.30000062123E+02 0.  0.
        -12    1    1    2    0    0  0.18632153937E+01 -0.12094961085E+02  0.38773758659E+02  0.40659119712E+02  0.00000000000E+00 0.  1.
         11    1    3    3    0    0  0.81975167816E+00 -0.54805243479E+01 -0.10886034434E+02  0.12215313582E+02  0.51100000000E-03 0. -1.
        -11    1    3    3    0    0 -0.29041210830E+01  0.14557108055E+02 -0.30751646603E+02  0.34146845875E+02  0.51100000000E-03 0.  1.
        -12    1    3    3    0    0  0.22115401117E+00  0.30183773777E+01  0.28639223782E+01  0.41667208305E+01  0.00000000000E+00 0.  1.
</event>
<event>
 7    1  0.3014423E-011  0.5052886E+02  0.7816164E-02  0.1300439E+00
        -11   -1    0    0    0    0  0.00000000000E+00  0.00000000000E+00  0.45593999997E+02  0.45594000000E+02  0.51100000000E-03 0.  1.
         11   -1    0    0    0    0 -0.00000000000E+00 -0.00000000000E+00 -0.45593999997E+02  0.45594000000E+02  0.51100000000E-03 0. -1.
    9900012    2    1    2    0    0  0.14670291875E+02  0.35914010532E+01 -0.37749833504E+02  0.50528861362E+02  0.30000004596E+02 0.  0.
        -12    1    1    2    0    0 -0.14670291875E+02 -0.35914010532E+01  0.37749833504E+02  0.40659138638E+02  0.00000000000E+00 0.  1.
         11    1    3    3    0    0  0.21345018547E+01 -0.65079412666E+01 -0.26388374137E+02  0.27262716071E+02  0.51100000000E-03 0. -1.
        -11    1    3    3    0    0  0.88979265387E+00 -0.25265322000E+01 -0.34152369538E+01  0.43403847336E+01  0.51100000000E-03 0.  1.
        -12    1    3    3    0    0  0.11645997366E+02  0.12625874520E+02 -0.79462224126E+01  0.18925760557E+02  0.00000000000E+00 0.  1.
</event>
<event>
 7    1  0.3014423E-011  0.5052885E+02  0.7816164E-02  0.1300439E+00
        -11   -1    0    0    0    0  0.00000000000E+00  0.00000000000E+00  0.45593999997E+02  0.45594000000E+02  0.51100000000E-03 0.  1.
         11   -1    0    0    0    0 -0.00000000000E+00 -0.00000000000E+00 -0.45593999997E+02  0.45594000000E+02  0.51100000000E-03 0. -1.
    9900012    2    1    2    0    0  0.15308588429E+02  0.21170542558E+02 -0.31154800198E+02  0.50528851863E+02  0.29999975722E+02 0.  0.
        -12    1    1    2    0    0 -0.15308588429E+02 -0.21170542558E+02  0.31154800198E+02  0.40659148137E+02  0.00000000000E+00 0.  1.
         11    1    3    3    0    0  0.35133059669E+01  0.55147519692E+01 -0.13993350771E+02  0.15445700831E+02  0.51100000000E-03 0. -1.
        -11    1    3    3    0    0  0.11762544100E+02 -0.14973964484E+01 -0.12667058088E+02  0.17350907777E+02  0.51100000000E-03 0.  1.
         12    1    3    3    0    0  0.32738362849E-01  0.17153187037E+02 -0.44943913383E+01  0.17732243254E+02  0.00000000000E+00 0. -1.
</event>
<event>
 7    1  0.3014423E-011  0.5052887E+02  0.7816164E-02  0.1300439E+00
        -11   -1    0    0    0    0  0.00000000000E+00  0.00000000000E+00  0.45593999997E+02  0.45594000000E+02  0.51100000000E-03 0.  1.
         11   -1    0    0    0    0 -0.00000000000E+00 -0.00000000000E+00 -0.45593999997E+02  0.45594000000E+02  0.51100000000E-03 0. -1.
    9900012    2    1    2    0    0 -0.11313088340E+02  0.48565638383E+01 -0.38750389485E+02  0.50528869841E+02  0.30000030368E+02 0.  0.
        -12    1    1    2    0    0  0.11313088340E+02 -0.48565638383E+01  0.38750389485E+02  0.40659130159E+02  0.00000000000E+00 0.  1.
         11    1    3    3    0    0  0.21642295848E+01  0.19578055351E+01 -0.73319777839E+00  0.30090648800E+01  0.51100000000E-03 0. -1.
        -11    1    3    3    0    0 -0.47813256316E+00  0.10424261370E+02 -0.57185767801E+01  0.11899409923E+02  0.51100000000E-03 0.  1.
         12    1    3    3    0    0 -0.12999185362E+02 -0.75255030672E+01 -0.32298614926E+02  0.35620395038E+02  0.00000000000E+00 0. -1.
</event>
<event>
 7    1  0.3014423E-011  0.5052885E+02  0.7816164E-02  0.1300439E+00
        -11   -1    0    0    0    0  0.00000000000E+00  0.00000000000E+00  0.45593999997E+02  0.45594000000E+02  0.51100000000E-03 0. -1.
         11   -1    0    0    0    0 -0.00000000000E+00 -0.00000000000E+00 -0.45593999997E+02  0.45594000000E+02  0.51100000000E-03 0.  1.
    9900012    2    1    2    0    0 -0.13703823461E+02  0.19900221304E+02 -0.32700956278E+02  0.50528854327E+02  0.29999983211E+02 0.  0.
        -12    1    1    2    0    0  0.13703823461E+02 -0.19900221304E+02  0.32700956278E+02  0.40659145673E+02  0.00000000000E+00 0.  1.
         11    1    3    3    0    0 -0.15982895271E+02  0.20970982103E+01 -0.82353695429E+01  0.18101714668E+02  0.51100000000E-03 0. -1.
        -11    1    3    3    0    0 -0.20989875542E+01 -0.21622684863E+00 -0.55527642617E+01  0.59401762608E+01  0.51100000000E-03 0.  1.
         12    1    3    3    0    0  0.43780593643E+01  0.18019349942E+02 -0.18912822474E+02  0.26486963398E+02  0.00000000000E+00 0. -1.
</event>
<event>
 7    1  0.3014423E-011  0.5052886E+02  0.7816164E-02  0.1300439E+00
        -11   -1    0    0    0    0  0.00000000000E+00  0.00000000000E+00  0.45593999997E+02  0.45594000000E+02  0.51100000000E-03 0. -1.
         11   -1    0    0    0    0 -0.00000000000E+00 -0.00000000000E+00 -0.45593999997E+02  0.45594000000E+02  0.51100000000E-03 0.  1.
    9900012    2    1    2    0    0 -0.32969563051E+02  0.20293637849E+02  0.12423451184E+02  0.50528856327E+02  0.29999989291E+02 0.  0.
        -12    1    1    2    0    0  0.32969563051E+02 -0.20293637849E+02 -0.12423451184E+02  0.40659143673E+02  0.00000000000E+00 0.  1.
         11    1    3    3    0    0 -0.43379083937E+01  0.17022846368E+02  0.16513651690E+01  0.17644312253E+02  0.51100000000E-03 0. -1.
        -11    1    3    3    0    0  0.43548121189E+00  0.16034541157E+01  0.17281028554E+01  0.23973002997E+01  0.51100000000E-03 0.  1.
         12    1    3    3    0    0 -0.29067135869E+02  0.16673373653E+01  0.90439831598E+01  0.30487243774E+02  0.00000000000E+00 0. -1.
</event>
<event>
 7    1  0.3014423E-011  0.5052886E+02  0.7816164E-02  0.1300439E+00
        -11   -1    0    0    0    0  0.00000000000E+00  0.00000000000E+00  0.45593999997E+02  0.45594000000E+02  0.51100000000E-03 0. -1.
         11   -1    0    0    0    0 -0.00000000000E+00 -0.00000000000E+00 -0.45593999997E+02  0.45594000000E+02  0.51100000000E-03 0.  1.
    9900012    2    1    2    0    0 -0.60470286140E+01 -0.63545728653E+00  0.40201934525E+02  0.50528857110E+02  0.29999991671E+02 0.  0.
        -12    1    1    2    0    0  0.60470286140E+01  0.63545728653E+00 -0.40201934525E+02  0.40659142890E+02  0.00000000000E+00 0.  1.
         11    1    3    3    0    0  0.21531306673E+01  0.48706078926E+01  0.13147182616E+02  0.14184752515E+02  0.51100000000E-03 0. -1.
        -11    1    3    3    0    0  0.18324747466E+01  0.75688160436E+01  0.86885213201E+01  0.11667705130E+02  0.51100000000E-03 0.  1.
        -12    1    3    3    0    0 -0.10032634028E+02 -0.13074881223E+02  0.18366230588E+02  0.24676399465E+02  0.00000000000E+00 0.  1.
</event>
<event>
 7    1  0.3014423E-011  0.5052886E+02  0.7816164E-02  0.1300439E+00
        -11   -1    0    0    0    0  0.00000000000E+00  0.00000000000E+00  0.45593999997E+02  0.45594000000E+02  0.51100000000E-03 0. -1.
         11   -1    0    0    0    0 -0.00000000000E+00 -0.00000000000E+00 -0.45593999997E+02  0.45594000000E+02  0.51100000000E-03 0.  1.
    9900012    2    1    2    0    0 -0.32722564169E+02 -0.19203745666E+01  0.24056429378E+02  0.50528857871E+02  0.29999993985E+02 0.  0.
        -12    1    1    2    0    0  0.32722564169E+02  0.19203745666E+01 -0.24056429378E+02  0.40659142129E+02  0.00000000000E+00 0.  1.
         11    1    3    3    0    0 -0.14413929341E+02 -0.10587395424E+02  0.16485741039E+02  0.24323526857E+02  0.51100000000E-03 0. -1.
        -11    1    3    3    0    0 -0.18275195946E+01  0.77707411013E+00  0.76800700262E+01  0.79326633554E+01  0.51100000000E-03 0.  1.
        -12    1    3    3    0    0 -0.16481115233E+02  0.78899467472E+01 -0.10938168745E+00  0.18272667658E+02  0.00000000000E+00 0.  1.
</event>
<event>
 7    1  0.3014423E-011  0.5052874E+02  0.7816164E-02  0.1300439E+00
        -11   -1    0    0    0    0  0.00000000000E+00  0.00000000000E+00  0.45593999997E+02  0.45594000000E+02  0.51100000000E-03 0. -1.
         11   -1    0    0    0    0 -0.00000000000E+00 -0.00000000000E+00 -0.45593999997E+02  0.45594000000E+02  0.51100000000E-03 0.  1.
    9900012    2    1    2    0    0  0.24920500467E+02 -0.14898274303E+02  0.28463753101E+02  0.50528743227E+02  0.29999645512E+02 0.  0.
        -12    1    1    2    0    0 -0.24920500467E+02  0.14898274303E+02 -0.28463753101E+02  0.40659256773E+02  0.00000000000E+00 0.  1.
         11    1    3    3    0    0  0.19356771056E+02 -0.97772113282E+01  0.24868989100E+02  0.32996137140E+02  0.51100000000E-03 0. -1.
        -11    1    3    3    0    0  0.75729896898E+01 -0.83816455449E+01  0.62141935303E+01  0.12892569813E+02  0.51100000000E-03 0.  1.
        -12    1    3    3    0    0 -0.20092602787E+01  0.32605825706E+01 -0.26194295295E+01  0.46400362744E+01  0.00000000000E+00 0.  1.
</event>
<event>
 7    1  0.3014423E-011  0.5052885E+02  0.7816164E-02  0.1300439E+00
        -11   -1    0    0    0    0  0.00000000000E+00  0.00000000000E+00  0.45593999997E+02  0.45594000000E+02  0.51100000000E-03 0.  1.
         11   -1    0    0    0    0 -0.00000000000E+00 -0.00000000000E+00 -0.45593999997E+02  0.45594000000E+02  0.51100000000E-03 0. -1.
    9900012    2    1    2    0    0  0.28202789244E+01 -0.35596653186E+02 -0.19444562528E+02  0.50528847240E+02  0.29999961671E+02 0.  0.
        -12    1    1    2    0    0 -0.28202789244E+01  0.35596653186E+02  0.19444562528E+02  0.40659152760E+02  0.00000000000E+00 0.  1.
         11    1    3    3    0    0 -0.25390877074E+01  0.10355793547E+01 -0.17284120466E+01  0.32414193573E+01  0.51100000000E-03 0. -1.
        -11    1    3    3    0    0 -0.68616103386E+01 -0.28044195424E+01 -0.57505259228E+01  0.93816317375E+01  0.51100000000E-03 0.  1.
        -12    1    3    3    0    0  0.12220976970E+02 -0.33827812998E+02 -0.11965624559E+02  0.37905796145E+02  0.00000000000E+00 0.  1.
</event>
<event>
 7    1  0.3014423E-011  0.5052886E+02  0.7816164E-02  0.1300439E+00
        -11   -1    0    0    0    0  0.00000000000E+00  0.00000000000E+00  0.45593999997E+02  0.45594000000E+02  0.51100000000E-03 0.  1.
         11   -1    0    0    0    0 -0.00000000000E+00 -0.00000000000E+00 -0.45593999997E+02  0.45594000000E+02  0.51100000000E-03 0. -1.
    9900012    2    1    2    0    0 -0.47505281605E+01  0.10742741294E+02 -0.38925463947E+02  0.50528858940E+02  0.29999997233E+02 0.  0.
        -12    1    1    2    0    0  0.47505281605E+01 -0.10742741294E+02  0.38925463947E+02  0.40659141060E+02  0.00000000000E+00 0.  1.
         11    1    3    3    0    0 -0.66564419740E+01 -0.29889270748E+01 -0.96307077419E+01  0.12082732997E+02  0.51100000000E-03 0. -1.
        -11    1    3    3    0    0 -0.46359988585E+01  0.14899240837E+01  0.11351636377E+01  0.50000955927E+01  0.51100000000E-03 0.  1.
        -12    1    3    3    0    0  0.65419126719E+01  0.12241744285E+02 -0.30429919842E+02  0.33446030350E+02  0.00000000000E+00 0.  1.
</event>
<event>
 7    1  0.3014423E-011  0.5052885E+02  0.7816164E-02  0.1300439E+00
        -11   -1    0    0    0    0  0.00000000000E+00  0.00000000000E+00  0.45593999997E+02  0.45594000000E+02  0.51100000000E-03 0. -1.
         11   -1    0    0    0    0 -0.00000000000E+00 -0.00000000000E+00 -0.45593999997E+02  0.45594000000E+02  0.51100000000E-03 0.  1.
    9900012    2    1    2    0    0 -0.27532149209E+02 -0.19538735222E+02 -0.22657997070E+02  0.50528852869E+02  0.29999978782E+02 0.  0.
        -12    1    1    2    0    0  0.27532149209E+02  0.19538735222E+02  0.22657997070E+02  0.40659147131E+02  0.00000000000E+00 0.  1.
         11    1    3    3    0    0 -0.86880161198E+01 -0.53993597857E-01  0.38143580006E+01  0.94886177404E+01  0.51100000000E-03 0. -1.
        -11    1    3    3    0    0 -0.26012759495E+01  0.21064836514E+01 -0.19864749469E+00  0.33531136317E+01  0.51100000000E-03 0.  1.
        -12    1    3    3    0    0 -0.16242857140E+02 -0.21591225275E+02 -0.26273707576E+02  0.37687121497E+02  0.00000000000E+00 0.  1.
</event>
<event>
 7    1  0.3014423E-011  0.5052892E+02  0.7816164E-02  0.1300439E+00
        -11   -1    0    0    0    0  0.00000000000E+00  0.00000000000E+00  0.45593999997E+02  0.45594000000E+02  0.51100000000E-03 0.  1.
         11   -1    0    0    0    0 -0.00000000000E+00 -0.00000000000E+00 -0.45593999997E+02  0.45594000000E+02  0.51100000000E-03 0. -1.
    9900012    2    1    2    0    0 -0.81854241957E+01 -0.30511903689E+02  0.25596554330E+02  0.50528917010E+02  0.30000173743E+02 0.  0.
        -12    1    1    2    0    0  0.81854241957E+01  0.30511903689E+02 -0.25596554330E+02  0.40659082990E+02  0.00000000000E+00 0.  1.
         11    1    3    3    0    0 -0.59888132760E+01 -0.29379206072E+01  0.13119648109E+02  0.14718098679E+02  0.51100000000E-03 0. -1.
        -11    1    3    3    0    0  0.26375717389E+01 -0.16594253368E+01  0.86232772480E+01  0.91690450911E+01  0.51100000000E-03 0.  1.
         12    1    3    3    0    0 -0.48341826587E+01 -0.25914557745E+02  0.38536289731E+01  0.26641773240E+02  0.00000000000E+00 0. -1.
</event>
<event>
 7    1  0.3014423E-011  0.5052886E+02  0.7816164E-02  0.1300439E+00
        -11   -1    0    0    0    0  0.00000000000E+00  0.00000000000E+00  0.45593999997E+02  0.45594000000E+02  0.51100000000E-03 0.  1.
         11   -1    0    0    0    0 -0.00000000000E+00 -0.00000000000E+00 -0.45593999997E+02  0.45594000000E+02  0.51100000000E-03 0. -1.
    9900012    2    1    2    0    0  0.41179729101E-01  0.23294826103E+02 -0.33324393953E+02  0.50528857716E+02  0.29999993513E+02 0.  0.
        -12    1    1    2    0    0 -0.41179729101E-01 -0.23294826103E+02  0.33324393953E+02  0.40659142284E+02  0.00000000000E+00 0.  1.
         11    1    3    3    0    0  0.23266743394E+01  0.45289035374E+01 -0.75646569468E+01  0.91185753118E+01  0.51100000000E-03 0. -1.
        -11    1    3    3    0    0  0.52200388893E+01  0.22445627931E+02 -0.23122426522E+02  0.32645085813E+02  0.51100000000E-03 0.  1.
        -12    1    3    3    0    0 -0.75055334996E+01 -0.36797053655E+01 -0.26373104846E+01  0.87651965913E+01  0.00000000000E+00 0.  1.
</event>
<event>
 7    1  0.3014423E-011  0.5052886E+02  0.7816164E-02  0.1300439E+00
        -11   -1    0    0    0    0  0.00000000000E+00  0.00000000000E+00  0.45593999997E+02  0.45594000000E+02  0.51100000000E-03 0. -1.
         11   -1    0    0    0    0 -0.00000000000E+00 -0.00000000000E+00 -0.45593999997E+02  0.45594000000E+02  0.51100000000E-03 0.  1.
    9900012    2    1    2    0    0  0.10804241095E+01  0.36213294984E+02  0.18455233945E+02  0.50528859455E+02  0.29999998800E+02 0.  0.
        -12    1    1    2    0    0 -0.10804241095E+01 -0.36213294984E+02 -0.18455233945E+02  0.40659140545E+02  0.00000000000E+00 0.  1.
         11    1    3    3    0    0  0.22842962156E+01  0.22299666316E+02  0.12396474677E+02  0.25615731723E+02  0.51100000000E-03 0. -1.
        -11    1    3    3    0    0 -0.13047934582E+01  0.15327592561E+02  0.11553468129E+02  0.19238508408E+02  0.51100000000E-03 0.  1.
        -12    1    3    3    0    0  0.10092135214E+00 -0.14139638932E+01 -0.54947088609E+01  0.56746193244E+01  0.00000000000E+00 0.  1.
</event>
<event>
 7    1  0.3014423E-011  0.5052886E+02  0.7816164E-02  0.1300439E+00
        -11   -1    0    0    0    0  0.00000000000E+00  0.00000000000E+00  0.45593999997E+02  0.45594000000E+02  0.51100000000E-03 0.  1.
         11   -1    0    0    0    0 -0.00000000000E+00 -0.00000000000E+00 -0.45593999997E+02  0.45594000000E+02  0.51100000000E-03 0. -1.
    9900012    2    1    2    0    0  0.79683729100E+01 -0.19473436219E+02 -0.34791609416E+02  0.50528858706E+02  0.29999996523E+02 0.  0.
        -12    1    1    2    0    0 -0.79683729100E+01  0.19473436219E+02  0.34791609416E+02  0.40659141294E+02  0.00000000000E+00 0.  1.
         11    1    3    3    0    0  0.36108948612E+01 -0.17221560215E+01 -0.10027932319E+02  0.10796472105E+02  0.51100000000E-03 0. -1.
        -11    1    3    3    0    0 -0.38898384459E+01 -0.15328515264E+02 -0.26596840997E+02  0.30943273496E+02  0.51100000000E-03 0.  1.
        -12    1    3    3    0    0  0.82473164947E+01 -0.24227649336E+01  0.18331639005E+01  0.87891131050E+01  0.00000000000E+00 0.  1.
</event>
<event>
 7    1  0.3014423E-011  0.5052886E+02  0.7816164E-02  0.1300439E+00
        -11   -1    0    0    0    0  0.00000000000E+00  0.00000000000E+00  0.45593999997E+02  0.45594000000E+02  0.51100000000E-03 0.  1.
         11   -1    0    0    0    0 -0.00000000000E+00 -0.00000000000E+00 -0.45593999997E+02  0.45594000000E+02  0.51100000000E-03 0. -1.
    9900012    2    1    2    0    0 -0.65945047382E+01  0.19380656039E+02 -0.35129309107E+02  0.50528859827E+02  0.29999999931E+02 0.  0.
        -12    1    1    2    0    0  0.65945047382E+01 -0.19380656039E+02  0.35129309107E+02  0.40659140173E+02  0.00000000000E+00 0.  1.
         11    1    3    3    0    0  0.57631231819E+01  0.13649889542E+02 -0.20359644942E+02  0.25180314052E+02  0.51100000000E-03 0. -1.
        -11    1    3    3    0    0  0.29814325146E+01  0.35843504716E+01 -0.13464487873E+01  0.48527757768E+01  0.51100000000E-03 0.  1.
         12    1    3    3    0    0 -0.15339060435E+02  0.21464160251E+01 -0.13423215378E+02  0.20495769999E+02  0.00000000000E+00 0. -1.
</event>
<event>
 7    1  0.3014423E-011  0.5052887E+02  0.7816164E-02  0.1300439E+00
        -11   -1    0    0    0    0  0.00000000000E+00  0.00000000000E+00  0.45593999997E+02  0.45594000000E+02  0.51100000000E-03 0. -1.
         11   -1    0    0    0    0 -0.00000000000E+00 -0.00000000000E+00 -0.45593999997E+02  0.45594000000E+02  0.51100000000E-03 0.  1.
    9900012    2    1    2    0    0 -0.20123070175E+02 -0.17499576808E+02 -0.30691889502E+02  0.50528865443E+02  0.30000017002E+02 0.  0.
        -12    1    1    2    0    0  0.20123070175E+02  0.17499576808E+02  0.30691889502E+02  0.40659134557E+02  0.00000000000E+00 0.  1.
         11    1    3    3    0    0 -0.13348546775E+02 -0.58041364388E+01 -0.71727317948E+01  0.16227131060E+02  0.51100000000E-03 0. -1.
        -11    1    3    3    0    0 -0.71364854394E+01 -0.13542176959E+02 -0.26600895679E+02  0.30690839552E+02  0.51100000000E-03 0.  1.
         12    1    3    3    0    0  0.36196203926E+00  0.18467365903E+01  0.30817379721E+01  0.36108948310E+01  0.00000000000E+00 0. -1.
</event>
<event>
 7    1  0.3014423E-011  0.5052885E+02  0.7816164E-02  0.1300439E+00
        -11   -1    0    0    0    0  0.00000000000E+00  0.00000000000E+00  0.45593999997E+02  0.45594000000E+02  0.51100000000E-03 0.  1.
         11   -1    0    0    0    0 -0.00000000000E+00 -0.00000000000E+00 -0.45593999997E+02  0.45594000000E+02  0.51100000000E-03 0. -1.
    9900012    2    1    2    0    0  0.28165034995E+01  0.39976037288E+02 -0.68665810221E+01  0.50528853623E+02  0.29999981071E+02 0.  0.
        -12    1    1    2    0    0 -0.28165034995E+01 -0.39976037288E+02  0.68665810221E+01  0.40659146377E+02  0.00000000000E+00 0.  1.
         11    1    3    3    0    0  0.49187794133E+01  0.38475805040E+02 -0.42746849162E+00  0.38791296626E+02  0.51100000000E-03 0. -1.
        -11    1    3    3    0    0 -0.32910342514E+01  0.50330010765E+01 -0.46577317303E+01  0.76063441555E+01  0.51100000000E-03 0.  1.
        -12    1    3    3    0    0  0.11887583376E+01 -0.35327688285E+01 -0.17813808001E+01  0.41312128408E+01  0.00000000000E+00 0.  1.
</event>
<event>
 7    1  0.3014423E-011  0.5052884E+02  0.7816164E-02  0.1300439E+00
        -11   -1    0    0    0    0  0.00000000000E+00  0.00000000000E+00  0.45593999997E+02  0.45594000000E+02  0.51100000000E-03 0.  1.
         11   -1    0    0    0    0 -0.00000000000E+00 -0.00000000000E+00 -0.45593999997E+02  0.45594000000E+02  0.51100000000E-03 0. -1.
    9900012    2    1    2    0    0 -0.17694348343E+02  0.34879849047E+02  0.11111850093E+02  0.50528843032E+02  0.29999948881E+02 0.  0.
        -12    1    1    2    0    0  0.17694348343E+02 -0.34879849047E+02 -0.11111850093E+02  0.40659156968E+02  0.00000000000E+00 0.  1.
         11    1    3    3    0    0 -0.72411747992E+01  0.65430176385E+01  0.75273943175E+01  0.12325070294E+02  0.51100000000E-03 0. -1.
        -11    1    3    3    0    0  0.15517357745E+01  0.10544960140E+02  0.11170223568E+02  0.15439493615E+02  0.51100000000E-03 0.  1.
         12    1    3    3    0    0 -0.12004909318E+02  0.17791871269E+02 -0.75857677924E+01  0.22764279123E+02  0.00000000000E+00 0. -1.
</event>
<event>
 7    1  0.3014423E-011  0.5052886E+02  0.7816164E-02  0.1300439E+00
        -11   -1    0    0    0    0  0.00000000000E+00  0.00000000000E+00  0.45593999997E+02  0.45594000000E+02  0.51100000000E-03 0.  1.
         11   -1    0    0    0    0 -0.00000000000E+00 -0.00000000000E+00 -0.45593999997E+02  0.45594000000E+02  0.51100000000E-03 0. -1.
    9900012    2    1    2    0    0  0.11304052095E+02  0.16878124339E+02 -0.35220916579E+02  0.50528860319E+02  0.30000001425E+02 0.  0.
        -12    1    1    2    0    0 -0.11304052095E+02 -0.16878124339E+02  0.35220916579E+02  0.40659139681E+02  0.00000000000E+00 0.  1.
         11    1    3    3    0    0 -0.12303727202E+00  0.11822851964E+02 -0.18174714419E+02  0.21682140374E+02  0.51100000000E-03 0. -1.
        -11    1    3    3    0    0  0.57703396445E+01  0.60965080333E+01 -0.20489978566E+02  0.22142796836E+02  0.51100000000E-03 0.  1.
        -12    1    3    3    0    0  0.56567497221E+01 -0.10412356586E+01  0.34437764057E+01  0.67039231087E+01  0.00000000000E+00 0.  1.
</event>
<event>
 7    1  0.3014423E-011  0.5052886E+02  0.7816164E-02  0.1300439E+00
        -11   -1    0    0    0    0  0.00000000000E+00  0.00000000000E+00  0.45593999997E+02  0.45594000000E+02  0.51100000000E-03 0.  1.
         11   -1    0    0    0    0 -0.00000000000E+00 -0.00000000000E+00 -0.45593999997E+02  0.45594000000E+02  0.51100000000E-03 0. -1.
    9900012    2    1    2    0    0 -0.23470731899E+02  0.23781058071E+02  0.23167909101E+02  0.50528855999E+02  0.29999988293E+02 0.  0.
        -12    1    1    2    0    0  0.23470731899E+02 -0.23781058071E+02 -0.23167909101E+02  0.40659144001E+02  0.00000000000E+00 0.  1.
         11    1    3    3    0    0 -0.14619602631E+02  0.14165198349E+02  0.76441032574E+01  0.21744377210E+02  0.51100000000E-03 0. -1.
        -11    1    3    3    0    0 -0.25409059734E+01  0.13591329798E+02  0.29083833163E+01  0.14129371629E+02  0.51100000000E-03 0.  1.
        -12    1    3    3    0    0 -0.63102232940E+01 -0.39754700761E+01  0.12615422527E+02  0.14655107160E+02  0.00000000000E+00 0.  1.
</event>
<event>
 7    1  0.3014423E-011  0.5052886E+02  0.7816164E-02  0.1300439E+00
        -11   -1    0    0    0    0  0.00000000000E+00  0.00000000000E+00  0.45593999997E+02  0.45594000000E+02  0.51100000000E-03 0. -1.
         11   -1    0    0    0    0 -0.00000000000E+00 -0.00000000000E+00 -0.45593999997E+02  0.45594000000E+02  0.51100000000E-03 0.  1.
    9900012    2    1    2    0    0  0.12530841996E+01 -0.37866076328E+02 -0.14756553134E+02  0.50528858139E+02  0.29999994799E+02 0.  0.
        -12    1    1    2    0    0 -0.12530841996E+01  0.37866076328E+02  0.14756553134E+02  0.40659141861E+02  0.00000000000E+00 0.  1.
         11    1    3    3    0    0 -0.12445101675E+00 -0.10628503918E+02  0.18017294360E+00  0.10630759434E+02  0.51100000000E-03 0. -1.
        -11    1    3    3    0    0  0.54064546004E+01 -0.31004523995E+02 -0.13014427987E+02  0.34057093176E+02  0.51100000000E-03 0.  1.
         12    1    3    3    0    0 -0.40289193841E+01  0.37669515846E+01 -0.19222980907E+01  0.58410055293E+01  0.00000000000E+00 0. -1.
</event>
<event>
 7    1  0.3014423E-011  0.5052886E+02  0.7816164E-02  0.1300439E+00
        -11   -1    0    0    0    0  0.00000000000E+00  0.00000000000E+00  0.45593999997E+02  0.45594000000E+02  0.51100000000E-03 0.  1.
         11   -1    0    0    0    0 -0.00000000000E+00 -0.00000000000E+00 -0.45593999997E+02  0.45594000000E+02  0.51100000000E-03 0. -1.
    9900012    2    1    2    0    0  0.27934306750E+02  0.29122827031E+02 -0.49700162484E+01  0.50528860690E+02  0.30000002553E+02 0.  0.
        -12    1    1    2    0    0 -0.27934306750E+02 -0.29122827031E+02  0.49700162484E+01  0.40659139310E+02  0.00000000000E+00 0.  1.
         11    1    3    3    0    0 -0.15555953178E+01 -0.10195340619E+01  0.63411703059E+00  0.19650524588E+01  0.51100000000E-03 0. -1.
        -11    1    3    3    0    0 -0.49549668553E+00  0.14081994502E+02 -0.63710028983E-02  0.14090710663E+02  0.51100000000E-03 0.  1.
         12    1    3    3    0    0  0.29985398754E+02  0.16060366591E+02 -0.55977622761E+01  0.34473097568E+02  0.00000000000E+00 0. -1.
</event>
<event>
 7    1  0.3014423E-011  0.5052886E+02  0.7816164E-02  0.1300439E+00
        -11   -1    0    0    0    0  0.00000000000E+00  0.00000000000E+00  0.45593999997E+02  0.45594000000E+02  0.51100000000E-03 0. -1.
         11   -1    0    0    0    0 -0.00000000000E+00 -0.00000000000E+00 -0.45593999997E+02  0.45594000000E+02  0.51100000000E-03 0.  1.
    9900012    2    1    2    0    0 -0.77155030732E+01 -0.19756278515E+02  0.34688994669E+02  0.50528857368E+02  0.29999992456E+02 0.  0.
        -12    1    1    2    0    0  0.77155030732E+01  0.19756278515E+02 -0.34688994669E+02  0.40659142632E+02  0.00000000000E+00 0.  1.
         11    1    3    3    0    0 -0.32562735228E+01 -0.19627307629E+01  0.17847040481E+02  0.18247533627E+02  0.51100000000E-03 0. -1.
        -11    1    3    3    0    0 -0.40684979052E+01  0.47291195490E+00  0.12974751405E+02  0.13605899279E+02  0.51100000000E-03 0.  1.
        -12    1    3    3    0    0 -0.39073164515E+00 -0.18266459707E+02  0.38672027831E+01  0.18675424461E+02  0.00000000000E+00 0.  1.
</event>
<event>
 7    1  0.3014423E-011  0.5052886E+02  0.7816164E-02  0.1300439E+00
        -11   -1    0    0    0    0  0.00000000000E+00  0.00000000000E+00  0.45593999997E+02  0.45594000000E+02  0.51100000000E-03 0. -1.
         11   -1    0    0    0    0 -0.00000000000E+00 -0.00000000000E+00 -0.45593999997E+02  0.45594000000E+02  0.51100000000E-03 0.  1.
    9900012    2    1    2    0    0  0.20491703979E+02 -0.22028606135E+01  0.35048584539E+02  0.50528858285E+02  0.29999995243E+02 0.  0.
        -12    1    1    2    0    0 -0.20491703979E+02  0.22028606135E+01 -0.35048584539E+02  0.40659141715E+02  0.00000000000E+00 0.  1.
         11    1    3    3    0    0  0.93816063946E+01  0.92812100850E+00  0.17924803460E+02  0.20252765897E+02  0.51100000000E-03 0. -1.
        -11    1    3    3    0    0 -0.46015104580E+01 -0.45813880517E+01  0.12074027083E+02  0.13709308708E+02  0.51100000000E-03 0.  1.
        -12    1    3    3    0    0  0.15711608042E+02  0.14504064297E+01  0.50497539953E+01  0.16566783680E+02  0.00000000000E+00 0.  1.
</event>
<event>
 7    1  0.3014423E-011  0.5052888E+02  0.7816164E-02  0.1300439E+00
        -11   -1    0    0    0    0  0.00000000000E+00  0.00000000000E+00  0.45593999997E+02  0.45594000000E+02  0.51100000000E-03 0.  1.
         11   -1    0    0    0    0 -0.00000000000E+00 -0.00000000000E+00 -0.45593999997E+02  0.45594000000E+02  0.51100000000E-03 0. -1.
    9900012    2    1    2    0    0 -0.28912417677E+02 -0.28570185797E+02  0.99035825506E+00  0.50528877753E+02  0.30000054419E+02 0.  0.
        -12    1    1    2    0    0  0.28912417677E+02  0.28570185797E+02 -0.99035825506E+00  0.40659122247E+02  0.00000000000E+00 0.  1.
         11    1    3    3    0    0 -0.81988894000E-02 -0.73668905155E+01  0.18777695298E+01  0.76024444593E+01  0.51100000000E-03 0. -1.
        -11    1    3    3    0    0  0.29140986193E+01  0.18136145033E+01 -0.12534586064E+01  0.36540836154E+01  0.51100000000E-03 0.  1.
         12    1    3    3    0    0 -0.31818317407E+02 -0.23016909784E+02  0.36604733160E+00  0.39272349679E+02  0.00000000000E+00 0. -1.
</event>
<event>
 7    1  0.3014423E-011  0.5052888E+02  0.7816164E-02  0.1300439E+00
        -11   -1    0    0    0    0  0.00000000000E+00  0.00000000000E+00  0.45593999997E+02  0.45594000000E+02  0.51100000000E-03 0.  1.
         11   -1    0    0    0    0 -0.00000000000E+00 -0.00000000000E+00 -0.45593999997E+02  0.45594000000E+02  0.51100000000E-03 0. -1.
    9900012    2    1    2    0    0 -0.27815098388E+02  0.23083257838E+02 -0.18618479754E+02  0.50528877049E+02  0.30000052279E+02 0.  0.
        -12    1    1    2    0    0  0.27815098388E+02 -0.23083257838E+02  0.18618479754E+02  0.40659122951E+02  0.00000000000E+00 0.  1.
         11    1    3    3    0    0 -0.99107442564E+01 -0.50528313324E+01 -0.11947182706E+02  0.16324494818E+02  0.51100000000E-03 0. -1.
        -11    1    3    3    0    0 -0.19480435357E+01  0.32637408509E+01 -0.19734881328E+01  0.42827016742E+01  0.51100000000E-03 0.  1.
        -12    1    3    3    0    0 -0.15956310596E+02  0.24872348320E+02 -0.46978089155E+01  0.29921680557E+02  0.00000000000E+00 0.  1.
</event>
<event>
 7    1  0.3014423E-011  0.5052886E+02  0.7816164E-02  0.1300439E+00
        -11   -1    0    0    0    0  0.00000000000E+00  0.00000000000E+00  0.45593999997E+02  0.45594000000E+02  0.51100000000E-03 0.  1.
         11   -1    0    0    0    0 -0.00000000000E+00 -0.00000000000E+00 -0.45593999997E+02  0.45594000000E+02  0.51100000000E-03 0. -1.
    9900012    2    1    2    0    0  0.68704717230E+01 -0.11825605087E+02 -0.38289907965E+02  0.50528863643E+02  0.30000011529E+02 0.  0.
        -12    1    1    2    0    0 -0.68704717230E+01  0.11825605087E+02  0.38289907965E+02  0.40659136357E+02  0.00000000000E+00 0.  1.
         11    1    3    3    0    0  0.25508374931E+01 -0.11781879847E+02 -0.39998835735E+01  0.12701123317E+02  0.51100000000E-03 0. -1.
        -11    1    3    3    0    0 -0.35128894838E+01 -0.47912213599E+01 -0.78394939659E+01  0.98363540272E+01  0.51100000000E-03 0.  1.
        -12    1    3    3    0    0  0.78325237137E+01  0.47474961207E+01 -0.26450530425E+02  0.27991386299E+02  0.00000000000E+00 0.  1.
</event>
<event>
 7    1  0.3014423E-011  0.5052885E+02  0.7816164E-02  0.1300439E+00
        -11   -1    0    0    0    0  0.00000000000E+00  0.00000000000E+00  0.45593999997E+02  0.45594000000E+02  0.51100000000E-03 0. -1.
         11   -1    0    0    0    0 -0.00000000000E+00 -0.00000000000E+00 -0.45593999997E+02  0.45594000000E+02  0.51100000000E-03 0.  1.
    9900012    2    1    2    0    0  0.12990494702E+01  0.26636726789E+02  0.30691432771E+02  0.50528846183E+02  0.29999958459E+02 0.  0.
        -12    1    1    2    0    0 -0.12990494702E+01 -0.26636726789E+02 -0.30691432771E+02  0.40659153817E+02  0.00000000000E+00 0.  1.
         11    1    3    3    0    0 -0.79366124042E+01  0.15069289071E+02  0.12180790113E+01  0.17075040448E+02  0.51100000000E-03 0. -1.
        -11    1    3    3    0    0 -0.17284404271E+00 -0.49709111506E+00  0.92153932074E+00  0.10612302392E+01  0.51100000000E-03 0.  1.
         12    1    3    3    0    0  0.94085059171E+01  0.12064528833E+02  0.28551814439E+02  0.32392575497E+02  0.00000000000E+00 0. -1.
</event>
<event>
 7    1  0.3014423E-011  0.5052873E+02  0.7816164E-02  0.1300439E+00
        -11   -1    0    0    0    0  0.00000000000E+00  0.00000000000E+00  0.45593999997E+02  0.45594000000E+02  0.51100000000E-03 0.  1.
         11   -1    0    0    0    0 -0.00000000000E+00 -0.00000000000E+00 -0.45593999997E+02  0.45594000000E+02  0.51100000000E-03 0. -1.
    9900012    2    1    2    0    0  0.26832115332E+01 -0.35534477170E+02 -0.19577475581E+02  0.50528729938E+02  0.29999605117E+02 0.  0.
        -12    1    1    2    0    0 -0.26832115332E+01  0.35534477170E+02  0.19577475581E+02  0.40659270062E+02  0.00000000000E+00 0.  1.
         11    1    3    3    0    0 -0.38115002902E+01 -0.19156460237E+02 -0.18578544545E+01  0.19620120456E+02  0.51100000000E-03 0. -1.
        -11    1    3    3    0    0  0.82853269671E+01 -0.19069311413E+02 -0.18210653417E+02  0.27638979338E+02  0.51100000000E-03 0.  1.
         12    1    3    3    0    0 -0.17906151437E+01  0.26912944796E+01  0.49103229080E+00  0.32696301441E+01  0.00000000000E+00 0. -1.
</event>
<event>
 7    1  0.3014423E-011  0.5052887E+02  0.7816164E-02  0.1300439E+00
        -11   -1    0    0    0    0  0.00000000000E+00  0.00000000000E+00  0.45593999997E+02  0.45594000000E+02  0.51100000000E-03 0.  1.
         11   -1    0    0    0    0 -0.00000000000E+00 -0.00000000000E+00 -0.45593999997E+02  0.45594000000E+02  0.51100000000E-03 0. -1.
    9900012    2    1    2    0    0  0.19638636923E+01  0.12825836222E+02 -0.38533180990E+02  0.50528869750E+02  0.30000030094E+02 0.  0.
        -12    1    1    2    0    0 -0.19638636923E+01 -0.12825836222E+02  0.38533180990E+02  0.40659130250E+02  0.00000000000E+00 0.  1.
         11    1    3    3    0    0  0.23149820204E+01  0.21434415305E+02 -0.27636139760E+02  0.35050670783E+02  0.51100000000E-03 0. -1.
        -11    1    3    3    0    0  0.31230891160E+01 -0.55057343233E+01 -0.60626247298E+01  0.87648282892E+01  0.51100000000E-03 0.  1.
        -12    1    3    3    0    0 -0.34742074441E+01 -0.31028447595E+01 -0.48344165004E+01  0.67133706783E+01  0.00000000000E+00 0.  1.
</event>
<event>
 7    1  0.3014423E-011  0.5052886E+02  0.7816164E-02  0.1300439E+00
        -11   -1    0    0    0    0  0.00000000000E+00  0.00000000000E+00  0.45593999997E+02  0.45594000000E+02  0.51100000000E-03 0. -1.
         11   -1    0    0    0    0 -0.00000000000E+00 -0.00000000000E+00 -0.45593999997E+02  0.45594000000E+02  0.51100000000E-03 0.  1.
    9900012    2    1    2    0    0 -0.31207751714E+02  0.12215053462E+02  0.23022468492E+02  0.50528863836E+02  0.30000012116E+02 0.  0.
        -12    1    1    2    0    0  0.31207751714E+02 -0.12215053462E+02 -0.23022468492E+02  0.40659136164E+02  0.00000000000E+00 0.  1.
         11    1    3    3    0    0 -0.60910852045E+01  0.73030469353E+01  0.90774341495E+01  0.13146696334E+02  0.51100000000E-03 0. -1.
        -11    1    3    3    0    0 -0.11755144359E+01  0.56714028831E+01  0.12031043533E+02  0.13352627217E+02  0.51100000000E-03 0.  1.
        -12    1    3    3    0    0 -0.23941152074E+02 -0.75939635590E+00  0.19139908091E+01  0.24029540284E+02  0.00000000000E+00 0.  1.
</event>
<event>
 7    1  0.3014423E-011  0.5052885E+02  0.7816164E-02  0.1300439E+00
        -11   -1    0    0    0    0  0.00000000000E+00  0.00000000000E+00  0.45593999997E+02  0.45594000000E+02  0.51100000000E-03 0. -1.
         11   -1    0    0    0    0 -0.00000000000E+00 -0.00000000000E+00 -0.45593999997E+02  0.45594000000E+02  0.51100000000E-03 0.  1.
    9900012    2    1    2    0    0 -0.21280323834E+02 -0.28622657471E+02  0.19520697174E+02  0.50528851935E+02  0.29999975943E+02 0.  0.
        -12    1    1    2    0    0  0.21280323834E+02  0.28622657471E+02 -0.19520697174E+02  0.40659148065E+02  0.00000000000E+00 0.  1.
         11    1    3    3    0    0 -0.11050537996E+02 -0.55607104201E+01  0.14493830257E+02  0.19055366859E+02  0.51100000000E-03 0. -1.
        -11    1    3    3    0    0 -0.10113516877E+02 -0.31269394423E+01  0.45771902003E+01  0.11533067428E+02  0.51100000000E-03 0.  1.
         12    1    3    3    0    0 -0.11626896043E+00 -0.19935007609E+02  0.44967671695E+00  0.19940417648E+02  0.00000000000E+00 0. -1.
</event>
<event>
 7    1  0.3014423E-011  0.5052886E+02  0.7816164E-02  0.1300439E+00
        -11   -1    0    0    0    0  0.00000000000E+00  0.00000000000E+00  0.45593999997E+02  0.45594000000E+02  0.51100000000E-03 0. -1.
         11   -1    0    0    0    0 -0.00000000000E+00 -0.00000000000E+00 -0.45593999997E+02  0.45594000000E+02  0.51100000000E-03 0.  1.
    9900012    2    1    2    0    0 -0.50505385308E+01  0.16385675392E+02  0.36866887200E+02  0.50528859953E+02  0.30000000314E+02 0.  0.
        -12    1    1    2    0    0  0.50505385308E+01 -0.16385675392E+02 -0.36866887200E+02  0.40659140047E+02  0.00000000000E+00 0.  1.
         11    1    3    3    0    0 -0.40225496555E+01 -0.24177408393E+01 -0.61743759981E+00  0.47336672832E+01  0.51100000000E-03 0. -1.
        -11    1    3    3    0    0  0.43618725266E+01 -0.12960074526E+01  0.27868460238E+01  0.53359233762E+01  0.51100000000E-03 0.  1.
         12    1    3    3    0    0 -0.53898614019E+01  0.20099423684E+02  0.34697478776E+02  0.40459269294E+02  0.00000000000E+00 0. -1.
</event>
<event>
 7    1  0.3014423E-011  0.5052886E+02  0.7816164E-02  0.1300439E+00
        -11   -1    0    0    0    0  0.00000000000E+00  0.00000000000E+00  0.45593999997E+02  0.45594000000E+02  0.51100000000E-03 0. -1.
         11   -1    0    0    0    0 -0.00000000000E+00 -0.00000000000E+00 -0.45593999997E+02  0.45594000000E+02  0.51100000000E-03 0.  1.
    9900012    2    1    2    0    0  0.27546607124E+02  0.21388255078E+02  0.20901974172E+02  0.50528861499E+02  0.30000005012E+02 0.  0.
        -12    1    1    2    0    0 -0.27546607124E+02 -0.21388255078E+02 -0.20901974172E+02  0.40659138501E+02  0.00000000000E+00 0.  1.
         11    1    3    3    0    0  0.13240093291E+02  0.21459492324E+02  0.10770849485E+02  0.27419355938E+02  0.51100000000E-03 0. -1.
        -11    1    3    3    0    0  0.67931026181E+01  0.57064714659E+01 -0.47612081983E+00  0.88846356744E+01  0.51100000000E-03 0.  1.
         12    1    3    3    0    0  0.75134112147E+01 -0.57777087115E+01  0.10607245508E+02  0.14224869887E+02  0.00000000000E+00 0. -1.
</event>
<event>
 7    1  0.3014423E-011  0.5052886E+02  0.7816164E-02  0.1300439E+00
        -11   -1    0    0    0    0  0.00000000000E+00  0.00000000000E+00  0.45593999997E+02  0.45594000000E+02  0.51100000000E-03 0.  1.
         11   -1    0    0    0    0 -0.00000000000E+00 -0.00000000000E+00 -0.45593999997E+02  0.45594000000E+02  0.51100000000E-03 0. -1.
    9900012    2    1    2    0    0  0.18974042895E+02 -0.24033983383E+02 -0.26749182767E+02  0.50528862776E+02  0.30000008895E+02 0.  0.
        -12    1    1    2    0    0 -0.18974042895E+02  0.24033983383E+02  0.26749182767E+02  0.40659137224E+02  0.00000000000E+00 0.  1.
         11    1    3    3    0    0  0.15442356852E+02 -0.20855561574E+02 -0.10221374926E+02  0.27890811020E+02  0.51100000000E-03 0. -1.
        -11    1    3    3    0    0  0.19660713386E+01  0.20570189894E+01  0.18970816797E+01  0.34198951433E+01  0.51100000000E-03 0.  1.
        -12    1    3    3    0    0  0.15656147052E+01 -0.52354407987E+01 -0.18424889521E+02  0.19218156613E+02  0.00000000000E+00 0.  1.
</event>
<event>
 7    1  0.3014423E-011  0.5052886E+02  0.7816164E-02  0.1300439E+00
        -11   -1    0    0    0    0  0.00000000000E+00  0.00000000000E+00  0.45593999997E+02  0.45594000000E+02  0.51100000000E-03 0.  1.
         11   -1    0    0    0    0 -0.00000000000E+00 -0.00000000000E+00 -0.45593999997E+02  0.45594000000E+02  0.51100000000E-03 0. -1.
    9900012    2    1    2    0    0  0.36546291388E+02 -0.12129157777E+02 -0.13054410081E+02  0.50528861973E+02  0.30000006452E+02 0.  0.
        -12    1    1    2    0    0 -0.36546291388E+02  0.12129157777E+02  0.13054410081E+02  0.40659138027E+02  0.00000000000E+00 0.  1.
         11    1    3    3    0    0  0.12768178431E+02 -0.11723986053E+01 -0.43136853837E+01  0.13528073802E+02  0.51100000000E-03 0. -1.
        -11    1    3    3    0    0  0.26130293747E+02 -0.11812944027E+02 -0.13445114527E+02  0.31671896104E+02  0.51100000000E-03 0.  1.
        -12    1    3    3    0    0 -0.23521807913E+01  0.85618485519E+00  0.47043898303E+01  0.53288920665E+01  0.00000000000E+00 0.  1.
</event>
<event>
 7    1  0.3014423E-011  0.5052885E+02  0.7816164E-02  0.1300439E+00
        -11   -1    0    0    0    0  0.00000000000E+00  0.00000000000E+00  0.45593999997E+02  0.45594000000E+02  0.51100000000E-03 0.  1.
         11   -1    0    0    0    0 -0.00000000000E+00 -0.00000000000E+00 -0.45593999997E+02  0.45594000000E+02  0.51100000000E-03 0. -1.
    9900012    2    1    2    0    0 -0.22589728373E+02 -0.11297201491E+02 -0.31862894383E+02  0.50528848165E+02  0.29999964482E+02 0.  0.
        -12    1    1    2    0    0  0.22589728373E+02  0.11297201491E+02  0.31862894383E+02  0.40659151835E+02  0.00000000000E+00 0.  1.
         11    1    3    3    0    0  0.91451343159E+00 -0.67292431035E+01 -0.71265838380E+01  0.98441477551E+01  0.51100000000E-03 0. -1.
        -11    1    3    3    0    0  0.42168475699E+01 -0.10665927327E+01 -0.29902874258E+01  0.52783749995E+01  0.51100000000E-03 0.  1.
        -12    1    3    3    0    0 -0.27721089374E+02 -0.35013656552E+01 -0.21746023119E+02  0.35406325410E+02  0.00000000000E+00 0.  1.
</event>
<event>
 7    1  0.3014423E-011  0.5052886E+02  0.7816164E-02  0.1300439E+00
        -11   -1    0    0    0    0  0.00000000000E+00  0.00000000000E+00  0.45593999997E+02  0.45594000000E+02  0.51100000000E-03 0. -1.
         11   -1    0    0    0    0 -0.00000000000E+00 -0.00000000000E+00 -0.45593999997E+02  0.45594000000E+02  0.51100000000E-03 0.  1.
    9900012    2    1    2    0    0  0.35817355851E+02  0.18061089959E+02  0.66392485424E+01  0.50528861152E+02  0.30000003957E+02 0.  0.
        -12    1    1    2    0    0 -0.35817355851E+02 -0.18061089959E+02 -0.66392485424E+01  0.40659138848E+02  0.00000000000E+00 0.  1.
         11    1    3    3    0    0  0.39567507392E+01  0.52098942395E+01 -0.37141464276E+01  0.75228823163E+01  0.51100000000E-03 0. -1.
        -11    1    3    3    0    0  0.62045434367E+01  0.11253274969E+02 -0.41338172502E+01  0.13498925961E+02  0.51100000000E-03 0.  1.
         12    1    3    3    0    0  0.25656061675E+02  0.15979207504E+01  0.14487212220E+02  0.29507052874E+02  0.00000000000E+00 0. -1.
</event>
<event>
 7    1  0.3014423E-011  0.5052891E+02  0.7816164E-02  0.1300439E+00
        -11   -1    0    0    0    0  0.00000000000E+00  0.00000000000E+00  0.45593999997E+02  0.45594000000E+02  0.51100000000E-03 0. -1.
         11   -1    0    0    0    0 -0.00000000000E+00 -0.00000000000E+00 -0.45593999997E+02  0.45594000000E+02  0.51100000000E-03 0.  1.
    9900012    2    1    2    0    0 -0.77575747142E+01  0.41185589130E+01  0.39699107280E+02  0.50528909850E+02  0.30000151980E+02 0.  0.
        -12    1    1    2    0    0  0.77575747142E+01 -0.41185589130E+01 -0.39699107280E+02  0.40659090150E+02  0.00000000000E+00 0.  1.
         11    1    3    3    0    0 -0.48435171369E+01  0.66756806093E+01  0.17799979406E+02  0.19617941711E+02  0.51100000000E-03 0. -1.
        -11    1    3    3    0    0  0.79043531257E+01 -0.13597835471E+01  0.17349917553E+02  0.19114064167E+02  0.51100000000E-03 0.  1.
        -12    1    3    3    0    0 -0.10818410703E+02 -0.11973381493E+01  0.45492103214E+01  0.11796903972E+02  0.00000000000E+00 0.  1.
</event>
<event>
 7    1  0.3014423E-011  0.5052884E+02  0.7816164E-02  0.1300439E+00
        -11   -1    0    0    0    0  0.00000000000E+00  0.00000000000E+00  0.45593999997E+02  0.45594000000E+02  0.51100000000E-03 0.  1.
         11   -1    0    0    0    0 -0.00000000000E+00 -0.00000000000E+00 -0.45593999997E+02  0.45594000000E+02  0.51100000000E-03 0. -1.
    9900012    2    1    2    0    0 -0.34660592017E+02  0.15019999721E+02 -0.15040277867E+02  0.50528843726E+02  0.29999950989E+02 0.  0.
        -12    1    1    2    0    0  0.34660592017E+02 -0.15019999721E+02  0.15040277867E+02  0.40659156274E+02  0.00000000000E+00 0.  1.
         11    1    3    3    0    0 -0.25788900917E+02  0.25735544701E-01 -0.45649063019E-01  0.25788954165E+02  0.51100000000E-03 0.  1.
        -11    1    3    3    0    0 -0.97482205240E+01  0.93919836116E+01 -0.12888589579E+02  0.18690984489E+02  0.51100000000E-03 0. -1.
        -12    1    3    3    0    0  0.87652942401E+00  0.56022805643E+01 -0.21060392250E+01  0.60489050719E+01  0.00000000000E+00 0.  1.
</event>
<event>
 7    1  0.3014423E-011  0.5052885E+02  0.7816164E-02  0.1300439E+00
        -11   -1    0    0    0    0  0.00000000000E+00  0.00000000000E+00  0.45593999997E+02  0.45594000000E+02  0.51100000000E-03 0. -1.
         11   -1    0    0    0    0 -0.00000000000E+00 -0.00000000000E+00 -0.45593999997E+02  0.45594000000E+02  0.51100000000E-03 0.  1.
    9900012    2    1    2    0    0 -0.30104694988E+02  0.18302104756E+02 -0.20295484335E+02  0.50528851174E+02  0.29999973629E+02 0.  0.
        -12    1    1    2    0    0  0.30104694988E+02 -0.18302104756E+02  0.20295484335E+02  0.40659148826E+02  0.00000000000E+00 0.  1.
         11    1    3    3    0    0 -0.83929115756E+01  0.29464090339E+01  0.26993994213E+01  0.92956467450E+01  0.51100000000E-03 0. -1.
        -11    1    3    3    0    0 -0.24224000702E+01  0.33113210972E+01  0.41403584871E+01  0.58288453550E+01  0.51100000000E-03 0.  1.
        -12    1    3    3    0    0 -0.19289383343E+02  0.12044374625E+02 -0.27135242244E+02  0.35404359074E+02  0.00000000000E+00 0.  1.
</event>
<event>
 7    1  0.3014423E-011  0.5052886E+02  0.7816164E-02  0.1300439E+00
        -11   -1    0    0    0    0  0.00000000000E+00  0.00000000000E+00  0.45593999997E+02  0.45594000000E+02  0.51100000000E-03 0.  1.
         11   -1    0    0    0    0 -0.00000000000E+00 -0.00000000000E+00 -0.45593999997E+02  0.45594000000E+02  0.51100000000E-03 0. -1.
    9900012    2    1    2    0    0  0.22680448959E+02 -0.16051078753E+02 -0.29683763506E+02  0.50528859454E+02  0.29999998795E+02 0.  0.
        -12    1    1    2    0    0 -0.22680448959E+02  0.16051078753E+02  0.29683763506E+02  0.40659140546E+02  0.00000000000E+00 0.  1.
         11    1    3    3    0    0  0.23745541717E+01  0.23020050129E+01 -0.82017097811E+01  0.88434030887E+01  0.51100000000E-03 0. -1.
        -11    1    3    3    0    0  0.14010092819E+02 -0.35453573842E+01 -0.21119609878E+02  0.25590822211E+02  0.51100000000E-03 0.  1.
        -12    1    3    3    0    0  0.62958019681E+01 -0.14807726381E+02 -0.36244384658E+00  0.16094634154E+02  0.00000000000E+00 0.  1.
</event>
<event>
 7    1  0.3014423E-011  0.5052886E+02  0.7816164E-02  0.1300439E+00
        -11   -1    0    0    0    0  0.00000000000E+00  0.00000000000E+00  0.45593999997E+02  0.45594000000E+02  0.51100000000E-03 0.  1.
         11   -1    0    0    0    0 -0.00000000000E+00 -0.00000000000E+00 -0.45593999997E+02  0.45594000000E+02  0.51100000000E-03 0. -1.
    9900012    2    1    2    0    0 -0.40287129668E+02  0.11618001042E+01 -0.53631453266E+01  0.50528856820E+02  0.29999990790E+02 0.  0.
        -12    1    1    2    0    0  0.40287129668E+02 -0.11618001042E+01  0.53631453266E+01  0.40659143180E+02  0.00000000000E+00 0.  1.
         11    1    3    3    0    0 -0.19074733440E+02  0.49510414704E+01 -0.13939661370E+02  0.24138608635E+02  0.51100000000E-03 0. -1.
        -11    1    3    3    0    0 -0.15652151094E+02 -0.62995152898E+01  0.13401314072E+01  0.16925415186E+02  0.51100000000E-03 0.  1.
        -12    1    3    3    0    0 -0.55602451332E+01  0.25102739236E+01  0.72363846358E+01  0.94648329996E+01  0.00000000000E+00 0.  1.
</event>
<event>
 7    1  0.3014423E-011  0.5052886E+02  0.7816164E-02  0.1300439E+00
        -11   -1    0    0    0    0  0.00000000000E+00  0.00000000000E+00  0.45593999997E+02  0.45594000000E+02  0.51100000000E-03 0. -1.
         11   -1    0    0    0    0 -0.00000000000E+00 -0.00000000000E+00 -0.45593999997E+02  0.45594000000E+02  0.51100000000E-03 0.  1.
    9900012    2    1    2    0    0  0.24509838193E+02 -0.14684197202E+02  0.28927631274E+02  0.50528859984E+02  0.30000000408E+02 0.  0.
        -12    1    1    2    0    0 -0.24509838193E+02  0.14684197202E+02 -0.28927631274E+02  0.40659140016E+02  0.00000000000E+00 0.  1.
         11    1    3    3    0    0  0.17936508630E+02 -0.71744430114E+01  0.13969946179E+02  0.23840100060E+02  0.51100000000E-03 0. -1.
        -11    1    3    3    0    0  0.11454844335E+02 -0.94006107225E+01  0.15478203266E+02  0.21428012444E+02  0.51100000000E-03 0.  1.
        -12    1    3    3    0    0 -0.48815147718E+01  0.18908565320E+01 -0.52051817092E+00  0.52607474809E+01  0.00000000000E+00 0.  1.
</event>
<event>
 7    1  0.3014423E-011  0.5052886E+02  0.7816164E-02  0.1300439E+00
        -11   -1    0    0    0    0  0.00000000000E+00  0.00000000000E+00  0.45593999997E+02  0.45594000000E+02  0.51100000000E-03 0.  1.
         11   -1    0    0    0    0 -0.00000000000E+00 -0.00000000000E+00 -0.45593999997E+02  0.45594000000E+02  0.51100000000E-03 0. -1.
    9900012    2    1    2    0    0  0.22105273514E+02 -0.34043040592E+02  0.23650822318E+01  0.50528863956E+02  0.30000012479E+02 0.  0.
        -12    1    1    2    0    0 -0.22105273514E+02  0.34043040592E+02 -0.23650822318E+01  0.40659136044E+02  0.00000000000E+00 0.  1.
         11    1    3    3    0    0  0.63072822197E+01 -0.89109982126E+01 -0.61535349990E+01  0.12532106423E+02  0.51100000000E-03 0. -1.
        -11    1    3    3    0    0  0.98848381750E+01 -0.14854783551E+02 -0.63857782873E+01  0.18951326726E+02  0.51100000000E-03 0.  1.
        -12    1    3    3    0    0  0.59131531194E+01 -0.10277258829E+02  0.14904395518E+02  0.19045430807E+02  0.00000000000E+00 0.  1.
</event>
<event>
 7    1  0.3014423E-011  0.5052886E+02  0.7816164E-02  0.1300439E+00
        -11   -1    0    0    0    0  0.00000000000E+00  0.00000000000E+00  0.45593999997E+02  0.45594000000E+02  0.51100000000E-03 0.  1.
         11   -1    0    0    0    0 -0.00000000000E+00 -0.00000000000E+00 -0.45593999997E+02  0.45594000000E+02  0.51100000000E-03 0. -1.
    9900012    2    1    2    0    0 -0.32401306512E+02 -0.21830495300E+02 -0.11258355904E+02  0.50528858760E+02  0.29999996686E+02 0.  0.
        -12    1    1    2    0    0  0.32401306512E+02  0.21830495300E+02  0.11258355904E+02  0.40659141240E+02  0.00000000000E+00 0.  1.
         11    1    3    3    0    0 -0.24874680248E+02 -0.18618624203E+01 -0.13119564329E+02  0.28184024155E+02  0.51100000000E-03 0. -1.
        -11    1    3    3    0    0 -0.39837166519E+01 -0.45071286598E+01  0.23926263282E+01  0.64737059035E+01  0.51100000000E-03 0.  1.
        -12    1    3    3    0    0 -0.35429096121E+01 -0.15461504220E+02 -0.53141790315E+00  0.15871128701E+02  0.00000000000E+00 0.  1.
</event>
<event>
 7    1  0.3014423E-011  0.5052885E+02  0.7816164E-02  0.1300439E+00
        -11   -1    0    0    0    0  0.00000000000E+00  0.00000000000E+00  0.45593999997E+02  0.45594000000E+02  0.51100000000E-03 0. -1.
         11   -1    0    0    0    0 -0.00000000000E+00 -0.00000000000E+00 -0.45593999997E+02  0.45594000000E+02  0.51100000000E-03 0.  1.
    9900012    2    1    2    0    0  0.19933862871E+02 -0.34226673368E+02  0.91837969713E+01  0.50528853604E+02  0.29999981016E+02 0.  0.
        -12    1    1    2    0    0 -0.19933862871E+02  0.34226673368E+02 -0.91837969713E+01  0.40659146396E+02  0.00000000000E+00 0.  1.
         11    1    3    3    0    0  0.11772573046E+02 -0.28464821777E+02  0.49424639422E+00  0.30807204266E+02  0.51100000000E-03 0. -1.
        -11    1    3    3    0    0  0.39036970153E+01 -0.61407081034E+01 -0.25392416665E+01  0.77068083472E+01  0.51100000000E-03 0.  1.
         12    1    3    3    0    0  0.42575928102E+01  0.37885651269E+00  0.11228792244E+02  0.12014840991E+02  0.00000000000E+00 0. -1.
</event>
<event>
 7    1  0.3014423E-011  0.5052886E+02  0.7816164E-02  0.1300439E+00
        -11   -1    0    0    0    0  0.00000000000E+00  0.00000000000E+00  0.45593999997E+02  0.45594000000E+02  0.51100000000E-03 0. -1.
         11   -1    0    0    0    0 -0.00000000000E+00 -0.00000000000E+00 -0.45593999997E+02  0.45594000000E+02  0.51100000000E-03 0.  1.
    9900012    2    1    2    0    0 -0.95270300711E+01 -0.23414105256E+02  0.31846212434E+02  0.50528857445E+02  0.29999992690E+02 0.  0.
        -12    1    1    2    0    0  0.95270300711E+01  0.23414105256E+02 -0.31846212434E+02  0.40659142555E+02  0.00000000000E+00 0.  1.
         11    1    3    3    0    0  0.73060164074E+01 -0.39137688562E+01  0.98579222176E+01  0.12879211665E+02  0.51100000000E-03 0. -1.
        -11    1    3    3    0    0  0.21012129154E+01 -0.41194381493E+01 -0.26251715125E+00  0.46318227403E+01  0.51100000000E-03 0.  1.
        -12    1    3    3    0    0 -0.18934259394E+02 -0.15380898250E+02  0.22250807368E+02  0.33017823040E+02  0.00000000000E+00 0.  1.
</event>
<event>
 7    1  0.3014423E-011  0.5052886E+02  0.7816164E-02  0.1300439E+00
        -11   -1    0    0    0    0  0.00000000000E+00  0.00000000000E+00  0.45593999997E+02  0.45594000000E+02  0.51100000000E-03 0.  1.
         11   -1    0    0    0    0 -0.00000000000E+00 -0.00000000000E+00 -0.45593999997E+02  0.45594000000E+02  0.51100000000E-03 0. -1.
    9900012    2    1    2    0    0 -0.23660588184E+02 -0.28476460783E+02 -0.16805753822E+02  0.50528860640E+02  0.30000002402E+02 0.  0.
        -12    1    1    2    0    0  0.23660588184E+02  0.28476460783E+02  0.16805753822E+02  0.40659139360E+02  0.00000000000E+00 0.  1.
         11    1    3    3    0    0 -0.57673768428E+01 -0.16556829912E+02  0.19775081634E+01  0.17643746518E+02  0.51100000000E-03 0. -1.
        -11    1    3    3    0    0  0.21276184689E+01 -0.13857264619E+01  0.10992496714E+01  0.27668300052E+01  0.51100000000E-03 0.  1.
         12    1    3    3    0    0 -0.20020829810E+02 -0.10533904409E+02 -0.19882511657E+02  0.30118284117E+02  0.00000000000E+00 0. -1.
</event>
<event>
 7    1  0.3014423E-011  0.5052885E+02  0.7816164E-02  0.1300439E+00
        -11   -1    0    0    0    0  0.00000000000E+00  0.00000000000E+00  0.45593999997E+02  0.45594000000E+02  0.51100000000E-03 0.  1.
         11   -1    0    0    0    0 -0.00000000000E+00 -0.00000000000E+00 -0.45593999997E+02  0.45594000000E+02  0.51100000000E-03 0. -1.
    9900012    2    1    2    0    0 -0.19083447285E+02  0.20275352726E+02 -0.29629347844E+02  0.50528854139E+02  0.29999982642E+02 0.  0.
        -12    1    1    2    0    0  0.19083447285E+02 -0.20275352726E+02  0.29629347844E+02  0.40659145861E+02  0.00000000000E+00 0.  1.
         11    1    3    3    0    0  0.48950517177E+01  0.15959107996E+01 -0.25697877051E+01  0.57543263472E+01  0.51100000000E-03 0. -1.
        -11    1    3    3    0    0  0.27139460860E+01  0.71994995177E+00 -0.51024477661E+01  0.58239852986E+01  0.51100000000E-03 0.  1.
        -12    1    3    3    0    0 -0.26692445088E+02  0.17959491975E+02 -0.21957112373E+02  0.38950542494E+02  0.00000000000E+00 0.  1.
</event>
<event>
 7    1  0.3014423E-011  0.5052886E+02  0.7816164E-02  0.1300439E+00
        -11   -1    0    0    0    0  0.00000000000E+00  0.00000000000E+00  0.45593999997E+02  0.45594000000E+02  0.51100000000E-03 0.  1.
         11   -1    0    0    0    0 -0.00000000000E+00 -0.00000000000E+00 -0.45593999997E+02  0.45594000000E+02  0.51100000000E-03 0. -1.
    9900012    2    1    2    0    0 -0.99717592742E+01  0.25579115062E+02 -0.29990638273E+02  0.50528862104E+02  0.30000006853E+02 0.  0.
        -12    1    1    2    0    0  0.99717592742E+01 -0.25579115062E+02  0.29990638273E+02  0.40659137896E+02  0.00000000000E+00 0.  1.
         11    1    3    3    0    0  0.22961777507E+01  0.20398905496E+02 -0.15369601730E+02  0.25643955141E+02  0.51100000000E-03 0. -1.
        -11    1    3    3    0    0 -0.11910326561E+00  0.23837075905E+00 -0.11369179046E+02  0.11372301378E+02  0.51100000000E-03 0.  1.
         12    1    3    3    0    0 -0.12148833759E+02  0.49418388078E+01 -0.32518574969E+01  0.13512605585E+02  0.00000000000E+00 0. -1.
</event>
<event>
 7    1  0.3014423E-011  0.5052886E+02  0.7816164E-02  0.1300439E+00
        -11   -1    0    0    0    0  0.00000000000E+00  0.00000000000E+00  0.45593999997E+02  0.45594000000E+02  0.51100000000E-03 0. -1.
         11   -1    0    0    0    0 -0.00000000000E+00 -0.00000000000E+00 -0.45593999997E+02  0.45594000000E+02  0.51100000000E-03 0.  1.
    9900012    2    1    2    0    0 -0.86167661941E+01  0.11871020578E+02  0.37920916895E+02  0.50528859240E+02  0.29999998145E+02 0.  0.
        -12    1    1    2    0    0  0.86167661941E+01 -0.11871020578E+02 -0.37920916895E+02  0.40659140760E+02  0.00000000000E+00 0.  1.
         11    1    3    3    0    0 -0.16260451917E+01 -0.33184845795E+01  0.28696481512E+01  0.46788079297E+01  0.51100000000E-03 0. -1.
        -11    1    3    3    0    0 -0.68555308634E+01  0.14386135277E+01 -0.11739251417E+01  0.71025356599E+01  0.51100000000E-03 0.  1.
         12    1    3    3    0    0 -0.13519013899E+00  0.13750891630E+02  0.36225193886E+02  0.38747515650E+02  0.00000000000E+00 0. -1.
</event>
<event>
 7    1  0.3014423E-011  0.5052884E+02  0.7816164E-02  0.1300439E+00
        -11   -1    0    0    0    0  0.00000000000E+00  0.00000000000E+00  0.45593999997E+02  0.45594000000E+02  0.51100000000E-03 0. -1.
         11   -1    0    0    0    0 -0.00000000000E+00 -0.00000000000E+00 -0.45593999997E+02  0.45594000000E+02  0.51100000000E-03 0.  1.
    9900012    2    1    2    0    0 -0.33351346978E+02 -0.22391874346E+02  0.62816122583E+01  0.50528843165E+02  0.29999949286E+02 0.  0.
        -12    1    1    2    0    0  0.33351346978E+02  0.22391874346E+02 -0.62816122583E+01  0.40659156835E+02  0.00000000000E+00 0.  1.
         11    1    3    3    0    0 -0.10467854642E+02 -0.14093914854E+02  0.50560031048E+01  0.18269580848E+02  0.51100000000E-03 0. -1.
        -11    1    3    3    0    0 -0.28975431741E+01 -0.22372782015E-01 -0.81750099413E+01  0.86733525692E+01  0.51100000000E-03 0.  1.
         12    1    3    3    0    0 -0.19985949161E+02 -0.82755867097E+01  0.94006190948E+01  0.23585909748E+02  0.00000000000E+00 0. -1.
</event>
<event>
 7    1  0.3014423E-011  0.5052886E+02  0.7816164E-02  0.1300439E+00
        -11   -1    0    0    0    0  0.00000000000E+00  0.00000000000E+00  0.45593999997E+02  0.45594000000E+02  0.51100000000E-03 0.  1.
         11   -1    0    0    0    0 -0.00000000000E+00 -0.00000000000E+00 -0.45593999997E+02  0.45594000000E+02  0.51100000000E-03 0. -1.
    9900012    2    1    2    0    0 -0.35219412834E+02  0.20172806410E+02  0.24117614177E+01  0.50528858937E+02  0.29999997224E+02 0.  0.
        -12    1    1    2    0    0  0.35219412834E+02 -0.20172806410E+02 -0.24117614177E+01  0.40659141063E+02  0.00000000000E+00 0.  1.
         11    1    3    3    0    0 -0.17370243676E+02  0.17982612844E+02  0.70223438337E+00  0.25011854459E+02  0.51100000000E-03 0. -1.
        -11    1    3    3    0    0 -0.96006643609E+01  0.10167970659E+02  0.90854358320E+00  0.14013773053E+02  0.51100000000E-03 0.  1.
         12    1    3    3    0    0 -0.82485047972E+01 -0.79777770921E+01  0.80098345113E+00  0.11503231425E+02  0.00000000000E+00 0. -1.
</event>
<event>
 7    1  0.3224236E-011  0.5052887E+02  0.7816164E-02  0.1300439E+00
        -11   -1    0    0    0    0  0.00000000000E+00  0.00000000000E+00  0.45593999997E+02  0.45594000000E+02  0.51100000000E-03 0.  1.
         11   -1    0    0    0    0 -0.00000000000E+00 -0.00000000000E+00 -0.45593999997E+02  0.45594000000E+02  0.51100000000E-03 0. -1.
    9900012    2    1    2    0    0 -0.15820706351E+01 -0.38619658800E+02 -0.12616805167E+02  0.50528871063E+02  0.30000034083E+02 0.  0.
        -12    1    1    2    0    0  0.15820706351E+01  0.38619658800E+02  0.12616805167E+02  0.40659128937E+02  0.00000000000E+00 0.  1.
         11    1    3    3    0    0  0.16471293907E+01 -0.18746766944E+02 -0.96637256719E+01  0.21155186130E+02  0.51100000000E-03 0. -1.
        -11    1    3    3    0    0 -0.44744881485E+01 -0.93221357751E+01 -0.11698341282E+02  0.15613277958E+02  0.51100000000E-03 0.  1.
        -12    1    3    3    0    0  0.12452881227E+01 -0.10550756081E+02  0.87452617869E+01  0.13760406975E+02  0.00000000000E+00 0.  1.
</event>
<event>
 7    1  0.3014423E-011  0.5052886E+02  0.7816164E-02  0.1300439E+00
        -11   -1    0    0    0    0  0.00000000000E+00  0.00000000000E+00  0.45593999997E+02  0.45594000000E+02  0.51100000000E-03 0.  1.
         11   -1    0    0    0    0 -0.00000000000E+00 -0.00000000000E+00 -0.45593999997E+02  0.45594000000E+02  0.51100000000E-03 0. -1.
    9900012    2    1    2    0    0  0.24940297280E+02 -0.11968517297E+02 -0.29797677987E+02  0.50528862673E+02  0.30000008582E+02 0.  0.
        -12    1    1    2    0    0 -0.24940297280E+02  0.11968517297E+02  0.29797677987E+02  0.40659137327E+02  0.00000000000E+00 0.  1.
         11    1    3    3    0    0  0.12040679571E+02  0.25250740127E+01 -0.14463783403E+01  0.12387331184E+02  0.51100000000E-03 0. -1.
        -11    1    3    3    0    0  0.68599246214E+01  0.23001688521E+01 -0.52010338504E+01  0.89106731471E+01  0.51100000000E-03 0.  1.
         12    1    3    3    0    0  0.60396930879E+01 -0.16793760162E+02 -0.23150265797E+02  0.29230858342E+02  0.00000000000E+00 0. -1.
</event>
<event>
 7    1  0.3014423E-011  0.5052886E+02  0.7816164E-02  0.1300439E+00
        -11   -1    0    0    0    0  0.00000000000E+00  0.00000000000E+00  0.45593999997E+02  0.45594000000E+02  0.51100000000E-03 0.  1.
         11   -1    0    0    0    0 -0.00000000000E+00 -0.00000000000E+00 -0.45593999997E+02  0.45594000000E+02  0.51100000000E-03 0. -1.
    9900012    2    1    2    0    0 -0.10824248755E+02 -0.39186152848E+02  0.66839041951E+00  0.50528859799E+02  0.29999999845E+02 0.  0.
        -12    1    1    2    0    0  0.10824248755E+02  0.39186152848E+02 -0.66839041951E+00  0.40659140201E+02  0.00000000000E+00 0.  1.
         11    1    3    3    0    0 -0.48275850311E+01 -0.10408223728E+02  0.38628498017E+01  0.12106126848E+02  0.51100000000E-03 0.  1.
        -11    1    3    3    0    0 -0.11459712869E+02 -0.27877664493E+02  0.27898375271E+01  0.30269991581E+02  0.51100000000E-03 0. -1.
        -12    1    3    3    0    0  0.54630491446E+01 -0.90026462708E+00 -0.59842969093E+01  0.81527413705E+01  0.00000000000E+00 0.  1.
</event>
<event>
 7    1  0.3014423E-011  0.5052886E+02  0.7816164E-02  0.1300439E+00
        -11   -1    0    0    0    0  0.00000000000E+00  0.00000000000E+00  0.45593999997E+02  0.45594000000E+02  0.51100000000E-03 0.  1.
         11   -1    0    0    0    0 -0.00000000000E+00 -0.00000000000E+00 -0.45593999997E+02  0.45594000000E+02  0.51100000000E-03 0. -1.
    9900012    2    1    2    0    0 -0.12026028926E+02  0.21792396329E+02 -0.32150145800E+02  0.50528858537E+02  0.29999996010E+02 0.  0.
        -12    1    1    2    0    0  0.12026028926E+02 -0.21792396329E+02  0.32150145800E+02  0.40659141463E+02  0.00000000000E+00 0.  1.
         11    1    3    3    0    0 -0.12016813082E+02  0.98947260354E+01 -0.16558810401E+02  0.22726715604E+02  0.51100000000E-03 0. -1.
        -11    1    3    3    0    0 -0.19572927321E+01  0.17227709205E+02 -0.12005989340E+02  0.21089541000E+02  0.51100000000E-03 0.  1.
         12    1    3    3    0    0  0.19480768874E+01 -0.53300389116E+01 -0.35853460592E+01  0.67126019339E+01  0.00000000000E+00 0. -1.
</event>
<event>
 7    1  0.3014423E-011  0.5052885E+02  0.7816164E-02  0.1300439E+00
        -11   -1    0    0    0    0  0.00000000000E+00  0.00000000000E+00  0.45593999997E+02  0.45594000000E+02  0.51100000000E-03 0.  1.
         11   -1    0    0    0    0 -0.00000000000E+00 -0.00000000000E+00 -0.45593999997E+02  0.45594000000E+02  0.51100000000E-03 0. -1.
    9900012    2    1    2    0    0 -0.13331820786E+02 -0.33608253375E+02  0.18598782327E+02  0.50528845503E+02  0.29999956390E+02 0.  0.
        -12    1    1    2    0    0  0.13331820786E+02  0.33608253375E+02 -0.18598782327E+02  0.40659154497E+02  0.00000000000E+00 0.  1.
         11    1    3    3    0    0 -0.61660238031E+01 -0.81848823121E+01 -0.11673429935E+01  0.10313817815E+02  0.51100000000E-03 0. -1.
        -11    1    3    3    0    0 -0.14819609719E+02 -0.13680475958E+02  0.72772672133E+01  0.21441428894E+02  0.51100000000E-03 0.  1.
        -12    1    3    3    0    0  0.76538127356E+01 -0.11742895106E+02  0.12488858107E+02  0.18773598794E+02  0.00000000000E+00 0.  1.
</event>
<event>
 7    1  0.3014423E-011  0.5052887E+02  0.7816164E-02  0.1300439E+00
        -11   -1    0    0    0    0  0.00000000000E+00  0.00000000000E+00  0.45593999997E+02  0.45594000000E+02  0.51100000000E-03 0. -1.
         11   -1    0    0    0    0 -0.00000000000E+00 -0.00000000000E+00 -0.45593999997E+02  0.45594000000E+02  0.51100000000E-03 0.  1.
    9900012    2    1    2    0    0  0.36986216503E+02  0.15011101867E+02 -0.77363878439E+01  0.50528867110E+02  0.30000022068E+02 0.  0.
        -12    1    1    2    0    0 -0.36986216503E+02 -0.15011101867E+02  0.77363878439E+01  0.40659132890E+02  0.00000000000E+00 0.  1.
         11    1    3    3    0    0  0.20766848273E+02  0.62327075143E+01 -0.27866435837E+01  0.21860329661E+02  0.51100000000E-03 0. -1.
        -11    1    3    3    0    0  0.37010156665E+01 -0.55911783656E+01 -0.67646538971E+01  0.95246698151E+01  0.51100000000E-03 0.  1.
         12    1    3    3    0    0  0.12518352564E+02  0.14369572718E+02  0.18149096369E+01  0.19143867634E+02  0.00000000000E+00 0. -1.
</event>
<event>
 7    1  0.3014423E-011  0.5052886E+02  0.7816164E-02  0.1300439E+00
        -11   -1    0    0    0    0  0.00000000000E+00  0.00000000000E+00  0.45593999997E+02  0.45594000000E+02  0.51100000000E-03 0.  1.
         11   -1    0    0    0    0 -0.00000000000E+00 -0.00000000000E+00 -0.45593999997E+02  0.45594000000E+02  0.51100000000E-03 0. -1.
    9900012    2    1    2    0    0  0.31149182046E+02  0.12029204608E+02 -0.23198967536E+02  0.50528863261E+02  0.30000010369E+02 0.  0.
        -12    1    1    2    0    0 -0.31149182046E+02 -0.12029204608E+02  0.23198967536E+02  0.40659136739E+02  0.00000000000E+00 0.  1.
         11    1    3    3    0    0  0.23043433806E+02  0.67744946998E+01 -0.12993799285E+02  0.27308102097E+02  0.51100000000E-03 0. -1.
        -11    1    3    3    0    0  0.12736849926E+02 -0.61503191443E+00 -0.36148658921E+01  0.13254164100E+02  0.51100000000E-03 0.  1.
        -12    1    3    3    0    0 -0.46311016860E+01  0.58697418222E+01 -0.65903023580E+01  0.99665970650E+01  0.00000000000E+00 0.  1.
</event>
<event>
 7    1  0.3014423E-011  0.5052886E+02  0.7816164E-02  0.1300439E+00
        -11   -1    0    0    0    0  0.00000000000E+00  0.00000000000E+00  0.45593999997E+02  0.45594000000E+02  0.51100000000E-03 0. -1.
         11   -1    0    0    0    0 -0.00000000000E+00 -0.00000000000E+00 -0.45593999997E+02  0.45594000000E+02  0.51100000000E-03 0.  1.
    9900012    2    1    2    0    0 -0.93952955888E+01  0.16647533830E+02  0.35885288437E+02  0.50528857264E+02  0.29999992139E+02 0.  0.
        -12    1    1    2    0    0  0.93952955888E+01 -0.16647533830E+02 -0.35885288437E+02  0.40659142736E+02  0.00000000000E+00 0.  1.
         11    1    3    3    0    0 -0.52040378886E+01  0.24773676723E+02  0.28574251820E+02  0.38174663536E+02  0.51100000000E-03 0. -1.
        -11    1    3    3    0    0  0.18817043029E+00 -0.65261524023E+00  0.21868249561E+01  0.22898730122E+01  0.51100000000E-03 0.  1.
         12    1    3    3    0    0 -0.43794281305E+01 -0.74735276528E+01  0.51242116610E+01  0.10064320716E+02  0.00000000000E+00 0. -1.
</event>
<event>
 7    1  0.3014423E-011  0.5052885E+02  0.7816164E-02  0.1300439E+00
        -11   -1    0    0    0    0  0.00000000000E+00  0.00000000000E+00  0.45593999997E+02  0.45594000000E+02  0.51100000000E-03 0.  1.
         11   -1    0    0    0    0 -0.00000000000E+00 -0.00000000000E+00 -0.45593999997E+02  0.45594000000E+02  0.51100000000E-03 0. -1.
    9900012    2    1    2    0    0 -0.71860264701E+01 -0.17919411724E+02 -0.35782984981E+02  0.50528852110E+02  0.29999976473E+02 0.  0.
        -12    1    1    2    0    0  0.71860264701E+01  0.17919411724E+02  0.35782984981E+02  0.40659147890E+02  0.00000000000E+00 0.  1.
         11    1    3    3    0    0 -0.68902619142E+01 -0.77659758177E+01 -0.62475621956E+01  0.12116852863E+02  0.51100000000E-03 0. -1.
        -11    1    3    3    0    0 -0.11262042602E+02 -0.53995093928E+01 -0.13216930202E+02  0.18184486506E+02  0.51100000000E-03 0.  1.
        -12    1    3    3    0    0  0.10966278046E+02 -0.47539265138E+01 -0.16318492584E+02  0.20227512741E+02  0.00000000000E+00 0.  1.
</event>
<event>
 7    1  0.3014423E-011  0.5052887E+02  0.7816164E-02  0.1300439E+00
        -11   -1    0    0    0    0  0.00000000000E+00  0.00000000000E+00  0.45593999997E+02  0.45594000000E+02  0.51100000000E-03 0. -1.
         11   -1    0    0    0    0 -0.00000000000E+00 -0.00000000000E+00 -0.45593999997E+02  0.45594000000E+02  0.51100000000E-03 0.  1.
    9900012    2    1    2    0    0 -0.22202201708E+02 -0.10690723364E+02  0.32340930804E+02  0.50528866561E+02  0.30000020400E+02 0.  0.
        -12    1    1    2    0    0  0.22202201708E+02  0.10690723364E+02 -0.32340930804E+02  0.40659133439E+02  0.00000000000E+00 0.  1.
         11    1    3    3    0    0  0.65390672001E+00 -0.23062928482E+01  0.21742797046E+02  0.21874546951E+02  0.51100000000E-03 0. -1.
        -11    1    3    3    0    0 -0.49356323614E+01  0.22034927175E+01  0.25416063727E+00  0.54111408089E+01  0.51100000000E-03 0.  1.
        -12    1    3    3    0    0 -0.17920476067E+02 -0.10587923233E+02  0.10343973121E+02  0.23243178801E+02  0.00000000000E+00 0.  1.
</event>
<event>
 7    1  0.3014423E-011  0.5052879E+02  0.7816164E-02  0.1300439E+00
        -11   -1    0    0    0    0  0.00000000000E+00  0.00000000000E+00  0.45593999997E+02  0.45594000000E+02  0.51100000000E-03 0.  1.
         11   -1    0    0    0    0 -0.00000000000E+00 -0.00000000000E+00 -0.45593999997E+02  0.45594000000E+02  0.51100000000E-03 0. -1.
    9900012    2    1    2    0    0  0.34525481232E+02  0.17074182425E+02 -0.13024396857E+02  0.50528788580E+02  0.29999783366E+02 0.  0.
        -12    1    1    2    0    0 -0.34525481232E+02 -0.17074182425E+02  0.13024396857E+02  0.40659211420E+02  0.00000000000E+00 0.  1.
         11    1    3    3    0    0  0.14632130447E+02  0.20651202734E+01 -0.64991887364E+01  0.16143215840E+02  0.51100000000E-03 0. -1.
        -11    1    3    3    0    0  0.19257076563E+02  0.36490099324E+01  0.26382457814E+01  0.19776516687E+02  0.51100000000E-03 0.  1.
        -12    1    3    3    0    0  0.63627422261E+00  0.11360052220E+02 -0.91634539025E+01  0.14609056052E+02  0.00000000000E+00 0.  1.
</event>
<event>
 7    1  0.3014423E-011  0.5052886E+02  0.7816164E-02  0.1300439E+00
        -11   -1    0    0    0    0  0.00000000000E+00  0.00000000000E+00  0.45593999997E+02  0.45594000000E+02  0.51100000000E-03 0. -1.
         11   -1    0    0    0    0 -0.00000000000E+00 -0.00000000000E+00 -0.45593999997E+02  0.45594000000E+02  0.51100000000E-03 0.  1.
    9900012    2    1    2    0    0 -0.28799010947E+02 -0.20172639701E+02  0.20416835443E+02  0.50528860885E+02  0.30000003147E+02 0.  0.
        -12    1    1    2    0    0  0.28799010947E+02  0.20172639701E+02 -0.20416835443E+02  0.40659139115E+02  0.00000000000E+00 0.  1.
         11    1    3    3    0    0 -0.50051444140E+01 -0.16360462560E+01 -0.10486994131E+01  0.53691608913E+01  0.51100000000E-03 0. -1.
        -11    1    3    3    0    0 -0.14714292425E+02 -0.23802948766E+02  0.10258382553E+02  0.29804784589E+02  0.51100000000E-03 0.  1.
         12    1    3    3    0    0 -0.90795741077E+01  0.52663553211E+01  0.11207152303E+02  0.15354915405E+02  0.00000000000E+00 0. -1.
</event>
<event>
 7    1  0.3014423E-011  0.5052886E+02  0.7816164E-02  0.1300439E+00
        -11   -1    0    0    0    0  0.00000000000E+00  0.00000000000E+00  0.45593999997E+02  0.45594000000E+02  0.51100000000E-03 0. -1.
         11   -1    0    0    0    0 -0.00000000000E+00 -0.00000000000E+00 -0.45593999997E+02  0.45594000000E+02  0.51100000000E-03 0.  1.
    9900012    2    1    2    0    0 -0.22356387496E+02 -0.12925264573E+01  0.33936516791E+02  0.50528857628E+02  0.29999993247E+02 0.  0.
        -12    1    1    2    0    0  0.22356387496E+02  0.12925264573E+01 -0.33936516791E+02  0.40659142372E+02  0.00000000000E+00 0.  1.
         11    1    3    3    0    0 -0.41505973621E+01 -0.95273060216E+01  0.86829447463E+01  0.13542176643E+02  0.51100000000E-03 0. -1.
        -11    1    3    3    0    0 -0.28842114692E+01  0.29599827896E+01  0.19277725240E+02  0.19715751687E+02  0.51100000000E-03 0.  1.
         12    1    3    3    0    0 -0.15321578665E+02  0.52747967747E+01  0.59758468048E+01  0.17270929298E+02  0.00000000000E+00 0. -1.
</event>
<event>
 7    1  0.3014423E-011  0.5052877E+02  0.7816164E-02  0.1300439E+00
        -11   -1    0    0    0    0  0.00000000000E+00  0.00000000000E+00  0.45593999997E+02  0.45594000000E+02  0.51100000000E-03 0. -1.
         11   -1    0    0    0    0 -0.00000000000E+00 -0.00000000000E+00 -0.45593999997E+02  0.45594000000E+02  0.51100000000E-03 0.  1.
    9900012    2    1    2    0    0 -0.49229059594E+01 -0.38847725480E+02  0.10944970481E+02  0.50528767877E+02  0.29999720436E+02 0.  0.
        -12    1    1    2    0    0  0.49229059594E+01  0.38847725480E+02 -0.10944970481E+02  0.40659232123E+02  0.00000000000E+00 0.  1.
         11    1    3    3    0    0  0.17948221355E-01 -0.43445904487E+01 -0.86270816384E+00  0.44294530071E+01  0.51100000000E-03 0. -1.
        -11    1    3    3    0    0 -0.83912603426E+00 -0.72740569278E+01 -0.89876962122E+01  0.11592873680E+02  0.51100000000E-03 0.  1.
         12    1    3    3    0    0 -0.41017281465E+01 -0.27229078103E+02  0.20795374857E+02  0.34506441190E+02  0.00000000000E+00 0. -1.
</event>
<event>
 7    1  0.3014423E-011  0.5052892E+02  0.7816164E-02  0.1300439E+00
        -11   -1    0    0    0    0  0.00000000000E+00  0.00000000000E+00  0.45593999997E+02  0.45594000000E+02  0.51100000000E-03 0.  1.
         11   -1    0    0    0    0 -0.00000000000E+00 -0.00000000000E+00 -0.45593999997E+02  0.45594000000E+02  0.51100000000E-03 0. -1.
    9900012    2    1    2    0    0  0.48714047012E+01  0.19592246724E+02 -0.35292686547E+02  0.50528924271E+02  0.30000195814E+02 0.  0.
        -12    1    1    2    0    0 -0.48714047012E+01 -0.19592246724E+02  0.35292686547E+02  0.40659075729E+02  0.00000000000E+00 0.  1.
         11    1    3    3    0    0 -0.42708485861E+01  0.16889402255E+02 -0.19131371093E+02  0.25874725435E+02  0.51100000000E-03 0. -1.
        -11    1    3    3    0    0 -0.36863179156E+01  0.24489912668E+01 -0.57037459819E+00  0.44622668503E+01  0.51100000000E-03 0.  1.
         12    1    3    3    0    0  0.12828571203E+02  0.25385320186E+00 -0.15590940855E+02  0.20191931986E+02  0.00000000000E+00 0. -1.
</event>
<event>
 7    1  0.3014423E-011  0.5052885E+02  0.7816164E-02  0.1300439E+00
        -11   -1    0    0    0    0  0.00000000000E+00  0.00000000000E+00  0.45593999997E+02  0.45594000000E+02  0.51100000000E-03 0.  1.
         11   -1    0    0    0    0 -0.00000000000E+00 -0.00000000000E+00 -0.45593999997E+02  0.45594000000E+02  0.51100000000E-03 0. -1.
    9900012    2    1    2    0    0  0.13308204641E+02 -0.17172245310E+02 -0.34368187698E+02  0.50528847950E+02  0.29999963830E+02 0.  0.
        -12    1    1    2    0    0 -0.13308204641E+02  0.17172245310E+02  0.34368187698E+02  0.40659152050E+02  0.00000000000E+00 0.  1.
         11    1    3    3    0    0  0.65876466805E+01 -0.18774280774E+01 -0.16631158897E+02  0.17986585877E+02  0.51100000000E-03 0. -1.
        -11    1    3    3    0    0 -0.44828542030E+01 -0.14805944734E+02 -0.68697811488E+01  0.16926484413E+02  0.51100000000E-03 0.  1.
         12    1    3    3    0    0  0.11203412163E+02 -0.48887249782E+00 -0.10867247652E+02  0.15615777661E+02  0.00000000000E+00 0. -1.
</event>
<event>
 7    1  0.3014423E-011  0.5052887E+02  0.7816164E-02  0.1300439E+00
        -11   -1    0    0    0    0  0.00000000000E+00  0.00000000000E+00  0.45593999997E+02  0.45594000000E+02  0.51100000000E-03 0.  1.
         11   -1    0    0    0    0 -0.00000000000E+00 -0.00000000000E+00 -0.45593999997E+02  0.45594000000E+02  0.51100000000E-03 0. -1.
    9900012    2    1    2    0    0 -0.10089325425E+02  0.37913556208E+02 -0.10673938475E+02  0.50528865794E+02  0.30000018067E+02 0.  0.
        -12    1    1    2    0    0  0.10089325425E+02 -0.37913556208E+02  0.10673938475E+02  0.40659134206E+02  0.00000000000E+00 0.  1.
         11    1    3    3    0    0 -0.74641812314E+01  0.15248455429E+02 -0.95070468460E+00  0.17003918198E+02  0.51100000000E-03 0.  1.
        -11    1    3    3    0    0 -0.19133558222E+01  0.25160657553E+02 -0.19254225856E+01  0.25306656662E+02  0.51100000000E-03 0. -1.
         12    1    3    3    0    0 -0.71178837108E+00 -0.24955567743E+01 -0.77978112044E+01  0.82182909341E+01  0.00000000000E+00 0. -1.
</event>
<event>
 7    1  0.3014423E-011  0.5052886E+02  0.7816164E-02  0.1300439E+00
        -11   -1    0    0    0    0  0.00000000000E+00  0.00000000000E+00  0.45593999997E+02  0.45594000000E+02  0.51100000000E-03 0.  1.
         11   -1    0    0    0    0 -0.00000000000E+00 -0.00000000000E+00 -0.45593999997E+02  0.45594000000E+02  0.51100000000E-03 0. -1.
    9900012    2    1    2    0    0 -0.54745225960E+01 -0.58921832072E+01 -0.39855703770E+02  0.50528863959E+02  0.30000012490E+02 0.  0.
        -12    1    1    2    0    0  0.54745225960E+01  0.58921832072E+01  0.39855703770E+02  0.40659136041E+02  0.00000000000E+00 0.  1.
         11    1    3    3    0    0  0.17797930224E+01  0.11562531335E+01 -0.21039351482E+01  0.29884992689E+01  0.51100000000E-03 0. -1.
        -11    1    3    3    0    0  0.41601941144E+00  0.47916595621E+01  0.21127245019E+01  0.52532540955E+01  0.51100000000E-03 0.  1.
        -12    1    3    3    0    0 -0.76703350299E+01 -0.11840095903E+02 -0.39864493124E+02  0.42287110595E+02  0.00000000000E+00 0.  1.
</event>
<event>
 7    1  0.3014423E-011  0.5052886E+02  0.7816164E-02  0.1300439E+00
        -11   -1    0    0    0    0  0.00000000000E+00  0.00000000000E+00  0.45593999997E+02  0.45594000000E+02  0.51100000000E-03 0. -1.
         11   -1    0    0    0    0 -0.00000000000E+00 -0.00000000000E+00 -0.45593999997E+02  0.45594000000E+02  0.51100000000E-03 0.  1.
    9900012    2    1    2    0    0  0.25069253284E+01 -0.11466560149E+02  0.38928127549E+02  0.50528858460E+02  0.29999995776E+02 0.  0.
        -12    1    1    2    0    0 -0.25069253284E+01  0.11466560149E+02 -0.38928127549E+02  0.40659141540E+02  0.00000000000E+00 0.  1.
         11    1    3    3    0    0  0.34223804723E+01 -0.88650340145E+01  0.30555265811E+02  0.31998840373E+02  0.51100000000E-03 0. -1.
        -11    1    3    3    0    0 -0.76085715365E+01  0.56255489234E+00  0.80918388962E+01  0.11121361689E+02  0.51100000000E-03 0.  1.
         12    1    3    3    0    0  0.66931163927E+01 -0.31640810266E+01  0.28102284193E+00  0.74086563982E+01  0.00000000000E+00 0. -1.
</event>
<event>
 7    1  0.3014423E-011  0.5052886E+02  0.7816164E-02  0.1300439E+00
        -11   -1    0    0    0    0  0.00000000000E+00  0.00000000000E+00  0.45593999997E+02  0.45594000000E+02  0.51100000000E-03 0. -1.
         11   -1    0    0    0    0 -0.00000000000E+00 -0.00000000000E+00 -0.45593999997E+02  0.45594000000E+02  0.51100000000E-03 0.  1.
    9900012    2    1    2    0    0  0.36960604760E+02 -0.14979737451E+02  0.79174873055E+01  0.50528862730E+02  0.30000008754E+02 0.  0.
        -12    1    1    2    0    0 -0.36960604760E+02  0.14979737451E+02 -0.79174873055E+01  0.40659137270E+02  0.00000000000E+00 0.  1.
         11    1    3    3    0    0  0.36002496870E+02 -0.78438776593E+01  0.99382007852E+01  0.38163779068E+02  0.51100000000E-03 0.  1.
        -11    1    3    3    0    0  0.47373683038E+01 -0.24726450424E+01  0.13078816769E+01  0.55015622049E+01  0.51100000000E-03 0. -1.
        -12    1    3    3    0    0 -0.37792604146E+01 -0.46632147491E+01 -0.33285951566E+01  0.68635214573E+01  0.00000000000E+00 0.  1.
</event>
<event>
 7    1  0.3014423E-011  0.5052886E+02  0.7816164E-02  0.1300439E+00
        -11   -1    0    0    0    0  0.00000000000E+00  0.00000000000E+00  0.45593999997E+02  0.45594000000E+02  0.51100000000E-03 0.  1.
         11   -1    0    0    0    0 -0.00000000000E+00 -0.00000000000E+00 -0.45593999997E+02  0.45594000000E+02  0.51100000000E-03 0. -1.
    9900012    2    1    2    0    0  0.36952600259E+02  0.12515025430E+02  0.11447494212E+02  0.50528860177E+02  0.30000000993E+02 0.  0.
        -12    1    1    2    0    0 -0.36952600259E+02 -0.12515025430E+02 -0.11447494212E+02  0.40659139823E+02  0.00000000000E+00 0.  1.
         11    1    3    3    0    0  0.81636566125E+01  0.46362811034E+01 -0.80951814283E+01  0.12396465398E+02  0.51100000000E-03 0. -1.
        -11    1    3    3    0    0  0.11568725704E+00 -0.14622939676E+01 -0.88066651298E+00  0.17109240069E+01  0.51100000000E-03 0.  1.
        -12    1    3    3    0    0  0.28673256390E+02  0.93410382941E+01  0.20423342154E+02  0.36421470771E+02  0.00000000000E+00 0.  1.
</event>
<event>
 7    1  0.3014423E-011  0.5052887E+02  0.7816164E-02  0.1300439E+00
        -11   -1    0    0    0    0  0.00000000000E+00  0.00000000000E+00  0.45593999997E+02  0.45594000000E+02  0.51100000000E-03 0.  1.
         11   -1    0    0    0    0 -0.00000000000E+00 -0.00000000000E+00 -0.45593999997E+02  0.45594000000E+02  0.51100000000E-03 0. -1.
    9900012    2    1    2    0    0 -0.64934342604E+01 -0.27178016537E+02 -0.29535663603E+02  0.50528871925E+02  0.30000036703E+02 0.  0.
        -12    1    1    2    0    0  0.64934342604E+01  0.27178016537E+02  0.29535663603E+02  0.40659128075E+02  0.00000000000E+00 0.  1.
         11    1    3    3    0    0  0.12431046597E+01 -0.84392554096E+01 -0.30604082704E+01  0.90626949692E+01  0.51100000000E-03 0. -1.
        -11    1    3    3    0    0  0.32028102650E+01 -0.85425874191E+01  0.19663576541E+01  0.93327571538E+01  0.51100000000E-03 0.  1.
         12    1    3    3    0    0 -0.10939349185E+02 -0.10196173708E+02 -0.28441612986E+02  0.32133419802E+02  0.00000000000E+00 0. -1.
</event>
<event>
 7    1  0.3014423E-011  0.5052885E+02  0.7816164E-02  0.1300439E+00
        -11   -1    0    0    0    0  0.00000000000E+00  0.00000000000E+00  0.45593999997E+02  0.45594000000E+02  0.51100000000E-03 0. -1.
         11   -1    0    0    0    0 -0.00000000000E+00 -0.00000000000E+00 -0.45593999997E+02  0.45594000000E+02  0.51100000000E-03 0.  1.
    9900012    2    1    2    0    0 -0.14152575325E+02  0.19284873707E+02  0.32878029559E+02  0.50528848879E+02  0.29999966653E+02 0.  0.
        -12    1    1    2    0    0  0.14152575325E+02 -0.19284873707E+02 -0.32878029559E+02  0.40659151121E+02  0.00000000000E+00 0.  1.
         11    1    3    3    0    0 -0.12436879435E+01  0.44961046843E+01  0.88455328783E+00  0.47480682191E+01  0.51100000000E-03 0.  1.
        -11    1    3    3    0    0 -0.15236588132E+02  0.32416222521E+01  0.30042336584E+02  0.33840858742E+02  0.51100000000E-03 0. -1.
         12    1    3    3    0    0  0.23277007509E+01  0.11547146771E+02  0.19511396871E+01  0.11939921918E+02  0.00000000000E+00 0. -1.
</event>
<event>
 7    1  0.3014423E-011  0.5052885E+02  0.7816164E-02  0.1300439E+00
        -11   -1    0    0    0    0  0.00000000000E+00  0.00000000000E+00  0.45593999997E+02  0.45594000000E+02  0.51100000000E-03 0.  1.
         11   -1    0    0    0    0 -0.00000000000E+00 -0.00000000000E+00 -0.45593999997E+02  0.45594000000E+02  0.51100000000E-03 0. -1.
    9900012    2    1    2    0    0 -0.10063219471E+02  0.35788954478E+02  0.16463551054E+02  0.50528853894E+02  0.29999981896E+02 0.  0.
        -12    1    1    2    0    0  0.10063219471E+02 -0.35788954478E+02 -0.16463551054E+02  0.40659146106E+02  0.00000000000E+00 0.  1.
         11    1    3    3    0    0 -0.79367473937E-01  0.48747738500E+01 -0.17550013427E+01  0.51816743683E+01  0.51100000000E-03 0. -1.
        -11    1    3    3    0    0  0.86270654067E+01  0.13408967562E+02  0.61367321367E+01  0.17084675887E+02  0.51100000000E-03 0.  1.
         12    1    3    3    0    0 -0.18610917404E+02  0.17505213066E+02  0.12081820260E+02  0.28262503638E+02  0.00000000000E+00 0. -1.
</event>
<event>
 7    1  0.3014423E-011  0.5052886E+02  0.7816164E-02  0.1300439E+00
        -11   -1    0    0    0    0  0.00000000000E+00  0.00000000000E+00  0.45593999997E+02  0.45594000000E+02  0.51100000000E-03 0.  1.
         11   -1    0    0    0    0 -0.00000000000E+00 -0.00000000000E+00 -0.45593999997E+02  0.45594000000E+02  0.51100000000E-03 0. -1.
    9900012    2    1    2    0    0  0.37566708892E+02 -0.11361603512E+02 -0.10621786996E+02  0.50528855760E+02  0.29999987569E+02 0.  0.
        -12    1    1    2    0    0 -0.37566708892E+02  0.11361603512E+02  0.10621786996E+02  0.40659144240E+02  0.00000000000E+00 0.  1.
         11    1    3    3    0    0  0.20238109607E+02 -0.10989810892E+02 -0.96631588422E+00  0.23049745998E+02  0.51100000000E-03 0. -1.
        -11    1    3    3    0    0 -0.23777692192E+01 -0.47068972499E+01 -0.36967768760E+01  0.64400953187E+01  0.51100000000E-03 0.  1.
        -12    1    3    3    0    0  0.19706368504E+02  0.43351046304E+01 -0.59586942353E+01  0.21039014444E+02  0.00000000000E+00 0.  1.
</event>
<event>
 7    1  0.3014423E-011  0.5052886E+02  0.7816164E-02  0.1300439E+00
        -11   -1    0    0    0    0  0.00000000000E+00  0.00000000000E+00  0.45593999997E+02  0.45594000000E+02  0.51100000000E-03 0. -1.
         11   -1    0    0    0    0 -0.00000000000E+00 -0.00000000000E+00 -0.45593999997E+02  0.45594000000E+02  0.51100000000E-03 0.  1.
    9900012    2    1    2    0    0 -0.16983943637E+02  0.18091419870E+02 -0.32208882434E+02  0.50528856846E+02  0.29999990869E+02 0.  0.
        -12    1    1    2    0    0  0.16983943637E+02 -0.18091419870E+02  0.32208882434E+02  0.40659143154E+02  0.00000000000E+00 0.  1.
         11    1    3    3    0    0  0.13018963080E+01 -0.24632963950E+01  0.27426169626E+01  0.39095666244E+01  0.51100000000E-03 0. -1.
        -11    1    3    3    0    0  0.13755708446E+01  0.33891407225E+00  0.32793718031E+00  0.14541667553E+01  0.51100000000E-03 0.  1.
         12    1    3    3    0    0 -0.19661410790E+02  0.20215802193E+02 -0.35279436577E+02  0.45165123466E+02  0.00000000000E+00 0. -1.
</event>
<event>
 7    1  0.3014423E-011  0.5052886E+02  0.7816164E-02  0.1300439E+00
        -11   -1    0    0    0    0  0.00000000000E+00  0.00000000000E+00  0.45593999997E+02  0.45594000000E+02  0.51100000000E-03 0. -1.
         11   -1    0    0    0    0 -0.00000000000E+00 -0.00000000000E+00 -0.45593999997E+02  0.45594000000E+02  0.51100000000E-03 0.  1.
    9900012    2    1    2    0    0  0.15858345759E+02 -0.17089943558E+02  0.33310844209E+02  0.50528860278E+02  0.30000001302E+02 0.  0.
        -12    1    1    2    0    0 -0.15858345759E+02  0.17089943558E+02 -0.33310844209E+02  0.40659139722E+02  0.00000000000E+00 0.  1.
         11    1    3    3    0    0  0.13340502002E+02 -0.21004599537E+02  0.16801544778E+02  0.30024225261E+02  0.51100000000E-03 0. -1.
        -11    1    3    3    0    0  0.45261240218E+00 -0.38719735285E+01  0.72485602948E+01  0.82303501506E+01  0.51100000000E-03 0.  1.
        -12    1    3    3    0    0  0.20652313551E+01  0.77866295075E+01  0.92607391362E+01  0.12274284867E+02  0.00000000000E+00 0.  1.
</event>
<event>
 7    1  0.3014423E-011  0.5052894E+02  0.7816164E-02  0.1300438E+00
        -11   -1    0    0    0    0  0.00000000000E+00  0.00000000000E+00  0.45593999997E+02  0.45594000000E+02  0.51100000000E-03 0.  1.
         11   -1    0    0    0    0 -0.00000000000E+00 -0.00000000000E+00 -0.45593999997E+02  0.45594000000E+02  0.51100000000E-03 0. -1.
    9900012    2    1    2    0    0 -0.27990788020E+02  0.17607193896E+02 -0.23657163670E+02  0.50528943398E+02  0.30000253952E+02 0.  0.
        -12    1    1    2    0    0  0.27990788020E+02 -0.17607193896E+02  0.23657163670E+02  0.40659056602E+02  0.00000000000E+00 0.  1.
         11    1    3    3    0    0 -0.16422512416E+02  0.11631709269E+02 -0.71691068419E+01  0.21363325297E+02  0.51100000000E-03 0. -1.
        -11    1    3    3    0    0 -0.16080414615E+02  0.51506408414E+00 -0.75809277807E+01  0.17785260512E+02  0.51100000000E-03 0.  1.
         12    1    3    3    0    0  0.45121390124E+01  0.54604205428E+01 -0.89071290475E+01  0.11380357588E+02  0.00000000000E+00 0. -1.
</event>
<event>
 7    1  0.3014423E-011  0.5052887E+02  0.7816164E-02  0.1300439E+00
        -11   -1    0    0    0    0  0.00000000000E+00  0.00000000000E+00  0.45593999997E+02  0.45594000000E+02  0.51100000000E-03 0.  1.
         11   -1    0    0    0    0 -0.00000000000E+00 -0.00000000000E+00 -0.45593999997E+02  0.45594000000E+02  0.51100000000E-03 0. -1.
    9900012    2    1    2    0    0 -0.24440980765E+02  0.17097693579E+02 -0.27630993211E+02  0.50528874919E+02  0.30000045805E+02 0.  0.
        -12    1    1    2    0    0  0.24440980765E+02 -0.17097693579E+02  0.27630993211E+02  0.40659125081E+02  0.00000000000E+00 0.  1.
         11    1    3    3    0    0 -0.14899854362E+02  0.12366658369E+02 -0.25444333090E+02  0.31974270685E+02  0.51100000000E-03 0. -1.
        -11    1    3    3    0    0 -0.63934243092E+01  0.52798321529E+01 -0.82525802789E+01  0.11698614597E+02  0.51100000000E-03 0.  1.
        -12    1    3    3    0    0 -0.31477020943E+01 -0.54879694295E+00  0.60659201570E+01  0.68559896376E+01  0.00000000000E+00 0.  1.
</event>
<event>
 7    1  0.3014423E-011  0.5052886E+02  0.7816164E-02  0.1300439E+00
        -11   -1    0    0    0    0  0.00000000000E+00  0.00000000000E+00  0.45593999997E+02  0.45594000000E+02  0.51100000000E-03 0.  1.
         11   -1    0    0    0    0 -0.00000000000E+00 -0.00000000000E+00 -0.45593999997E+02  0.45594000000E+02  0.51100000000E-03 0. -1.
    9900012    2    1    2    0    0 -0.17503999121E+02 -0.78166884396E+01 -0.35856305924E+02  0.50528864767E+02  0.30000014946E+02 0.  0.
        -12    1    1    2    0    0  0.17503999121E+02  0.78166884396E+01  0.35856305924E+02  0.40659135233E+02  0.00000000000E+00 0.  1.
         11    1    3    3    0    0 -0.11209230846E+02 -0.12082664951E+02 -0.19052882315E+02  0.25192260185E+02  0.51100000000E-03 0. -1.
        -11    1    3    3    0    0  0.28988328972E+01  0.18095054751E+00  0.23273385266E+01  0.37218920115E+01  0.51100000000E-03 0.  1.
         12    1    3    3    0    0 -0.91936011725E+01  0.40850259636E+01 -0.19130762135E+02  0.21614712571E+02  0.00000000000E+00 0. -1.
</event>
<event>
 7    1  0.3014423E-011  0.5052890E+02  0.7816164E-02  0.1300439E+00
        -11   -1    0    0    0    0  0.00000000000E+00  0.00000000000E+00  0.45593999997E+02  0.45594000000E+02  0.51100000000E-03 0.  1.
         11   -1    0    0    0    0 -0.00000000000E+00 -0.00000000000E+00 -0.45593999997E+02  0.45594000000E+02  0.51100000000E-03 0. -1.
    9900012    2    1    2    0    0 -0.23729547687E+02 -0.24676279246E+02 -0.21935176261E+02  0.50528903251E+02  0.30000131921E+02 0.  0.
        -12    1    1    2    0    0  0.23729547687E+02  0.24676279246E+02  0.21935176261E+02  0.40659096749E+02  0.00000000000E+00 0.  1.
         11    1    3    3    0    0 -0.48909990949E+01  0.20308926836E+00 -0.19986349725E+01  0.52875002990E+01  0.51100000000E-03 0. -1.
        -11    1    3    3    0    0  0.13596705548E+01  0.16059032410E+01  0.37980002697E+01  0.43419391459E+01  0.51100000000E-03 0.  1.
         12    1    3    3    0    0 -0.20198219147E+02 -0.26485271755E+02 -0.23734541558E+02  0.40899463806E+02  0.00000000000E+00 0. -1.
</event>
<event>
 7    1  0.3014423E-011  0.5052887E+02  0.7816164E-02  0.1300439E+00
        -11   -1    0    0    0    0  0.00000000000E+00  0.00000000000E+00  0.45593999997E+02  0.45594000000E+02  0.51100000000E-03 0. -1.
         11   -1    0    0    0    0 -0.00000000000E+00 -0.00000000000E+00 -0.45593999997E+02  0.45594000000E+02  0.51100000000E-03 0.  1.
    9900012    2    1    2    0    0 -0.30475805597E+02 -0.16865477123E+02  0.20974892318E+02  0.50528866302E+02  0.30000019611E+02 0.  0.
        -12    1    1    2    0    0  0.30475805597E+02  0.16865477123E+02 -0.20974892318E+02  0.40659133698E+02  0.00000000000E+00 0.  1.
         11    1    3    3    0    0 -0.18098582754E+02 -0.55303180534E+01  0.73942982775E+01  0.20317941892E+02  0.51100000000E-03 0. -1.
        -11    1    3    3    0    0 -0.68394721217E+01 -0.31263223602E+01 -0.50873893689E+01  0.90793062100E+01  0.51100000000E-03 0.  1.
        -12    1    3    3    0    0 -0.55377507216E+01 -0.82088367089E+01  0.18667983409E+02  0.21131618199E+02  0.00000000000E+00 0.  1.
</event>
<event>
 7    1  0.3679266E-011  0.5052886E+02  0.7816164E-02  0.1300439E+00
        -11   -1    0    0    0    0  0.00000000000E+00  0.00000000000E+00  0.45593999997E+02  0.45594000000E+02  0.51100000000E-03 0. -1.
         11   -1    0    0    0    0 -0.00000000000E+00 -0.00000000000E+00 -0.45593999997E+02  0.45594000000E+02  0.51100000000E-03 0.  1.
    9900012    2    1    2    0    0  0.19265645903E+02 -0.72809569398E+01  0.35056926536E+02  0.50528861492E+02  0.30000004992E+02 0.  0.
        -12    1    1    2    0    0 -0.19265645903E+02  0.72809569398E+01 -0.35056926536E+02  0.40659138508E+02  0.00000000000E+00 0.  1.
         11    1    3    3    0    0  0.12932152745E+02 -0.62345338066E+01  0.19178407505E+02  0.23956654631E+02  0.51100000000E-03 0. -1.
        -11    1    3    3    0    0  0.64240523692E+01 -0.29527693704E+01 -0.29400566415E+01  0.76571031803E+01  0.51100000000E-03 0.  1.
         12    1    3    3    0    0 -0.90559210438E-01  0.19063462372E+01  0.18818575672E+02  0.18915103682E+02  0.00000000000E+00 0. -1.
</event>
<event>
 7    1  0.3014423E-011  0.5052884E+02  0.7816164E-02  0.1300439E+00
        -11   -1    0    0    0    0  0.00000000000E+00  0.00000000000E+00  0.45593999997E+02  0.45594000000E+02  0.51100000000E-03 0. -1.
         11   -1    0    0    0    0 -0.00000000000E+00 -0.00000000000E+00 -0.45593999997E+02  0.45594000000E+02  0.51100000000E-03 0.  1.
    9900012    2    1    2    0    0 -0.14443315354E+02 -0.37448800824E+02  0.64919209869E+01  0.50528842610E+02  0.29999947596E+02 0.  0.
        -12    1    1    2    0    0  0.14443315354E+02  0.37448800824E+02 -0.64919209869E+01  0.40659157390E+02  0.00000000000E+00 0.  1.
         11    1    3    3    0    0 -0.12359747705E+02 -0.63969305971E+01  0.18326262412E+01  0.14037186456E+02  0.51100000000E-03 0. -1.
        -11    1    3    3    0    0 -0.62943295594E+00 -0.92646602935E+01  0.10371542230E+02  0.13921171096E+02  0.51100000000E-03 0.  1.
        -12    1    3    3    0    0 -0.14541346933E+01 -0.21787209934E+02 -0.57122474845E+01  0.22570485058E+02  0.00000000000E+00 0.  1.
</event>
<event>
 7    1  0.3014423E-011  0.5052885E+02  0.7816164E-02  0.1300439E+00
        -11   -1    0    0    0    0  0.00000000000E+00  0.00000000000E+00  0.45593999997E+02  0.45594000000E+02  0.51100000000E-03 0.  1.
         11   -1    0    0    0    0 -0.00000000000E+00 -0.00000000000E+00 -0.45593999997E+02  0.45594000000E+02  0.51100000000E-03 0. -1.
    9900012    2    1    2    0    0 -0.12494650373E+02  0.36783228341E+02 -0.12001853554E+02  0.50528847723E+02  0.29999963139E+02 0.  0.
        -12    1    1    2    0    0  0.12494650373E+02 -0.36783228341E+02  0.12001853554E+02  0.40659152277E+02  0.00000000000E+00 0.  1.
         11    1    3    3    0    0  0.18257852695E+01 -0.29984145180E+00  0.13437609743E+01  0.22867204822E+01  0.51100000000E-03 0.  1.
        -11    1    3    3    0    0 -0.17233937680E+02  0.11848688592E+02 -0.49899447835E+01  0.21501152958E+02  0.51100000000E-03 0. -1.
         12    1    3    3    0    0  0.29135020379E+01  0.25234381201E+02 -0.83556697450E+01  0.26740974283E+02  0.00000000000E+00 0. -1.
</event>
<event>
 7    1  0.3046719E-011  0.5052886E+02  0.7816164E-02  0.1300439E+00
        -11   -1    0    0    0    0  0.00000000000E+00  0.00000000000E+00  0.45593999997E+02  0.45594000000E+02  0.51100000000E-03 0.  1.
         11   -1    0    0    0    0 -0.00000000000E+00 -0.00000000000E+00 -0.45593999997E+02  0.45594000000E+02  0.51100000000E-03 0. -1.
    9900012    2    1    2    0    0 -0.29248816043E+02  0.23514640987E+02  0.15643987166E+02  0.50528856931E+02  0.29999991126E+02 0.  0.
        -12    1    1    2    0    0  0.29248816043E+02 -0.23514640987E+02 -0.15643987166E+02  0.40659143069E+02  0.00000000000E+00 0.  1.
         11    1    3    3    0    0  0.53344749890E+00 -0.22332499551E+01  0.16686233419E+01  0.28383579257E+01  0.51100000000E-03 0. -1.
        -11    1    3    3    0    0  0.22889947921E+01  0.92402330986E+01  0.25797726605E+01  0.98628916711E+01  0.51100000000E-03 0.  1.
         12    1    3    3    0    0 -0.32071258334E+02  0.16507657843E+02  0.11395591164E+02  0.37827607334E+02  0.00000000000E+00 0. -1.
</event>
<event>
 7    1  0.3014423E-011  0.5052886E+02  0.7816164E-02  0.1300439E+00
        -11   -1    0    0    0    0  0.00000000000E+00  0.00000000000E+00  0.45593999997E+02  0.45594000000E+02  0.51100000000E-03 0. -1.
         11   -1    0    0    0    0 -0.00000000000E+00 -0.00000000000E+00 -0.45593999997E+02  0.45594000000E+02  0.51100000000E-03 0.  1.
    9900012    2    1    2    0    0 -0.71424567815E+01 -0.38399550168E+02 -0.11297158721E+02  0.50528856660E+02  0.29999990303E+02 0.  0.
        -12    1    1    2    0    0  0.71424567815E+01  0.38399550168E+02  0.11297158721E+02  0.40659143340E+02  0.00000000000E+00 0.  1.
         11    1    3    3    0    0  0.36484071628E+01 -0.16654155122E+02 -0.12616147059E+02  0.21209406511E+02  0.51100000000E-03 0. -1.
        -11    1    3    3    0    0  0.43448540281E+01 -0.62404797692E+01  0.79327609960E+00  0.76453012698E+01  0.51100000000E-03 0.  1.
         12    1    3    3    0    0 -0.15135717972E+02 -0.15504915277E+02  0.52571223851E+00  0.21674148879E+02  0.00000000000E+00 0. -1.
</event>
<event>
 7    1  0.3014423E-011  0.5052886E+02  0.7816164E-02  0.1300439E+00
        -11   -1    0    0    0    0  0.00000000000E+00  0.00000000000E+00  0.45593999997E+02  0.45594000000E+02  0.51100000000E-03 0.  1.
         11   -1    0    0    0    0 -0.00000000000E+00 -0.00000000000E+00 -0.45593999997E+02  0.45594000000E+02  0.51100000000E-03 0. -1.
    9900012    2    1    2    0    0 -0.34447799784E+02  0.19273929922E+02 -0.97483529410E+01  0.50528859950E+02  0.30000000303E+02 0.  0.
        -12    1    1    2    0    0  0.34447799784E+02 -0.19273929922E+02  0.97483529410E+01  0.40659140050E+02  0.00000000000E+00 0.  1.
         11    1    3    3    0    0 -0.16544235239E+02  0.34791166904E+01 -0.11750957022E+02  0.20588855330E+02  0.51100000000E-03 0. -1.
        -11    1    3    3    0    0 -0.14526903989E+02  0.97469808591E+01 -0.67738094179E+01  0.18759506114E+02  0.51100000000E-03 0.  1.
        -12    1    3    3    0    0 -0.33766605561E+01  0.60478323721E+01  0.87764134994E+01  0.11180498505E+02  0.00000000000E+00 0.  1.
</event>
<event>
 7    1  0.3014423E-011  0.5052886E+02  0.7816164E-02  0.1300439E+00
        -11   -1    0    0    0    0  0.00000000000E+00  0.00000000000E+00  0.45593999997E+02  0.45594000000E+02  0.51100000000E-03 0.  1.
         11   -1    0    0    0    0 -0.00000000000E+00 -0.00000000000E+00 -0.45593999997E+02  0.45594000000E+02  0.51100000000E-03 0. -1.
    9900012    2    1    2    0    0 -0.28089212433E+02  0.18478366769E+02 -0.22862890145E+02  0.50528860322E+02  0.30000001436E+02 0.  0.
        -12    1    1    2    0    0  0.28089212433E+02 -0.18478366769E+02  0.22862890145E+02  0.40659139678E+02  0.00000000000E+00 0.  1.
         11    1    3    3    0    0 -0.70423952250E+01  0.77973408842E+01 -0.22629122556E+01  0.10747773142E+02  0.51100000000E-03 0. -1.
        -11    1    3    3    0    0 -0.25838212273E+02  0.75027685814E+01 -0.12057079137E+02  0.29483519251E+02  0.51100000000E-03 0.  1.
         12    1    3    3    0    0  0.47913950654E+01  0.31782573035E+01 -0.85428987527E+01  0.10297567929E+02  0.00000000000E+00 0. -1.
</event>
<event>
 7    1  0.3014423E-011  0.5052886E+02  0.7816164E-02  0.1300439E+00
        -11   -1    0    0    0    0  0.00000000000E+00  0.00000000000E+00  0.45593999997E+02  0.45594000000E+02  0.51100000000E-03 0.  1.
         11   -1    0    0    0    0 -0.00000000000E+00 -0.00000000000E+00 -0.45593999997E+02  0.45594000000E+02  0.51100000000E-03 0. -1.
    9900012    2    1    2    0    0 -0.37610738814E+02  0.36457444801E+01  0.15010206556E+02  0.50528862923E+02  0.30000009342E+02 0.  0.
        -12    1    1    2    0    0  0.37610738814E+02 -0.36457444801E+01 -0.15010206556E+02  0.40659137077E+02  0.00000000000E+00 0.  1.
         11    1    3    3    0    0 -0.12613591300E+02 -0.37231814310E+01  0.68660928535E+01  0.14836037098E+02  0.51100000000E-03 0. -1.
        -11    1    3    3    0    0 -0.87360663307E+01 -0.79425888286E+01  0.60302326915E+01  0.13257725250E+02  0.51100000000E-03 0.  1.
         12    1    3    3    0    0 -0.16261081184E+02  0.15311514740E+02  0.21138810115E+01  0.22435100575E+02  0.00000000000E+00 0. -1.
</event>
<event>
 7    1  0.3014423E-011  0.5052887E+02  0.7816164E-02  0.1300439E+00
        -11   -1    0    0    0    0  0.00000000000E+00  0.00000000000E+00  0.45593999997E+02  0.45594000000E+02  0.51100000000E-03 0. -1.
         11   -1    0    0    0    0 -0.00000000000E+00 -0.00000000000E+00 -0.45593999997E+02  0.45594000000E+02  0.51100000000E-03 0.  1.
    9900012    2    1    2    0    0 -0.22060880852E+02 -0.32006752216E+02  0.11918496051E+02  0.50528865731E+02  0.30000017876E+02 0.  0.
        -12    1    1    2    0    0  0.22060880852E+02  0.32006752216E+02 -0.11918496051E+02  0.40659134269E+02  0.00000000000E+00 0.  1.
         11    1    3    3    0    0 -0.38287149946E+01 -0.16426524391E+02  0.63709109715E+01  0.18029927037E+02  0.51100000000E-03 0. -1.
        -11    1    3    3    0    0 -0.14986174907E+02 -0.12987193693E+02 -0.55968678568E+01  0.20605280110E+02  0.51100000000E-03 0.  1.
         12    1    3    3    0    0 -0.32459909511E+01 -0.25930341319E+01  0.11144452937E+02  0.11893658584E+02  0.00000000000E+00 0. -1.
</event>
<event>
 7    1  0.3014423E-011  0.5052885E+02  0.7816164E-02  0.1300439E+00
        -11   -1    0    0    0    0  0.00000000000E+00  0.00000000000E+00  0.45593999997E+02  0.45594000000E+02  0.51100000000E-03 0. -1.
         11   -1    0    0    0    0 -0.00000000000E+00 -0.00000000000E+00 -0.45593999997E+02  0.45594000000E+02  0.51100000000E-03 0.  1.
    9900012    2    1    2    0    0  0.25797513767E+02  0.31279921125E+01  0.31270913584E+02  0.50528854810E+02  0.29999984680E+02 0.  0.
        -12    1    1    2    0    0 -0.25797513767E+02 -0.31279921125E+01 -0.31270913584E+02  0.40659145190E+02  0.00000000000E+00 0.  1.
         11    1    3    3    0    0  0.10511620911E+02 -0.11865457551E+02  0.19525838043E+02  0.25150379890E+02  0.51100000000E-03 0. -1.
        -11    1    3    3    0    0  0.31106648549E+01 -0.69552003331E-02  0.23316332736E+01  0.38875182570E+01  0.51100000000E-03 0.  1.
        -12    1    3    3    0    0  0.12175228001E+02  0.15000404864E+02  0.94134422675E+01  0.21490956663E+02  0.00000000000E+00 0.  1.
</event>
<event>
 7    1  0.3014423E-011  0.5052887E+02  0.7816164E-02  0.1300439E+00
        -11   -1    0    0    0    0  0.00000000000E+00  0.00000000000E+00  0.45593999997E+02  0.45594000000E+02  0.51100000000E-03 0. -1.
         11   -1    0    0    0    0 -0.00000000000E+00 -0.00000000000E+00 -0.45593999997E+02  0.45594000000E+02  0.51100000000E-03 0.  1.
    9900012    2    1    2    0    0 -0.30003076504E+01  0.25812838454E+02  0.31270756400E+02  0.50528872109E+02  0.30000037262E+02 0.  0.
        -12    1    1    2    0    0  0.30003076504E+01 -0.25812838454E+02 -0.31270756400E+02  0.40659127891E+02  0.00000000000E+00 0.  1.
         11    1    3    3    0    0 -0.59410535281E+01  0.11824765002E+02  0.75835537341E+01  0.15252261205E+02  0.51100000000E-03 0. -1.
        -11    1    3    3    0    0 -0.10572961484E+01 -0.50130789942E+01  0.67602835713E+00  0.51677703846E+01  0.51100000000E-03 0.  1.
        -12    1    3    3    0    0  0.39980420260E+01  0.19001152447E+02  0.23011174308E+02  0.30108840519E+02  0.00000000000E+00 0.  1.
</event>
<event>
 7    1  0.3014423E-011  0.5052886E+02  0.7816164E-02  0.1300439E+00
        -11   -1    0    0    0    0  0.00000000000E+00  0.00000000000E+00  0.45593999997E+02  0.45594000000E+02  0.51100000000E-03 0.  1.
         11   -1    0    0    0    0 -0.00000000000E+00 -0.00000000000E+00 -0.45593999997E+02  0.45594000000E+02  0.51100000000E-03 0. -1.
    9900012    2    1    2    0    0  0.36174031220E+02  0.10990329908E+02 -0.14960550162E+02  0.50528856535E+02  0.29999989924E+02 0.  0.
        -12    1    1    2    0    0 -0.36174031220E+02 -0.10990329908E+02  0.14960550162E+02  0.40659143465E+02  0.00000000000E+00 0.  1.
         11    1    3    3    0    0  0.21744664604E+01 -0.93449480226E+00  0.90970963353E+00  0.25355781986E+01  0.51100000000E-03 0. -1.
        -11    1    3    3    0    0  0.32619255443E+02  0.64285000596E+01 -0.23455783026E+01  0.33329314072E+02  0.51100000000E-03 0.  1.
         12    1    3    3    0    0  0.13803093165E+01  0.54963246502E+01 -0.13524681493E+02  0.14663964265E+02  0.00000000000E+00 0. -1.
</event>
<event>
 7    1  0.3014423E-011  0.5052886E+02  0.7816164E-02  0.1300439E+00
        -11   -1    0    0    0    0  0.00000000000E+00  0.00000000000E+00  0.45593999997E+02  0.45594000000E+02  0.51100000000E-03 0. -1.
         11   -1    0    0    0    0 -0.00000000000E+00 -0.00000000000E+00 -0.45593999997E+02  0.45594000000E+02  0.51100000000E-03 0.  1.
    9900012    2    1    2    0    0  0.28230196917E+02 -0.27452782526E+02 -0.10127505363E+02  0.50528860176E+02  0.30000000991E+02 0.  0.
        -12    1    1    2    0    0 -0.28230196917E+02  0.27452782526E+02  0.10127505363E+02  0.40659139824E+02  0.00000000000E+00 0.  1.
         11    1    3    3    0    0  0.30039593471E+01 -0.55434012998E+01 -0.56745933211E+01  0.84825750424E+01  0.51100000000E-03 0.  1.
        -11    1    3    3    0    0 -0.93452442607E+00 -0.13298314396E+02 -0.56494598293E+01  0.14478774061E+02  0.51100000000E-03 0. -1.
        -12    1    3    3    0    0  0.26160761996E+02 -0.86110668297E+01  0.11965477873E+01  0.27567511073E+02  0.00000000000E+00 0.  1.
</event>
<event>
 7    1  0.3014423E-011  0.5052886E+02  0.7816164E-02  0.1300439E+00
        -11   -1    0    0    0    0  0.00000000000E+00  0.00000000000E+00  0.45593999997E+02  0.45594000000E+02  0.51100000000E-03 0. -1.
         11   -1    0    0    0    0 -0.00000000000E+00 -0.00000000000E+00 -0.45593999997E+02  0.45594000000E+02  0.51100000000E-03 0.  1.
    9900012    2    1    2    0    0 -0.28258464746E+01 -0.40505678014E+02  0.21142650449E+01  0.50528862327E+02  0.30000007528E+02 0.  0.
        -12    1    1    2    0    0  0.28258464746E+01  0.40505678014E+02 -0.21142650449E+01  0.40659137673E+02  0.00000000000E+00 0.  1.
         11    1    3    3    0    0 -0.17646643398E+01 -0.11821366201E+02  0.37871329461E+01  0.12537986892E+02  0.51100000000E-03 0. -1.
        -11    1    3    3    0    0 -0.10459527757E+02 -0.34316838958E+01 -0.35421991640E+00  0.11013793501E+02  0.51100000000E-03 0.  1.
         12    1    3    3    0    0  0.93983456227E+01 -0.25252627917E+02 -0.13186479848E+01  0.26977081934E+02  0.00000000000E+00 0. -1.
</event>
<event>
 7    1  0.3014423E-011  0.5052883E+02  0.7816164E-02  0.1300439E+00
        -11   -1    0    0    0    0  0.00000000000E+00  0.00000000000E+00  0.45593999997E+02  0.45594000000E+02  0.51100000000E-03 0.  1.
         11   -1    0    0    0    0 -0.00000000000E+00 -0.00000000000E+00 -0.45593999997E+02  0.45594000000E+02  0.51100000000E-03 0. -1.
    9900012    2    1    2    0    0  0.18758880675E+02 -0.32064252396E+02 -0.16527427392E+02  0.50528834464E+02  0.29999922837E+02 0.  0.
        -12    1    1    2    0    0 -0.18758880675E+02  0.32064252396E+02  0.16527427392E+02  0.40659165536E+02  0.00000000000E+00 0.  1.
         11    1    3    3    0    0  0.14767305740E+02 -0.32382884277E+02 -0.19988590649E+02  0.40819949404E+02  0.51100000000E-03 0. -1.
        -11    1    3    3    0    0 -0.43112958244E+00 -0.23753594775E+01 -0.12406046880E+01  0.27142781024E+01  0.51100000000E-03 0.  1.
         12    1    3    3    0    0  0.44227045173E+01  0.26939913587E+01  0.47017679451E+01  0.69946069580E+01  0.00000000000E+00 0. -1.
</event>
<event>
 7    1  0.3014423E-011  0.5052886E+02  0.7816164E-02  0.1300439E+00
        -11   -1    0    0    0    0  0.00000000000E+00  0.00000000000E+00  0.45593999997E+02  0.45594000000E+02  0.51100000000E-03 0. -1.
         11   -1    0    0    0    0 -0.00000000000E+00 -0.00000000000E+00 -0.45593999997E+02  0.45594000000E+02  0.51100000000E-03 0.  1.
    9900012    2    1    2    0    0 -0.30979231732E+02 -0.15309683891E+02  0.21425832292E+02  0.50528861925E+02  0.30000006309E+02 0.  0.
        -12    1    1    2    0    0  0.30979231732E+02  0.15309683891E+02 -0.21425832292E+02  0.40659138075E+02  0.00000000000E+00 0.  1.
         11    1    3    3    0    0 -0.45928248110E+01 -0.42577734639E+01  0.98074340068E+01  0.11636513081E+02  0.51100000000E-03 0. -1.
        -11    1    3    3    0    0 -0.44029829694E+01 -0.13836438283E+02  0.75400233991E+01  0.16361089099E+02  0.51100000000E-03 0.  1.
         12    1    3    3    0    0 -0.21983423952E+02  0.27845278558E+01  0.40783748860E+01  0.22531259746E+02  0.00000000000E+00 0. -1.
</event>
<event>
 7    1  0.3014423E-011  0.5052886E+02  0.7816164E-02  0.1300439E+00
        -11   -1    0    0    0    0  0.00000000000E+00  0.00000000000E+00  0.45593999997E+02  0.45594000000E+02  0.51100000000E-03 0. -1.
         11   -1    0    0    0    0 -0.00000000000E+00 -0.00000000000E+00 -0.45593999997E+02  0.45594000000E+02  0.51100000000E-03 0.  1.
    9900012    2    1    2    0    0 -0.17085581169E+00  0.29394490632E+02  0.28090929089E+02  0.50528861196E+02  0.30000004091E+02 0.  0.
        -12    1    1    2    0    0  0.17085581169E+00 -0.29394490632E+02 -0.28090929089E+02  0.40659138804E+02  0.00000000000E+00 0.  1.
         11    1    3    3    0    0  0.21705533385E+01  0.64729847892E+01  0.10051587692E+02  0.12150936148E+02  0.51100000000E-03 0. -1.
        -11    1    3    3    0    0 -0.98794068348E+01  0.24184584836E+02  0.12652555197E+02  0.29027297090E+02  0.51100000000E-03 0.  1.
         12    1    3    3    0    0  0.75379976846E+01 -0.12630789932E+01  0.53867861996E+01  0.93506279573E+01  0.00000000000E+00 0. -1.
</event>
<event>
 7    1  0.3014423E-011  0.5052886E+02  0.7816164E-02  0.1300439E+00
        -11   -1    0    0    0    0  0.00000000000E+00  0.00000000000E+00  0.45593999997E+02  0.45594000000E+02  0.51100000000E-03 0.  1.
         11   -1    0    0    0    0 -0.00000000000E+00 -0.00000000000E+00 -0.45593999997E+02  0.45594000000E+02  0.51100000000E-03 0. -1.
    9900012    2    1    2    0    0  0.26116825432E+02  0.31161202715E+02 -0.23780343524E+00  0.50528859874E+02  0.30000000074E+02 0.  0.
        -12    1    1    2    0    0 -0.26116825432E+02 -0.31161202715E+02  0.23780343524E+00  0.40659140126E+02  0.00000000000E+00 0.  1.
         11    1    3    3    0    0  0.60294932006E+01  0.20935509579E+02 -0.15936390352E+00  0.21787054567E+02  0.51100000000E-03 0. -1.
        -11    1    3    3    0    0  0.83876168226E+01  0.13696291005E+02  0.25408088255E+01  0.16260264851E+02  0.51100000000E-03 0.  1.
        -12    1    3    3    0    0  0.11699715409E+02 -0.34705978691E+01 -0.26192483572E+01  0.12481540457E+02  0.00000000000E+00 0.  1.
</event>
<event>
 7    1  0.3014423E-011  0.5052886E+02  0.7816164E-02  0.1300439E+00
        -11   -1    0    0    0    0  0.00000000000E+00  0.00000000000E+00  0.45593999997E+02  0.45594000000E+02  0.51100000000E-03 0. -1.
         11   -1    0    0    0    0 -0.00000000000E+00 -0.00000000000E+00 -0.45593999997E+02  0.45594000000E+02  0.51100000000E-03 0.  1.
    9900012    2    1    2    0    0 -0.12337044896E+02 -0.75724742752E+01  0.37995007542E+02  0.50528860295E+02  0.30000001352E+02 0.  0.
        -12    1    1    2    0    0  0.12337044896E+02  0.75724742752E+01 -0.37995007542E+02  0.40659139705E+02  0.00000000000E+00 0.  1.
         11    1    3    3    0    0  0.62726115561E+00 -0.33650074144E+01  0.27677203351E+02  0.27888067647E+02  0.51100000000E-03 0. -1.
        -11    1    3    3    0    0 -0.13604891972E+02 -0.56484664294E+01  0.12922679903E+02  0.19595762672E+02  0.51100000000E-03 0.  1.
         12    1    3    3    0    0  0.64058591997E+00  0.14409995687E+01 -0.26048757122E+01  0.30450299758E+01  0.00000000000E+00 0. -1.
</event>
<event>
 7    1  0.3014423E-011  0.5052888E+02  0.7816164E-02  0.1300439E+00
        -11   -1    0    0    0    0  0.00000000000E+00  0.00000000000E+00  0.45593999997E+02  0.45594000000E+02  0.51100000000E-03 0.  1.
         11   -1    0    0    0    0 -0.00000000000E+00 -0.00000000000E+00 -0.45593999997E+02  0.45594000000E+02  0.51100000000E-03 0. -1.
    9900012    2    1    2    0    0  0.27562918114E+01 -0.20091261321E+02 -0.35240720483E+02  0.50528876716E+02  0.30000051267E+02 0.  0.
        -12    1    1    2    0    0 -0.27562918114E+01  0.20091261321E+02  0.35240720483E+02  0.40659123284E+02  0.00000000000E+00 0.  1.
         11    1    3    3    0    0 -0.42653149498E+01 -0.97928255432E+01  0.10138507780E+01  0.10729409928E+02  0.51100000000E-03 0. -1.
        -11    1    3    3    0    0  0.15501990898E+01 -0.95498453059E+01 -0.15080871466E+02  0.17917459279E+02  0.51100000000E-03 0.  1.
        -12    1    3    3    0    0  0.54714076714E+01 -0.74859047152E+00 -0.21173699795E+02  0.21882007509E+02  0.00000000000E+00 0.  1.
</event>
<event>
 7    1  0.3014423E-011  0.5052886E+02  0.7816164E-02  0.1300439E+00
        -11   -1    0    0    0    0  0.00000000000E+00  0.00000000000E+00  0.45593999997E+02  0.45594000000E+02  0.51100000000E-03 0.  1.
         11   -1    0    0    0    0 -0.00000000000E+00 -0.00000000000E+00 -0.45593999997E+02  0.45594000000E+02  0.51100000000E-03 0. -1.
    9900012    2    1    2    0    0 -0.26444191651E+02 -0.11965389547E+02 -0.28472794975E+02  0.50528857452E+02  0.29999992711E+02 0.  0.
        -12    1    1    2    0    0  0.26444191651E+02  0.11965389547E+02  0.28472794975E+02  0.40659142548E+02  0.00000000000E+00 0.  1.
         11    1    3    3    0    0 -0.68478646879E+01 -0.13800524679E+02 -0.21663267925E+02  0.26582793489E+02  0.51100000000E-03 0. -1.
        -11    1    3    3    0    0 -0.22634552677E+01 -0.52892359206E+00 -0.59994129727E+01  0.64339681530E+01  0.51100000000E-03 0.  1.
         12    1    3    3    0    0 -0.17332871695E+02  0.23640587243E+01 -0.81011407641E+00  0.17512095810E+02  0.00000000000E+00 0. -1.
</event>
<event>
 7    1  0.3014423E-011  0.5052886E+02  0.7816164E-02  0.1300439E+00
        -11   -1    0    0    0    0  0.00000000000E+00  0.00000000000E+00  0.45593999997E+02  0.45594000000E+02  0.51100000000E-03 0. -1.
         11   -1    0    0    0    0 -0.00000000000E+00 -0.00000000000E+00 -0.45593999997E+02  0.45594000000E+02  0.51100000000E-03 0.  1.
    9900012    2    1    2    0    0 -0.17814943926E+02 -0.36502120079E+02 -0.18409193681E+01  0.50528856115E+02  0.29999988648E+02 0.  0.
        -12    1    1    2    0    0  0.17814943926E+02  0.36502120079E+02  0.18409193681E+01  0.40659143885E+02  0.00000000000E+00 0.  1.
         11    1    3    3    0    0 -0.35939118526E+01 -0.15933991298E+02  0.10033127239E+02  0.19169557208E+02  0.51100000000E-03 0. -1.
        -11    1    3    3    0    0 -0.50309913420E+01 -0.13360864012E+02  0.57653443418E+00  0.14288315269E+02  0.51100000000E-03 0.  1.
        -12    1    3    3    0    0 -0.91900407319E+01 -0.72072647684E+01 -0.12450581041E+02  0.17070983638E+02  0.00000000000E+00 0.  1.
</event>
<event>
 7    1  0.3014423E-011  0.5052885E+02  0.7816164E-02  0.1300439E+00
        -11   -1    0    0    0    0  0.00000000000E+00  0.00000000000E+00  0.45593999997E+02  0.45594000000E+02  0.51100000000E-03 0. -1.
         11   -1    0    0    0    0 -0.00000000000E+00 -0.00000000000E+00 -0.45593999997E+02  0.45594000000E+02  0.51100000000E-03 0.  1.
    9900012    2    1    2    0    0 -0.21548356246E+02  0.80456053030E+01  0.33527644037E+02  0.50528851752E+02  0.29999975384E+02 0.  0.
        -12    1    1    2    0    0  0.21548356246E+02 -0.80456053030E+01 -0.33527644037E+02  0.40659148248E+02  0.00000000000E+00 0.  1.
         11    1    3    3    0    0 -0.76062388555E+00  0.34310748303E+01  0.12119990997E+02  0.12619231562E+02  0.51100000000E-03 0. -1.
        -11    1    3    3    0    0 -0.10194749753E+02 -0.47628024081E+00  0.23817770834E+02  0.25912274565E+02  0.51100000000E-03 0.  1.
        -12    1    3    3    0    0 -0.10592982608E+02  0.50908107135E+01 -0.24101177940E+01  0.11997345624E+02  0.00000000000E+00 0.  1.
</event>
<event>
 7    1  0.3014423E-011  0.5052886E+02  0.7816164E-02  0.1300439E+00
        -11   -1    0    0    0    0  0.00000000000E+00  0.00000000000E+00  0.45593999997E+02  0.45594000000E+02  0.51100000000E-03 0.  1.
         11   -1    0    0    0    0 -0.00000000000E+00 -0.00000000000E+00 -0.45593999997E+02  0.45594000000E+02  0.51100000000E-03 0. -1.
    9900012    2    1    2    0    0 -0.37822777817E+01  0.26542853766E+02 -0.30566926510E+02  0.50528859484E+02  0.29999998886E+02 0.  0.
        -12    1    1    2    0    0  0.37822777817E+01 -0.26542853766E+02  0.30566926510E+02  0.40659140516E+02  0.00000000000E+00 0.  1.
         11    1    3    3    0    0 -0.49793738862E+01  0.86540213718E+01 -0.56122236307E+01  0.11453528039E+02  0.51100000000E-03 0. -1.
        -11    1    3    3    0    0 -0.10334735867E+02  0.12668736352E+02 -0.88489868997E+01  0.18590541025E+02  0.51100000000E-03 0.  1.
         12    1    3    3    0    0  0.11531831971E+02  0.52200960422E+01 -0.16105715979E+02  0.20484790419E+02  0.00000000000E+00 0. -1.
</event>
<event>
 7    1  0.3014423E-011  0.5052887E+02  0.7816164E-02  0.1300439E+00
        -11   -1    0    0    0    0  0.00000000000E+00  0.00000000000E+00  0.45593999997E+02  0.45594000000E+02  0.51100000000E-03 0. -1.
         11   -1    0    0    0    0 -0.00000000000E+00 -0.00000000000E+00 -0.45593999997E+02  0.45594000000E+02  0.51100000000E-03 0.  1.
    9900012    2    1    2    0    0 -0.32835739781E+02  0.12615531647E+02  0.20391849018E+02  0.50528868773E+02  0.30000027123E+02 0.  0.
        -12    1    1    2    0    0  0.32835739781E+02 -0.12615531647E+02 -0.20391849018E+02  0.40659131227E+02  0.00000000000E+00 0.  1.
         11    1    3    3    0    0 -0.35889969815E+01 -0.74723041199E+01  0.91952662455E+01  0.12380191831E+02  0.51100000000E-03 0. -1.
        -11    1    3    3    0    0 -0.39509295358E+01 -0.32389393314E+00  0.11689013025E+01  0.41329265651E+01  0.51100000000E-03 0.  1.
        -12    1    3    3    0    0 -0.25295813264E+02  0.20411729700E+02  0.10027681470E+02  0.34015750377E+02  0.00000000000E+00 0.  1.
</event>
<event>
 7    1  0.3014423E-011  0.5052886E+02  0.7816164E-02  0.1300439E+00
        -11   -1    0    0    0    0  0.00000000000E+00  0.00000000000E+00  0.45593999997E+02  0.45594000000E+02  0.51100000000E-03 0. -1.
         11   -1    0    0    0    0 -0.00000000000E+00 -0.00000000000E+00 -0.45593999997E+02  0.45594000000E+02  0.51100000000E-03 0.  1.
    9900012    2    1    2    0    0 -0.18616704263E+02  0.31085037601E+02 -0.18447337059E+02  0.50528862222E+02  0.30000007210E+02 0.  0.
        -12    1    1    2    0    0  0.18616704263E+02 -0.31085037601E+02  0.18447337059E+02  0.40659137778E+02  0.00000000000E+00 0.  1.
         11    1    3    3    0    0 -0.55222299664E+01  0.15076251878E+02  0.28173440154E+01  0.16301098799E+02  0.51100000000E-03 0. -1.
        -11    1    3    3    0    0 -0.34941317861E+01 -0.22175443407E+01  0.60643238416E+00  0.41826092740E+01  0.51100000000E-03 0.  1.
        -12    1    3    3    0    0 -0.96003425109E+01  0.18226330064E+02 -0.21871113458E+02  0.30045154149E+02  0.00000000000E+00 0.  1.
</event>
<event>
 7    1  0.3014423E-011  0.5052886E+02  0.7816164E-02  0.1300439E+00
        -11   -1    0    0    0    0  0.00000000000E+00  0.00000000000E+00  0.45593999997E+02  0.45594000000E+02  0.51100000000E-03 0.  1.
         11   -1    0    0    0    0 -0.00000000000E+00 -0.00000000000E+00 -0.45593999997E+02  0.45594000000E+02  0.51100000000E-03 0. -1.
    9900012    2    1    2    0    0 -0.13741316100E+02  0.12899257804E+02 -0.36027089071E+02  0.50528858752E+02  0.29999996663E+02 0.  0.
        -12    1    1    2    0    0  0.13741316100E+02 -0.12899257804E+02  0.36027089071E+02  0.40659141248E+02  0.00000000000E+00 0.  1.
         11    1    3    3    0    0 -0.97255001864E+01  0.11815390179E+02 -0.70066432310E+01  0.16830978836E+02  0.51100000000E-03 0. -1.
        -11    1    3    3    0    0 -0.28289709186E+01 -0.73230620890E+01 -0.89479920315E+01  0.11903649712E+02  0.51100000000E-03 0.  1.
         12    1    3    3    0    0 -0.11868449946E+01  0.84069297144E+01 -0.20072453809E+02  0.21794230204E+02  0.00000000000E+00 0. -1.
</event>
<event>
 7    1  0.3014423E-011  0.5052885E+02  0.7816164E-02  0.1300439E+00
        -11   -1    0    0    0    0  0.00000000000E+00  0.00000000000E+00  0.45593999997E+02  0.45594000000E+02  0.51100000000E-03 0.  1.
         11   -1    0    0    0    0 -0.00000000000E+00 -0.00000000000E+00 -0.45593999997E+02  0.45594000000E+02  0.51100000000E-03 0. -1.
    9900012    2    1    2    0    0 -0.27310654496E+02 -0.27837384187E+02 -0.11505415694E+02  0.50528850997E+02  0.29999973090E+02 0.  0.
        -12    1    1    2    0    0  0.27310654496E+02  0.27837384187E+02  0.11505415694E+02  0.40659149003E+02  0.00000000000E+00 0.  1.
         11    1    3    3    0    0 -0.92709231025E+01 -0.25579723040E+01  0.63452673725E+01  0.11521964059E+02  0.51100000000E-03 0. -1.
        -11    1    3    3    0    0 -0.62428631742E+00  0.14086029374E+01  0.11338158384E+01  0.19129647822E+01  0.51100000000E-03 0.  1.
         12    1    3    3    0    0 -0.17415445076E+02 -0.26688014821E+02 -0.18984498905E+02  0.37093922156E+02  0.00000000000E+00 0. -1.
</event>
<event>
 7    1  0.3014423E-011  0.5052886E+02  0.7816164E-02  0.1300439E+00
        -11   -1    0    0    0    0  0.00000000000E+00  0.00000000000E+00  0.45593999997E+02  0.45594000000E+02  0.51100000000E-03 0. -1.
         11   -1    0    0    0    0 -0.00000000000E+00 -0.00000000000E+00 -0.45593999997E+02  0.45594000000E+02  0.51100000000E-03 0.  1.
    9900012    2    1    2    0    0 -0.15772453013E+02 -0.10905561620E+02  0.35853374064E+02  0.50528856132E+02  0.29999988700E+02 0.  0.
        -12    1    1    2    0    0  0.15772453013E+02  0.10905561620E+02 -0.35853374064E+02  0.40659143868E+02  0.00000000000E+00 0.  1.
         11    1    3    3    0    0 -0.10660352367E+02  0.19982852450E+01  0.12838300197E+02  0.16806493052E+02  0.51100000000E-03 0. -1.
        -11    1    3    3    0    0  0.52074761723E+01  0.18764854987E+01  0.10199551584E+02  0.11604734322E+02  0.51100000000E-03 0.  1.
         12    1    3    3    0    0 -0.10319576818E+02 -0.14780332364E+02  0.12815522283E+02  0.22117628758E+02  0.00000000000E+00 0. -1.
</event>
<event>
 7    1  0.3014423E-011  0.5052886E+02  0.7816164E-02  0.1300439E+00
        -11   -1    0    0    0    0  0.00000000000E+00  0.00000000000E+00  0.45593999997E+02  0.45594000000E+02  0.51100000000E-03 0.  1.
         11   -1    0    0    0    0 -0.00000000000E+00 -0.00000000000E+00 -0.45593999997E+02  0.45594000000E+02  0.51100000000E-03 0. -1.
    9900012    2    1    2    0    0  0.69820357827E+01 -0.31927777616E+02 -0.24187472769E+02  0.50528860239E+02  0.30000001183E+02 0.  0.
        -12    1    1    2    0    0 -0.69820357827E+01  0.31927777616E+02  0.24187472769E+02  0.40659139761E+02  0.00000000000E+00 0.  1.
         11    1    3    3    0    0 -0.84054316821E+01 -0.88450119283E+01 -0.66430645462E+01  0.13893013518E+02  0.51100000000E-03 0. -1.
        -11    1    3    3    0    0 -0.17053516374E+01  0.21440842315E+00 -0.47191362435E+01  0.50223940830E+01  0.51100000000E-03 0.  1.
         12    1    3    3    0    0  0.17092819102E+02 -0.23297174110E+02 -0.12825271979E+02  0.31613452639E+02  0.00000000000E+00 0. -1.
</event>
<event>
 7    1  0.3014423E-011  0.5052886E+02  0.7816164E-02  0.1300439E+00
        -11   -1    0    0    0    0  0.00000000000E+00  0.00000000000E+00  0.45593999997E+02  0.45594000000E+02  0.51100000000E-03 0. -1.
         11   -1    0    0    0    0 -0.00000000000E+00 -0.00000000000E+00 -0.45593999997E+02  0.45594000000E+02  0.51100000000E-03 0.  1.
    9900012    2    1    2    0    0 -0.20714810950E+02 -0.27569751729E+02 -0.21539994253E+02  0.50528856434E+02  0.29999989617E+02 0.  0.
        -12    1    1    2    0    0  0.20714810950E+02  0.27569751729E+02  0.21539994253E+02  0.40659143566E+02  0.00000000000E+00 0.  1.
         11    1    3    3    0    0 -0.13037902143E+02 -0.11678006296E+02 -0.68635966363E-01  0.17503354949E+02  0.51100000000E-03 0. -1.
        -11    1    3    3    0    0  0.14176723026E+01 -0.32923185223E+01  0.25621908231E+01  0.44061296038E+01  0.51100000000E-03 0.  1.
        -12    1    3    3    0    0 -0.90945811102E+01 -0.12599426911E+02 -0.24033549109E+02  0.28619371881E+02  0.00000000000E+00 0.  1.
</event>
<event>
 7    1  0.3014423E-011  0.5052883E+02  0.7816164E-02  0.1300439E+00
        -11   -1    0    0    0    0  0.00000000000E+00  0.00000000000E+00  0.45593999997E+02  0.45594000000E+02  0.51100000000E-03 0.  1.
         11   -1    0    0    0    0 -0.00000000000E+00 -0.00000000000E+00 -0.45593999997E+02  0.45594000000E+02  0.51100000000E-03 0. -1.
    9900012    2    1    2    0    0  0.38968613586E+02 -0.10503475211E+02  0.49287047810E+01  0.50528831696E+02  0.29999914423E+02 0.  0.
        -12    1    1    2    0    0 -0.38968613586E+02  0.10503475211E+02 -0.49287047810E+01  0.40659168304E+02  0.00000000000E+00 0.  1.
         11    1    3    3    0    0  0.21358692578E+02 -0.10262712926E+02  0.64526637812E+01  0.24559191667E+02  0.51100000000E-03 0.  1.
        -11    1    3    3    0    0  0.15369047479E+02 -0.64730432122E+01 -0.62758463454E+01  0.17818365707E+02  0.51100000000E-03 0. -1.
        -12    1    3    3    0    0  0.22408735293E+01  0.62322809267E+01  0.47518873452E+01  0.81512743215E+01  0.00000000000E+00 0.  1.
</event>
<event>
 7    1  0.3014423E-011  0.5052889E+02  0.7816164E-02  0.1300439E+00
        -11   -1    0    0    0    0  0.00000000000E+00  0.00000000000E+00  0.45593999997E+02  0.45594000000E+02  0.51100000000E-03 0.  1.
         11   -1    0    0    0    0 -0.00000000000E+00 -0.00000000000E+00 -0.45593999997E+02  0.45594000000E+02  0.51100000000E-03 0. -1.
    9900012    2    1    2    0    0  0.30545261702E+02 -0.17464450294E+02 -0.20375057161E+02  0.50528892892E+02  0.30000100434E+02 0.  0.
        -12    1    1    2    0    0 -0.30545261702E+02  0.17464450294E+02  0.20375057161E+02  0.40659107108E+02  0.00000000000E+00 0.  1.
         11    1    3    3    0    0  0.11918917719E+01 -0.20116315727E+01  0.15344733916E+01  0.27967617759E+01  0.51100000000E-03 0. -1.
        -11    1    3    3    0    0 -0.28413951120E+01 -0.65416044913E+01  0.10339892982E+01  0.72066115222E+01  0.51100000000E-03 0.  1.
         12    1    3    3    0    0  0.32194765042E+02 -0.89112142295E+01 -0.22943519851E+02  0.40525519594E+02  0.00000000000E+00 0. -1.
</event>
<event>
 7    1  0.3014423E-011  0.5052881E+02  0.7816164E-02  0.1300439E+00
        -11   -1    0    0    0    0  0.00000000000E+00  0.00000000000E+00  0.45593999997E+02  0.45594000000E+02  0.51100000000E-03 0. -1.
         11   -1    0    0    0    0 -0.00000000000E+00 -0.00000000000E+00 -0.45593999997E+02  0.45594000000E+02  0.51100000000E-03 0.  1.
    9900012    2    1    2    0    0 -0.39131849796E+02 -0.15527720792E+01  0.10929638074E+02  0.50528809673E+02  0.29999847482E+02 0.  0.
        -12    1    1    2    0    0  0.39131849796E+02  0.15527720792E+01 -0.10929638074E+02  0.40659190327E+02  0.00000000000E+00 0.  1.
         11    1    3    3    0    0 -0.82187900902E+01  0.45841020479E+01 -0.46492122085E+01  0.10496555461E+02  0.51100000000E-03 0. -1.
        -11    1    3    3    0    0 -0.19338113185E+02  0.29233170516E+01  0.13980588677E+01  0.19607727380E+02  0.51100000000E-03 0.  1.
         12    1    3    3    0    0 -0.11574946521E+02 -0.90601911788E+01  0.14180791415E+02  0.20424526832E+02  0.00000000000E+00 0. -1.
</event>
<event>
 7    1  0.3014423E-011  0.5052887E+02  0.7816164E-02  0.1300439E+00
        -11   -1    0    0    0    0  0.00000000000E+00  0.00000000000E+00  0.45593999997E+02  0.45594000000E+02  0.51100000000E-03 0. -1.
         11   -1    0    0    0    0 -0.00000000000E+00 -0.00000000000E+00 -0.45593999997E+02  0.45594000000E+02  0.51100000000E-03 0.  1.
    9900012    2    1    2    0    0  0.21151033821E+00  0.53298797739E+01  0.40307727474E+02  0.50528865121E+02  0.30000016021E+02 0.  0.
        -12    1    1    2    0    0 -0.21151033821E+00 -0.53298797739E+01 -0.40307727474E+02  0.40659134879E+02  0.00000000000E+00 0.  1.
         11    1    3    3    0    0 -0.58810346922E+00 -0.82186501050E+01  0.56287804113E+01  0.99787396207E+01  0.51100000000E-03 0. -1.
        -11    1    3    3    0    0  0.29543423589E+01 -0.69556769426E+00  0.40555972621E-01  0.30353909532E+01  0.51100000000E-03 0.  1.
         12    1    3    3    0    0 -0.21547285515E+01  0.14244097573E+02  0.34638391090E+02  0.37514734547E+02  0.00000000000E+00 0. -1.
</event>
<event>
 7    1  0.3014423E-011  0.5052886E+02  0.7816164E-02  0.1300439E+00
        -11   -1    0    0    0    0  0.00000000000E+00  0.00000000000E+00  0.45593999997E+02  0.45594000000E+02  0.51100000000E-03 0.  1.
         11   -1    0    0    0    0 -0.00000000000E+00 -0.00000000000E+00 -0.45593999997E+02  0.45594000000E+02  0.51100000000E-03 0. -1.
    9900012    2    1    2    0    0  0.37746774703E+01 -0.16847871511E+02 -0.36811234732E+02  0.50528856294E+02  0.29999989191E+02 0.  0.
        -12    1    1    2    0    0 -0.37746774703E+01  0.16847871511E+02  0.36811234732E+02  0.40659143706E+02  0.00000000000E+00 0.  1.
         11    1    3    3    0    0  0.38671504261E+01 -0.14140159543E+02 -0.10107533688E+02  0.17806212451E+02  0.51100000000E-03 0. -1.
        -11    1    3    3    0    0 -0.93165309858E+01 -0.89715967375E-01 -0.13611063189E+02  0.16494448762E+02  0.51100000000E-03 0.  1.
         12    1    3    3    0    0  0.92240580301E+01 -0.26179960002E+01 -0.13092637855E+02  0.16228195081E+02  0.00000000000E+00 0. -1.
</event>
<event>
 7    1  0.3014423E-011  0.5052882E+02  0.7816164E-02  0.1300439E+00
        -11   -1    0    0    0    0  0.00000000000E+00  0.00000000000E+00  0.45593999997E+02  0.45594000000E+02  0.51100000000E-03 0. -1.
         11   -1    0    0    0    0 -0.00000000000E+00 -0.00000000000E+00 -0.45593999997E+02  0.45594000000E+02  0.51100000000E-03 0.  1.
    9900012    2    1    2    0    0 -0.40282456451E+02 -0.54303890415E+01  0.10018637012E+01  0.50528817104E+02  0.29999870070E+02 0.  0.
        -12    1    1    2    0    0  0.40282456451E+02  0.54303890415E+01 -0.10018637012E+01  0.40659182896E+02  0.00000000000E+00 0.  1.
         11    1    3    3    0    0 -0.38390874379E+02 -0.10504641586E+02 -0.35465116989E+01  0.39959785734E+02  0.51100000000E-03 0. -1.
        -11    1    3    3    0    0 -0.44621736635E+01  0.53121594255E+01  0.36228496269E+01  0.78265619046E+01  0.51100000000E-03 0.  1.
        -12    1    3    3    0    0  0.25705915912E+01 -0.23790688134E+00  0.92552577320E+00  0.27424694656E+01  0.00000000000E+00 0.  1.
</event>
<event>
 7    1  0.3014423E-011  0.5052886E+02  0.7816164E-02  0.1300439E+00
        -11   -1    0    0    0    0  0.00000000000E+00  0.00000000000E+00  0.45593999997E+02  0.45594000000E+02  0.51100000000E-03 0.  1.
         11   -1    0    0    0    0 -0.00000000000E+00 -0.00000000000E+00 -0.45593999997E+02  0.45594000000E+02  0.51100000000E-03 0. -1.
    9900012    2    1    2    0    0  0.36638879647E+02 -0.16411207640E+02  0.64366678292E+01  0.50528856739E+02  0.29999990544E+02 0.  0.
        -12    1    1    2    0    0 -0.36638879647E+02  0.16411207640E+02 -0.64366678292E+01  0.40659143261E+02  0.00000000000E+00 0.  1.
         11    1    3    3    0    0  0.29744568491E+02 -0.34956325415E+01  0.25833406469E+01  0.30060479882E+02  0.51100000000E-03 0. -1.
        -11    1    3    3    0    0  0.72943569772E+00  0.29688301161E+01  0.40024506461E+00  0.30832166755E+01  0.51100000000E-03 0.  1.
         12    1    3    3    0    0  0.61648754583E+01 -0.15884405214E+02  0.34530821177E+01  0.17385160182E+02  0.00000000000E+00 0. -1.
</event>
<event>
 7    1  0.3014423E-011  0.5052886E+02  0.7816164E-02  0.1300439E+00
        -11   -1    0    0    0    0  0.00000000000E+00  0.00000000000E+00  0.45593999997E+02  0.45594000000E+02  0.51100000000E-03 0.  1.
         11   -1    0    0    0    0 -0.00000000000E+00 -0.00000000000E+00 -0.45593999997E+02  0.45594000000E+02  0.51100000000E-03 0. -1.
    9900012    2    1    2    0    0 -0.12503068351E+02 -0.19993717314E+02 -0.33122350847E+02  0.50528861103E+02  0.30000003809E+02 0.  0.
        -12    1    1    2    0    0  0.12503068351E+02  0.19993717314E+02  0.33122350847E+02  0.40659138897E+02  0.00000000000E+00 0.  1.
         11    1    3    3    0    0 -0.10691592969E+02 -0.13009999266E+02 -0.18144610047E+02  0.24754739246E+02  0.51100000000E-03 0. -1.
        -11    1    3    3    0    0  0.18710563763E+01 -0.11480767946E+02 -0.23420549674E+01  0.11865669232E+02  0.51100000000E-03 0.  1.
        -12    1    3    3    0    0 -0.36825317584E+01  0.44970498990E+01 -0.12635685833E+02  0.13908452625E+02  0.00000000000E+00 0.  1.
</event>
<event>
 7    1  0.3014423E-011  0.5052887E+02  0.7816164E-02  0.1300439E+00
        -11   -1    0    0    0    0  0.00000000000E+00  0.00000000000E+00  0.45593999997E+02  0.45594000000E+02  0.51100000000E-03 0. -1.
         11   -1    0    0    0    0 -0.00000000000E+00 -0.00000000000E+00 -0.45593999997E+02  0.45594000000E+02  0.51100000000E-03 0.  1.
    9900012    2    1    2    0    0  0.33312906868E+01  0.36553344470E+02 -0.17490586457E+02  0.50528866903E+02  0.30000021438E+02 0.  0.
        -12    1    1    2    0    0 -0.33312906868E+01 -0.36553344470E+02  0.17490586457E+02  0.40659133097E+02  0.00000000000E+00 0.  1.
         11    1    3    3    0    0 -0.43069802997E+01  0.24252919573E+02 -0.13940834887E+02  0.28303728813E+02  0.51100000000E-03 0. -1.
        -11    1    3    3    0    0 -0.98768254811E+00  0.12554759606E+02  0.68545733114E+00  0.12612190833E+02  0.51100000000E-03 0.  1.
        -12    1    3    3    0    0  0.86259535346E+01 -0.25433470907E+00 -0.42352089015E+01  0.96129472569E+01  0.00000000000E+00 0.  1.
</event>
<event>
 7    1  0.3014423E-011  0.5052887E+02  0.7816164E-02  0.1300439E+00
        -11   -1    0    0    0    0  0.00000000000E+00  0.00000000000E+00  0.45593999997E+02  0.45594000000E+02  0.51100000000E-03 0.  1.
         11   -1    0    0    0    0 -0.00000000000E+00 -0.00000000000E+00 -0.45593999997E+02  0.45594000000E+02  0.51100000000E-03 0. -1.
    9900012    2    1    2    0    0  0.20966353124E+02  0.23669909910E+02 -0.25559978461E+02  0.50528866986E+02  0.30000021692E+02 0.  0.
        -12    1    1    2    0    0 -0.20966353124E+02 -0.23669909910E+02  0.25559978461E+02  0.40659133014E+02  0.00000000000E+00 0.  1.
         11    1    3    3    0    0 -0.99707738927E+00  0.40891283980E+00 -0.11916664780E+02  0.11965294513E+02  0.51100000000E-03 0. -1.
        -11    1    3    3    0    0 -0.12144127111E+01  0.54997928634E+01 -0.63064347340E+01  0.84553911257E+01  0.51100000000E-03 0.  1.
         12    1    3    3    0    0  0.23177843224E+02  0.17761204207E+02 -0.73368789473E+01  0.30108181348E+02  0.00000000000E+00 0. -1.
</event>
<event>
 7    1  0.3014423E-011  0.5052886E+02  0.7816164E-02  0.1300439E+00
        -11   -1    0    0    0    0  0.00000000000E+00  0.00000000000E+00  0.45593999997E+02  0.45594000000E+02  0.51100000000E-03 0.  1.
         11   -1    0    0    0    0 -0.00000000000E+00 -0.00000000000E+00 -0.45593999997E+02  0.45594000000E+02  0.51100000000E-03 0. -1.
    9900012    2    1    2    0    0  0.11574318382E+02  0.38976899873E+02  0.47160612068E-01  0.50528858422E+02  0.29999995659E+02 0.  0.
        -12    1    1    2    0    0 -0.11574318382E+02 -0.38976899873E+02 -0.47160612068E-01  0.40659141578E+02  0.00000000000E+00 0.  1.
         11    1    3    3    0    0 -0.48643283972E+01  0.65563807574E+01  0.54894658047E+00  0.81822467575E+01  0.51100000000E-03 0. -1.
        -11    1    3    3    0    0 -0.40424608910E+01  0.12508234756E+02  0.32363731589E+01  0.13537781881E+02  0.51100000000E-03 0.  1.
         12    1    3    3    0    0  0.20481107670E+02  0.19912284360E+02 -0.37381591273E+01  0.28808829783E+02  0.00000000000E+00 0. -1.
</event>
<event>
 7    1  0.3014423E-011  0.5052886E+02  0.7816164E-02  0.1300439E+00
        -11   -1    0    0    0    0  0.00000000000E+00  0.00000000000E+00  0.45593999997E+02  0.45594000000E+02  0.51100000000E-03 0. -1.
         11   -1    0    0    0    0 -0.00000000000E+00 -0.00000000000E+00 -0.45593999997E+02  0.45594000000E+02  0.51100000000E-03 0.  1.
    9900012    2    1    2    0    0  0.13813221705E+02 -0.38240814429E+02  0.28278071120E-01  0.50528858571E+02  0.29999996114E+02 0.  0.
        -12    1    1    2    0    0 -0.13813221705E+02  0.38240814429E+02 -0.28278071120E-01  0.40659141429E+02  0.00000000000E+00 0.  1.
         11    1    3    3    0    0  0.13353011089E+02 -0.23013834673E+02  0.11920981474E+01  0.26633824167E+02  0.51100000000E-03 0. -1.
        -11    1    3    3    0    0  0.26357785296E+01 -0.16141861422E+01  0.71549617443E+01  0.77939978947E+01  0.51100000000E-03 0.  1.
         12    1    3    3    0    0 -0.21755679133E+01 -0.13612793614E+02 -0.83187818206E+01  0.16101036510E+02  0.00000000000E+00 0. -1.
</event>
<event>
 7    1  0.3014423E-011  0.5052886E+02  0.7816164E-02  0.1300439E+00
        -11   -1    0    0    0    0  0.00000000000E+00  0.00000000000E+00  0.45593999997E+02  0.45594000000E+02  0.51100000000E-03 0. -1.
         11   -1    0    0    0    0 -0.00000000000E+00 -0.00000000000E+00 -0.45593999997E+02  0.45594000000E+02  0.51100000000E-03 0.  1.
    9900012    2    1    2    0    0  0.40613011278E+02  0.51567627501E+00  0.18662311657E+01  0.50528862947E+02  0.30000009415E+02 0.  0.
        -12    1    1    2    0    0 -0.40613011278E+02 -0.51567627501E+00 -0.18662311657E+01  0.40659137053E+02  0.00000000000E+00 0.  1.
         11    1    3    3    0    0  0.11399911424E+02  0.21721501807E+01 -0.57135743291E+01  0.12935267634E+02  0.51100000000E-03 0. -1.
        -11    1    3    3    0    0  0.18119454281E+01  0.59269687668E+01 -0.34554265194E+01  0.70959197916E+01  0.51100000000E-03 0.  1.
         12    1    3    3    0    0  0.27401154425E+02 -0.75834426725E+01  0.11035232014E+02  0.30497675522E+02  0.00000000000E+00 0. -1.
</event>
<event>
 7    1  0.3014423E-011  0.5052885E+02  0.7816164E-02  0.1300439E+00
        -11   -1    0    0    0    0  0.00000000000E+00  0.00000000000E+00  0.45593999997E+02  0.45594000000E+02  0.51100000000E-03 0. -1.
         11   -1    0    0    0    0 -0.00000000000E+00 -0.00000000000E+00 -0.45593999997E+02  0.45594000000E+02  0.51100000000E-03 0.  1.
    9900012    2    1    2    0    0 -0.33885167682E+02 -0.19501108634E+02  0.11165512585E+02  0.50528849762E+02  0.29999969336E+02 0.  0.
        -12    1    1    2    0    0  0.33885167682E+02  0.19501108634E+02 -0.11165512585E+02  0.40659150238E+02  0.00000000000E+00 0.  1.
         11    1    3    3    0    0 -0.35299126498E+01  0.45803330207E+01  0.97925471026E+00  0.58650382730E+01  0.51100000000E-03 0.  1.
        -11    1    3    3    0    0 -0.31236048978E+02 -0.26196622329E+02  0.11012252008E+02  0.42228230744E+02  0.51100000000E-03 0. -1.
         12    1    3    3    0    0  0.88079394607E+00  0.21151806736E+01 -0.82599413366E+00  0.24355807451E+01  0.00000000000E+00 0. -1.
</event>
<event>
 7    1  0.3014423E-011  0.5052884E+02  0.7816164E-02  0.1300439E+00
        -11   -1    0    0    0    0  0.00000000000E+00  0.00000000000E+00  0.45593999997E+02  0.45594000000E+02  0.51100000000E-03 0.  1.
         11   -1    0    0    0    0 -0.00000000000E+00 -0.00000000000E+00 -0.45593999997E+02  0.45594000000E+02  0.51100000000E-03 0. -1.
    9900012    2    1    2    0    0  0.21806970978E+02  0.25857681305E+01 -0.34218957264E+02  0.50528840930E+02  0.29999942492E+02 0.  0.
        -12    1    1    2    0    0 -0.21806970978E+02 -0.25857681305E+01  0.34218957264E+02  0.40659159070E+02  0.00000000000E+00 0.  1.
         11    1    3    3    0    0  0.50297865599E+01  0.82423618822E+01 -0.45507011615E+00  0.96665594348E+01  0.51100000000E-03 0. -1.
        -11    1    3    3    0    0  0.39812157193E+01  0.45801882556E+01 -0.54925987276E+01  0.81851599925E+01  0.51100000000E-03 0.  1.
         12    1    3    3    0    0  0.12795968698E+02 -0.10236782007E+02 -0.28271288420E+02  0.32677121503E+02  0.00000000000E+00 0. -1.
</event>
<event>
 7    1  0.3014423E-011  0.5052885E+02  0.7816164E-02  0.1300439E+00
        -11   -1    0    0    0    0  0.00000000000E+00  0.00000000000E+00  0.45593999997E+02  0.45594000000E+02  0.51100000000E-03 0.  1.
         11   -1    0    0    0    0 -0.00000000000E+00 -0.00000000000E+00 -0.45593999997E+02  0.45594000000E+02  0.51100000000E-03 0. -1.
    9900012    2    1    2    0    0 -0.33088529711E+02 -0.17543162480E+02 -0.15828869303E+02  0.50528850333E+02  0.29999971071E+02 0.  0.
        -12    1    1    2    0    0  0.33088529711E+02  0.17543162480E+02  0.15828869303E+02  0.40659149667E+02  0.00000000000E+00 0.  1.
         11    1    3    3    0    0 -0.12876323608E+02 -0.91414789658E+01 -0.16954746768E+02  0.23169587513E+02  0.51100000000E-03 0. -1.
        -11    1    3    3    0    0 -0.14292760833E+02 -0.46793007680E+01 -0.70426438061E+01  0.16606555933E+02  0.51100000000E-03 0.  1.
        -12    1    3    3    0    0 -0.59194452707E+01 -0.37223827466E+01  0.81685212710E+01  0.10752706886E+02  0.00000000000E+00 0.  1.
</event>
<event>
 7    1  0.3014423E-011  0.5052886E+02  0.7816164E-02  0.1300439E+00
        -11   -1    0    0    0    0  0.00000000000E+00  0.00000000000E+00  0.45593999997E+02  0.45594000000E+02  0.51100000000E-03 0.  1.
         11   -1    0    0    0    0 -0.00000000000E+00 -0.00000000000E+00 -0.45593999997E+02  0.45594000000E+02  0.51100000000E-03 0. -1.
    9900012    2    1    2    0    0 -0.37362078815E+01 -0.34530985565E+02 -0.21138050882E+02  0.50528863161E+02  0.30000010064E+02 0.  0.
        -12    1    1    2    0    0  0.37362078815E+01  0.34530985565E+02  0.21138050882E+02  0.40659136839E+02  0.00000000000E+00 0.  1.
         11    1    3    3    0    0 -0.42788230239E+01 -0.28793100788E+02 -0.12405659562E+02  0.31642556295E+02  0.51100000000E-03 0. -1.
        -11    1    3    3    0    0  0.28753241088E+01 -0.10785418084E+02 -0.62976380401E+01  0.12816121766E+02  0.51100000000E-03 0.  1.
         12    1    3    3    0    0 -0.23327089664E+01  0.50475333074E+01 -0.24347532803E+01  0.60701850999E+01  0.00000000000E+00 0. -1.
</event>
<event>
 7    1  0.3014423E-011  0.5052885E+02  0.7816164E-02  0.1300439E+00
        -11   -1    0    0    0    0  0.00000000000E+00  0.00000000000E+00  0.45593999997E+02  0.45594000000E+02  0.51100000000E-03 0. -1.
         11   -1    0    0    0    0 -0.00000000000E+00 -0.00000000000E+00 -0.45593999997E+02  0.45594000000E+02  0.51100000000E-03 0.  1.
    9900012    2    1    2    0    0  0.33390693929E+02  0.18058754886E+02  0.14563982844E+02  0.50528847705E+02  0.29999963084E+02 0.  0.
        -12    1    1    2    0    0 -0.33390693929E+02 -0.18058754886E+02 -0.14563982844E+02  0.40659152295E+02  0.00000000000E+00 0.  1.
         11    1    3    3    0    0  0.12164274298E+02  0.23348113703E+01  0.10318353341E+02  0.16121083378E+02  0.51100000000E-03 0. -1.
        -11    1    3    3    0    0  0.20898983337E+02  0.10327807998E+02  0.10983250215E+02  0.25769418079E+02  0.51100000000E-03 0.  1.
        -12    1    3    3    0    0  0.32743629326E+00  0.53961355181E+01 -0.67376207119E+01  0.86383462488E+01  0.00000000000E+00 0.  1.
</event>
<event>
 7    1  0.3014423E-011  0.5052886E+02  0.7816164E-02  0.1300439E+00
        -11   -1    0    0    0    0  0.00000000000E+00  0.00000000000E+00  0.45593999997E+02  0.45594000000E+02  0.51100000000E-03 0.  1.
         11   -1    0    0    0    0 -0.00000000000E+00 -0.00000000000E+00 -0.45593999997E+02  0.45594000000E+02  0.51100000000E-03 0. -1.
    9900012    2    1    2    0    0  0.23371762440E+02 -0.26308824886E+02 -0.20365962894E+02  0.50528855997E+02  0.29999988289E+02 0.  0.
        -12    1    1    2    0    0 -0.23371762440E+02  0.26308824886E+02  0.20365962894E+02  0.40659144003E+02  0.00000000000E+00 0.  1.
         11    1    3    3    0    0 -0.36964191413E+01 -0.66676453248E+01 -0.82373491473E-01  0.76241585961E+01  0.51100000000E-03 0. -1.
        -11    1    3    3    0    0 -0.17921430084E+01  0.49828717684E+00 -0.33913663801E+01  0.38680011451E+01  0.51100000000E-03 0.  1.
         12    1    3    3    0    0  0.28860324590E+02 -0.20139466738E+02 -0.16892223023E+02  0.39036696256E+02  0.00000000000E+00 0. -1.
</event>
<event>
 7    1  0.3014423E-011  0.5052884E+02  0.7816164E-02  0.1300439E+00
        -11   -1    0    0    0    0  0.00000000000E+00  0.00000000000E+00  0.45593999997E+02  0.45594000000E+02  0.51100000000E-03 0.  1.
         11   -1    0    0    0    0 -0.00000000000E+00 -0.00000000000E+00 -0.45593999997E+02  0.45594000000E+02  0.51100000000E-03 0. -1.
    9900012    2    1    2    0    0  0.20104440300E+02  0.29415173095E+02 -0.19588932602E+02  0.50528841026E+02  0.29999942783E+02 0.  0.
        -12    1    1    2    0    0 -0.20104440300E+02 -0.29415173095E+02  0.19588932602E+02  0.40659158974E+02  0.00000000000E+00 0.  1.
         11    1    3    3    0    0  0.70954352845E+01 -0.77423654643E+00  0.65571368178E+00  0.71676080249E+01  0.51100000000E-03 0.  1.
        -11    1    3    3    0    0  0.99020310324E+01  0.29120471141E+01 -0.89990839905E+01  0.13693566003E+02  0.51100000000E-03 0. -1.
         12    1    3    3    0    0  0.31069739830E+01  0.27277362528E+02 -0.11245562293E+02  0.29667666998E+02  0.00000000000E+00 0. -1.
</event>
<event>
 7    1  0.3014423E-011  0.5052886E+02  0.7816164E-02  0.1300439E+00
        -11   -1    0    0    0    0  0.00000000000E+00  0.00000000000E+00  0.45593999997E+02  0.45594000000E+02  0.51100000000E-03 0.  1.
         11   -1    0    0    0    0 -0.00000000000E+00 -0.00000000000E+00 -0.45593999997E+02  0.45594000000E+02  0.51100000000E-03 0. -1.
    9900012    2    1    2    0    0  0.12971757008E+02  0.17145196219E+02 -0.34510019696E+02  0.50528859666E+02  0.29999999441E+02 0.  0.
        -12    1    1    2    0    0 -0.12971757008E+02 -0.17145196219E+02  0.34510019696E+02  0.40659140334E+02  0.00000000000E+00 0.  1.
         11    1    3    3    0    0  0.22565353221E+01  0.16522529770E+02 -0.38738438200E+01  0.17119947660E+02  0.51100000000E-03 0. -1.
        -11    1    3    3    0    0  0.29851602283E+01  0.25580933646E+01 -0.40089359831E+01  0.56148545153E+01  0.51100000000E-03 0.  1.
        -12    1    3    3    0    0  0.77300614572E+01 -0.19354269160E+01 -0.26627239893E+02  0.27794057491E+02  0.00000000000E+00 0.  1.
</event>
<event>
 7    1  0.3014423E-011  0.5052886E+02  0.7816164E-02  0.1300439E+00
        -11   -1    0    0    0    0  0.00000000000E+00  0.00000000000E+00  0.45593999997E+02  0.45594000000E+02  0.51100000000E-03 0. -1.
         11   -1    0    0    0    0 -0.00000000000E+00 -0.00000000000E+00 -0.45593999997E+02  0.45594000000E+02  0.51100000000E-03 0.  1.
    9900012    2    1    2    0    0 -0.43270974613E+01 -0.36339561910E+02  0.17716601890E+02  0.50528861854E+02  0.30000006091E+02 0.  0.
        -12    1    1    2    0    0  0.43270974613E+01  0.36339561910E+02 -0.17716601890E+02  0.40659138146E+02  0.00000000000E+00 0.  1.
         11    1    3    3    0    0  0.11188066185E+01 -0.17450145069E+01 -0.47098475684E+01  0.51458204649E+01  0.51100000000E-03 0. -1.
        -11    1    3    3    0    0  0.61306451587E+01 -0.58827758695E+01  0.47469220362E+01  0.97326836521E+01  0.51100000000E-03 0.  1.
         12    1    3    3    0    0 -0.11576549238E+02 -0.28711771534E+02  0.17679527423E+02  0.35650357737E+02  0.00000000000E+00 0. -1.
</event>
<event>
 7    1  0.3044260E-011  0.5052886E+02  0.7816164E-02  0.1300439E+00
        -11   -1    0    0    0    0  0.00000000000E+00  0.00000000000E+00  0.45593999997E+02  0.45594000000E+02  0.51100000000E-03 0. -1.
         11   -1    0    0    0    0 -0.00000000000E+00 -0.00000000000E+00 -0.45593999997E+02  0.45594000000E+02  0.51100000000E-03 0.  1.
    9900012    2    1    2    0    0  0.32776105941E+01 -0.32629872186E+02  0.24035697327E+02  0.50528855444E+02  0.29999986607E+02 0.  0.
        -12    1    1    2    0    0 -0.32776105941E+01  0.32629872186E+02 -0.24035697327E+02  0.40659144556E+02  0.00000000000E+00 0.  1.
         11    1    3    3    0    0 -0.22329691849E+00 -0.22278015913E+02  0.80929165235E+01  0.23703483977E+02  0.51100000000E-03 0. -1.
        -11    1    3    3    0    0  0.52050375551E+01 -0.25418515062E+00 -0.24619541225E+01  0.57635270801E+01  0.51100000000E-03 0.  1.
         12    1    3    3    0    0 -0.17041300425E+01 -0.10097671122E+02  0.18404734926E+02  0.21061844387E+02  0.00000000000E+00 0. -1.
</event>
<event>
 7    1  0.3014423E-011  0.5052886E+02  0.7816164E-02  0.1300439E+00
        -11   -1    0    0    0    0  0.00000000000E+00  0.00000000000E+00  0.45593999997E+02  0.45594000000E+02  0.51100000000E-03 0.  1.
         11   -1    0    0    0    0 -0.00000000000E+00 -0.00000000000E+00 -0.45593999997E+02  0.45594000000E+02  0.51100000000E-03 0. -1.
    9900012    2    1    2    0    0  0.34349581892E+02 -0.83898678872E+01 -0.20071925419E+02  0.50528857740E+02  0.29999993586E+02 0.  0.
        -12    1    1    2    0    0 -0.34349581892E+02  0.83898678872E+01  0.20071925419E+02  0.40659142260E+02  0.00000000000E+00 0.  1.
         11    1    3    3    0    0  0.66054145381E+01 -0.44132258483E+01 -0.76636435946E+01  0.11038092997E+02  0.51100000000E-03 0. -1.
        -11    1    3    3    0    0  0.42083832472E+01  0.17695370335E+01 -0.14472909172E+02  0.15175864095E+02  0.51100000000E-03 0.  1.
        -12    1    3    3    0    0  0.23535784106E+02 -0.57461790724E+01  0.20646273472E+01  0.24314900648E+02  0.00000000000E+00 0.  1.
</event>
<event>
 7    1  0.3014423E-011  0.5052887E+02  0.7816164E-02  0.1300439E+00
        -11   -1    0    0    0    0  0.00000000000E+00  0.00000000000E+00  0.45593999997E+02  0.45594000000E+02  0.51100000000E-03 0.  1.
         11   -1    0    0    0    0 -0.00000000000E+00 -0.00000000000E+00 -0.45593999997E+02  0.45594000000E+02  0.51100000000E-03 0. -1.
    9900012    2    1    2    0    0  0.37195584161E+02  0.11936799206E+02 -0.11276801728E+02  0.50528869247E+02  0.30000028563E+02 0.  0.
        -12    1    1    2    0    0 -0.37195584161E+02 -0.11936799206E+02  0.11276801728E+02  0.40659130753E+02  0.00000000000E+00 0.  1.
         11    1    3    3    0    0  0.11095290638E+02  0.66281477280E+01 -0.31558511929E+01  0.13304029978E+02  0.51100000000E-03 0. -1.
        -11    1    3    3    0    0  0.57502665756E+01  0.12076462943E+02 -0.83679939837E+01  0.15777510782E+02  0.51100000000E-03 0.  1.
        -12    1    3    3    0    0  0.20350026948E+02 -0.67678114642E+01  0.24704344824E+00  0.21447328488E+02  0.00000000000E+00 0.  1.
</event>
<event>
 7    1  0.3014423E-011  0.5052886E+02  0.7816164E-02  0.1300439E+00
        -11   -1    0    0    0    0  0.00000000000E+00  0.00000000000E+00  0.45593999997E+02  0.45594000000E+02  0.51100000000E-03 0.  1.
         11   -1    0    0    0    0 -0.00000000000E+00 -0.00000000000E+00 -0.45593999997E+02  0.45594000000E+02  0.51100000000E-03 0. -1.
    9900012    2    1    2    0    0  0.13532735969E+02  0.77291860483E+01 -0.37553837132E+02  0.50528856586E+02  0.29999990080E+02 0.  0.
        -12    1    1    2    0    0 -0.13532735969E+02 -0.77291860483E+01  0.37553837132E+02  0.40659143414E+02  0.00000000000E+00 0.  1.
         11    1    3    3    0    0 -0.91160137130E+00  0.71654405817E+01 -0.14235456524E+02  0.15963169437E+02  0.51100000000E-03 0. -1.
        -11    1    3    3    0    0 -0.23766492458E+01  0.69423194510E+01 -0.49255187878E+01  0.88377031285E+01  0.51100000000E-03 0.  1.
         12    1    3    3    0    0  0.16820986586E+02 -0.63785739844E+01 -0.18392861821E+02  0.25727984020E+02  0.00000000000E+00 0. -1.
</event>
<event>
 7    1  0.3014423E-011  0.5052886E+02  0.7816164E-02  0.1300439E+00
        -11   -1    0    0    0    0  0.00000000000E+00  0.00000000000E+00  0.45593999997E+02  0.45594000000E+02  0.51100000000E-03 0.  1.
         11   -1    0    0    0    0 -0.00000000000E+00 -0.00000000000E+00 -0.45593999997E+02  0.45594000000E+02  0.51100000000E-03 0. -1.
    9900012    2    1    2    0    0  0.12969449500E+02  0.11917492713E+02 -0.36646044294E+02  0.50528858158E+02  0.29999994858E+02 0.  0.
        -12    1    1    2    0    0 -0.12969449500E+02 -0.11917492713E+02  0.36646044294E+02  0.40659141842E+02  0.00000000000E+00 0.  1.
         11    1    3    3    0    0  0.70870951622E+01  0.57429150516E+01 -0.21537535212E+02  0.23389600561E+02  0.51100000000E-03 0. -1.
        -11    1    3    3    0    0  0.19338643340E+01  0.13002835263E+02 -0.44480452496E+01  0.13877992035E+02  0.51100000000E-03 0.  1.
         12    1    3    3    0    0  0.39484900035E+01 -0.68282576012E+01 -0.10660463833E+02  0.13261265562E+02  0.00000000000E+00 0. -1.
</event>
<event>
 7    1  0.3014423E-011  0.5052885E+02  0.7816164E-02  0.1300439E+00
        -11   -1    0    0    0    0  0.00000000000E+00  0.00000000000E+00  0.45593999997E+02  0.45594000000E+02  0.51100000000E-03 0.  1.
         11   -1    0    0    0    0 -0.00000000000E+00 -0.00000000000E+00 -0.45593999997E+02  0.45594000000E+02  0.51100000000E-03 0. -1.
    9900012    2    1    2    0    0 -0.23048457376E+02 -0.27942427457E+02 -0.18470415206E+02  0.50528845097E+02  0.29999955156E+02 0.  0.
        -12    1    1    2    0    0  0.23048457376E+02  0.27942427457E+02  0.18470415206E+02  0.40659154903E+02  0.00000000000E+00 0.  1.
         11    1    3    3    0    0 -0.17668357706E+02 -0.18243109178E+02 -0.47521706076E+01  0.25837279699E+02  0.51100000000E-03 0. -1.
        -11    1    3    3    0    0 -0.10749763961E+02 -0.87470101639E+01 -0.56792442506E+01  0.14977363839E+02  0.51100000000E-03 0.  1.
        -12    1    3    3    0    0  0.53696642912E+01 -0.95230811433E+00 -0.80390003475E+01  0.97142015591E+01  0.00000000000E+00 0.  1.
</event>
<event>
 7    1  0.3014423E-011  0.5052886E+02  0.7816164E-02  0.1300439E+00
        -11   -1    0    0    0    0  0.00000000000E+00  0.00000000000E+00  0.45593999997E+02  0.45594000000E+02  0.51100000000E-03 0.  1.
         11   -1    0    0    0    0 -0.00000000000E+00 -0.00000000000E+00 -0.45593999997E+02  0.45594000000E+02  0.51100000000E-03 0. -1.
    9900012    2    1    2    0    0  0.38355389773E+02  0.33359858296E+01  0.13072917845E+02  0.50528857029E+02  0.29999991426E+02 0.  0.
        -12    1    1    2    0    0 -0.38355389773E+02 -0.33359858296E+01 -0.13072917845E+02  0.40659142971E+02  0.00000000000E+00 0.  1.
         11    1    3    3    0    0  0.24428293850E+02  0.12591604242E+02  0.68857875663E+01  0.28332033257E+02  0.51100000000E-03 0. -1.
        -11    1    3    3    0    0  0.28765481668E+01  0.34405892221E+01  0.12302532439E+01  0.46503448105E+01  0.51100000000E-03 0.  1.
        -12    1    3    3    0    0  0.11050547757E+02 -0.12696207635E+02  0.49568770348E+01  0.17546478962E+02  0.00000000000E+00 0.  1.
</event>
<event>
 7    1  0.3014423E-011  0.5052884E+02  0.7816164E-02  0.1300439E+00
        -11   -1    0    0    0    0  0.00000000000E+00  0.00000000000E+00  0.45593999997E+02  0.45594000000E+02  0.51100000000E-03 0.  1.
         11   -1    0    0    0    0 -0.00000000000E+00 -0.00000000000E+00 -0.45593999997E+02  0.45594000000E+02  0.51100000000E-03 0. -1.
    9900012    2    1    2    0    0  0.97762279850E+01  0.38740172326E+02 -0.75360084379E+01  0.50528843484E+02  0.29999950254E+02 0.  0.
        -12    1    1    2    0    0 -0.97762279850E+01 -0.38740172326E+02  0.75360084379E+01  0.40659156516E+02  0.00000000000E+00 0.  1.
         11    1    3    3    0    0 -0.38524224695E-02  0.25509360193E+02 -0.74635874511E+01  0.26578800014E+02  0.51100000000E-03 0. -1.
        -11    1    3    3    0    0  0.43666094319E+01  0.16824842667E+02 -0.86631067760E+00  0.17403824383E+02  0.51100000000E-03 0.  1.
        -12    1    3    3    0    0  0.54134709756E+01 -0.35940305346E+01  0.79388969083E+00  0.65462190866E+01  0.00000000000E+00 0.  1.
</event>
<event>
 7    1  0.3014423E-011  0.5052887E+02  0.7816164E-02  0.1300439E+00
        -11   -1    0    0    0    0  0.00000000000E+00  0.00000000000E+00  0.45593999997E+02  0.45594000000E+02  0.51100000000E-03 0. -1.
         11   -1    0    0    0    0 -0.00000000000E+00 -0.00000000000E+00 -0.45593999997E+02  0.45594000000E+02  0.51100000000E-03 0.  1.
    9900012    2    1    2    0    0  0.18416683978E+02  0.32550147418E+02  0.15952394399E+02  0.50528865322E+02  0.30000016633E+02 0.  0.
        -12    1    1    2    0    0 -0.18416683978E+02 -0.32550147418E+02 -0.15952394399E+02  0.40659134678E+02  0.00000000000E+00 0.  1.
         11    1    3    3    0    0  0.13193716552E+02  0.22379898059E+02  0.16641464260E+02  0.30852428212E+02  0.51100000000E-03 0. -1.
        -11    1    3    3    0    0  0.27839745456E+01  0.13694510620E+02  0.26745047317E+01  0.14228250462E+02  0.51100000000E-03 0.  1.
        -12    1    3    3    0    0  0.24389928804E+01 -0.35242612612E+01 -0.33635745930E+01  0.54481866480E+01  0.00000000000E+00 0.  1.
</event>
<event>
 7    1  0.3014423E-011  0.5052888E+02  0.7816164E-02  0.1300439E+00
        -11   -1    0    0    0    0  0.00000000000E+00  0.00000000000E+00  0.45593999997E+02  0.45594000000E+02  0.51100000000E-03 0.  1.
         11   -1    0    0    0    0 -0.00000000000E+00 -0.00000000000E+00 -0.45593999997E+02  0.45594000000E+02  0.51100000000E-03 0. -1.
    9900012    2    1    2    0    0 -0.17251684019E+02 -0.31207830885E+02  0.19534969645E+02  0.50528876189E+02  0.30000049663E+02 0.  0.
        -12    1    1    2    0    0  0.17251684019E+02  0.31207830885E+02 -0.19534969645E+02  0.40659123811E+02  0.00000000000E+00 0.  1.
         11    1    3    3    0    0 -0.54116728171E+01 -0.18109407337E+02  0.19573012813E+02  0.27209183516E+02  0.51100000000E-03 0. -1.
        -11    1    3    3    0    0 -0.11955364524E+02 -0.31262206756E+01  0.33218672566E+01  0.12796046223E+02  0.51100000000E-03 0.  1.
        -12    1    3    3    0    0  0.11535332201E+00 -0.99722028726E+01 -0.33599104243E+01  0.10523646449E+02  0.00000000000E+00 0.  1.
</event>
<event>
 7    1  0.3014423E-011  0.5052886E+02  0.7816164E-02  0.1300439E+00
        -11   -1    0    0    0    0  0.00000000000E+00  0.00000000000E+00  0.45593999997E+02  0.45594000000E+02  0.51100000000E-03 0. -1.
         11   -1    0    0    0    0 -0.00000000000E+00 -0.00000000000E+00 -0.45593999997E+02  0.45594000000E+02  0.51100000000E-03 0.  1.
    9900012    2    1    2    0    0 -0.14753034358E+02  0.33875875167E+02 -0.16968757814E+02  0.50528859787E+02  0.29999999808E+02 0.  0.
        -12    1    1    2    0    0  0.14753034358E+02 -0.33875875167E+02  0.16968757814E+02  0.40659140213E+02  0.00000000000E+00 0.  1.
         11    1    3    3    0    0 -0.77592061934E+01  0.11295180770E+02 -0.17909433417E+02  0.22550702759E+02  0.51100000000E-03 0. -1.
        -11    1    3    3    0    0  0.12607724230E+01  0.24064883350E+01 -0.47302583807E+01  0.54549131815E+01  0.51100000000E-03 0.  1.
         12    1    3    3    0    0 -0.82546005873E+01  0.20174206062E+02  0.56709339833E+01  0.22523243846E+02  0.00000000000E+00 0. -1.
</event>
<event>
 7    1  0.3014423E-011  0.5052886E+02  0.7816164E-02  0.1300439E+00
        -11   -1    0    0    0    0  0.00000000000E+00  0.00000000000E+00  0.45593999997E+02  0.45594000000E+02  0.51100000000E-03 0. -1.
         11   -1    0    0    0    0 -0.00000000000E+00 -0.00000000000E+00 -0.45593999997E+02  0.45594000000E+02  0.51100000000E-03 0.  1.
    9900012    2    1    2    0    0  0.15530971600E+02  0.37214648710E+02  0.51985302409E+01  0.50528857435E+02  0.29999992659E+02 0.  0.
        -12    1    1    2    0    0 -0.15530971600E+02 -0.37214648710E+02 -0.51985302409E+01  0.40659142565E+02  0.00000000000E+00 0.  1.
         11    1    3    3    0    0  0.19965333295E+01  0.22066281479E-01  0.79104305040E+00  0.21476456005E+01  0.51100000000E-03 0.  1.
        -11    1    3    3    0    0  0.92763489694E+01  0.29083286747E+02  0.15302616078E+02  0.34147595483E+02  0.51100000000E-03 0. -1.
         12    1    3    3    0    0  0.42580893016E+01  0.81092956818E+01 -0.10895128888E+02  0.14233616351E+02  0.00000000000E+00 0. -1.
</event>
<event>
 7    1  0.3014423E-011  0.5052885E+02  0.7816164E-02  0.1300439E+00
        -11   -1    0    0    0    0  0.00000000000E+00  0.00000000000E+00  0.45593999997E+02  0.45594000000E+02  0.51100000000E-03 0.  1.
         11   -1    0    0    0    0 -0.00000000000E+00 -0.00000000000E+00 -0.45593999997E+02  0.45594000000E+02  0.51100000000E-03 0. -1.
    9900012    2    1    2    0    0  0.30273102926E+01  0.22367799227E+02 -0.33818387461E+02  0.50528851210E+02  0.29999973738E+02 0.  0.
        -12    1    1    2    0    0 -0.30273102926E+01 -0.22367799227E+02  0.33818387461E+02  0.40659148790E+02  0.00000000000E+00 0.  1.
         11    1    3    3    0    0  0.41848345662E+01  0.84251966424E+01 -0.34728522906E+01  0.10027835365E+02  0.51100000000E-03 0. -1.
        -11    1    3    3    0    0  0.10295813664E+02  0.78788776223E+01 -0.99764788384E+01  0.16358808693E+02  0.51100000000E-03 0.  1.
         12    1    3    3    0    0 -0.11453337937E+02  0.60637249624E+01 -0.20369056332E+02  0.24142207152E+02  0.00000000000E+00 0. -1.
</event>
<event>
 7    1  0.3014423E-011  0.5052886E+02  0.7816164E-02  0.1300439E+00
        -11   -1    0    0    0    0  0.00000000000E+00  0.00000000000E+00  0.45593999997E+02  0.45594000000E+02  0.51100000000E-03 0.  1.
         11   -1    0    0    0    0 -0.00000000000E+00 -0.00000000000E+00 -0.45593999997E+02  0.45594000000E+02  0.51100000000E-03 0. -1.
    9900012    2    1    2    0    0 -0.15162899555E+02 -0.15562420502E+01 -0.37693903054E+02  0.50528859088E+02  0.29999997685E+02 0.  0.
        -12    1    1    2    0    0  0.15162899555E+02  0.15562420502E+01  0.37693903054E+02  0.40659140912E+02  0.00000000000E+00 0.  1.
         11    1    3    3    0    0 -0.93207558161E+01  0.23745346196E+01 -0.88944388533E+01  0.13100608628E+02  0.51100000000E-03 0. -1.
        -11    1    3    3    0    0 -0.11750021269E+02  0.11319733939E+01 -0.58077557987E+01  0.13155774065E+02  0.51100000000E-03 0.  1.
         12    1    3    3    0    0  0.59078775297E+01 -0.50627500637E+01 -0.22991708402E+02  0.24272476395E+02  0.00000000000E+00 0. -1.
</event>
<event>
 7    1  0.3014423E-011  0.5052887E+02  0.7816164E-02  0.1300439E+00
        -11   -1    0    0    0    0  0.00000000000E+00  0.00000000000E+00  0.45593999997E+02  0.45594000000E+02  0.51100000000E-03 0. -1.
         11   -1    0    0    0    0 -0.00000000000E+00 -0.00000000000E+00 -0.45593999997E+02  0.45594000000E+02  0.51100000000E-03 0.  1.
    9900012    2    1    2    0    0  0.25774509351E+02 -0.30481717697E+02  0.77268584841E+01  0.50528870790E+02  0.30000033254E+02 0.  0.
        -12    1    1    2    0    0 -0.25774509351E+02  0.30481717697E+02 -0.77268584841E+01  0.40659129210E+02  0.00000000000E+00 0.  1.
         11    1    3    3    0    0  0.13434811086E+02 -0.13889452861E+02  0.80391739707E+01  0.20929390056E+02  0.51100000000E-03 0. -1.
        -11    1    3    3    0    0  0.63258190704E+01 -0.65356923849E+01  0.10334679321E+02  0.13767238605E+02  0.51100000000E-03 0.  1.
         12    1    3    3    0    0  0.60138791940E+01 -0.10056572451E+02 -0.10646994808E+02  0.15832242130E+02  0.00000000000E+00 0. -1.
</event>
<event>
 7    1  0.3014423E-011  0.5052886E+02  0.7816164E-02  0.1300439E+00
        -11   -1    0    0    0    0  0.00000000000E+00  0.00000000000E+00  0.45593999997E+02  0.45594000000E+02  0.51100000000E-03 0. -1.
         11   -1    0    0    0    0 -0.00000000000E+00 -0.00000000000E+00 -0.45593999997E+02  0.45594000000E+02  0.51100000000E-03 0.  1.
    9900012    2    1    2    0    0 -0.34405053278E+02  0.18600637141E+02 -0.11111910509E+02  0.50528856523E+02  0.29999989888E+02 0.  0.
        -12    1    1    2    0    0  0.34405053278E+02 -0.18600637141E+02  0.11111910509E+02  0.40659143477E+02  0.00000000000E+00 0.  1.
         11    1    3    3    0    0 -0.28913276524E+02  0.61870367600E+01  0.97465934260E+00  0.29583896706E+02  0.51100000000E-03 0. -1.
        -11    1    3    3    0    0 -0.81694597241E+01  0.61708073910E+01 -0.82133911268E+01  0.13125499232E+02  0.51100000000E-03 0.  1.
        -12    1    3    3    0    0  0.26776829702E+01  0.62427929903E+01 -0.38731787244E+01  0.78194605850E+01  0.00000000000E+00 0.  1.
</event>
<event>
 7    1  0.3014423E-011  0.5052886E+02  0.7816164E-02  0.1300439E+00
        -11   -1    0    0    0    0  0.00000000000E+00  0.00000000000E+00  0.45593999997E+02  0.45594000000E+02  0.51100000000E-03 0.  1.
         11   -1    0    0    0    0 -0.00000000000E+00 -0.00000000000E+00 -0.45593999997E+02  0.45594000000E+02  0.51100000000E-03 0. -1.
    9900012    2    1    2    0    0  0.20977694751E+02  0.34171062655E+02  0.67409684264E+01  0.50528857666E+02  0.29999993362E+02 0.  0.
        -12    1    1    2    0    0 -0.20977694751E+02 -0.34171062655E+02 -0.67409684264E+01  0.40659142334E+02  0.00000000000E+00 0.  1.
         11    1    3    3    0    0  0.98642808236E+01  0.91161813488E+01 -0.88993914514E+01  0.16112354484E+02  0.51100000000E-03 0. -1.
        -11    1    3    3    0    0 -0.97566788122E+00 -0.89847181801E+00  0.26772433329E+01  0.29877770243E+01  0.51100000000E-03 0.  1.
        -12    1    3    3    0    0  0.12089081809E+02  0.25953353124E+02  0.12963116545E+02  0.31428726158E+02  0.00000000000E+00 0.  1.
</event>
<event>
 7    1  0.3014423E-011  0.5052886E+02  0.7816164E-02  0.1300439E+00
        -11   -1    0    0    0    0  0.00000000000E+00  0.00000000000E+00  0.45593999997E+02  0.45594000000E+02  0.51100000000E-03 0. -1.
         11   -1    0    0    0    0 -0.00000000000E+00 -0.00000000000E+00 -0.45593999997E+02  0.45594000000E+02  0.51100000000E-03 0.  1.
    9900012    2    1    2    0    0 -0.17941734254E+02  0.31380211181E+02 -0.18615638009E+02  0.50528862524E+02  0.30000008128E+02 0.  0.
        -12    1    1    2    0    0  0.17941734254E+02 -0.31380211181E+02  0.18615638009E+02  0.40659137476E+02  0.00000000000E+00 0.  1.
         11    1    3    3    0    0 -0.89327446230E+00  0.42866106921E+01 -0.23917690361E+01  0.49893416273E+01  0.51100000000E-03 0. -1.
        -11    1    3    3    0    0 -0.66093549405E+01  0.15498079291E+02 -0.23015240521E+02  0.28523241943E+02  0.51100000000E-03 0.  1.
         12    1    3    3    0    0 -0.10439104851E+02  0.11595521198E+02  0.67913715479E+01  0.17016278954E+02  0.00000000000E+00 0. -1.
</event>
<event>
 7    1  0.3014423E-011  0.5052886E+02  0.7816164E-02  0.1300439E+00
        -11   -1    0    0    0    0  0.00000000000E+00  0.00000000000E+00  0.45593999997E+02  0.45594000000E+02  0.51100000000E-03 0.  1.
         11   -1    0    0    0    0 -0.00000000000E+00 -0.00000000000E+00 -0.45593999997E+02  0.45594000000E+02  0.51100000000E-03 0. -1.
    9900012    2    1    2    0    0 -0.39950569597E+02  0.73433574071E+01 -0.17868828092E+01  0.50528857617E+02  0.29999993212E+02 0.  0.
        -12    1    1    2    0    0  0.39950569597E+02 -0.73433574071E+01  0.17868828092E+01  0.40659142383E+02  0.00000000000E+00 0.  1.
         11    1    3    3    0    0 -0.93280417698E+01  0.37672452935E+01 -0.15660196744E+01  0.10181204165E+02  0.51100000000E-03 0. -1.
        -11    1    3    3    0    0 -0.34585926405E+02  0.57140810728E+01  0.24007200440E+01  0.35136882116E+02  0.51100000000E-03 0.  1.
        -12    1    3    3    0    0  0.39633985780E+01 -0.21379689592E+01 -0.26215831788E+01  0.52107713365E+01  0.00000000000E+00 0.  1.
</event>
<event>
 7    1  0.3014423E-011  0.5052886E+02  0.7816164E-02  0.1300439E+00
        -11   -1    0    0    0    0  0.00000000000E+00  0.00000000000E+00  0.45593999997E+02  0.45594000000E+02  0.51100000000E-03 0.  1.
         11   -1    0    0    0    0 -0.00000000000E+00 -0.00000000000E+00 -0.45593999997E+02  0.45594000000E+02  0.51100000000E-03 0. -1.
    9900012    2    1    2    0    0  0.35858564764E+02 -0.12000373477E+02 -0.14943888671E+02  0.50528862784E+02  0.30000008918E+02 0.  0.
        -12    1    1    2    0    0 -0.35858564764E+02  0.12000373477E+02  0.14943888671E+02  0.40659137216E+02  0.00000000000E+00 0.  1.
         11    1    3    3    0    0  0.27443158456E+02  0.30503838877E+01 -0.20376125455E+01  0.27687247119E+02  0.51100000000E-03 0. -1.
        -11    1    3    3    0    0  0.91954851790E+00  0.82232233353E+00 -0.43322040711E+00  0.13074645996E+01  0.51100000000E-03 0.  1.
        -12    1    3    3    0    0  0.74958577905E+01 -0.15873079698E+02 -0.12473055719E+02  0.21534151065E+02  0.00000000000E+00 0.  1.
</event>
<event>
 7    1  0.3014423E-011  0.5052886E+02  0.7816164E-02  0.1300439E+00
        -11   -1    0    0    0    0  0.00000000000E+00  0.00000000000E+00  0.45593999997E+02  0.45594000000E+02  0.51100000000E-03 0. -1.
         11   -1    0    0    0    0 -0.00000000000E+00 -0.00000000000E+00 -0.45593999997E+02  0.45594000000E+02  0.51100000000E-03 0.  1.
    9900012    2    1    2    0    0 -0.40200350077E+02  0.37724774454E+01  0.47818174968E+01  0.50528861901E+02  0.30000006234E+02 0.  0.
        -12    1    1    2    0    0  0.40200350077E+02 -0.37724774454E+01 -0.47818174968E+01  0.40659138099E+02  0.00000000000E+00 0.  1.
         11    1    3    3    0    0 -0.28665388366E+02  0.49559140614E+01  0.74784084731E+01  0.30036513911E+02  0.51100000000E-03 0. -1.
        -11    1    3    3    0    0 -0.89621718466E+01 -0.85206762893E+01 -0.29492475030E+01  0.12713005535E+02  0.51100000000E-03 0.  1.
         12    1    3    3    0    0 -0.25727898640E+01  0.73372396733E+01  0.25265652672E+00  0.77793424547E+01  0.00000000000E+00 0. -1.
</event>
<event>
 7    1  0.3014423E-011  0.5052885E+02  0.7816164E-02  0.1300439E+00
        -11   -1    0    0    0    0  0.00000000000E+00  0.00000000000E+00  0.45593999997E+02  0.45594000000E+02  0.51100000000E-03 0.  1.
         11   -1    0    0    0    0 -0.00000000000E+00 -0.00000000000E+00 -0.45593999997E+02  0.45594000000E+02  0.51100000000E-03 0. -1.
    9900012    2    1    2    0    0  0.35368904276E+02  0.24208363161E+01 -0.19908450147E+02  0.50528853115E+02  0.29999979530E+02 0.  0.
        -12    1    1    2    0    0 -0.35368904276E+02 -0.24208363161E+01  0.19908450147E+02  0.40659146885E+02  0.00000000000E+00 0.  1.
         11    1    3    3    0    0  0.12375443762E+02  0.12088205717E+02 -0.14859020195E+02  0.22804973299E+02  0.51100000000E-03 0. -1.
        -11    1    3    3    0    0  0.85396365524E+00 -0.33513752642E+00 -0.35329220483E+01  0.36500834986E+01  0.51100000000E-03 0.  1.
        -12    1    3    3    0    0  0.22139496859E+02 -0.93322318744E+01 -0.15165079032E+01  0.24073796318E+02  0.00000000000E+00 0.  1.
</event>
<event>
 7    1  0.3826599E-011  0.5052887E+02  0.7816164E-02  0.1300439E+00
        -11   -1    0    0    0    0  0.00000000000E+00  0.00000000000E+00  0.45593999997E+02  0.45594000000E+02  0.51100000000E-03 0. -1.
         11   -1    0    0    0    0 -0.00000000000E+00 -0.00000000000E+00 -0.45593999997E+02  0.45594000000E+02  0.51100000000E-03 0.  1.
    9900012    2    1    2    0    0  0.23372421152E+02 -0.32889870696E+02 -0.50151167344E+01  0.50528867437E+02  0.30000023062E+02 0.  0.
        -12    1    1    2    0    0 -0.23372421152E+02  0.32889870696E+02  0.50151167344E+01  0.40659132563E+02  0.00000000000E+00 0.  1.
         11    1    3    3    0    0  0.84275275090E+01 -0.18374222230E+02  0.24012626756E+01  0.20356849589E+02  0.51100000000E-03 0. -1.
        -11    1    3    3    0    0 -0.27050449212E+01 -0.23655520661E+01  0.44168942025E+01  0.56940371671E+01  0.51100000000E-03 0.  1.
         12    1    3    3    0    0  0.17649938564E+02 -0.12150096400E+02 -0.11833273613E+02  0.24477980681E+02  0.00000000000E+00 0. -1.
</event>
<event>
 7    1  0.3014423E-011  0.5052886E+02  0.7816164E-02  0.1300439E+00
        -11   -1    0    0    0    0  0.00000000000E+00  0.00000000000E+00  0.45593999997E+02  0.45594000000E+02  0.51100000000E-03 0.  1.
         11   -1    0    0    0    0 -0.00000000000E+00 -0.00000000000E+00 -0.45593999997E+02  0.45594000000E+02  0.51100000000E-03 0. -1.
    9900012    2    1    2    0    0  0.89119269525E+01 -0.14984623434E+02 -0.36731516937E+02  0.50528859355E+02  0.29999998497E+02 0.  0.
        -12    1    1    2    0    0 -0.89119269525E+01  0.14984623434E+02  0.36731516937E+02  0.40659140645E+02  0.00000000000E+00 0.  1.
         11    1    3    3    0    0  0.37105180479E+01 -0.26794650099E+01 -0.18175023384E+02  0.18742437200E+02  0.51100000000E-03 0. -1.
        -11    1    3    3    0    0  0.51321178382E+01  0.51192272394E+01 -0.10063219447E+02  0.12402157350E+02  0.51100000000E-03 0.  1.
         12    1    3    3    0    0  0.69291066454E-01 -0.17424385664E+02 -0.84932741060E+01  0.19384264806E+02  0.00000000000E+00 0. -1.
</event>
<event>
 7    1  0.3014423E-011  0.5052886E+02  0.7816164E-02  0.1300439E+00
        -11   -1    0    0    0    0  0.00000000000E+00  0.00000000000E+00  0.45593999997E+02  0.45594000000E+02  0.51100000000E-03 0.  1.
         11   -1    0    0    0    0 -0.00000000000E+00 -0.00000000000E+00 -0.45593999997E+02  0.45594000000E+02  0.51100000000E-03 0. -1.
    9900012    2    1    2    0    0  0.38165824500E+02 -0.10397052363E+02  0.94040726653E+01  0.50528862770E+02  0.30000008875E+02 0.  0.
        -12    1    1    2    0    0 -0.38165824500E+02  0.10397052363E+02 -0.94040726653E+01  0.40659137230E+02  0.00000000000E+00 0.  1.
         11    1    3    3    0    0  0.14483776670E+02  0.74770344969E+01  0.14601785809E+01  0.16365144461E+02  0.51100000000E-03 0. -1.
        -11    1    3    3    0    0  0.48856468201E+01 -0.23028718029E+01  0.81229112713E+01  0.97547143051E+01  0.51100000000E-03 0.  1.
        -12    1    3    3    0    0  0.18796401010E+02 -0.15571215057E+02 -0.17901718691E+00  0.24409004003E+02  0.00000000000E+00 0.  1.
</event>
<event>
 7    1  0.3014423E-011  0.5052885E+02  0.7816164E-02  0.1300439E+00
        -11   -1    0    0    0    0  0.00000000000E+00  0.00000000000E+00  0.45593999997E+02  0.45594000000E+02  0.51100000000E-03 0. -1.
         11   -1    0    0    0    0 -0.00000000000E+00 -0.00000000000E+00 -0.45593999997E+02  0.45594000000E+02  0.51100000000E-03 0.  1.
    9900012    2    1    2    0    0  0.33626505222E+02  0.22655460297E+02  0.30256439137E+01  0.50528852741E+02  0.29999978391E+02 0.  0.
        -12    1    1    2    0    0 -0.33626505222E+02 -0.22655460297E+02 -0.30256439137E+01  0.40659147259E+02  0.00000000000E+00 0.  1.
         11    1    3    3    0    0  0.66211961395E+01  0.94261373292E+01  0.64473732405E+00  0.11537243594E+02  0.51100000000E-03 0. -1.
        -11    1    3    3    0    0  0.20898943790E+01  0.11819448310E+02 -0.49476057578E+01  0.12982519781E+02  0.51100000000E-03 0.  1.
         12    1    3    3    0    0  0.24915414704E+02  0.14098746579E+01  0.73285123474E+01  0.26009089366E+02  0.00000000000E+00 0. -1.
</event>
<event>
 7    1  0.3014423E-011  0.5052887E+02  0.7816164E-02  0.1300439E+00
        -11   -1    0    0    0    0  0.00000000000E+00  0.00000000000E+00  0.45593999997E+02  0.45594000000E+02  0.51100000000E-03 0.  1.
         11   -1    0    0    0    0 -0.00000000000E+00 -0.00000000000E+00 -0.45593999997E+02  0.45594000000E+02  0.51100000000E-03 0. -1.
    9900012    2    1    2    0    0  0.14264462853E+02  0.36318737918E+02  0.11429739266E+02  0.50528873544E+02  0.30000041625E+02 0.  0.
        -12    1    1    2    0    0 -0.14264462853E+02 -0.36318737918E+02 -0.11429739266E+02  0.40659126456E+02  0.00000000000E+00 0.  1.
         11    1    3    3    0    0  0.94768130083E+01  0.21768326398E+02  0.34410384640E+01  0.23989805437E+02  0.51100000000E-03 0. -1.
        -11    1    3    3    0    0  0.12394165692E+02  0.12072412575E+02  0.51888630160E+01  0.18063299484E+02  0.51100000000E-03 0.  1.
        -12    1    3    3    0    0 -0.76065158480E+01  0.24779989460E+01  0.27998377859E+01  0.84757686230E+01  0.00000000000E+00 0.  1.
</event>
<event>
 7    1  0.3014423E-011  0.5052887E+02  0.7816164E-02  0.1300439E+00
        -11   -1    0    0    0    0  0.00000000000E+00  0.00000000000E+00  0.45593999997E+02  0.45594000000E+02  0.51100000000E-03 0.  1.
         11   -1    0    0    0    0 -0.00000000000E+00 -0.00000000000E+00 -0.45593999997E+02  0.45594000000E+02  0.51100000000E-03 0. -1.
    9900012    2    1    2    0    0  0.41424505900E+01  0.11320317523E+02 -0.38831111135E+02  0.50528872148E+02  0.30000037382E+02 0.  0.
        -12    1    1    2    0    0 -0.41424505900E+01 -0.11320317523E+02  0.38831111135E+02  0.40659127852E+02  0.00000000000E+00 0.  1.
         11    1    3    3    0    0  0.58918767298E+01  0.27097861824E+01 -0.26809782949E+02  0.27582995026E+02  0.51100000000E-03 0. -1.
        -11    1    3    3    0    0  0.69419774900E+01  0.27481466332E+01 -0.67334299708E+00  0.74964493223E+01  0.51100000000E-03 0.  1.
         12    1    3    3    0    0 -0.86914036298E+01  0.58623847069E+01 -0.11347985188E+02  0.15449427800E+02  0.00000000000E+00 0. -1.
</event>
<event>
 7    1  0.3014423E-011  0.5052885E+02  0.7816164E-02  0.1300439E+00
        -11   -1    0    0    0    0  0.00000000000E+00  0.00000000000E+00  0.45593999997E+02  0.45594000000E+02  0.51100000000E-03 0.  1.
         11   -1    0    0    0    0 -0.00000000000E+00 -0.00000000000E+00 -0.45593999997E+02  0.45594000000E+02  0.51100000000E-03 0. -1.
    9900012    2    1    2    0    0 -0.12393840276E+02  0.18231808652E+02 -0.34163734551E+02  0.50528845041E+02  0.29999954986E+02 0.  0.
        -12    1    1    2    0    0  0.12393840276E+02 -0.18231808652E+02  0.34163734551E+02  0.40659154959E+02  0.00000000000E+00 0.  1.
         11    1    3    3    0    0 -0.33369751851E+01  0.96299212555E+01 -0.20928319953E+02  0.23278001699E+02  0.51100000000E-03 0. -1.
        -11    1    3    3    0    0  0.27306341444E+01  0.10941452658E+02 -0.92636774324E+01  0.14594090206E+02  0.51100000000E-03 0.  1.
        -12    1    3    3    0    0 -0.11787499236E+02 -0.23395652618E+01 -0.39717371661E+01  0.12656753137E+02  0.00000000000E+00 0.  1.
</event>
<event>
 7    1  0.3014423E-011  0.5052887E+02  0.7816164E-02  0.1300439E+00
        -11   -1    0    0    0    0  0.00000000000E+00  0.00000000000E+00  0.45593999997E+02  0.45594000000E+02  0.51100000000E-03 0.  1.
         11   -1    0    0    0    0 -0.00000000000E+00 -0.00000000000E+00 -0.45593999997E+02  0.45594000000E+02  0.51100000000E-03 0. -1.
    9900012    2    1    2    0    0  0.60568871560E+01 -0.20283827070E+02 -0.34713760987E+02  0.50528871572E+02  0.30000035631E+02 0.  0.
        -12    1    1    2    0    0 -0.60568871560E+01  0.20283827070E+02  0.34713760987E+02  0.40659128428E+02  0.00000000000E+00 0.  1.
         11    1    3    3    0    0  0.29377586913E+01 -0.40632934234E+01 -0.17680198979E+02  0.18377437683E+02  0.51100000000E-03 0. -1.
        -11    1    3    3    0    0 -0.35280456767E+01 -0.52130471454E+01 -0.18182601986E+02  0.19241361233E+02  0.51100000000E-03 0.  1.
         12    1    3    3    0    0  0.66471741414E+01 -0.11007486501E+02  0.11490399784E+01  0.12910072657E+02  0.00000000000E+00 0. -1.
</event>
<event>
 7    1  0.3014423E-011  0.5052886E+02  0.7816164E-02  0.1300439E+00
        -11   -1    0    0    0    0  0.00000000000E+00  0.00000000000E+00  0.45593999997E+02  0.45594000000E+02  0.51100000000E-03 0.  1.
         11   -1    0    0    0    0 -0.00000000000E+00 -0.00000000000E+00 -0.45593999997E+02  0.45594000000E+02  0.51100000000E-03 0. -1.
    9900012    2    1    2    0    0  0.69475470227E+01  0.39656215423E+02  0.56816996773E+01  0.50528861513E+02  0.30000005053E+02 0.  0.
        -12    1    1    2    0    0 -0.69475470227E+01 -0.39656215423E+02 -0.56816996773E+01  0.40659138487E+02  0.00000000000E+00 0.  1.
         11    1    3    3    0    0 -0.26842344218E+00 -0.12171683946E+01  0.29863384731E+01  0.32360110911E+01  0.51100000000E-03 0. -1.
        -11    1    3    3    0    0 -0.34700664879E+01 -0.12952316101E+01  0.48070455604E+00  0.37349783782E+01  0.51100000000E-03 0.  1.
         12    1    3    3    0    0  0.10686036953E+02  0.42168615428E+02  0.22146566482E+01  0.43557872043E+02  0.00000000000E+00 0. -1.
</event>
<event>
 7    1  0.3014423E-011  0.5052885E+02  0.7816164E-02  0.1300439E+00
        -11   -1    0    0    0    0  0.00000000000E+00  0.00000000000E+00  0.45593999997E+02  0.45594000000E+02  0.51100000000E-03 0.  1.
         11   -1    0    0    0    0 -0.00000000000E+00 -0.00000000000E+00 -0.45593999997E+02  0.45594000000E+02  0.51100000000E-03 0. -1.
    9900012    2    1    2    0    0  0.52271511165E+01 -0.40253321166E+02  0.23480135788E+01  0.50528854148E+02  0.29999982668E+02 0.  0.
        -12    1    1    2    0    0 -0.52271511165E+01  0.40253321166E+02 -0.23480135788E+01  0.40659145852E+02  0.00000000000E+00 0.  1.
         11    1    3    3    0    0  0.91262534125E+01 -0.13827359470E+02 -0.90782721179E+01  0.18891781180E+02  0.51100000000E-03 0. -1.
        -11    1    3    3    0    0  0.92439015087E-01 -0.24001406095E+02  0.65373189216E+01  0.24875943770E+02  0.51100000000E-03 0.  1.
        -12    1    3    3    0    0 -0.39915413110E+01 -0.24245556010E+01  0.48889667751E+01  0.67611291977E+01  0.00000000000E+00 0.  1.
</event>
<event>
 7    1  0.3014423E-011  0.5052885E+02  0.7816164E-02  0.1300439E+00
        -11   -1    0    0    0    0  0.00000000000E+00  0.00000000000E+00  0.45593999997E+02  0.45594000000E+02  0.51100000000E-03 0.  1.
         11   -1    0    0    0    0 -0.00000000000E+00 -0.00000000000E+00 -0.45593999997E+02  0.45594000000E+02  0.51100000000E-03 0. -1.
    9900012    2    1    2    0    0  0.40863001643E+01  0.23828311040E+02 -0.32690669201E+02  0.50528854548E+02  0.29999983885E+02 0.  0.
        -12    1    1    2    0    0 -0.40863001643E+01 -0.23828311040E+02  0.32690669201E+02  0.40659145452E+02  0.00000000000E+00 0.  1.
         11    1    3    3    0    0 -0.18376866919E+01  0.44034446505E+00 -0.15002209117E+02  0.15120756406E+02  0.51100000000E-03 0. -1.
        -11    1    3    3    0    0 -0.51809731604E+01  0.97701598325E+01 -0.88353454379E+00  0.11094103821E+02  0.51100000000E-03 0.  1.
         12    1    3    3    0    0  0.11104960017E+02  0.13617806743E+02 -0.16804925540E+02  0.24313994321E+02  0.00000000000E+00 0. -1.
</event>
<event>
 7    1  0.3014423E-011  0.5052886E+02  0.7816164E-02  0.1300439E+00
        -11   -1    0    0    0    0  0.00000000000E+00  0.00000000000E+00  0.45593999997E+02  0.45594000000E+02  0.51100000000E-03 0.  1.
         11   -1    0    0    0    0 -0.00000000000E+00 -0.00000000000E+00 -0.45593999997E+02  0.45594000000E+02  0.51100000000E-03 0. -1.
    9900012    2    1    2    0    0  0.20430196694E+02 -0.48336233629E+01 -0.34819659272E+02  0.50528861746E+02  0.30000005762E+02 0.  0.
        -12    1    1    2    0    0 -0.20430196694E+02  0.48336233629E+01  0.34819659272E+02  0.40659138254E+02  0.00000000000E+00 0.  1.
         11    1    3    3    0    0  0.11243499211E+02  0.83193637109E+01 -0.27878360492E+02  0.31190239996E+02  0.51100000000E-03 0. -1.
        -11    1    3    3    0    0 -0.34199424568E+00 -0.31012774016E+01 -0.41793656989E+01  0.52155516959E+01  0.51100000000E-03 0.  1.
        -12    1    3    3    0    0  0.95286917283E+01 -0.10051709672E+02 -0.27619330813E+01  0.14123070053E+02  0.00000000000E+00 0.  1.
</event>
<event>
 7    1  0.3014423E-011  0.5052886E+02  0.7816164E-02  0.1300439E+00
        -11   -1    0    0    0    0  0.00000000000E+00  0.00000000000E+00  0.45593999997E+02  0.45594000000E+02  0.51100000000E-03 0. -1.
         11   -1    0    0    0    0 -0.00000000000E+00 -0.00000000000E+00 -0.45593999997E+02  0.45594000000E+02  0.51100000000E-03 0.  1.
    9900012    2    1    2    0    0  0.10230521144E+02 -0.28678540362E+02  0.26945192165E+02  0.50528860548E+02  0.30000002122E+02 0.  0.
        -12    1    1    2    0    0 -0.10230521144E+02  0.28678540362E+02 -0.26945192165E+02  0.40659139452E+02  0.00000000000E+00 0.  1.
         11    1    3    3    0    0 -0.11533229743E+01 -0.13431355958E+02  0.52688637512E+01  0.14473852364E+02  0.51100000000E-03 0. -1.
        -11    1    3    3    0    0 -0.51051141830E+01 -0.82182276234E+01  0.12822544444E+02  0.16062973024E+02  0.51100000000E-03 0.  1.
        -12    1    3    3    0    0  0.16488958301E+02 -0.70289567799E+01  0.88537839698E+01  0.19992035160E+02  0.00000000000E+00 0.  1.
</event>
<event>
 7    1  0.3014423E-011  0.5052885E+02  0.7816164E-02  0.1300439E+00
        -11   -1    0    0    0    0  0.00000000000E+00  0.00000000000E+00  0.45593999997E+02  0.45594000000E+02  0.51100000000E-03 0. -1.
         11   -1    0    0    0    0 -0.00000000000E+00 -0.00000000000E+00 -0.45593999997E+02  0.45594000000E+02  0.51100000000E-03 0.  1.
    9900012    2    1    2    0    0  0.21117866030E+02  0.25328575174E+02  0.23783719977E+02  0.50528851928E+02  0.29999975920E+02 0.  0.
        -12    1    1    2    0    0 -0.21117866030E+02 -0.25328575174E+02 -0.23783719977E+02  0.40659148072E+02  0.00000000000E+00 0.  1.
         11    1    3    3    0    0  0.20130804966E+02  0.47915219713E+01  0.15823275841E+02  0.26049645870E+02  0.51100000000E-03 0. -1.
        -11    1    3    3    0    0 -0.19368328451E+01  0.39583073117E+01  0.61240045206E+01  0.75447299404E+01  0.51100000000E-03 0.  1.
         12    1    3    3    0    0  0.29238939091E+01  0.16578745891E+02  0.18364396154E+01  0.16934476117E+02  0.00000000000E+00 0. -1.
</event>
<event>
 7    1  0.3014423E-011  0.5052886E+02  0.7816164E-02  0.1300439E+00
        -11   -1    0    0    0    0  0.00000000000E+00  0.00000000000E+00  0.45593999997E+02  0.45594000000E+02  0.51100000000E-03 0.  1.
         11   -1    0    0    0    0 -0.00000000000E+00 -0.00000000000E+00 -0.45593999997E+02  0.45594000000E+02  0.51100000000E-03 0. -1.
    9900012    2    1    2    0    0  0.29214962532E+01 -0.25743202652E+02 -0.31335570906E+02  0.50528860472E+02  0.30000001892E+02 0.  0.
        -12    1    1    2    0    0 -0.29214962532E+01  0.25743202652E+02  0.31335570906E+02  0.40659139528E+02  0.00000000000E+00 0.  1.
         11    1    3    3    0    0  0.90179822141E+01 -0.76006085850E+00 -0.17284228791E+01  0.92135303566E+01  0.51100000000E-03 0. -1.
        -11    1    3    3    0    0  0.14537855311E+01  0.38860453218E+00 -0.48240439984E+01  0.50533065029E+01  0.51100000000E-03 0.  1.
        -12    1    3    3    0    0 -0.75502714920E+01 -0.25371746326E+02 -0.24783104028E+02  0.36262023613E+02  0.00000000000E+00 0.  1.
</event>
<event>
 7    1  0.3014423E-011  0.5052885E+02  0.7816164E-02  0.1300439E+00
        -11   -1    0    0    0    0  0.00000000000E+00  0.00000000000E+00  0.45593999997E+02  0.45594000000E+02  0.51100000000E-03 0.  1.
         11   -1    0    0    0    0 -0.00000000000E+00 -0.00000000000E+00 -0.45593999997E+02  0.45594000000E+02  0.51100000000E-03 0. -1.
    9900012    2    1    2    0    0 -0.24012847321E+02 -0.32305837957E+02  0.57343229061E+01  0.50528850208E+02  0.29999970693E+02 0.  0.
        -12    1    1    2    0    0  0.24012847321E+02  0.32305837957E+02 -0.57343229061E+01  0.40659149792E+02  0.00000000000E+00 0.  1.
         11    1    3    3    0    0 -0.12098427520E+02 -0.11719607635E+02 -0.22969198284E+01  0.16999911545E+02  0.51100000000E-03 0. -1.
        -11    1    3    3    0    0 -0.18216959871E+02 -0.16252181993E+02  0.85389360162E+01  0.25863187642E+02  0.51100000000E-03 0.  1.
        -12    1    3    3    0    0  0.63025400694E+01 -0.43340483292E+01 -0.50769328162E+00  0.76657510209E+01  0.00000000000E+00 0.  1.
</event>
<event>
 7    1  0.3014423E-011  0.5052886E+02  0.7816164E-02  0.1300439E+00
        -11   -1    0    0    0    0  0.00000000000E+00  0.00000000000E+00  0.45593999997E+02  0.45594000000E+02  0.51100000000E-03 0. -1.
         11   -1    0    0    0    0 -0.00000000000E+00 -0.00000000000E+00 -0.45593999997E+02  0.45594000000E+02  0.51100000000E-03 0.  1.
    9900012    2    1    2    0    0 -0.40631449661E+02  0.22066336106E+00  0.14839480503E+01  0.50528862089E+02  0.30000006806E+02 0.  0.
        -12    1    1    2    0    0  0.40631449661E+02 -0.22066336106E+00 -0.14839480503E+01  0.40659137911E+02  0.00000000000E+00 0.  1.
         11    1    3    3    0    0 -0.28769162373E+02  0.19967616802E+01 -0.55555822088E+01  0.29368627050E+02  0.51100000000E-03 0. -1.
        -11    1    3    3    0    0  0.10009900255E+00 -0.38276007059E+01 -0.34231750737E+01  0.51360174085E+01  0.51100000000E-03 0.  1.
        -12    1    3    3    0    0 -0.11962386290E+02  0.20515023868E+01  0.10462705333E+02  0.16024217631E+02  0.00000000000E+00 0.  1.
</event>
<event>
 7    1  0.3014423E-011  0.5052887E+02  0.7816164E-02  0.1300439E+00
        -11   -1    0    0    0    0  0.00000000000E+00  0.00000000000E+00  0.45593999997E+02  0.45594000000E+02  0.51100000000E-03 0.  1.
         11   -1    0    0    0    0 -0.00000000000E+00 -0.00000000000E+00 -0.45593999997E+02  0.45594000000E+02  0.51100000000E-03 0. -1.
    9900012    2    1    2    0    0  0.19394464971E+02  0.31369618793E+02 -0.17116267177E+02  0.50528869945E+02  0.30000030685E+02 0.  0.
        -12    1    1    2    0    0 -0.19394464971E+02 -0.31369618793E+02  0.17116267177E+02  0.40659130055E+02  0.00000000000E+00 0.  1.
         11    1    3    3    0    0  0.12441870034E+02 -0.66863167159E+00 -0.29008859643E+01  0.12793058192E+02  0.51100000000E-03 0. -1.
        -11    1    3    3    0    0 -0.98343162562E+00 -0.70064275333E+00 -0.92827795322E+00  0.15230686950E+01  0.51100000000E-03 0.  1.
         12    1    3    3    0    0  0.79360265622E+01  0.32738893218E+02 -0.13287103260E+02  0.36212743058E+02  0.00000000000E+00 0. -1.
</event>
<event>
 7    1  0.3014423E-011  0.5052886E+02  0.7816164E-02  0.1300439E+00
        -11   -1    0    0    0    0  0.00000000000E+00  0.00000000000E+00  0.45593999997E+02  0.45594000000E+02  0.51100000000E-03 0.  1.
         11   -1    0    0    0    0 -0.00000000000E+00 -0.00000000000E+00 -0.45593999997E+02  0.45594000000E+02  0.51100000000E-03 0. -1.
    9900012    2    1    2    0    0 -0.34258067919E+01 -0.12340780093E+02 -0.38589306773E+02  0.50528860773E+02  0.30000002806E+02 0.  0.
        -12    1    1    2    0    0  0.34258067919E+01  0.12340780093E+02  0.38589306773E+02  0.40659139227E+02  0.00000000000E+00 0.  1.
         11    1    3    3    0    0 -0.19132740494E+01 -0.11097402130E+01 -0.17540754613E+00  0.22187629429E+01  0.51100000000E-03 0. -1.
        -11    1    3    3    0    0 -0.83272544922E+01 -0.14044220362E+02 -0.10437243596E+02  0.19378321576E+02  0.51100000000E-03 0.  1.
         12    1    3    3    0    0  0.68147217496E+01  0.28131804821E+01 -0.27976655631E+02  0.28931776254E+02  0.00000000000E+00 0. -1.
</event>
<event>
 7    1  0.3014423E-011  0.5052891E+02  0.7816164E-02  0.1300439E+00
        -11   -1    0    0    0    0  0.00000000000E+00  0.00000000000E+00  0.45593999997E+02  0.45594000000E+02  0.51100000000E-03 0.  1.
         11   -1    0    0    0    0 -0.00000000000E+00 -0.00000000000E+00 -0.45593999997E+02  0.45594000000E+02  0.51100000000E-03 0. -1.
    9900012    2    1    2    0    0 -0.11398567820E+02 -0.95425853378E+01 -0.37844062880E+02  0.50528912719E+02  0.30000160701E+02 0.  0.
        -12    1    1    2    0    0  0.11398567820E+02  0.95425853378E+01  0.37844062880E+02  0.40659087281E+02  0.00000000000E+00 0.  1.
         11    1    3    3    0    0 -0.59730502630E+01 -0.74239753202E+01 -0.13596660799E+02  0.16603069721E+02  0.51100000000E-03 0. -1.
        -11    1    3    3    0    0 -0.17349839064E+01 -0.80856397063E+01  0.41971659162E+00  0.82803321729E+01  0.51100000000E-03 0.  1.
        -12    1    3    3    0    0 -0.36905336505E+01  0.59670296887E+01 -0.24667118672E+02  0.25645510825E+02  0.00000000000E+00 0.  1.
</event>
<event>
 7    1  0.3014423E-011  0.5052886E+02  0.7816164E-02  0.1300439E+00
        -11   -1    0    0    0    0  0.00000000000E+00  0.00000000000E+00  0.45593999997E+02  0.45594000000E+02  0.51100000000E-03 0. -1.
         11   -1    0    0    0    0 -0.00000000000E+00 -0.00000000000E+00 -0.45593999997E+02  0.45594000000E+02  0.51100000000E-03 0.  1.
    9900012    2    1    2    0    0  0.40567188844E+02  0.16286657497E+00 -0.27280676928E+01  0.50528859705E+02  0.29999999558E+02 0.  0.
        -12    1    1    2    0    0 -0.40567188844E+02 -0.16286657497E+00  0.27280676928E+01  0.40659140295E+02  0.00000000000E+00 0.  1.
         11    1    3    3    0    0  0.84114379862E+01  0.25147670952E+01  0.45490741072E+01  0.98878924970E+01  0.51100000000E-03 0. -1.
        -11    1    3    3    0    0  0.20952394932E+02 -0.35878315071E+01  0.70642293723E+01  0.22400417970E+02  0.51100000000E-03 0.  1.
        -12    1    3    3    0    0  0.11203355926E+02  0.12359309869E+01 -0.14341371172E+02  0.18240549238E+02  0.00000000000E+00 0.  1.
</event>
<event>
 7    1  0.3014423E-011  0.5052886E+02  0.7816164E-02  0.1300439E+00
        -11   -1    0    0    0    0  0.00000000000E+00  0.00000000000E+00  0.45593999997E+02  0.45594000000E+02  0.51100000000E-03 0.  1.
         11   -1    0    0    0    0 -0.00000000000E+00 -0.00000000000E+00 -0.45593999997E+02  0.45594000000E+02  0.51100000000E-03 0. -1.
    9900012    2    1    2    0    0  0.13876092745E+02 -0.38015290074E+02 -0.39316009064E+01  0.50528859392E+02  0.29999998608E+02 0.  0.
        -12    1    1    2    0    0 -0.13876092745E+02  0.38015290074E+02  0.39316009064E+01  0.40659140608E+02  0.00000000000E+00 0.  1.
         11    1    3    3    0    0 -0.32294671565E+00 -0.57097950084E-01  0.22065718135E+00  0.39527788941E+00  0.51100000000E-03 0. -1.
        -11    1    3    3    0    0 -0.58594898844E+01 -0.65847394069E+01  0.70066927135E+01  0.11259935959E+02  0.51100000000E-03 0.  1.
         12    1    3    3    0    0  0.20058529345E+02 -0.31373452717E+02 -0.11158950801E+02  0.38873645544E+02  0.00000000000E+00 0. -1.
</event>
<event>
 7    1  0.3014423E-011  0.5052887E+02  0.7816164E-02  0.1300439E+00
        -11   -1    0    0    0    0  0.00000000000E+00  0.00000000000E+00  0.45593999997E+02  0.45594000000E+02  0.51100000000E-03 0.  1.
         11   -1    0    0    0    0 -0.00000000000E+00 -0.00000000000E+00 -0.45593999997E+02  0.45594000000E+02  0.51100000000E-03 0. -1.
    9900012    2    1    2    0    0  0.18789202857E+02 -0.47505485328E+01 -0.35743016017E+02  0.50528867577E+02  0.30000023487E+02 0.  0.
        -12    1    1    2    0    0 -0.18789202857E+02  0.47505485328E+01  0.35743016017E+02  0.40659132423E+02  0.00000000000E+00 0.  1.
         11    1    3    3    0    0 -0.15933667589E+01  0.81307268764E+01 -0.84478469659E+01  0.11832736614E+02  0.51100000000E-03 0. -1.
        -11    1    3    3    0    0  0.45680195851E+01 -0.84255830605E+01 -0.16356509635E+02  0.18957654405E+02  0.51100000000E-03 0.  1.
        -12    1    3    3    0    0  0.15814550031E+02 -0.44556923486E+01 -0.10938659416E+02  0.19738476557E+02  0.00000000000E+00 0.  1.
</event>
<event>
 7    1  0.3014423E-011  0.5052886E+02  0.7816164E-02  0.1300439E+00
        -11   -1    0    0    0    0  0.00000000000E+00  0.00000000000E+00  0.45593999997E+02  0.45594000000E+02  0.51100000000E-03 0.  1.
         11   -1    0    0    0    0 -0.00000000000E+00 -0.00000000000E+00 -0.45593999997E+02  0.45594000000E+02  0.51100000000E-03 0. -1.
    9900012    2    1    2    0    0 -0.19860773805E+01 -0.33161082298E+02 -0.23442774639E+02  0.50528861233E+02  0.30000004203E+02 0.  0.
        -12    1    1    2    0    0  0.19860773805E+01  0.33161082298E+02  0.23442774639E+02  0.40659138767E+02  0.00000000000E+00 0.  1.
         11    1    3    3    0    0 -0.81158361322E+00 -0.12513991715E+02 -0.22242788558E+02  0.25534296539E+02  0.51100000000E-03 0. -1.
        -11    1    3    3    0    0  0.47201414952E+01 -0.20278642008E+01  0.13158467729E+01  0.53031520761E+01  0.51100000000E-03 0.  1.
        -12    1    3    3    0    0 -0.58946352625E+01 -0.18619226382E+02 -0.25158328535E+01  0.19691412618E+02  0.00000000000E+00 0.  1.
</event>
<event>
 7    1  0.3014423E-011  0.5052887E+02  0.7816164E-02  0.1300439E+00
        -11   -1    0    0    0    0  0.00000000000E+00  0.00000000000E+00  0.45593999997E+02  0.45594000000E+02  0.51100000000E-03 0.  1.
         11   -1    0    0    0    0 -0.00000000000E+00 -0.00000000000E+00 -0.45593999997E+02  0.45594000000E+02  0.51100000000E-03 0. -1.
    9900012    2    1    2    0    0  0.13911033362E+02  0.26478439693E+01 -0.38113477876E+02  0.50528866676E+02  0.30000020747E+02 0.  0.
        -12    1    1    2    0    0 -0.13911033362E+02 -0.26478439693E+01  0.38113477876E+02  0.40659133324E+02  0.00000000000E+00 0.  1.
         11    1    3    3    0    0  0.64395622677E+01 -0.41299171672E+01 -0.70542050994E+01  0.10406055345E+02  0.51100000000E-03 0. -1.
        -11    1    3    3    0    0  0.42587298949E+01 -0.12528511480E+01  0.27518174724E+01  0.52229221686E+01  0.51100000000E-03 0.  1.
         12    1    3    3    0    0  0.32127411994E+01  0.80306122844E+01 -0.33811090249E+02  0.34899889162E+02  0.00000000000E+00 0. -1.
</event>
<event>
 7    1  0.3014423E-011  0.5052886E+02  0.7816164E-02  0.1300439E+00
        -11   -1    0    0    0    0  0.00000000000E+00  0.00000000000E+00  0.45593999997E+02  0.45594000000E+02  0.51100000000E-03 0.  1.
         11   -1    0    0    0    0 -0.00000000000E+00 -0.00000000000E+00 -0.45593999997E+02  0.45594000000E+02  0.51100000000E-03 0. -1.
    9900012    2    1    2    0    0 -0.24510083781E+02 -0.21863911743E+02 -0.23966449394E+02  0.50528861541E+02  0.30000005141E+02 0.  0.
        -12    1    1    2    0    0  0.24510083781E+02  0.21863911743E+02  0.23966449394E+02  0.40659138459E+02  0.00000000000E+00 0.  1.
         11    1    3    3    0    0 -0.10890549153E+02 -0.44450443397E+01 -0.73717735845E+01  0.13881841596E+02  0.51100000000E-03 0. -1.
        -11    1    3    3    0    0 -0.11490310450E+02 -0.14857097698E+02 -0.22838889772E+02  0.29569840590E+02  0.51100000000E-03 0.  1.
        -12    1    3    3    0    0 -0.21292241774E+01 -0.25617697050E+01  0.62442139623E+01  0.70771793552E+01  0.00000000000E+00 0.  1.
</event>
<event>
 7    1  0.3014423E-011  0.5052885E+02  0.7816164E-02  0.1300439E+00
        -11   -1    0    0    0    0  0.00000000000E+00  0.00000000000E+00  0.45593999997E+02  0.45594000000E+02  0.51100000000E-03 0.  1.
         11   -1    0    0    0    0 -0.00000000000E+00 -0.00000000000E+00 -0.45593999997E+02  0.45594000000E+02  0.51100000000E-03 0. -1.
    9900012    2    1    2    0    0  0.75585968971E+01 -0.39933948046E+02  0.11461404367E+01  0.50528853040E+02  0.29999979301E+02 0.  0.
        -12    1    1    2    0    0 -0.75585968971E+01  0.39933948046E+02 -0.11461404367E+01  0.40659146960E+02  0.00000000000E+00 0.  1.
         11    1    3    3    0    0 -0.12436915796E+01 -0.35503488306E+01 -0.21753742542E+01  0.43455723410E+01  0.51100000000E-03 0. -1.
        -11    1    3    3    0    0 -0.77005252945E+01 -0.94986385537E+01  0.75260724244E+01  0.14358411841E+02  0.51100000000E-03 0.  1.
         12    1    3    3    0    0  0.16502813771E+02 -0.26884960662E+02 -0.42045577334E+01  0.31824868859E+02  0.00000000000E+00 0. -1.
</event>
<event>
 7    1  0.3014423E-011  0.5052886E+02  0.7816164E-02  0.1300439E+00
        -11   -1    0    0    0    0  0.00000000000E+00  0.00000000000E+00  0.45593999997E+02  0.45594000000E+02  0.51100000000E-03 0.  1.
         11   -1    0    0    0    0 -0.00000000000E+00 -0.00000000000E+00 -0.45593999997E+02  0.45594000000E+02  0.51100000000E-03 0. -1.
    9900012    2    1    2    0    0  0.30560087650E+02 -0.19201365257E+02 -0.18723086904E+02  0.50528863658E+02  0.30000011574E+02 0.  0.
        -12    1    1    2    0    0 -0.30560087650E+02  0.19201365257E+02  0.18723086904E+02  0.40659136342E+02  0.00000000000E+00 0.  1.
         11    1    3    3    0    0  0.42706586790E+01 -0.58099883277E+01 -0.29022514135E+01  0.77728729212E+01  0.51100000000E-03 0. -1.
        -11    1    3    3    0    0  0.24453662084E+01 -0.15532636904E+02 -0.73992274282E+01  0.17377893770E+02  0.51100000000E-03 0.  1.
         12    1    3    3    0    0  0.23844062762E+02  0.21412599745E+01 -0.84216080623E+01  0.25378096967E+02  0.00000000000E+00 0. -1.
</event>
<event>
 7    1  0.3014423E-011  0.5052887E+02  0.7816164E-02  0.1300439E+00
        -11   -1    0    0    0    0  0.00000000000E+00  0.00000000000E+00  0.45593999997E+02  0.45594000000E+02  0.51100000000E-03 0. -1.
         11   -1    0    0    0    0 -0.00000000000E+00 -0.00000000000E+00 -0.45593999997E+02  0.45594000000E+02  0.51100000000E-03 0.  1.
    9900012    2    1    2    0    0  0.19530712719E+02 -0.17341026582E+02  0.31160957456E+02  0.50528865580E+02  0.30000017417E+02 0.  0.
        -12    1    1    2    0    0 -0.19530712719E+02  0.17341026582E+02 -0.31160957456E+02  0.40659134420E+02  0.00000000000E+00 0.  1.
         11    1    3    3    0    0 -0.78226909830E+00 -0.12836785780E+02  0.25329254600E+01  0.13107659049E+02  0.51100000000E-03 0.  1.
        -11    1    3    3    0    0  0.24270815970E+01 -0.14906689640E+01  0.13515594283E+02  0.13812462059E+02  0.51100000000E-03 0. -1.
        -12    1    3    3    0    0  0.17885900221E+02 -0.30135718380E+01  0.15112437713E+02  0.23608744472E+02  0.00000000000E+00 0.  1.
</event>
<event>
 7    1  0.3014423E-011  0.5052899E+02  0.7816164E-02  0.1300438E+00
        -11   -1    0    0    0    0  0.00000000000E+00  0.00000000000E+00  0.45593999997E+02  0.45594000000E+02  0.51100000000E-03 0.  1.
         11   -1    0    0    0    0 -0.00000000000E+00 -0.00000000000E+00 -0.45593999997E+02  0.45594000000E+02  0.51100000000E-03 0. -1.
    9900012    2    1    2    0    0 -0.15285621868E+02  0.36376781623E+02 -0.98099330598E+01  0.50528987914E+02  0.30000389261E+02 0.  0.
        -12    1    1    2    0    0  0.15285621868E+02 -0.36376781623E+02  0.98099330598E+01  0.40659012086E+02  0.00000000000E+00 0.  1.
         11    1    3    3    0    0  0.11288066660E+01  0.14839431804E+02 -0.11812270801E+02  0.19000333747E+02  0.51100000000E-03 0.  1.
        -11    1    3    3    0    0  0.91844251336E+00  0.96711516385E+01 -0.25320461701E+01  0.10039221520E+02  0.51100000000E-03 0. -1.
        -12    1    3    3    0    0 -0.17332871048E+02  0.11866198181E+02  0.45343839117E+01  0.21489432647E+02  0.00000000000E+00 0.  1.
</event>
<event>
 7    1  0.3014423E-011  0.5052887E+02  0.7816164E-02  0.1300439E+00
        -11   -1    0    0    0    0  0.00000000000E+00  0.00000000000E+00  0.45593999997E+02  0.45594000000E+02  0.51100000000E-03 0.  1.
         11   -1    0    0    0    0 -0.00000000000E+00 -0.00000000000E+00 -0.45593999997E+02  0.45594000000E+02  0.51100000000E-03 0. -1.
    9900012    2    1    2    0    0  0.12613051640E+02  0.12438273226E+01 -0.38633253488E+02  0.50528874910E+02  0.30000045775E+02 0.  0.
        -12    1    1    2    0    0 -0.12613051640E+02 -0.12438273226E+01  0.38633253488E+02  0.40659125090E+02  0.00000000000E+00 0.  1.
         11    1    3    3    0    0  0.10680609584E+02 -0.12511385239E+02 -0.16343313467E+02  0.23188662683E+02  0.51100000000E-03 0.  1.
        -11    1    3    3    0    0  0.73798547830E-01 -0.77946434922E+00 -0.16049583747E+00  0.79923092554E+00  0.51100000000E-03 0. -1.
        -12    1    3    3    0    0  0.18586435083E+01  0.14534676910E+02 -0.22129444183E+02  0.26540981301E+02  0.00000000000E+00 0.  1.
</event>
<event>
 7    1  0.3014423E-011  0.5052886E+02  0.7816164E-02  0.1300439E+00
        -11   -1    0    0    0    0  0.00000000000E+00  0.00000000000E+00  0.45593999997E+02  0.45594000000E+02  0.51100000000E-03 0.  1.
         11   -1    0    0    0    0 -0.00000000000E+00 -0.00000000000E+00 -0.45593999997E+02  0.45594000000E+02  0.51100000000E-03 0. -1.
    9900012    2    1    2    0    0 -0.25782957562E+02 -0.13099114920E+02 -0.28580032012E+02  0.50528856599E+02  0.29999990118E+02 0.  0.
        -12    1    1    2    0    0  0.25782957562E+02  0.13099114920E+02  0.28580032012E+02  0.40659143401E+02  0.00000000000E+00 0.  1.
         11    1    3    3    0    0 -0.84015657617E+00 -0.57446056463E+01 -0.19659515964E+02  0.20498851804E+02  0.51100000000E-03 0. -1.
        -11    1    3    3    0    0 -0.65235058610E+01  0.23201163119E+01 -0.57175781414E+01  0.89794080252E+01  0.51100000000E-03 0.  1.
        -12    1    3    3    0    0 -0.18419295125E+02 -0.96746255856E+01 -0.32029379064E+01  0.21050596769E+02  0.00000000000E+00 0.  1.
</event>
<event>
 7    1  0.3014423E-011  0.5052886E+02  0.7816164E-02  0.1300439E+00
        -11   -1    0    0    0    0  0.00000000000E+00  0.00000000000E+00  0.45593999997E+02  0.45594000000E+02  0.51100000000E-03 0.  1.
         11   -1    0    0    0    0 -0.00000000000E+00 -0.00000000000E+00 -0.45593999997E+02  0.45594000000E+02  0.51100000000E-03 0. -1.
    9900012    2    1    2    0    0 -0.33609872595E+02  0.18031843469E+02 -0.14085266326E+02  0.50528860287E+02  0.30000001327E+02 0.  0.
        -12    1    1    2    0    0  0.33609872595E+02 -0.18031843469E+02  0.14085266326E+02  0.40659139713E+02  0.00000000000E+00 0.  1.
         11    1    3    3    0    0 -0.48938980040E+01 -0.44419155915E+01 -0.64223467389E+01  0.92156057691E+01  0.51100000000E-03 0. -1.
        -11    1    3    3    0    0 -0.22152287998E+02  0.79317081681E+01 -0.92444369204E+01  0.25280337661E+02  0.51100000000E-03 0.  1.
        -12    1    3    3    0    0 -0.65636865931E+01  0.14542050893E+02  0.15815173333E+01  0.16032916857E+02  0.00000000000E+00 0.  1.
</event>
<event>
 7    1  0.3014423E-011  0.5052884E+02  0.7816164E-02  0.1300439E+00
        -11   -1    0    0    0    0  0.00000000000E+00  0.00000000000E+00  0.45593999997E+02  0.45594000000E+02  0.51100000000E-03 0.  1.
         11   -1    0    0    0    0 -0.00000000000E+00 -0.00000000000E+00 -0.45593999997E+02  0.45594000000E+02  0.51100000000E-03 0. -1.
    9900012    2    1    2    0    0 -0.11284728963E+02 -0.36824844498E+02 -0.13028923207E+02  0.50528842114E+02  0.29999946089E+02 0.  0.
        -12    1    1    2    0    0  0.11284728963E+02  0.36824844498E+02  0.13028923207E+02  0.40659157886E+02  0.00000000000E+00 0.  1.
         11    1    3    3    0    0 -0.99850622292E+01 -0.12703144113E+02  0.17263225602E+01  0.16249662394E+02  0.51100000000E-03 0. -1.
        -11    1    3    3    0    0 -0.56969807457E+01 -0.19935884118E+01  0.17970977241E+01  0.62975824618E+01  0.51100000000E-03 0.  1.
         12    1    3    3    0    0  0.43973140124E+01 -0.22128111973E+02 -0.16552343492E+02  0.27981597258E+02  0.00000000000E+00 0. -1.
</event>
<event>
 7    1  0.3014423E-011  0.5052886E+02  0.7816164E-02  0.1300439E+00
        -11   -1    0    0    0    0  0.00000000000E+00  0.00000000000E+00  0.45593999997E+02  0.45594000000E+02  0.51100000000E-03 0.  1.
         11   -1    0    0    0    0 -0.00000000000E+00 -0.00000000000E+00 -0.45593999997E+02  0.45594000000E+02  0.51100000000E-03 0. -1.
    9900012    2    1    2    0    0 -0.31927492853E+02 -0.16016921367E+02  0.19423153082E+02  0.50528862704E+02  0.30000008676E+02 0.  0.
        -12    1    1    2    0    0  0.31927492853E+02  0.16016921367E+02 -0.19423153082E+02  0.40659137296E+02  0.00000000000E+00 0.  1.
         11    1    3    3    0    0 -0.12173188516E+02 -0.10923754989E+02  0.18204013969E+02  0.24472455262E+02  0.51100000000E-03 0. -1.
        -11    1    3    3    0    0  0.83594371778E-01 -0.12137279904E+01  0.52975090327E+01  0.54354140474E+01  0.51100000000E-03 0.  1.
         12    1    3    3    0    0 -0.19837898709E+02 -0.38794383878E+01 -0.40783699200E+01  0.20620993395E+02  0.00000000000E+00 0. -1.
</event>
<event>
 7    1  0.3014423E-011  0.5052887E+02  0.7816164E-02  0.1300439E+00
        -11   -1    0    0    0    0  0.00000000000E+00  0.00000000000E+00  0.45593999997E+02  0.45594000000E+02  0.51100000000E-03 0. -1.
         11   -1    0    0    0    0 -0.00000000000E+00 -0.00000000000E+00 -0.45593999997E+02  0.45594000000E+02  0.51100000000E-03 0.  1.
    9900012    2    1    2    0    0 -0.31682301614E+02 -0.19669931418E+01  0.25407235980E+02  0.50528868951E+02  0.30000027662E+02 0.  0.
        -12    1    1    2    0    0  0.31682301614E+02  0.19669931418E+01 -0.25407235980E+02  0.40659131049E+02  0.00000000000E+00 0.  1.
         11    1    3    3    0    0 -0.83143400161E+01  0.53856523680E+01  0.14138176946E+02  0.17263300639E+02  0.51100000000E-03 0. -1.
        -11    1    3    3    0    0 -0.16934263059E+02  0.17887141534E+01  0.13664743655E+02  0.21833322768E+02  0.51100000000E-03 0.  1.
        -12    1    3    3    0    0 -0.64336985388E+01 -0.91413596632E+01 -0.23956846208E+01  0.11432245544E+02  0.00000000000E+00 0.  1.
</event>
<event>
 7    1  0.3014423E-011  0.5052887E+02  0.7816164E-02  0.1300439E+00
        -11   -1    0    0    0    0  0.00000000000E+00  0.00000000000E+00  0.45593999997E+02  0.45594000000E+02  0.51100000000E-03 0. -1.
         11   -1    0    0    0    0 -0.00000000000E+00 -0.00000000000E+00 -0.45593999997E+02  0.45594000000E+02  0.51100000000E-03 0.  1.
    9900012    2    1    2    0    0  0.20923747888E+02 -0.49294167135E+01  0.34511773506E+02  0.50528869594E+02  0.30000029619E+02 0.  0.
        -12    1    1    2    0    0 -0.20923747888E+02  0.49294167135E+01 -0.34511773506E+02  0.40659130406E+02  0.00000000000E+00 0.  1.
         11    1    3    3    0    0  0.54198068735E+01 -0.74192076456E+01  0.52468126139E+01  0.10580547788E+02  0.51100000000E-03 0. -1.
        -11    1    3    3    0    0  0.39785007193E+01 -0.94344280958E+01  0.80729406140E+01  0.13038760366E+02  0.51100000000E-03 0.  1.
        -12    1    3    3    0    0  0.11525440296E+02  0.11924219028E+02  0.21192020278E+02  0.26909561440E+02  0.00000000000E+00 0.  1.
</event>
<event>
 7    1  0.3014423E-011  0.5052886E+02  0.7816164E-02  0.1300439E+00
        -11   -1    0    0    0    0  0.00000000000E+00  0.00000000000E+00  0.45593999997E+02  0.45594000000E+02  0.51100000000E-03 0.  1.
         11   -1    0    0    0    0 -0.00000000000E+00 -0.00000000000E+00 -0.45593999997E+02  0.45594000000E+02  0.51100000000E-03 0. -1.
    9900012    2    1    2    0    0 -0.30219200066E+00  0.24464419316E+02 -0.32474096064E+02  0.50528855301E+02  0.29999986172E+02 0.  0.
        -12    1    1    2    0    0  0.30219200066E+00 -0.24464419316E+02  0.32474096064E+02  0.40659144699E+02  0.00000000000E+00 0.  1.
         11    1    3    3    0    0 -0.13027752655E+00  0.98524959976E+01  0.30745986736E+01  0.10321909072E+02  0.51100000000E-03 0.  1.
        -11    1    3    3    0    0 -0.55227177989E+01  0.65175250696E+01 -0.11933859123E+02  0.14676359860E+02  0.51100000000E-03 0. -1.
         12    1    3    3    0    0  0.53508033248E+01  0.80943982493E+01 -0.23614835615E+02  0.25530586369E+02  0.00000000000E+00 0. -1.
</event>
<event>
 7    1  0.3014423E-011  0.5052886E+02  0.7816164E-02  0.1300439E+00
        -11   -1    0    0    0    0  0.00000000000E+00  0.00000000000E+00  0.45593999997E+02  0.45594000000E+02  0.51100000000E-03 0.  1.
         11   -1    0    0    0    0 -0.00000000000E+00 -0.00000000000E+00 -0.45593999997E+02  0.45594000000E+02  0.51100000000E-03 0. -1.
    9900012    2    1    2    0    0  0.38323684365E+02  0.12781133516E+02 -0.45938446947E+01  0.50528861220E+02  0.30000004165E+02 0.  0.
        -12    1    1    2    0    0 -0.38323684365E+02 -0.12781133516E+02  0.45938446947E+01  0.40659138780E+02  0.00000000000E+00 0.  1.
         11    1    3    3    0    0  0.15990908453E+02  0.47196286991E+00  0.76449590500E+01  0.17730688121E+02  0.51100000000E-03 0. -1.
        -11    1    3    3    0    0  0.10188210297E+02  0.16089776164E+01  0.28172535762E+01  0.10692303587E+02  0.51100000000E-03 0.  1.
         12    1    3    3    0    0  0.12144565615E+02  0.10700193030E+02 -0.15056057321E+02  0.22105869512E+02  0.00000000000E+00 0. -1.
</event>
<event>
 7    1  0.3014423E-011  0.5052886E+02  0.7816164E-02  0.1300439E+00
        -11   -1    0    0    0    0  0.00000000000E+00  0.00000000000E+00  0.45593999997E+02  0.45594000000E+02  0.51100000000E-03 0. -1.
         11   -1    0    0    0    0 -0.00000000000E+00 -0.00000000000E+00 -0.45593999997E+02  0.45594000000E+02  0.51100000000E-03 0.  1.
    9900012    2    1    2    0    0 -0.26872113012E+02  0.29546273787E+02  0.76205386409E+01  0.50528863738E+02  0.30000011818E+02 0.  0.
        -12    1    1    2    0    0  0.26872113012E+02 -0.29546273787E+02 -0.76205386409E+01  0.40659136262E+02  0.00000000000E+00 0.  1.
         11    1    3    3    0    0 -0.80906319985E+01  0.19235683832E+02  0.28019819507E+01  0.21055188475E+02  0.51100000000E-03 0. -1.
        -11    1    3    3    0    0 -0.12680851593E+02  0.15509939703E+02  0.69055517350E+01  0.21190773269E+02  0.51100000000E-03 0.  1.
        -12    1    3    3    0    0 -0.61006294203E+01 -0.51993497480E+01 -0.20869950448E+01  0.82829019940E+01  0.00000000000E+00 0.  1.
</event>
<event>
 7    1  0.3014423E-011  0.5052887E+02  0.7816164E-02  0.1300439E+00
        -11   -1    0    0    0    0  0.00000000000E+00  0.00000000000E+00  0.45593999997E+02  0.45594000000E+02  0.51100000000E-03 0. -1.
         11   -1    0    0    0    0 -0.00000000000E+00 -0.00000000000E+00 -0.45593999997E+02  0.45594000000E+02  0.51100000000E-03 0.  1.
    9900012    2    1    2    0    0  0.21675301280E+02  0.33580236832E+02 -0.74641527319E+01  0.50528873506E+02  0.30000041509E+02 0.  0.
        -12    1    1    2    0    0 -0.21675301280E+02 -0.33580236832E+02  0.74641527319E+01  0.40659126494E+02  0.00000000000E+00 0.  1.
         11    1    3    3    0    0  0.13326894756E+02  0.45999579752E+01 -0.33902279794E+01  0.14500323556E+02  0.51100000000E-03 0. -1.
        -11    1    3    3    0    0  0.12652996211E+02  0.98112661529E+01 -0.34135944917E+01  0.16371068513E+02  0.51100000000E-03 0.  1.
        -12    1    3    3    0    0 -0.43045896869E+01  0.19169012704E+02 -0.66033026085E+00  0.19657481437E+02  0.00000000000E+00 0.  1.
</event>
<event>
 7    1  0.3014423E-011  0.5052886E+02  0.7816164E-02  0.1300439E+00
        -11   -1    0    0    0    0  0.00000000000E+00  0.00000000000E+00  0.45593999997E+02  0.45594000000E+02  0.51100000000E-03 0.  1.
         11   -1    0    0    0    0 -0.00000000000E+00 -0.00000000000E+00 -0.45593999997E+02  0.45594000000E+02  0.51100000000E-03 0. -1.
    9900012    2    1    2    0    0  0.13579727818E+02  0.33979322961E+02 -0.17724619150E+02  0.50528861784E+02  0.30000005878E+02 0.  0.
        -12    1    1    2    0    0 -0.13579727818E+02 -0.33979322961E+02  0.17724619150E+02  0.40659138216E+02  0.00000000000E+00 0.  1.
         11    1    3    3    0    0  0.14577519464E+02  0.22667160793E+02 -0.75765626643E+01  0.27994795127E+02  0.51100000000E-03 0. -1.
        -11    1    3    3    0    0  0.34756812910E+01  0.13384949742E+02 -0.10819180823E+02  0.17558243476E+02  0.51100000000E-03 0.  1.
        -12    1    3    3    0    0 -0.44734729372E+01 -0.20727875740E+01  0.67112433750E+00  0.49758231805E+01  0.00000000000E+00 0.  1.
</event>
<event>
 7    1  0.3014423E-011  0.5052885E+02  0.7816164E-02  0.1300439E+00
        -11   -1    0    0    0    0  0.00000000000E+00  0.00000000000E+00  0.45593999997E+02  0.45594000000E+02  0.51100000000E-03 0.  1.
         11   -1    0    0    0    0 -0.00000000000E+00 -0.00000000000E+00 -0.45593999997E+02  0.45594000000E+02  0.51100000000E-03 0. -1.
    9900012    2    1    2    0    0  0.27044815540E+02  0.26118832376E+02 -0.15477428808E+02  0.50528852754E+02  0.29999978431E+02 0.  0.
        -12    1    1    2    0    0 -0.27044815540E+02 -0.26118832376E+02  0.15477428808E+02  0.40659147246E+02  0.00000000000E+00 0.  1.
         11    1    3    3    0    0  0.79628995070E+01  0.27654295593E+01 -0.83329620792E+01  0.11853000737E+02  0.51100000000E-03 0.  1.
        -11    1    3    3    0    0  0.13829246801E+02  0.63606426992E+01 -0.12930221526E+02  0.19972392736E+02  0.51100000000E-03 0. -1.
         12    1    3    3    0    0  0.52526692318E+01  0.16992760118E+02  0.57857547974E+01  0.18703459281E+02  0.00000000000E+00 0. -1.
</event>
<event>
 7    1  0.3014423E-011  0.5052885E+02  0.7816164E-02  0.1300439E+00
        -11   -1    0    0    0    0  0.00000000000E+00  0.00000000000E+00  0.45593999997E+02  0.45594000000E+02  0.51100000000E-03 0.  1.
         11   -1    0    0    0    0 -0.00000000000E+00 -0.00000000000E+00 -0.45593999997E+02  0.45594000000E+02  0.51100000000E-03 0. -1.
    9900012    2    1    2    0    0  0.31732386474E+02  0.12620184878E+02 -0.22067005459E+02  0.50528854072E+02  0.29999982437E+02 0.  0.
        -12    1    1    2    0    0 -0.31732386474E+02 -0.12620184878E+02  0.22067005459E+02  0.40659145928E+02  0.00000000000E+00 0.  1.
         11    1    3    3    0    0  0.76582007584E+01 -0.69294027731E+01  0.46774228771E+00  0.10338444987E+02  0.51100000000E-03 0.  1.
        -11    1    3    3    0    0  0.91378712336E+01  0.54121801605E+01 -0.14803795275E+02  0.18219350690E+02  0.51100000000E-03 0. -1.
        -12    1    3    3    0    0  0.14936314482E+02  0.14137407490E+02 -0.77309524721E+01  0.21971058394E+02  0.00000000000E+00 0.  1.
</event>
<event>
 7    1  0.3014423E-011  0.5052886E+02  0.7816164E-02  0.1300439E+00
        -11   -1    0    0    0    0  0.00000000000E+00  0.00000000000E+00  0.45593999997E+02  0.45594000000E+02  0.51100000000E-03 0. -1.
         11   -1    0    0    0    0 -0.00000000000E+00 -0.00000000000E+00 -0.45593999997E+02  0.45594000000E+02  0.51100000000E-03 0.  1.
    9900012    2    1    2    0    0  0.22420696730E+01  0.34669428155E+02  0.21122726867E+02  0.50528859388E+02  0.29999998596E+02 0.  0.
        -12    1    1    2    0    0 -0.22420696730E+01 -0.34669428155E+02 -0.21122726867E+02  0.40659140612E+02  0.00000000000E+00 0.  1.
         11    1    3    3    0    0  0.17330701726E+01  0.68252594804E+01  0.15894391232E+01  0.72190038222E+01  0.51100000000E-03 0. -1.
        -11    1    3    3    0    0 -0.70822608952E+01  0.20937917283E+02  0.10013001889E+01  0.22125944090E+02  0.51100000000E-03 0.  1.
         12    1    3    3    0    0  0.75912603957E+01  0.69062513914E+01  0.18531987555E+02  0.21183911476E+02  0.00000000000E+00 0. -1.
</event>
<event>
 7    1  0.3014423E-011  0.5052886E+02  0.7816164E-02  0.1300439E+00
        -11   -1    0    0    0    0  0.00000000000E+00  0.00000000000E+00  0.45593999997E+02  0.45594000000E+02  0.51100000000E-03 0. -1.
         11   -1    0    0    0    0 -0.00000000000E+00 -0.00000000000E+00 -0.45593999997E+02  0.45594000000E+02  0.51100000000E-03 0.  1.
    9900012    2    1    2    0    0 -0.29283349624E+02  0.27704773201E+02  0.53006156844E+01  0.50528861422E+02  0.30000004777E+02 0.  0.
        -12    1    1    2    0    0  0.29283349624E+02 -0.27704773201E+02 -0.53006156844E+01  0.40659138578E+02  0.00000000000E+00 0.  1.
         11    1    3    3    0    0 -0.13061866336E+02  0.19777702096E+02  0.65267972370E+01  0.24583916181E+02  0.51100000000E-03 0. -1.
        -11    1    3    3    0    0 -0.19636574900E+02  0.78850496780E+01 -0.40119864734E+01  0.21537528130E+02  0.51100000000E-03 0.  1.
         12    1    3    3    0    0  0.34150916125E+01  0.42021426733E-01  0.27858049208E+01  0.44074171097E+01  0.00000000000E+00 0. -1.
</event>
<event>
 7    1  0.3014423E-011  0.5052886E+02  0.7816164E-02  0.1300439E+00
        -11   -1    0    0    0    0  0.00000000000E+00  0.00000000000E+00  0.45593999997E+02  0.45594000000E+02  0.51100000000E-03 0.  1.
         11   -1    0    0    0    0 -0.00000000000E+00 -0.00000000000E+00 -0.45593999997E+02  0.45594000000E+02  0.51100000000E-03 0. -1.
    9900012    2    1    2    0    0  0.84699752719E+01 -0.11172953866E+02 -0.38165306748E+02  0.50528855661E+02  0.29999987266E+02 0.  0.
        -12    1    1    2    0    0 -0.84699752719E+01  0.11172953866E+02  0.38165306748E+02  0.40659144339E+02  0.00000000000E+00 0.  1.
         11    1    3    3    0    0  0.16112670921E+01 -0.91326752654E+01 -0.45817731529E+01  0.10343818668E+02  0.51100000000E-03 0. -1.
        -11    1    3    3    0    0 -0.70133559443E+00 -0.10574417615E+02 -0.17767985373E+02  0.20688438414E+02  0.51100000000E-03 0.  1.
         12    1    3    3    0    0  0.75600437742E+01  0.85341390147E+01 -0.15815548222E+02  0.19496598579E+02  0.00000000000E+00 0. -1.
</event>
<event>
 7    1  0.3014423E-011  0.5052886E+02  0.7816164E-02  0.1300439E+00
        -11   -1    0    0    0    0  0.00000000000E+00  0.00000000000E+00  0.45593999997E+02  0.45594000000E+02  0.51100000000E-03 0. -1.
         11   -1    0    0    0    0 -0.00000000000E+00 -0.00000000000E+00 -0.45593999997E+02  0.45594000000E+02  0.51100000000E-03 0.  1.
    9900012    2    1    2    0    0 -0.56837333821E+01 -0.17866774385E+02  0.36078237805E+02  0.50528859635E+02  0.29999999347E+02 0.  0.
        -12    1    1    2    0    0  0.56837333821E+01  0.17866774385E+02 -0.36078237805E+02  0.40659140365E+02  0.00000000000E+00 0.  1.
         11    1    3    3    0    0  0.37202307584E+01  0.97095829010E-01  0.10757482245E+02  0.11383012299E+02  0.51100000000E-03 0. -1.
        -11    1    3    3    0    0  0.32296041872E+01  0.35798509251E+01  0.50282816192E+01  0.69662968753E+01  0.51100000000E-03 0.  1.
        -12    1    3    3    0    0 -0.12633568328E+02 -0.21543721139E+02  0.20292473941E+02  0.32179550461E+02  0.00000000000E+00 0.  1.
</event>
<event>
 7    1  0.3014423E-011  0.5052887E+02  0.7816164E-02  0.1300439E+00
        -11   -1    0    0    0    0  0.00000000000E+00  0.00000000000E+00  0.45593999997E+02  0.45594000000E+02  0.51100000000E-03 0. -1.
         11   -1    0    0    0    0 -0.00000000000E+00 -0.00000000000E+00 -0.45593999997E+02  0.45594000000E+02  0.51100000000E-03 0.  1.
    9900012    2    1    2    0    0  0.14224216304E+02  0.17265353776E+01  0.38050702482E+02  0.50528865562E+02  0.30000017364E+02 0.  0.
        -12    1    1    2    0    0 -0.14224216304E+02 -0.17265353776E+01 -0.38050702482E+02  0.40659134438E+02  0.00000000000E+00 0.  1.
         11    1    3    3    0    0  0.16131243227E+02  0.29128335972E+01  0.19467038605E+02  0.25449306472E+02  0.51100000000E-03 0.  1.
        -11    1    3    3    0    0 -0.20620600949E+01  0.20658266265E+01  0.20887893403E+02  0.21090846891E+02  0.51100000000E-03 0. -1.
        -12    1    3    3    0    0  0.15503317133E+00 -0.32521248461E+01 -0.23042295264E+01  0.39887121994E+01  0.00000000000E+00 0.  1.
</event>
<event>
 7    1  0.3014423E-011  0.5052886E+02  0.7816164E-02  0.1300439E+00
        -11   -1    0    0    0    0  0.00000000000E+00  0.00000000000E+00  0.45593999997E+02  0.45594000000E+02  0.51100000000E-03 0.  1.
         11   -1    0    0    0    0 -0.00000000000E+00 -0.00000000000E+00 -0.45593999997E+02  0.45594000000E+02  0.51100000000E-03 0. -1.
    9900012    2    1    2    0    0  0.27624537277E+01 -0.26997243453E+02 -0.30276784902E+02  0.50528855780E+02  0.29999987630E+02 0.  0.
        -12    1    1    2    0    0 -0.27624537277E+01  0.26997243453E+02  0.30276784902E+02  0.40659144220E+02  0.00000000000E+00 0.  1.
         11    1    3    3    0    0  0.27994614792E+01  0.20688264447E+01 -0.44859391351E+01  0.56780874964E+01  0.51100000000E-03 0. -1.
        -11    1    3    3    0    0  0.10271396536E+02 -0.82398862399E+01 -0.12080149321E+02  0.17869731948E+02  0.51100000000E-03 0.  1.
         12    1    3    3    0    0 -0.10308404287E+02 -0.20826183658E+02 -0.13710696447E+02  0.26981036336E+02  0.00000000000E+00 0. -1.
</event>
<event>
 7    1  0.3014423E-011  0.5052886E+02  0.7816164E-02  0.1300439E+00
        -11   -1    0    0    0    0  0.00000000000E+00  0.00000000000E+00  0.45593999997E+02  0.45594000000E+02  0.51100000000E-03 0. -1.
         11   -1    0    0    0    0 -0.00000000000E+00 -0.00000000000E+00 -0.45593999997E+02  0.45594000000E+02  0.51100000000E-03 0.  1.
    9900012    2    1    2    0    0  0.26238695995E+02 -0.29433189507E+02  0.99188449100E+01  0.50528864539E+02  0.30000014253E+02 0.  0.
        -12    1    1    2    0    0 -0.26238695995E+02  0.29433189507E+02 -0.99188449100E+01  0.40659135461E+02  0.00000000000E+00 0.  1.
         11    1    3    3    0    0 -0.23635847117E+01 -0.20164084561E+01 -0.27562174133E+01  0.41532120632E+01  0.51100000000E-03 0. -1.
        -11    1    3    3    0    0 -0.30354899464E+01 -0.56332034243E+00  0.48970181755E+00  0.31259138110E+01  0.51100000000E-03 0.  1.
         12    1    3    3    0    0  0.31637770653E+02 -0.26853460708E+02  0.12185360506E+02  0.43249738665E+02  0.00000000000E+00 0. -1.
</event>
<event>
 7    1  0.3014423E-011  0.5052886E+02  0.7816164E-02  0.1300439E+00
        -11   -1    0    0    0    0  0.00000000000E+00  0.00000000000E+00  0.45593999997E+02  0.45594000000E+02  0.51100000000E-03 0. -1.
         11   -1    0    0    0    0 -0.00000000000E+00 -0.00000000000E+00 -0.45593999997E+02  0.45594000000E+02  0.51100000000E-03 0.  1.
    9900012    2    1    2    0    0  0.10433350580E+02 -0.35919927347E+02  0.15939562737E+02  0.50528860250E+02  0.30000001216E+02 0.  0.
        -12    1    1    2    0    0 -0.10433350580E+02  0.35919927347E+02 -0.15939562737E+02  0.40659139750E+02  0.00000000000E+00 0.  1.
         11    1    3    3    0    0  0.14496551620E+01 -0.14027159714E+02  0.14553923977E+01  0.14176772447E+02  0.51100000000E-03 0. -1.
        -11    1    3    3    0    0  0.86162384984E+01  0.24798981020E+01  0.38104856319E+01  0.97421384444E+01  0.51100000000E-03 0.  1.
         12    1    3    3    0    0  0.36745691992E+00 -0.24372665736E+02  0.10673684707E+02  0.26609949359E+02  0.00000000000E+00 0. -1.
</event>
<event>
 7    1  0.3014423E-011  0.5052886E+02  0.7816164E-02  0.1300439E+00
        -11   -1    0    0    0    0  0.00000000000E+00  0.00000000000E+00  0.45593999997E+02  0.45594000000E+02  0.51100000000E-03 0.  1.
         11   -1    0    0    0    0 -0.00000000000E+00 -0.00000000000E+00 -0.45593999997E+02  0.45594000000E+02  0.51100000000E-03 0. -1.
    9900012    2    1    2    0    0  0.39156613761E+02 -0.10731243505E+02  0.21829705833E+01  0.50528863893E+02  0.30000012289E+02 0.  0.
        -12    1    1    2    0    0 -0.39156613761E+02  0.10731243505E+02 -0.21829705833E+01  0.40659136107E+02  0.00000000000E+00 0.  1.
         11    1    3    3    0    0 -0.24753953700E+01 -0.20920003913E+01 -0.31729530025E+01  0.45356012713E+01  0.51100000000E-03 0. -1.
        -11    1    3    3    0    0  0.10624564231E+01 -0.11949259037E+01 -0.34628237288E+01  0.38141591478E+01  0.51100000000E-03 0.  1.
         12    1    3    3    0    0  0.40569552708E+02 -0.74443172097E+01  0.88187473147E+01  0.42179103474E+02  0.00000000000E+00 0. -1.
</event>
<event>
 7    1  0.3014423E-011  0.5052885E+02  0.7816164E-02  0.1300439E+00
        -11   -1    0    0    0    0  0.00000000000E+00  0.00000000000E+00  0.45593999997E+02  0.45594000000E+02  0.51100000000E-03 0. -1.
         11   -1    0    0    0    0 -0.00000000000E+00 -0.00000000000E+00 -0.45593999997E+02  0.45594000000E+02  0.51100000000E-03 0.  1.
    9900012    2    1    2    0    0  0.30655867049E+02 -0.70730191437E+01  0.25755716130E+02  0.50528847308E+02  0.29999961876E+02 0.  0.
        -12    1    1    2    0    0 -0.30655867049E+02  0.70730191437E+01 -0.25755716130E+02  0.40659152692E+02  0.00000000000E+00 0.  1.
         11    1    3    3    0    0  0.13369544982E+01 -0.75173383261E+00 -0.23542182585E+00  0.15517650540E+01  0.51100000000E-03 0. -1.
        -11    1    3    3    0    0  0.10940538596E+02  0.11070203628E+02  0.14173250529E+02  0.21050554006E+02  0.51100000000E-03 0.  1.
         12    1    3    3    0    0  0.18378373954E+02 -0.17391488939E+02  0.11817887427E+02  0.27926528248E+02  0.00000000000E+00 0. -1.
</event>
<event>
 7    1  0.3014423E-011  0.5052886E+02  0.7816164E-02  0.1300439E+00
        -11   -1    0    0    0    0  0.00000000000E+00  0.00000000000E+00  0.45593999997E+02  0.45594000000E+02  0.51100000000E-03 0.  1.
         11   -1    0    0    0    0 -0.00000000000E+00 -0.00000000000E+00 -0.45593999997E+02  0.45594000000E+02  0.51100000000E-03 0. -1.
    9900012    2    1    2    0    0 -0.38083877893E+01  0.32318043284E+02 -0.24376335182E+02  0.50528862575E+02  0.30000008282E+02 0.  0.
        -12    1    1    2    0    0  0.38083877893E+01 -0.32318043284E+02  0.24376335182E+02  0.40659137425E+02  0.00000000000E+00 0.  1.
         11    1    3    3    0    0  0.19377607564E+01  0.32445944088E+02 -0.93056634476E+01  0.33809607761E+02  0.51100000000E-03 0. -1.
        -11    1    3    3    0    0  0.72814635643E+00  0.10389585539E+00 -0.20045359127E+01  0.21352180103E+01  0.51100000000E-03 0.  1.
         12    1    3    3    0    0 -0.64742949021E+01 -0.23179665900E+00 -0.13066135821E+02  0.14584036803E+02  0.00000000000E+00 0. -1.
</event>
<event>
 7    1  0.3014423E-011  0.5052886E+02  0.7816164E-02  0.1300439E+00
        -11   -1    0    0    0    0  0.00000000000E+00  0.00000000000E+00  0.45593999997E+02  0.45594000000E+02  0.51100000000E-03 0.  1.
         11   -1    0    0    0    0 -0.00000000000E+00 -0.00000000000E+00 -0.45593999997E+02  0.45594000000E+02  0.51100000000E-03 0. -1.
    9900012    2    1    2    0    0 -0.39875014172E+02 -0.56830645156E+01 -0.55544292435E+01  0.50528860047E+02  0.30000000598E+02 0.  0.
        -12    1    1    2    0    0  0.39875014172E+02  0.56830645156E+01  0.55544292435E+01  0.40659139953E+02  0.00000000000E+00 0.  1.
         11    1    3    3    0    0 -0.48363017332E+01 -0.30337826870E+01 -0.27466359715E+01  0.63354290516E+01  0.51100000000E-03 0. -1.
        -11    1    3    3    0    0 -0.26087251963E+02 -0.11436366814E+02 -0.94361035444E+01  0.30006253536E+02  0.51100000000E-03 0.  1.
        -12    1    3    3    0    0 -0.89514604758E+01  0.87870849856E+01  0.66283102725E+01  0.14187177459E+02  0.00000000000E+00 0.  1.
</event>
<event>
 7    1  0.3014423E-011  0.5052886E+02  0.7816164E-02  0.1300439E+00
        -11   -1    0    0    0    0  0.00000000000E+00  0.00000000000E+00  0.45593999997E+02  0.45594000000E+02  0.51100000000E-03 0.  1.
         11   -1    0    0    0    0 -0.00000000000E+00 -0.00000000000E+00 -0.45593999997E+02  0.45594000000E+02  0.51100000000E-03 0. -1.
    9900012    2    1    2    0    0 -0.32175942070E+02 -0.14708681465E+02 -0.20038195358E+02  0.50528857956E+02  0.29999994244E+02 0.  0.
        -12    1    1    2    0    0  0.32175942070E+02  0.14708681465E+02  0.20038195358E+02  0.40659142044E+02  0.00000000000E+00 0.  1.
         11    1    3    3    0    0 -0.11050728041E+02 -0.70216092985E+01 -0.91655826681E+01  0.15982161721E+02  0.51100000000E-03 0. -1.
        -11    1    3    3    0    0 -0.19813851722E+02 -0.89180718073E+01 -0.17361825155E+02  0.27812833329E+02  0.51100000000E-03 0.  1.
        -12    1    3    3    0    0 -0.13113623068E+01  0.12309996410E+01  0.64892124650E+01  0.67338629056E+01  0.00000000000E+00 0.  1.
</event>
<event>
 7    1  0.3014423E-011  0.5052886E+02  0.7816164E-02  0.1300439E+00
        -11   -1    0    0    0    0  0.00000000000E+00  0.00000000000E+00  0.45593999997E+02  0.45594000000E+02  0.51100000000E-03 0.  1.
         11   -1    0    0    0    0 -0.00000000000E+00 -0.00000000000E+00 -0.45593999997E+02  0.45594000000E+02  0.51100000000E-03 0. -1.
    9900012    2    1    2    0    0 -0.80517035731E+01  0.39764133245E+02 -0.26738617521E+01  0.50528858840E+02  0.29999996930E+02 0.  0.
        -12    1    1    2    0    0  0.80517035731E+01 -0.39764133245E+02  0.26738617521E+01  0.40659141160E+02  0.00000000000E+00 0.  1.
         11    1    3    3    0    0 -0.26107196681E+01  0.15984935878E+02 -0.55526524105E+01  0.17122090447E+02  0.51100000000E-03 0. -1.
        -11    1    3    3    0    0  0.46828764329E+01  0.22392393278E+02  0.34725429391E+00  0.22879449167E+02  0.51100000000E-03 0.  1.
        -12    1    3    3    0    0 -0.10123860338E+02  0.13868040898E+01  0.25315363645E+01  0.10527319226E+02  0.00000000000E+00 0.  1.
</event>
<event>
 7    1  0.3014423E-011  0.5052886E+02  0.7816164E-02  0.1300439E+00
        -11   -1    0    0    0    0  0.00000000000E+00  0.00000000000E+00  0.45593999997E+02  0.45594000000E+02  0.51100000000E-03 0.  1.
         11   -1    0    0    0    0 -0.00000000000E+00 -0.00000000000E+00 -0.45593999997E+02  0.45594000000E+02  0.51100000000E-03 0. -1.
    9900012    2    1    2    0    0 -0.20745494772E+02  0.49504397339E+01 -0.34616224190E+02  0.50528863461E+02  0.30000010977E+02 0.  0.
        -12    1    1    2    0    0  0.20745494772E+02 -0.49504397339E+01  0.34616224190E+02  0.40659136539E+02  0.00000000000E+00 0.  1.
         11    1    3    3    0    0 -0.15628819378E+01  0.15211547867E+01  0.23177616997E+01  0.31825353721E+01  0.51100000000E-03 0. -1.
        -11    1    3    3    0    0 -0.61086612253E+01  0.10189586401E+02 -0.65050655027E+01  0.13544714483E+02  0.51100000000E-03 0.  1.
         12    1    3    3    0    0 -0.13073951609E+02 -0.67603014535E+01 -0.30428920387E+02  0.33801613606E+02  0.00000000000E+00 0. -1.
</event>
<event>
 7    1  0.3014423E-011  0.5052886E+02  0.7816164E-02  0.1300439E+00
        -11   -1    0    0    0    0  0.00000000000E+00  0.00000000000E+00  0.45593999997E+02  0.45594000000E+02  0.51100000000E-03 0. -1.
         11   -1    0    0    0    0 -0.00000000000E+00 -0.00000000000E+00 -0.45593999997E+02  0.45594000000E+02  0.51100000000E-03 0.  1.
    9900012    2    1    2    0    0 -0.19706809179E+02  0.69132394242E+01  0.34885734532E+02  0.50528859808E+02  0.29999999871E+02 0.  0.
        -12    1    1    2    0    0  0.19706809179E+02 -0.69132394242E+01 -0.34885734532E+02  0.40659140192E+02  0.00000000000E+00 0.  1.
         11    1    3    3    0    0 -0.43857836898E+00  0.80258039910E+01  0.19521710872E+02  0.21111681040E+02  0.51100000000E-03 0. -1.
        -11    1    3    3    0    0 -0.17929891901E+02  0.13406128031E+01  0.18095606292E+02  0.25509395007E+02  0.51100000000E-03 0.  1.
         12    1    3    3    0    0 -0.13383389091E+01 -0.24531773699E+01 -0.27315826326E+01  0.39077837610E+01  0.00000000000E+00 0. -1.
</event>
<event>
 7    1  0.3014423E-011  0.5052886E+02  0.7816164E-02  0.1300439E+00
        -11   -1    0    0    0    0  0.00000000000E+00  0.00000000000E+00  0.45593999997E+02  0.45594000000E+02  0.51100000000E-03 0.  1.
         11   -1    0    0    0    0 -0.00000000000E+00 -0.00000000000E+00 -0.45593999997E+02  0.45594000000E+02  0.51100000000E-03 0. -1.
    9900012    2    1    2    0    0 -0.13177251208E+02  0.16030303707E+02 -0.34965051947E+02  0.50528862725E+02  0.30000008738E+02 0.  0.
        -12    1    1    2    0    0  0.13177251208E+02 -0.16030303707E+02  0.34965051947E+02  0.40659137275E+02  0.00000000000E+00 0.  1.
         11    1    3    3    0    0 -0.13428003985E+02  0.14056328456E+02 -0.12319215869E+02  0.23014229089E+02  0.51100000000E-03 0. -1.
        -11    1    3    3    0    0 -0.60288325637E+01 -0.37179311430E+01 -0.11606662651E+02  0.13597222224E+02  0.51100000000E-03 0.  1.
        -12    1    3    3    0    0  0.62795853406E+01  0.56919063934E+01 -0.11039173427E+02  0.13917411412E+02  0.00000000000E+00 0.  1.
</event>
<event>
 7    1  0.3014423E-011  0.5052886E+02  0.7816164E-02  0.1300439E+00
        -11   -1    0    0    0    0  0.00000000000E+00  0.00000000000E+00  0.45593999997E+02  0.45594000000E+02  0.51100000000E-03 0.  1.
         11   -1    0    0    0    0 -0.00000000000E+00 -0.00000000000E+00 -0.45593999997E+02  0.45594000000E+02  0.51100000000E-03 0. -1.
    9900012    2    1    2    0    0 -0.41366150042E+01  0.67324328833E+00 -0.40442558860E+02  0.50528863175E+02  0.30000010108E+02 0.  0.
        -12    1    1    2    0    0  0.41366150042E+01 -0.67324328833E+00  0.40442558860E+02  0.40659136825E+02  0.00000000000E+00 0.  1.
         11    1    3    3    0    0  0.17217347793E+01 -0.37205465636E+01 -0.16596062214E+01  0.44227966779E+01  0.51100000000E-03 0. -1.
        -11    1    3    3    0    0  0.15935169347E+01  0.10401019719E+02 -0.63494715158E+01  0.12289682510E+02  0.51100000000E-03 0.  1.
         12    1    3    3    0    0 -0.74518667183E+01 -0.60072298669E+01 -0.32433481122E+02  0.33816383987E+02  0.00000000000E+00 0. -1.
</event>
<event>
 7    1  0.3014423E-011  0.5052885E+02  0.7816164E-02  0.1300439E+00
        -11   -1    0    0    0    0  0.00000000000E+00  0.00000000000E+00  0.45593999997E+02  0.45594000000E+02  0.51100000000E-03 0. -1.
         11   -1    0    0    0    0 -0.00000000000E+00 -0.00000000000E+00 -0.45593999997E+02  0.45594000000E+02  0.51100000000E-03 0.  1.
    9900012    2    1    2    0    0  0.52497276950E+01  0.40242389279E+02  0.24812647858E+01  0.50528853296E+02  0.29999980079E+02 0.  0.
        -12    1    1    2    0    0 -0.52497276950E+01 -0.40242389279E+02 -0.24812647858E+01  0.40659146704E+02  0.00000000000E+00 0.  1.
         11    1    3    3    0    0 -0.81753612271E+01  0.18867407033E+02  0.40658763256E+01  0.20960604235E+02  0.51100000000E-03 0. -1.
        -11    1    3    3    0    0  0.32601761646E+01  0.18718147980E+02 -0.50654047189E+00  0.19006693451E+02  0.51100000000E-03 0.  1.
        -12    1    3    3    0    0  0.10164912757E+02  0.26568342663E+01 -0.10780710679E+01  0.10561555610E+02  0.00000000000E+00 0.  1.
</event>
<event>
 7    1  0.3014423E-011  0.5052886E+02  0.7816164E-02  0.1300439E+00
        -11   -1    0    0    0    0  0.00000000000E+00  0.00000000000E+00  0.45593999997E+02  0.45594000000E+02  0.51100000000E-03 0.  1.
         11   -1    0    0    0    0 -0.00000000000E+00 -0.00000000000E+00 -0.45593999997E+02  0.45594000000E+02  0.51100000000E-03 0. -1.
    9900012    2    1    2    0    0  0.22077364346E+02  0.97214412938E+01 -0.32729944790E+02  0.50528859291E+02  0.29999998299E+02 0.  0.
        -12    1    1    2    0    0 -0.22077364346E+02 -0.97214412938E+01  0.32729944790E+02  0.40659140709E+02  0.00000000000E+00 0.  1.
         11    1    3    3    0    0  0.89075032307E+01  0.78907913025E+01 -0.61263943615E+01  0.13384353153E+02  0.51100000000E-03 0. -1.
        -11    1    3    3    0    0  0.18424525052E+02 -0.27475807640E+01 -0.21826700886E+02  0.28695246911E+02  0.51100000000E-03 0.  1.
        -12    1    3    3    0    0 -0.52546639366E+01  0.45782307553E+01 -0.47768495422E+01  0.84492592270E+01  0.00000000000E+00 0.  1.
</event>
<event>
 7    1  0.3014423E-011  0.5052886E+02  0.7816164E-02  0.1300439E+00
        -11   -1    0    0    0    0  0.00000000000E+00  0.00000000000E+00  0.45593999997E+02  0.45594000000E+02  0.51100000000E-03 0.  1.
         11   -1    0    0    0    0 -0.00000000000E+00 -0.00000000000E+00 -0.45593999997E+02  0.45594000000E+02  0.51100000000E-03 0. -1.
    9900012    2    1    2    0    0 -0.40182633721E+02  0.71407247584E+00 -0.61653624466E+01  0.50528860236E+02  0.30000001172E+02 0.  0.
        -12    1    1    2    0    0  0.40182633721E+02 -0.71407247584E+00  0.61653624466E+01  0.40659139764E+02  0.00000000000E+00 0.  1.
         11    1    3    3    0    0 -0.10765286654E+02 -0.26269449285E+01 -0.68260073871E+01  0.13014861256E+02  0.51100000000E-03 0. -1.
        -11    1    3    3    0    0 -0.50484936048E+01 -0.67847308424E+01  0.62797479359E+01  0.10533522425E+02  0.51100000000E-03 0.  1.
        -12    1    3    3    0    0 -0.24368853462E+02  0.10125748247E+02 -0.56191029953E+01  0.26980476554E+02  0.00000000000E+00 0.  1.
</event>
<event>
 7    1  0.3014423E-011  0.5052884E+02  0.7816164E-02  0.1300439E+00
        -11   -1    0    0    0    0  0.00000000000E+00  0.00000000000E+00  0.45593999997E+02  0.45594000000E+02  0.51100000000E-03 0. -1.
         11   -1    0    0    0    0 -0.00000000000E+00 -0.00000000000E+00 -0.45593999997E+02  0.45594000000E+02  0.51100000000E-03 0.  1.
    9900012    2    1    2    0    0  0.31505906600E+02 -0.22089426210E+02  0.13137816551E+02  0.50528842056E+02  0.29999945913E+02 0.  0.
        -12    1    1    2    0    0 -0.31505906600E+02  0.22089426210E+02 -0.13137816551E+02  0.40659157944E+02  0.00000000000E+00 0.  1.
         11    1    3    3    0    0  0.40648196859E+01 -0.61916331239E+01  0.92537159933E+01  0.11852862092E+02  0.51100000000E-03 0. -1.
        -11    1    3    3    0    0  0.62769421392E+01 -0.15248317143E+02 -0.22226401732E+01  0.16638849357E+02  0.51100000000E-03 0.  1.
        -12    1    3    3    0    0  0.21164144775E+02 -0.64947594327E+00  0.61067407311E+01  0.22037130608E+02  0.00000000000E+00 0.  1.
</event>
<event>
 7    1  0.3014423E-011  0.5052887E+02  0.7816164E-02  0.1300439E+00
        -11   -1    0    0    0    0  0.00000000000E+00  0.00000000000E+00  0.45593999997E+02  0.45594000000E+02  0.51100000000E-03 0. -1.
         11   -1    0    0    0    0 -0.00000000000E+00 -0.00000000000E+00 -0.45593999997E+02  0.45594000000E+02  0.51100000000E-03 0.  1.
    9900012    2    1    2    0    0 -0.89826967735E+01  0.39331009136E+02  0.50545154937E+01  0.50528865137E+02  0.30000016069E+02 0.  0.
        -12    1    1    2    0    0  0.89826967735E+01 -0.39331009136E+02 -0.50545154937E+01  0.40659134863E+02  0.00000000000E+00 0.  1.
         11    1    3    3    0    0  0.16871167990E+01  0.26534983367E+02  0.13487089151E+02  0.29813642505E+02  0.51100000000E-03 0. -1.
        -11    1    3    3    0    0 -0.14002132375E+01  0.32415308515E+00 -0.44460860154E+01  0.46726174090E+01  0.51100000000E-03 0.  1.
        -12    1    3    3    0    0 -0.92696003350E+01  0.12471872683E+02 -0.39864876422E+01  0.16042605222E+02  0.00000000000E+00 0.  1.
</event>
<event>
 7    1  0.3014423E-011  0.5052887E+02  0.7816164E-02  0.1300439E+00
        -11   -1    0    0    0    0  0.00000000000E+00  0.00000000000E+00  0.45593999997E+02  0.45594000000E+02  0.51100000000E-03 0.  1.
         11   -1    0    0    0    0 -0.00000000000E+00 -0.00000000000E+00 -0.45593999997E+02  0.45594000000E+02  0.51100000000E-03 0. -1.
    9900012    2    1    2    0    0 -0.69743118108E+01 -0.49214410574E+01 -0.39753032700E+02  0.50528865526E+02  0.30000017252E+02 0.  0.
        -12    1    1    2    0    0  0.69743118108E+01  0.49214410574E+01  0.39753032700E+02  0.40659134474E+02  0.00000000000E+00 0.  1.
         11    1    3    3    0    0 -0.87715885536E+01  0.51537959085E+01 -0.43708283527E+01  0.11072782792E+02  0.51100000000E-03 0. -1.
        -11    1    3    3    0    0  0.22817606081E+01 -0.75315650867E+01 -0.58380208282E+01  0.97986423335E+01  0.51100000000E-03 0.  1.
         12    1    3    3    0    0 -0.48448386539E+00 -0.25436718792E+01 -0.29544183519E+02  0.29657440400E+02  0.00000000000E+00 0. -1.
</event>
<event>
 7    1  0.3014423E-011  0.5052886E+02  0.7816164E-02  0.1300439E+00
        -11   -1    0    0    0    0  0.00000000000E+00  0.00000000000E+00  0.45593999997E+02  0.45594000000E+02  0.51100000000E-03 0.  1.
         11   -1    0    0    0    0 -0.00000000000E+00 -0.00000000000E+00 -0.45593999997E+02  0.45594000000E+02  0.51100000000E-03 0. -1.
    9900012    2    1    2    0    0  0.34371796328E+02 -0.10153005956E+02 -0.19200572071E+02  0.50528857356E+02  0.29999992418E+02 0.  0.
        -12    1    1    2    0    0 -0.34371796328E+02  0.10153005956E+02  0.19200572071E+02  0.40659142644E+02  0.00000000000E+00 0.  1.
         11    1    3    3    0    0  0.63591280085E+01 -0.58353479349E+01 -0.16800977405E+02  0.18888161281E+02  0.51100000000E-03 0. -1.
        -11    1    3    3    0    0  0.21918443602E+01  0.30833015720E+01 -0.29140676174E+01  0.47752194320E+01  0.51100000000E-03 0.  1.
        -12    1    3    3    0    0  0.25820823959E+02 -0.74009595930E+01  0.51447295211E+00  0.26865476642E+02  0.00000000000E+00 0.  1.
</event>
<event>
 7    1  0.3014423E-011  0.5052886E+02  0.7816164E-02  0.1300439E+00
        -11   -1    0    0    0    0  0.00000000000E+00  0.00000000000E+00  0.45593999997E+02  0.45594000000E+02  0.51100000000E-03 0. -1.
         11   -1    0    0    0    0 -0.00000000000E+00 -0.00000000000E+00 -0.45593999997E+02  0.45594000000E+02  0.51100000000E-03 0.  1.
    9900012    2    1    2    0    0 -0.16886059956E+01  0.18651316934E+02  0.36089375566E+02  0.50528855367E+02  0.29999986373E+02 0.  0.
        -12    1    1    2    0    0  0.16886059956E+01 -0.18651316934E+02 -0.36089375566E+02  0.40659144633E+02  0.00000000000E+00 0.  1.
         11    1    3    3    0    0 -0.90320273152E+00 -0.16130960641E+01  0.37308481102E+01  0.41637821711E+01  0.51100000000E-03 0. -1.
        -11    1    3    3    0    0 -0.88476290145E+01  0.47016383913E+01  0.53427919196E+00  0.10033513704E+02  0.51100000000E-03 0.  1.
         12    1    3    3    0    0  0.80622257504E+01  0.15562774607E+02  0.31824248264E+02  0.36331559491E+02  0.00000000000E+00 0. -1.
</event>
<event>
 7    1  0.3014423E-011  0.5052886E+02  0.7816164E-02  0.1300439E+00
        -11   -1    0    0    0    0  0.00000000000E+00  0.00000000000E+00  0.45593999997E+02  0.45594000000E+02  0.51100000000E-03 0. -1.
         11   -1    0    0    0    0 -0.00000000000E+00 -0.00000000000E+00 -0.45593999997E+02  0.45594000000E+02  0.51100000000E-03 0.  1.
    9900012    2    1    2    0    0  0.11432629738E+02 -0.33193469633E+02  0.20509851916E+02  0.50528862348E+02  0.30000007592E+02 0.  0.
        -12    1    1    2    0    0 -0.11432629738E+02  0.33193469633E+02 -0.20509851916E+02  0.40659137652E+02  0.00000000000E+00 0.  1.
         11    1    3    3    0    0  0.65805833369E+00 -0.20539168738E+01  0.90832974330E+01  0.93358399629E+01  0.51100000000E-03 0. -1.
        -11    1    3    3    0    0 -0.25003013198E+01 -0.10271400049E+01  0.75954738355E+01  0.80621179802E+01  0.51100000000E-03 0.  1.
        -12    1    3    3    0    0  0.13274872724E+02 -0.30112412754E+02  0.38310806478E+01  0.33130904404E+02  0.00000000000E+00 0.  1.
</event>
<event>
 7    1  0.3014423E-011  0.5052886E+02  0.7816164E-02  0.1300439E+00
        -11   -1    0    0    0    0  0.00000000000E+00  0.00000000000E+00  0.45593999997E+02  0.45594000000E+02  0.51100000000E-03 0.  1.
         11   -1    0    0    0    0 -0.00000000000E+00 -0.00000000000E+00 -0.45593999997E+02  0.45594000000E+02  0.51100000000E-03 0. -1.
    9900012    2    1    2    0    0 -0.35380866120E+02 -0.18127298756E+02 -0.85300120173E+01  0.50528858929E+02  0.29999997201E+02 0.  0.
        -12    1    1    2    0    0  0.35380866120E+02  0.18127298756E+02  0.85300120173E+01  0.40659141071E+02  0.00000000000E+00 0.  1.
         11    1    3    3    0    0 -0.20094551019E+02 -0.20663780679E+02 -0.57614125275E+01  0.29393480352E+02  0.51100000000E-03 0. -1.
        -11    1    3    3    0    0  0.23319204474E+01  0.10640930875E+01  0.14698608005E+01  0.29547653216E+01  0.51100000000E-03 0.  1.
        -12    1    3    3    0    0 -0.17618235549E+02  0.14723888356E+01 -0.42384602903E+01  0.18180613256E+02  0.00000000000E+00 0.  1.
</event>
<event>
 7    1  0.3014423E-011  0.5052886E+02  0.7816164E-02  0.1300439E+00
        -11   -1    0    0    0    0  0.00000000000E+00  0.00000000000E+00  0.45593999997E+02  0.45594000000E+02  0.51100000000E-03 0.  1.
         11   -1    0    0    0    0 -0.00000000000E+00 -0.00000000000E+00 -0.45593999997E+02  0.45594000000E+02  0.51100000000E-03 0. -1.
    9900012    2    1    2    0    0 -0.28484025996E+02 -0.24410132882E+02 -0.15683468934E+02  0.50528861765E+02  0.30000005821E+02 0.  0.
        -12    1    1    2    0    0  0.28484025996E+02  0.24410132882E+02  0.15683468934E+02  0.40659138235E+02  0.00000000000E+00 0.  1.
         11    1    3    3    0    0 -0.10270675900E+02 -0.18306371262E+01  0.22432028448E+01  0.10670987536E+02  0.51100000000E-03 0. -1.
        -11    1    3    3    0    0 -0.19021084590E+02 -0.96948620607E+01 -0.57468567668E+01  0.22109237262E+02  0.51100000000E-03 0.  1.
        -12    1    3    3    0    0  0.80773449420E+00 -0.12884633695E+02 -0.12179815012E+02  0.17748636967E+02  0.00000000000E+00 0.  1.
</event>
<event>
 7    1  0.3014423E-011  0.5052888E+02  0.7816164E-02  0.1300439E+00
        -11   -1    0    0    0    0  0.00000000000E+00  0.00000000000E+00  0.45593999997E+02  0.45594000000E+02  0.51100000000E-03 0.  1.
         11   -1    0    0    0    0 -0.00000000000E+00 -0.00000000000E+00 -0.45593999997E+02  0.45594000000E+02  0.51100000000E-03 0. -1.
    9900012    2    1    2    0    0 -0.10349291574E+02 -0.35074659380E+02 -0.17771441420E+02  0.50528884210E+02  0.30000074044E+02 0.  0.
        -12    1    1    2    0    0  0.10349291574E+02  0.35074659380E+02  0.17771441420E+02  0.40659115790E+02  0.00000000000E+00 0.  1.
         11    1    3    3    0    0 -0.37406404074E+01 -0.20879643337E+01 -0.11713243513E+01  0.44411695209E+01  0.51100000000E-03 0. -1.
        -11    1    3    3    0    0 -0.14128161922E+02 -0.26497346415E+02 -0.43897692432E+01  0.30347724801E+02  0.51100000000E-03 0.  1.
         12    1    3    3    0    0  0.75195107554E+01 -0.64893486307E+01 -0.12210347825E+02  0.15739989888E+02  0.00000000000E+00 0. -1.
</event>
<event>
 7    1  0.3014423E-011  0.5052888E+02  0.7816164E-02  0.1300439E+00
        -11   -1    0    0    0    0  0.00000000000E+00  0.00000000000E+00  0.45593999997E+02  0.45594000000E+02  0.51100000000E-03 0. -1.
         11   -1    0    0    0    0 -0.00000000000E+00 -0.00000000000E+00 -0.45593999997E+02  0.45594000000E+02  0.51100000000E-03 0.  1.
    9900012    2    1    2    0    0  0.33036771583E+02  0.15734308986E+02  0.17724770114E+02  0.50528877635E+02  0.30000054060E+02 0.  0.
        -12    1    1    2    0    0 -0.33036771583E+02 -0.15734308986E+02 -0.17724770114E+02  0.40659122365E+02  0.00000000000E+00 0.  1.
         11    1    3    3    0    0  0.65605580729E+01  0.57153929336E+00 -0.13184133091E+01  0.67160846709E+01  0.51100000000E-03 0. -1.
        -11    1    3    3    0    0  0.27483470592E+00  0.26428971128E+01 -0.52944021537E+01  0.59237769785E+01  0.51100000000E-03 0.  1.
         12    1    3    3    0    0  0.26201378804E+02  0.12519872580E+02  0.24337585577E+02  0.37889015986E+02  0.00000000000E+00 0. -1.
</event>
<event>
 7    1  0.3014423E-011  0.5052887E+02  0.7816164E-02  0.1300439E+00
        -11   -1    0    0    0    0  0.00000000000E+00  0.00000000000E+00  0.45593999997E+02  0.45594000000E+02  0.51100000000E-03 0.  1.
         11   -1    0    0    0    0 -0.00000000000E+00 -0.00000000000E+00 -0.45593999997E+02  0.45594000000E+02  0.51100000000E-03 0. -1.
    9900012    2    1    2    0    0  0.14225718201E+02 -0.47602962601E+01 -0.37790650929E+02  0.50528870934E+02  0.30000033690E+02 0.  0.
        -12    1    1    2    0    0 -0.14225718201E+02  0.47602962601E+01  0.37790650929E+02  0.40659129066E+02  0.00000000000E+00 0.  1.
         11    1    3    3    0    0 -0.45250314236E+01  0.23489548801E+01 -0.23168327462E+02  0.23722666293E+02  0.51100000000E-03 0.  1.
        -11    1    3    3    0    0  0.12285108667E+02 -0.49510353552E+01 -0.14960707311E+02  0.19981476661E+02  0.51100000000E-03 0. -1.
        -12    1    3    3    0    0  0.64656409578E+01 -0.21582157850E+01  0.33838384427E+00  0.68247279797E+01  0.00000000000E+00 0.  1.
</event>
<event>
 7    1  0.3014423E-011  0.5052885E+02  0.7816164E-02  0.1300439E+00
        -11   -1    0    0    0    0  0.00000000000E+00  0.00000000000E+00  0.45593999997E+02  0.45594000000E+02  0.51100000000E-03 0.  1.
         11   -1    0    0    0    0 -0.00000000000E+00 -0.00000000000E+00 -0.45593999997E+02  0.45594000000E+02  0.51100000000E-03 0. -1.
    9900012    2    1    2    0    0  0.33738305908E+02  0.10272619807E+02 -0.20232798433E+02  0.50528854218E+02  0.29999982882E+02 0.  0.
        -12    1    1    2    0    0 -0.33738305908E+02 -0.10272619807E+02  0.20232798433E+02  0.40659145782E+02  0.00000000000E+00 0.  1.
         11    1    3    3    0    0  0.54911620080E+01  0.93754315844E+00 -0.12578951122E+02  0.13757247506E+02  0.51100000000E-03 0. -1.
        -11    1    3    3    0    0  0.31014132019E+01  0.69319201736E+01  0.44064603495E+01  0.87799301942E+01  0.51100000000E-03 0.  1.
         12    1    3    3    0    0  0.25145730698E+02  0.24031564753E+01 -0.12060307661E+02  0.27991676518E+02  0.00000000000E+00 0. -1.
</event>
<event>
 7    1  0.3014423E-011  0.5052886E+02  0.7816164E-02  0.1300439E+00
        -11   -1    0    0    0    0  0.00000000000E+00  0.00000000000E+00  0.45593999997E+02  0.45594000000E+02  0.51100000000E-03 0. -1.
         11   -1    0    0    0    0 -0.00000000000E+00 -0.00000000000E+00 -0.45593999997E+02  0.45594000000E+02  0.51100000000E-03 0.  1.
    9900012    2    1    2    0    0  0.33351704614E+02  0.70926461533E+01  0.22147770717E+02  0.50528861079E+02  0.30000003735E+02 0.  0.
        -12    1    1    2    0    0 -0.33351704614E+02 -0.70926461533E+01 -0.22147770717E+02  0.40659138921E+02  0.00000000000E+00 0.  1.
         11    1    3    3    0    0  0.19874679991E+02  0.63185513669E+01  0.15684774052E+02  0.26094810470E+02  0.51100000000E-03 0. -1.
        -11    1    3    3    0    0  0.14817155146E+02  0.28988568916E+01  0.11384020028E+02  0.18908923030E+02  0.51100000000E-03 0.  1.
        -12    1    3    3    0    0 -0.13401305228E+01 -0.21247621052E+01 -0.49210233634E+01  0.55251275791E+01  0.00000000000E+00 0.  1.
</event>
<event>
 7    1  0.3014423E-011  0.5052886E+02  0.7816164E-02  0.1300439E+00
        -11   -1    0    0    0    0  0.00000000000E+00  0.00000000000E+00  0.45593999997E+02  0.45594000000E+02  0.51100000000E-03 0.  1.
         11   -1    0    0    0    0 -0.00000000000E+00 -0.00000000000E+00 -0.45593999997E+02  0.45594000000E+02  0.51100000000E-03 0. -1.
    9900012    2    1    2    0    0  0.27990871937E+02 -0.27729919852E+02 -0.10036366345E+02  0.50528855688E+02  0.29999987350E+02 0.  0.
        -12    1    1    2    0    0 -0.27990871937E+02  0.27729919852E+02  0.10036366345E+02  0.40659144312E+02  0.00000000000E+00 0.  1.
         11    1    3    3    0    0  0.24468932464E+01 -0.55980358952E+01 -0.32626757800E+01  0.69260628029E+01  0.51100000000E-03 0. -1.
        -11    1    3    3    0    0  0.38269490575E+01  0.93638756066E+00 -0.10958492525E+02  0.11645210150E+02  0.51100000000E-03 0.  1.
        -12    1    3    3    0    0  0.21717029633E+02 -0.23068271517E+02  0.41848019600E+01  0.31957582736E+02  0.00000000000E+00 0.  1.
</event>
<event>
 7    1  0.3014423E-011  0.5052886E+02  0.7816164E-02  0.1300439E+00
        -11   -1    0    0    0    0  0.00000000000E+00  0.00000000000E+00  0.45593999997E+02  0.45594000000E+02  0.51100000000E-03 0. -1.
         11   -1    0    0    0    0 -0.00000000000E+00 -0.00000000000E+00 -0.45593999997E+02  0.45594000000E+02  0.51100000000E-03 0.  1.
    9900012    2    1    2    0    0 -0.42679649175E+01 -0.35583903781E+02  0.19202493292E+02  0.50528862263E+02  0.30000007335E+02 0.  0.
        -12    1    1    2    0    0  0.42679649175E+01  0.35583903781E+02 -0.19202493292E+02  0.40659137737E+02  0.00000000000E+00 0.  1.
         11    1    3    3    0    0  0.60180529723E+01 -0.40228204202E+01  0.14483739870E+02  0.16191935233E+02  0.51100000000E-03 0. -1.
        -11    1    3    3    0    0 -0.66308081293E+00 -0.14210482029E+00 -0.76565355204E+00  0.10227881341E+01  0.51100000000E-03 0.  1.
        -12    1    3    3    0    0 -0.96229370769E+01 -0.31418978541E+02  0.54844069744E+01  0.33314138896E+02  0.00000000000E+00 0.  1.
</event>
<event>
 7    1  0.3014423E-011  0.5052890E+02  0.7816164E-02  0.1300439E+00
        -11   -1    0    0    0    0  0.00000000000E+00  0.00000000000E+00  0.45593999997E+02  0.45594000000E+02  0.51100000000E-03 0. -1.
         11   -1    0    0    0    0 -0.00000000000E+00 -0.00000000000E+00 -0.45593999997E+02  0.45594000000E+02  0.51100000000E-03 0.  1.
    9900012    2    1    2    0    0  0.18134796752E+02  0.17210980435E+02  0.32063586404E+02  0.50528901708E+02  0.30000127232E+02 0.  0.
        -12    1    1    2    0    0 -0.18134796752E+02 -0.17210980435E+02 -0.32063586404E+02  0.40659098292E+02  0.00000000000E+00 0.  1.
         11    1    3    3    0    0  0.15111132199E+02  0.17909546103E+02  0.15944133036E+02  0.28342786322E+02  0.51100000000E-03 0. -1.
        -11    1    3    3    0    0  0.56596882317E+01  0.26648579286E+01  0.82975502126E+00  0.63104700551E+01  0.51100000000E-03 0.  1.
        -12    1    3    3    0    0 -0.26360236787E+01 -0.33634235964E+01  0.15289698348E+02  0.15875645331E+02  0.00000000000E+00 0.  1.
</event>
<event>
 7    1  0.3014423E-011  0.5052886E+02  0.7816164E-02  0.1300439E+00
        -11   -1    0    0    0    0  0.00000000000E+00  0.00000000000E+00  0.45593999997E+02  0.45594000000E+02  0.51100000000E-03 0. -1.
         11   -1    0    0    0    0 -0.00000000000E+00 -0.00000000000E+00 -0.45593999997E+02  0.45594000000E+02  0.51100000000E-03 0.  1.
    9900012    2    1    2    0    0 -0.40280155958E+02 -0.10786242499E+01  0.54324111215E+01  0.50528862222E+02  0.30000007210E+02 0.  0.
        -12    1    1    2    0    0  0.40280155958E+02  0.10786242499E+01 -0.54324111215E+01  0.40659137778E+02  0.00000000000E+00 0.  1.
         11    1    3    3    0    0 -0.27772814836E+02 -0.81890548523E+01  0.14482480288E+02  0.32374868321E+02  0.51100000000E-03 0. -1.
        -11    1    3    3    0    0 -0.89430385143E+01  0.19618647064E+01 -0.35509457276E+01  0.98201866997E+01  0.51100000000E-03 0.  1.
        -12    1    3    3    0    0 -0.35643026080E+01  0.51485658961E+01 -0.54991234389E+01  0.83338072010E+01  0.00000000000E+00 0.  1.
</event>
<event>
 7    1  0.3014423E-011  0.5052886E+02  0.7816164E-02  0.1300439E+00
        -11   -1    0    0    0    0  0.00000000000E+00  0.00000000000E+00  0.45593999997E+02  0.45594000000E+02  0.51100000000E-03 0.  1.
         11   -1    0    0    0    0 -0.00000000000E+00 -0.00000000000E+00 -0.45593999997E+02  0.45594000000E+02  0.51100000000E-03 0. -1.
    9900012    2    1    2    0    0  0.14773508117E+02  0.33093768263E+02 -0.18431258668E+02  0.50528864052E+02  0.30000012772E+02 0.  0.
        -12    1    1    2    0    0 -0.14773508117E+02 -0.33093768263E+02  0.18431258668E+02  0.40659135948E+02  0.00000000000E+00 0.  1.
         11    1    3    3    0    0 -0.23815065924E+01  0.35476647804E+01 -0.70324972593E+01  0.82288223341E+01  0.51100000000E-03 0. -1.
        -11    1    3    3    0    0  0.10832354865E+02  0.22851885622E+01  0.20380806583E+01  0.11256810015E+02  0.51100000000E-03 0.  1.
         12    1    3    3    0    0  0.63226598445E+01  0.27260914921E+02 -0.13436842067E+02  0.31043231703E+02  0.00000000000E+00 0. -1.
</event>
<event>
 7    1  0.3014423E-011  0.5052886E+02  0.7816164E-02  0.1300439E+00
        -11   -1    0    0    0    0  0.00000000000E+00  0.00000000000E+00  0.45593999997E+02  0.45594000000E+02  0.51100000000E-03 0. -1.
         11   -1    0    0    0    0 -0.00000000000E+00 -0.00000000000E+00 -0.45593999997E+02  0.45594000000E+02  0.51100000000E-03 0.  1.
    9900012    2    1    2    0    0  0.38922483534E+02  0.11711196940E+02 -0.10265915634E+01  0.50528858981E+02  0.29999997358E+02 0.  0.
        -12    1    1    2    0    0 -0.38922483534E+02 -0.11711196940E+02  0.10265915634E+01  0.40659141019E+02  0.00000000000E+00 0.  1.
         11    1    3    3    0    0  0.12281309091E+02  0.59142878339E+01  0.67974249932E+01  0.15232016950E+02  0.51100000000E-03 0. -1.
        -11    1    3    3    0    0  0.15977908504E+02  0.86371664980E+01  0.45427707149E+01  0.18722472361E+02  0.51100000000E-03 0.  1.
        -12    1    3    3    0    0  0.10663265939E+02 -0.28402573922E+01 -0.12366787272E+02  0.16574369670E+02  0.00000000000E+00 0.  1.
</event>
<event>
 7    1  0.3014423E-011  0.5052886E+02  0.7816164E-02  0.1300439E+00
        -11   -1    0    0    0    0  0.00000000000E+00  0.00000000000E+00  0.45593999997E+02  0.45594000000E+02  0.51100000000E-03 0. -1.
         11   -1    0    0    0    0 -0.00000000000E+00 -0.00000000000E+00 -0.45593999997E+02  0.45594000000E+02  0.51100000000E-03 0.  1.
    9900012    2    1    2    0    0 -0.20402552260E+02 -0.19034295165E+02  0.29573593263E+02  0.50528856506E+02  0.29999989837E+02 0.  0.
        -12    1    1    2    0    0  0.20402552260E+02  0.19034295165E+02 -0.29573593263E+02  0.40659143494E+02  0.00000000000E+00 0.  1.
         11    1    3    3    0    0 -0.77846489579E+01 -0.48258329242E+01  0.13156806140E+01  0.92531312835E+01  0.51100000000E-03 0. -1.
        -11    1    3    3    0    0 -0.15882459858E+02 -0.12347734903E+02  0.96868535983E+01  0.22328327776E+02  0.51100000000E-03 0.  1.
         12    1    3    3    0    0  0.32645565560E+01 -0.18607273371E+01  0.18571059051E+02  0.18947397447E+02  0.00000000000E+00 0. -1.
</event>
<event>
 7    1  0.3014423E-011  0.5052882E+02  0.7816164E-02  0.1300439E+00
        -11   -1    0    0    0    0  0.00000000000E+00  0.00000000000E+00  0.45593999997E+02  0.45594000000E+02  0.51100000000E-03 0.  1.
         11   -1    0    0    0    0 -0.00000000000E+00 -0.00000000000E+00 -0.45593999997E+02  0.45594000000E+02  0.51100000000E-03 0. -1.
    9900012    2    1    2    0    0 -0.14483369218E+02 -0.14263980776E+02 -0.35212781310E+02  0.50528817777E+02  0.29999872114E+02 0.  0.
        -12    1    1    2    0    0  0.14483369218E+02  0.14263980776E+02  0.35212781310E+02  0.40659182223E+02  0.00000000000E+00 0.  1.
         11    1    3    3    0    0 -0.38458668063E+00 -0.14572081699E+00 -0.21140513696E+01  0.21536840357E+01  0.51100000000E-03 0. -1.
        -11    1    3    3    0    0  0.90563530966E+01 -0.26281137576E+01 -0.88833228564E+01  0.12955228233E+02  0.51100000000E-03 0.  1.
         12    1    3    3    0    0 -0.23155135634E+02 -0.11490146202E+02 -0.24215407084E+02  0.35419905508E+02  0.00000000000E+00 0. -1.
</event>
<event>
 7    1  0.3014423E-011  0.5052886E+02  0.7816164E-02  0.1300439E+00
        -11   -1    0    0    0    0  0.00000000000E+00  0.00000000000E+00  0.45593999997E+02  0.45594000000E+02  0.51100000000E-03 0. -1.
         11   -1    0    0    0    0 -0.00000000000E+00 -0.00000000000E+00 -0.45593999997E+02  0.45594000000E+02  0.51100000000E-03 0.  1.
    9900012    2    1    2    0    0  0.16341360180E+02 -0.35685012314E+02  0.10616299484E+02  0.50528856242E+02  0.29999989034E+02 0.  0.
        -12    1    1    2    0    0 -0.16341360180E+02  0.35685012314E+02 -0.10616299484E+02  0.40659143758E+02  0.00000000000E+00 0.  1.
         11    1    3    3    0    0  0.16714119734E+02 -0.10021442180E+02  0.70476119096E+00  0.19500968961E+02  0.51100000000E-03 0. -1.
        -11    1    3    3    0    0  0.13438461935E+01 -0.38250447750E+01 -0.34885272275E+01  0.53485243386E+01  0.51100000000E-03 0.  1.
         12    1    3    3    0    0 -0.17166057474E+01 -0.21838525359E+02  0.13400065520E+02  0.25679362942E+02  0.00000000000E+00 0. -1.
</event>
<event>
 7    1  0.3014423E-011  0.5052885E+02  0.7816164E-02  0.1300439E+00
        -11   -1    0    0    0    0  0.00000000000E+00  0.00000000000E+00  0.45593999997E+02  0.45594000000E+02  0.51100000000E-03 0. -1.
         11   -1    0    0    0    0 -0.00000000000E+00 -0.00000000000E+00 -0.45593999997E+02  0.45594000000E+02  0.51100000000E-03 0.  1.
    9900012    2    1    2    0    0 -0.40040176417E+02  0.27508819726E+00 -0.70622275774E+01  0.50528850237E+02  0.29999970782E+02 0.  0.
        -12    1    1    2    0    0  0.40040176417E+02 -0.27508819726E+00  0.70622275774E+01  0.40659149763E+02  0.00000000000E+00 0.  1.
         11    1    3    3    0    0 -0.37902494064E+02  0.19763224442E+01 -0.37561064066E+01  0.38139392264E+02  0.51100000000E-03 0. -1.
        -11    1    3    3    0    0 -0.53506072930E+01 -0.49548376558E+01 -0.27029408381E+01  0.77772298432E+01  0.51100000000E-03 0.  1.
        -12    1    3    3    0    0  0.32129249396E+01  0.32536034089E+01 -0.60318033272E+00  0.46122281300E+01  0.00000000000E+00 0.  1.
</event>
<event>
 7    1  0.3014423E-011  0.5052886E+02  0.7816164E-02  0.1300439E+00
        -11   -1    0    0    0    0  0.00000000000E+00  0.00000000000E+00  0.45593999997E+02  0.45594000000E+02  0.51100000000E-03 0.  1.
         11   -1    0    0    0    0 -0.00000000000E+00 -0.00000000000E+00 -0.45593999997E+02  0.45594000000E+02  0.51100000000E-03 0. -1.
    9900012    2    1    2    0    0 -0.62361669471E+01 -0.24456979689E+02 -0.31876827660E+02  0.50528858650E+02  0.29999996352E+02 0.  0.
        -12    1    1    2    0    0  0.62361669471E+01  0.24456979689E+02  0.31876827660E+02  0.40659141350E+02  0.00000000000E+00 0.  1.
         11    1    3    3    0    0  0.11182003256E+01  0.75228686064E+00  0.12813099570E+01  0.18595867702E+01  0.51100000000E-03 0.  1.
        -11    1    3    3    0    0  0.17048307761E+01 -0.26217161145E+00 -0.18044396090E+02  0.18126649234E+02  0.51100000000E-03 0. -1.
         12    1    3    3    0    0 -0.90591980488E+01 -0.24947094938E+02 -0.15113741527E+02  0.30542622645E+02  0.00000000000E+00 0. -1.
</event>
<event>
 7    1  0.3014423E-011  0.5052885E+02  0.7816164E-02  0.1300439E+00
        -11   -1    0    0    0    0  0.00000000000E+00  0.00000000000E+00  0.45593999997E+02  0.45594000000E+02  0.51100000000E-03 0.  1.
         11   -1    0    0    0    0 -0.00000000000E+00 -0.00000000000E+00 -0.45593999997E+02  0.45594000000E+02  0.51100000000E-03 0. -1.
    9900012    2    1    2    0    0 -0.31640148632E+02 -0.11051461771E+02 -0.23020265099E+02  0.50528850747E+02  0.29999972332E+02 0.  0.
        -12    1    1    2    0    0  0.31640148632E+02  0.11051461771E+02  0.23020265099E+02  0.40659149253E+02  0.00000000000E+00 0.  1.
         11    1    3    3    0    0 -0.11292594442E+02 -0.13515190185E+02 -0.14260687545E+02  0.22661647435E+02  0.51100000000E-03 0. -1.
        -11    1    3    3    0    0 -0.17503567047E+01 -0.56956737494E+01 -0.62890216358E+00  0.59916580548E+01  0.51100000000E-03 0.  1.
         12    1    3    3    0    0 -0.18597197486E+02  0.81594021644E+01 -0.81306753901E+01  0.21875545257E+02  0.00000000000E+00 0. -1.
</event>
<event>
 7    1  0.3014423E-011  0.5052888E+02  0.7816164E-02  0.1300439E+00
        -11   -1    0    0    0    0  0.00000000000E+00  0.00000000000E+00  0.45593999997E+02  0.45594000000E+02  0.51100000000E-03 0.  1.
         11   -1    0    0    0    0 -0.00000000000E+00 -0.00000000000E+00 -0.45593999997E+02  0.45594000000E+02  0.51100000000E-03 0. -1.
    9900012    2    1    2    0    0  0.34997718031E+02 -0.16875822251E+02  0.11980432334E+02  0.50528875527E+02  0.30000047651E+02 0.  0.
        -12    1    1    2    0    0 -0.34997718031E+02  0.16875822251E+02 -0.11980432334E+02  0.40659124473E+02  0.00000000000E+00 0.  1.
         11    1    3    3    0    0  0.11802681321E+02 -0.11705834918E+02 -0.12549441277E+01  0.16670475173E+02  0.51100000000E-03 0. -1.
        -11    1    3    3    0    0  0.33172976929E+01  0.47443880008E+01 -0.28307924317E+01  0.64441498693E+01  0.51100000000E-03 0.  1.
        -12    1    3    3    0    0  0.19877739017E+02 -0.99143753346E+01  0.16066168894E+02  0.27414250484E+02  0.00000000000E+00 0.  1.
</event>
<event>
 7    1  0.3014423E-011  0.5052883E+02  0.7816164E-02  0.1300439E+00
        -11   -1    0    0    0    0  0.00000000000E+00  0.00000000000E+00  0.45593999997E+02  0.45594000000E+02  0.51100000000E-03 0.  1.
         11   -1    0    0    0    0 -0.00000000000E+00 -0.00000000000E+00 -0.45593999997E+02  0.45594000000E+02  0.51100000000E-03 0. -1.
    9900012    2    1    2    0    0  0.35874129000E+02  0.12911265437E+02  0.14124947299E+02  0.50528830764E+02  0.29999911591E+02 0.  0.
        -12    1    1    2    0    0 -0.35874129000E+02 -0.12911265437E+02 -0.14124947299E+02  0.40659169236E+02  0.00000000000E+00 0.  1.
         11    1    3    3    0    0 -0.14786711774E+01  0.48456154173E+01  0.47015292573E+01  0.69116448724E+01  0.51100000000E-03 0. -1.
        -11    1    3    3    0    0  0.88563885234E+00 -0.33023569969E+00  0.59617734369E+01  0.60362367886E+01  0.51100000000E-03 0.  1.
         12    1    3    3    0    0  0.36467161325E+02  0.83958857192E+01  0.34616446051E+01  0.37580949103E+02  0.00000000000E+00 0. -1.
</event>
<event>
 7    1  0.3014423E-011  0.5052887E+02  0.7816164E-02  0.1300439E+00
        -11   -1    0    0    0    0  0.00000000000E+00  0.00000000000E+00  0.45593999997E+02  0.45594000000E+02  0.51100000000E-03 0. -1.
         11   -1    0    0    0    0 -0.00000000000E+00 -0.00000000000E+00 -0.45593999997E+02  0.45594000000E+02  0.51100000000E-03 0.  1.
    9900012    2    1    2    0    0  0.15271150875E+02  0.15628936120E+00  0.37681994400E+02  0.50528866003E+02  0.30000018704E+02 0.  0.
        -12    1    1    2    0    0 -0.15271150875E+02 -0.15628936120E+00 -0.37681994400E+02  0.40659133997E+02  0.00000000000E+00 0.  1.
         11    1    3    3    0    0 -0.42098951829E+01  0.24347750041E+01  0.10018823695E+02  0.11136793760E+02  0.51100000000E-03 0. -1.
        -11    1    3    3    0    0  0.51567147987E+01 -0.10087289183E+02  0.81424667424E+01  0.13951518752E+02  0.51100000000E-03 0.  1.
        -12    1    3    3    0    0  0.14324331259E+02  0.78088035400E+01  0.19520703963E+02  0.25440553491E+02  0.00000000000E+00 0.  1.
</event>
<event>
 7    1  0.3014423E-011  0.5052886E+02  0.7816164E-02  0.1300439E+00
        -11   -1    0    0    0    0  0.00000000000E+00  0.00000000000E+00  0.45593999997E+02  0.45594000000E+02  0.51100000000E-03 0. -1.
         11   -1    0    0    0    0 -0.00000000000E+00 -0.00000000000E+00 -0.45593999997E+02  0.45594000000E+02  0.51100000000E-03 0.  1.
    9900012    2    1    2    0    0 -0.36699305064E+02  0.13436387896E+02 -0.11215627949E+02  0.50528858074E+02  0.29999994602E+02 0.  0.
        -12    1    1    2    0    0  0.36699305064E+02 -0.13436387896E+02  0.11215627949E+02  0.40659141926E+02  0.00000000000E+00 0.  1.
         11    1    3    3    0    0 -0.43549575554E+01  0.26224262666E+01 -0.56016033326E+01  0.75644388417E+01  0.51100000000E-03 0. -1.
        -11    1    3    3    0    0 -0.75238343499E+01  0.35803510570E+01 -0.13562046189E+02  0.15917163507E+02  0.51100000000E-03 0.  1.
         12    1    3    3    0    0 -0.24820513158E+02  0.72336105724E+01  0.79480215724E+01  0.27047255725E+02  0.00000000000E+00 0. -1.
</event>
<event>
 7    1  0.3014423E-011  0.5052886E+02  0.7816164E-02  0.1300439E+00
        -11   -1    0    0    0    0  0.00000000000E+00  0.00000000000E+00  0.45593999997E+02  0.45594000000E+02  0.51100000000E-03 0. -1.
         11   -1    0    0    0    0 -0.00000000000E+00 -0.00000000000E+00 -0.45593999997E+02  0.45594000000E+02  0.51100000000E-03 0.  1.
    9900012    2    1    2    0    0 -0.24592939619E+02 -0.30655189067E+02  0.10421722815E+02  0.50528860778E+02  0.30000002822E+02 0.  0.
        -12    1    1    2    0    0  0.24592939619E+02  0.30655189067E+02 -0.10421722815E+02  0.40659139222E+02  0.00000000000E+00 0.  1.
         11    1    3    3    0    0  0.11679830644E-01 -0.68824663906E+01  0.12035413274E+01  0.69869157734E+01  0.51100000000E-03 0. -1.
        -11    1    3    3    0    0 -0.15053189090E+02 -0.28144310262E+02  0.54315073203E+01  0.32375947460E+02  0.51100000000E-03 0.  1.
        -12    1    3    3    0    0 -0.95514303595E+01  0.43715875858E+01  0.37866741674E+01  0.11165997545E+02  0.00000000000E+00 0.  1.
</event>
<event>
 7    1  0.3014423E-011  0.5052885E+02  0.7816164E-02  0.1300439E+00
        -11   -1    0    0    0    0  0.00000000000E+00  0.00000000000E+00  0.45593999997E+02  0.45594000000E+02  0.51100000000E-03 0.  1.
         11   -1    0    0    0    0 -0.00000000000E+00 -0.00000000000E+00 -0.45593999997E+02  0.45594000000E+02  0.51100000000E-03 0. -1.
    9900012    2    1    2    0    0  0.14444839161E+02 -0.18842705905E+02 -0.33007052334E+02  0.50528850378E+02  0.29999971208E+02 0.  0.
        -12    1    1    2    0    0 -0.14444839161E+02  0.18842705905E+02  0.33007052334E+02  0.40659149622E+02  0.00000000000E+00 0.  1.
         11    1    3    3    0    0 -0.91676324535E+00 -0.34670186012E+01 -0.95075519906E+01  0.10161408266E+02  0.51100000000E-03 0. -1.
        -11    1    3    3    0    0  0.93759202211E+00 -0.35580250996E+01 -0.21272028954E+02  0.21587909521E+02  0.51100000000E-03 0.  1.
        -12    1    3    3    0    0  0.14424010384E+02 -0.11817662204E+02 -0.22274713897E+01  0.18779532591E+02  0.00000000000E+00 0.  1.
</event>
<event>
 7    1  0.4597315E-011  0.5052900E+02  0.7816164E-02  0.1300438E+00
        -11   -1    0    0    0    0  0.00000000000E+00  0.00000000000E+00  0.45593999997E+02  0.45594000000E+02  0.51100000000E-03 0. -1.
         11   -1    0    0    0    0 -0.00000000000E+00 -0.00000000000E+00 -0.45593999997E+02  0.45594000000E+02  0.51100000000E-03 0.  1.
    9900012    2    1    2    0    0  0.21860146118E+02 -0.32010993209E+02 -0.12271284960E+02  0.50529002114E+02  0.30000432422E+02 0.  0.
        -12    1    1    2    0    0 -0.21860146118E+02  0.32010993209E+02  0.12271284960E+02  0.40658997886E+02  0.00000000000E+00 0.  1.
         11    1    3    3    0    0  0.19272019426E+02 -0.13370101578E+02 -0.10457429728E+02  0.25681280842E+02  0.51100000000E-03 0. -1.
        -11    1    3    3    0    0  0.21185935042E+01 -0.63518665436E+00 -0.59666195263E+01  0.63633677683E+01  0.51100000000E-03 0.  1.
         12    1    3    3    0    0  0.46953318823E+00 -0.18005704977E+02  0.41527642938E+01  0.18484353503E+02  0.00000000000E+00 0. -1.
</event>
<event>
 7    1  0.3014423E-011  0.5052886E+02  0.7816164E-02  0.1300439E+00
        -11   -1    0    0    0    0  0.00000000000E+00  0.00000000000E+00  0.45593999997E+02  0.45594000000E+02  0.51100000000E-03 0. -1.
         11   -1    0    0    0    0 -0.00000000000E+00 -0.00000000000E+00 -0.45593999997E+02  0.45594000000E+02  0.51100000000E-03 0.  1.
    9900012    2    1    2    0    0 -0.41735588285E+01  0.40118567342E+02 -0.51232619011E+01  0.50528857715E+02  0.29999993511E+02 0.  0.
        -12    1    1    2    0    0  0.41735588285E+01 -0.40118567342E+02  0.51232619011E+01  0.40659142285E+02  0.00000000000E+00 0.  1.
         11    1    3    3    0    0 -0.66078819037E+01  0.29338950326E+02  0.15920640750E+01  0.30115988739E+02  0.51100000000E-03 0. -1.
        -11    1    3    3    0    0 -0.39087098396E+01  0.47172373098E+00  0.29535422810E+01  0.49217830261E+01  0.51100000000E-03 0.  1.
        -12    1    3    3    0    0  0.63430329148E+01  0.10307893285E+02 -0.96688682571E+01  0.15491085950E+02  0.00000000000E+00 0.  1.
</event>
<event>
 7    1  0.3014423E-011  0.5052886E+02  0.7816164E-02  0.1300439E+00
        -11   -1    0    0    0    0  0.00000000000E+00  0.00000000000E+00  0.45593999997E+02  0.45594000000E+02  0.51100000000E-03 0. -1.
         11   -1    0    0    0    0 -0.00000000000E+00 -0.00000000000E+00 -0.45593999997E+02  0.45594000000E+02  0.51100000000E-03 0.  1.
    9900012    2    1    2    0    0  0.13862813158E+01 -0.35899484500E+02  0.19038665652E+02  0.50528861383E+02  0.30000004661E+02 0.  0.
        -12    1    1    2    0    0 -0.13862813158E+01  0.35899484500E+02 -0.19038665652E+02  0.40659138617E+02  0.00000000000E+00 0.  1.
         11    1    3    3    0    0  0.14375264372E+01 -0.22679461433E+02  0.18545396485E+02  0.29331828859E+02  0.51100000000E-03 0. -1.
        -11    1    3    3    0    0  0.34282328016E+01 -0.13898132798E+02  0.52653250380E+01  0.15252361241E+02  0.51100000000E-03 0.  1.
        -12    1    3    3    0    0 -0.34794779230E+01  0.67810973109E+00 -0.47720558717E+01  0.59446712833E+01  0.00000000000E+00 0.  1.
</event>
<event>
 7    1  0.3014423E-011  0.5052886E+02  0.7816164E-02  0.1300439E+00
        -11   -1    0    0    0    0  0.00000000000E+00  0.00000000000E+00  0.45593999997E+02  0.45594000000E+02  0.51100000000E-03 0.  1.
         11   -1    0    0    0    0 -0.00000000000E+00 -0.00000000000E+00 -0.45593999997E+02  0.45594000000E+02  0.51100000000E-03 0. -1.
    9900012    2    1    2    0    0 -0.73913095615E+01  0.32394657813E+01 -0.39850216056E+02  0.50528864307E+02  0.30000013547E+02 0.  0.
        -12    1    1    2    0    0  0.73913095615E+01 -0.32394657813E+01  0.39850216056E+02  0.40659135693E+02  0.00000000000E+00 0.  1.
         11    1    3    3    0    0 -0.98886376610E+01  0.82172700998E+01 -0.15634347148E+02  0.20242072366E+02  0.51100000000E-03 0. -1.
        -11    1    3    3    0    0 -0.55794677810E+01  0.21906498997E+01 -0.35421983396E+01  0.69625122651E+01  0.51100000000E-03 0.  1.
        -12    1    3    3    0    0  0.80767958806E+01 -0.71684542183E+01 -0.20673670569E+02  0.23324279675E+02  0.00000000000E+00 0.  1.
</event>
<event>
 7    1  0.3014423E-011  0.5052885E+02  0.7816164E-02  0.1300439E+00
        -11   -1    0    0    0    0  0.00000000000E+00  0.00000000000E+00  0.45593999997E+02  0.45594000000E+02  0.51100000000E-03 0.  1.
         11   -1    0    0    0    0 -0.00000000000E+00 -0.00000000000E+00 -0.45593999997E+02  0.45594000000E+02  0.51100000000E-03 0. -1.
    9900012    2    1    2    0    0 -0.57470268935E+01 -0.25688692089E+02 -0.30987564252E+02  0.50528851489E+02  0.29999974587E+02 0.  0.
        -12    1    1    2    0    0  0.57470268935E+01  0.25688692089E+02  0.30987564252E+02  0.40659148511E+02  0.00000000000E+00 0.  1.
         11    1    3    3    0    0 -0.67986617111E+01 -0.21837502375E+02 -0.55749860298E+01  0.23541002114E+02  0.51100000000E-03 0. -1.
        -11    1    3    3    0    0  0.34051053639E+01 -0.34801685957E+01 -0.76623203933E+01  0.90784068021E+01  0.51100000000E-03 0.  1.
        -12    1    3    3    0    0 -0.23534705463E+01 -0.37102111801E+00 -0.17750257829E+02  0.17909442573E+02  0.00000000000E+00 0.  1.
</event>
<event>
 7    1  0.3014423E-011  0.5052885E+02  0.7816164E-02  0.1300439E+00
        -11   -1    0    0    0    0  0.00000000000E+00  0.00000000000E+00  0.45593999997E+02  0.45594000000E+02  0.51100000000E-03 0.  1.
         11   -1    0    0    0    0 -0.00000000000E+00 -0.00000000000E+00 -0.45593999997E+02  0.45594000000E+02  0.51100000000E-03 0. -1.
    9900012    2    1    2    0    0 -0.24738734131E+02 -0.10470625256E+02 -0.30520938210E+02  0.50528848154E+02  0.29999964448E+02 0.  0.
        -12    1    1    2    0    0  0.24738734131E+02  0.10470625256E+02  0.30520938210E+02  0.40659151846E+02  0.00000000000E+00 0.  1.
         11    1    3    3    0    0  0.18002698479E+01 -0.61971721845E+01 -0.12416942731E+01  0.65717364173E+01  0.51100000000E-03 0. -1.
        -11    1    3    3    0    0 -0.81733516817E+00 -0.66719133019E+01 -0.40481361900E+01  0.78466471030E+01  0.51100000000E-03 0.  1.
         12    1    3    3    0    0 -0.25721668811E+02  0.23984602309E+01 -0.25231107747E+02  0.36110464633E+02  0.00000000000E+00 0. -1.
</event>
<event>
 7    1  0.3014423E-011  0.5052887E+02  0.7816164E-02  0.1300439E+00
        -11   -1    0    0    0    0  0.00000000000E+00  0.00000000000E+00  0.45593999997E+02  0.45594000000E+02  0.51100000000E-03 0.  1.
         11   -1    0    0    0    0 -0.00000000000E+00 -0.00000000000E+00 -0.45593999997E+02  0.45594000000E+02  0.51100000000E-03 0. -1.
    9900012    2    1    2    0    0 -0.15617946641E+02  0.28060172289E+02 -0.24937351582E+02  0.50528867814E+02  0.30000024209E+02 0.  0.
        -12    1    1    2    0    0  0.15617946641E+02 -0.28060172289E+02  0.24937351582E+02  0.40659132186E+02  0.00000000000E+00 0.  1.
         11    1    3    3    0    0 -0.95475147829E+01  0.16991433572E+02  0.26897899841E+00  0.19491952270E+02  0.51100000000E-03 0. -1.
        -11    1    3    3    0    0  0.22988086811E+00  0.75581201338E+01 -0.38292202300E+01  0.84759042586E+01  0.51100000000E-03 0.  1.
        -12    1    3    3    0    0 -0.63003127267E+01  0.35106185832E+01 -0.21377110350E+02  0.22561011285E+02  0.00000000000E+00 0.  1.
</event>
<event>
 7    1  0.3014423E-011  0.5052886E+02  0.7816164E-02  0.1300439E+00
        -11   -1    0    0    0    0  0.00000000000E+00  0.00000000000E+00  0.45593999997E+02  0.45594000000E+02  0.51100000000E-03 0.  1.
         11   -1    0    0    0    0 -0.00000000000E+00 -0.00000000000E+00 -0.45593999997E+02  0.45594000000E+02  0.51100000000E-03 0. -1.
    9900012    2    1    2    0    0  0.30821372999E+01 -0.20296639133E+02 -0.35095758948E+02  0.50528862939E+02  0.30000009388E+02 0.  0.
        -12    1    1    2    0    0 -0.30821372999E+01  0.20296639133E+02  0.35095758948E+02  0.40659137061E+02  0.00000000000E+00 0.  1.
         11    1    3    3    0    0 -0.41358231448E+00 -0.52898044815E+01 -0.25109862079E+01  0.58701050911E+01  0.51100000000E-03 0. -1.
        -11    1    3    3    0    0 -0.30267114618E+01 -0.21219863031E+02 -0.24521097775E+02  0.32568816461E+02  0.51100000000E-03 0.  1.
        -12    1    3    3    0    0  0.65224310762E+01  0.62130283793E+01 -0.80636749647E+01  0.12089941386E+02  0.00000000000E+00 0.  1.
</event>
<event>
 7    1  0.3014423E-011  0.5052899E+02  0.7816164E-02  0.1300438E+00
        -11   -1    0    0    0    0  0.00000000000E+00  0.00000000000E+00  0.45593999997E+02  0.45594000000E+02  0.51100000000E-03 0. -1.
         11   -1    0    0    0    0 -0.00000000000E+00 -0.00000000000E+00 -0.45593999997E+02  0.45594000000E+02  0.51100000000E-03 0.  1.
    9900012    2    1    2    0    0 -0.39784380238E+02 -0.77553472361E+01  0.31957227433E+01  0.50528991582E+02  0.30000400409E+02 0.  0.
        -12    1    1    2    0    0  0.39784380238E+02  0.77553472361E+01 -0.31957227433E+01  0.40659008418E+02  0.00000000000E+00 0.  1.
         11    1    3    3    0    0 -0.67613963078E+01  0.36501705444E+01 -0.73843445300E+01  0.10656864897E+02  0.51100000000E-03 0. -1.
        -11    1    3    3    0    0 -0.27712595143E+00 -0.36974536133E+01 -0.16749938063E+01  0.40686074433E+01  0.51100000000E-03 0.  1.
         12    1    3    3    0    0 -0.32745857979E+02 -0.77080641672E+01  0.12255061080E+02  0.35803519241E+02  0.00000000000E+00 0. -1.
</event>
<event>
 7    1  0.3014423E-011  0.5052884E+02  0.7816164E-02  0.1300439E+00
        -11   -1    0    0    0    0  0.00000000000E+00  0.00000000000E+00  0.45593999997E+02  0.45594000000E+02  0.51100000000E-03 0.  1.
         11   -1    0    0    0    0 -0.00000000000E+00 -0.00000000000E+00 -0.45593999997E+02  0.45594000000E+02  0.51100000000E-03 0. -1.
    9900012    2    1    2    0    0 -0.37081342108E+02  0.74285333366E+01 -0.14931773445E+02  0.50528844840E+02  0.29999954377E+02 0.  0.
        -12    1    1    2    0    0  0.37081342108E+02 -0.74285333366E+01  0.14931773445E+02  0.40659155160E+02  0.00000000000E+00 0.  1.
         11    1    3    3    0    0 -0.27551934411E+02 -0.20706427242E+01 -0.74429855884E+01  0.28614588688E+02  0.51100000000E-03 0. -1.
        -11    1    3    3    0    0 -0.13323712389E+02  0.43655530769E+01 -0.65014505567E+01  0.15454715303E+02  0.51100000000E-03 0.  1.
        -12    1    3    3    0    0  0.37943046920E+01  0.51336229839E+01 -0.98733729989E+00  0.64595408490E+01  0.00000000000E+00 0.  1.
</event>
<event>
 7    1  0.3014423E-011  0.5052886E+02  0.7816164E-02  0.1300439E+00
        -11   -1    0    0    0    0  0.00000000000E+00  0.00000000000E+00  0.45593999997E+02  0.45594000000E+02  0.51100000000E-03 0.  1.
         11   -1    0    0    0    0 -0.00000000000E+00 -0.00000000000E+00 -0.45593999997E+02  0.45594000000E+02  0.51100000000E-03 0. -1.
    9900012    2    1    2    0    0  0.30411764056E+01  0.71138057518E+01 -0.39916296229E+02  0.50528859689E+02  0.29999999511E+02 0.  0.
        -12    1    1    2    0    0 -0.30411764056E+01 -0.71138057518E+01  0.39916296229E+02  0.40659140311E+02  0.00000000000E+00 0.  1.
         11    1    3    3    0    0 -0.44856546565E+01 -0.49759624422E+01 -0.25437305784E+01  0.71660215908E+01  0.51100000000E-03 0. -1.
        -11    1    3    3    0    0  0.16715972649E+01  0.75694713471E+01 -0.31790992235E+01  0.83784130970E+01  0.51100000000E-03 0.  1.
         12    1    3    3    0    0  0.58552337972E+01  0.45202968469E+01 -0.34193466427E+02  0.34984425001E+02  0.00000000000E+00 0. -1.
</event>
<event>
 7    1  0.3014423E-011  0.5052886E+02  0.7816164E-02  0.1300439E+00
        -11   -1    0    0    0    0  0.00000000000E+00  0.00000000000E+00  0.45593999997E+02  0.45594000000E+02  0.51100000000E-03 0. -1.
         11   -1    0    0    0    0 -0.00000000000E+00 -0.00000000000E+00 -0.45593999997E+02  0.45594000000E+02  0.51100000000E-03 0.  1.
    9900012    2    1    2    0    0  0.39866803750E+02 -0.64045283632E+01 -0.47734294903E+01  0.50528860143E+02  0.30000000891E+02 0.  0.
        -12    1    1    2    0    0 -0.39866803750E+02  0.64045283632E+01  0.47734294903E+01  0.40659139857E+02  0.00000000000E+00 0.  1.
         11    1    3    3    0    0  0.65787312299E+01 -0.12411977948E+02  0.25362842739E+01  0.14274790344E+02  0.51100000000E-03 0. -1.
        -11    1    3    3    0    0  0.64170560515E+01 -0.28566499322E+01 -0.29768998682E+01  0.76289573527E+01  0.51100000000E-03 0.  1.
        -12    1    3    3    0    0  0.26871016469E+02  0.88640995171E+01 -0.43328138961E+01  0.28625112447E+02  0.00000000000E+00 0.  1.
</event>
<event>
 7    1  0.3014423E-011  0.5052886E+02  0.7816164E-02  0.1300439E+00
        -11   -1    0    0    0    0  0.00000000000E+00  0.00000000000E+00  0.45593999997E+02  0.45594000000E+02  0.51100000000E-03 0.  1.
         11   -1    0    0    0    0 -0.00000000000E+00 -0.00000000000E+00 -0.45593999997E+02  0.45594000000E+02  0.51100000000E-03 0. -1.
    9900012    2    1    2    0    0 -0.14423024513E+02  0.54317821693E+01 -0.37624962531E+02  0.50528859588E+02  0.29999999203E+02 0.  0.
        -12    1    1    2    0    0  0.14423024513E+02 -0.54317821693E+01  0.37624962531E+02  0.40659140412E+02  0.00000000000E+00 0.  1.
         11    1    3    3    0    0 -0.90163839477E+00  0.53773553076E+01 -0.46813595223E+01  0.71863780263E+01  0.51100000000E-03 0. -1.
        -11    1    3    3    0    0 -0.10692053946E+02  0.41540625194E+01 -0.15720010726E+01  0.11577885844E+02  0.51100000000E-03 0.  1.
         12    1    3    3    0    0 -0.28293321721E+01 -0.40996356577E+01 -0.31371601936E+02  0.31764595717E+02  0.00000000000E+00 0. -1.
</event>
<event>
 7    1  0.3014423E-011  0.5052877E+02  0.7816164E-02  0.1300439E+00
        -11   -1    0    0    0    0  0.00000000000E+00  0.00000000000E+00  0.45593999997E+02  0.45594000000E+02  0.51100000000E-03 0.  1.
         11   -1    0    0    0    0 -0.00000000000E+00 -0.00000000000E+00 -0.45593999997E+02  0.45594000000E+02  0.51100000000E-03 0. -1.
    9900012    2    1    2    0    0  0.13774515982E+01 -0.24593028270E+02 -0.32349007163E+02  0.50528773780E+02  0.29999738381E+02 0.  0.
        -12    1    1    2    0    0 -0.13774515982E+01  0.24593028270E+02  0.32349007163E+02  0.40659226220E+02  0.00000000000E+00 0.  1.
         11    1    3    3    0    0  0.31796132109E+01 -0.10447746741E+02 -0.45447248742E+01  0.11828773249E+02  0.51100000000E-03 0. -1.
        -11    1    3    3    0    0 -0.50987273609E+01 -0.11913809929E+02 -0.26430294161E+01  0.13225788917E+02  0.51100000000E-03 0.  1.
         12    1    3    3    0    0  0.32965657483E+01 -0.22314715996E+01 -0.25161252873E+02  0.25474211614E+02  0.00000000000E+00 0. -1.
</event>
<event>
 7    1  0.3014423E-011  0.5052886E+02  0.7816164E-02  0.1300439E+00
        -11   -1    0    0    0    0  0.00000000000E+00  0.00000000000E+00  0.45593999997E+02  0.45594000000E+02  0.51100000000E-03 0. -1.
         11   -1    0    0    0    0 -0.00000000000E+00 -0.00000000000E+00 -0.45593999997E+02  0.45594000000E+02  0.51100000000E-03 0.  1.
    9900012    2    1    2    0    0  0.19421333517E+02  0.35715865252E+02  0.59531469357E+00  0.50528860488E+02  0.30000001938E+02 0.  0.
        -12    1    1    2    0    0 -0.19421333517E+02 -0.35715865252E+02 -0.59531469357E+00  0.40659139512E+02  0.00000000000E+00 0.  1.
         11    1    3    3    0    0  0.71304919374E+00  0.10037363887E+02  0.21898902951E+01  0.10298190750E+02  0.51100000000E-03 0. -1.
        -11    1    3    3    0    0  0.45783993828E+01  0.24188038673E+02 -0.60316505194E+01  0.25345685314E+02  0.51100000000E-03 0.  1.
        -12    1    3    3    0    0  0.14129884941E+02  0.14904626919E+01  0.44370749178E+01  0.14884984424E+02  0.00000000000E+00 0.  1.
</event>
<event>
 7    1  0.3014423E-011  0.5052884E+02  0.7816164E-02  0.1300439E+00
        -11   -1    0    0    0    0  0.00000000000E+00  0.00000000000E+00  0.45593999997E+02  0.45594000000E+02  0.51100000000E-03 0.  1.
         11   -1    0    0    0    0 -0.00000000000E+00 -0.00000000000E+00 -0.45593999997E+02  0.45594000000E+02  0.51100000000E-03 0. -1.
    9900012    2    1    2    0    0 -0.32875021094E+02 -0.12102462572E+02 -0.20638080226E+02  0.50528843988E+02  0.29999951785E+02 0.  0.
        -12    1    1    2    0    0  0.32875021094E+02  0.12102462572E+02  0.20638080226E+02  0.40659156012E+02  0.00000000000E+00 0.  1.
         11    1    3    3    0    0 -0.70924436008E+01  0.24487928197E+01 -0.10132006766E+02  0.12607811225E+02  0.51100000000E-03 0. -1.
        -11    1    3    3    0    0 -0.27066389464E+02 -0.68278572014E+01 -0.50230475899E+01  0.28362652907E+02  0.51100000000E-03 0.  1.
        -12    1    3    3    0    0  0.12838119709E+01 -0.77233981905E+01 -0.54830258695E+01  0.95583798560E+01  0.00000000000E+00 0.  1.
</event>
<event>
 7    1  0.3014423E-011  0.5052886E+02  0.7816164E-02  0.1300439E+00
        -11   -1    0    0    0    0  0.00000000000E+00  0.00000000000E+00  0.45593999997E+02  0.45594000000E+02  0.51100000000E-03 0.  1.
         11   -1    0    0    0    0 -0.00000000000E+00 -0.00000000000E+00 -0.45593999997E+02  0.45594000000E+02  0.51100000000E-03 0. -1.
    9900012    2    1    2    0    0  0.79867542641E+01  0.21833912323E+02 -0.33356518524E+02  0.50528864507E+02  0.30000014156E+02 0.  0.
        -12    1    1    2    0    0 -0.79867542641E+01 -0.21833912323E+02  0.33356518524E+02  0.40659135493E+02  0.00000000000E+00 0.  1.
         11    1    3    3    0    0  0.49348471936E+01  0.15594050964E+02 -0.19704707009E+02  0.25608643480E+02  0.51100000000E-03 0. -1.
        -11    1    3    3    0    0  0.72285285812E+01  0.41600640137E+01 -0.17162175624E+02  0.19081352951E+02  0.51100000000E-03 0.  1.
         12    1    3    3    0    0 -0.41766215107E+01  0.20797973444E+01  0.35103641088E+01  0.58388680764E+01  0.00000000000E+00 0. -1.
</event>
<event>
 7    1  0.3014423E-011  0.5052887E+02  0.7816164E-02  0.1300439E+00
        -11   -1    0    0    0    0  0.00000000000E+00  0.00000000000E+00  0.45593999997E+02  0.45594000000E+02  0.51100000000E-03 0.  1.
         11   -1    0    0    0    0 -0.00000000000E+00 -0.00000000000E+00 -0.45593999997E+02  0.45594000000E+02  0.51100000000E-03 0. -1.
    9900012    2    1    2    0    0 -0.62142450022E+01 -0.21812009445E+02 -0.33745883230E+02  0.50528865332E+02  0.30000016663E+02 0.  0.
        -12    1    1    2    0    0  0.62142450022E+01  0.21812009445E+02  0.33745883230E+02  0.40659134668E+02  0.00000000000E+00 0.  1.
         11    1    3    3    0    0 -0.41829404938E+00  0.65096287092E+00  0.24327085744E+01  0.25528011752E+01  0.51100000000E-03 0. -1.
        -11    1    3    3    0    0 -0.25995966552E+01 -0.57841165249E+01  0.16136552885E+01  0.65435304229E+01  0.51100000000E-03 0.  1.
         12    1    3    3    0    0 -0.31963542976E+01 -0.16678855791E+02 -0.37792247093E+02  0.41432533734E+02  0.00000000000E+00 0. -1.
</event>
<event>
 7    1  0.3014423E-011  0.5052885E+02  0.7816164E-02  0.1300439E+00
        -11   -1    0    0    0    0  0.00000000000E+00  0.00000000000E+00  0.45593999997E+02  0.45594000000E+02  0.51100000000E-03 0.  1.
         11   -1    0    0    0    0 -0.00000000000E+00 -0.00000000000E+00 -0.45593999997E+02  0.45594000000E+02  0.51100000000E-03 0. -1.
    9900012    2    1    2    0    0  0.29477216291E+02 -0.16669679392E+02 -0.22502927788E+02  0.50528852809E+02  0.29999978597E+02 0.  0.
        -12    1    1    2    0    0 -0.29477216291E+02  0.16669679392E+02  0.22502927788E+02  0.40659147191E+02  0.00000000000E+00 0.  1.
         11    1    3    3    0    0  0.11154143515E+02 -0.10616705664E+01 -0.47311646085E+01  0.12162482508E+02  0.51100000000E-03 0. -1.
        -11    1    3    3    0    0  0.95533405584E+01  0.38049931295E+01  0.50895208124E+00  0.10295791423E+02  0.51100000000E-03 0.  1.
         12    1    3    3    0    0  0.87697322171E+01 -0.19413001955E+02 -0.18280715261E+02  0.28070578877E+02  0.00000000000E+00 0. -1.
</event>
<event>
 7    1  0.3014423E-011  0.5052885E+02  0.7816164E-02  0.1300439E+00
        -11   -1    0    0    0    0  0.00000000000E+00  0.00000000000E+00  0.45593999997E+02  0.45594000000E+02  0.51100000000E-03 0. -1.
         11   -1    0    0    0    0 -0.00000000000E+00 -0.00000000000E+00 -0.45593999997E+02  0.45594000000E+02  0.51100000000E-03 0.  1.
    9900012    2    1    2    0    0 -0.25738241162E+02  0.29110303772E+02  0.11970768525E+02  0.50528854130E+02  0.29999982613E+02 0.  0.
        -12    1    1    2    0    0  0.25738241162E+02 -0.29110303772E+02 -0.11970768525E+02  0.40659145870E+02  0.00000000000E+00 0.  1.
         11    1    3    3    0    0 -0.91756006173E+01  0.19608533276E+02  0.78004758881E+01  0.23011598125E+02  0.51100000000E-03 0. -1.
        -11    1    3    3    0    0  0.27696953927E+01  0.22656585014E+01  0.57954882198E+01  0.68111750074E+01  0.51100000000E-03 0.  1.
        -12    1    3    3    0    0 -0.19332335937E+02  0.72361119946E+01 -0.16251955832E+01  0.20706080997E+02  0.00000000000E+00 0.  1.
</event>
<event>
 7    1  0.3014423E-011  0.5052886E+02  0.7816164E-02  0.1300439E+00
        -11   -1    0    0    0    0  0.00000000000E+00  0.00000000000E+00  0.45593999997E+02  0.45594000000E+02  0.51100000000E-03 0.  1.
         11   -1    0    0    0    0 -0.00000000000E+00 -0.00000000000E+00 -0.45593999997E+02  0.45594000000E+02  0.51100000000E-03 0. -1.
    9900012    2    1    2    0    0 -0.15082863448E+02  0.89975863049E+01 -0.36670376780E+02  0.50528857580E+02  0.29999993102E+02 0.  0.
        -12    1    1    2    0    0  0.15082863448E+02 -0.89975863049E+01  0.36670376780E+02  0.40659142420E+02  0.00000000000E+00 0.  1.
         11    1    3    3    0    0 -0.10030806605E+02  0.35350681746E+01 -0.26094025646E+02  0.28178217879E+02  0.51100000000E-03 0. -1.
        -11    1    3    3    0    0 -0.40828644897E+01  0.94340798205E+01 -0.13755248947E+02  0.17172027206E+02  0.51100000000E-03 0.  1.
         12    1    3    3    0    0 -0.96919235366E+00 -0.39715616903E+01  0.31788978131E+01  0.51786124960E+01  0.00000000000E+00 0. -1.
</event>
<event>
 7    1  0.6587084E-011  0.5052887E+02  0.7816164E-02  0.1300439E+00
        -11   -1    0    0    0    0  0.00000000000E+00  0.00000000000E+00  0.45593999997E+02  0.45594000000E+02  0.51100000000E-03 0. -1.
         11   -1    0    0    0    0 -0.00000000000E+00 -0.00000000000E+00 -0.45593999997E+02  0.45594000000E+02  0.51100000000E-03 0.  1.
    9900012    2    1    2    0    0 -0.33820324626E+02 -0.74644919576E+01  0.21298641670E+02  0.50528866524E+02  0.30000020287E+02 0.  0.
        -12    1    1    2    0    0  0.33820324626E+02  0.74644919576E+01 -0.21298641670E+02  0.40659133476E+02  0.00000000000E+00 0.  1.
         11    1    3    3    0    0 -0.12779032871E+02 -0.25030681417E+00  0.18144760916E+02  0.22194564280E+02  0.51100000000E-03 0. -1.
        -11    1    3    3    0    0  0.24412692700E+01 -0.48292861826E+00 -0.22052620646E+01  0.33250859739E+01  0.51100000000E-03 0.  1.
         12    1    3    3    0    0 -0.23482561025E+02 -0.67312565251E+01  0.53591428186E+01  0.25009216270E+02  0.00000000000E+00 0. -1.
</event>
<event>
 7    1  0.3014423E-011  0.5052885E+02  0.7816164E-02  0.1300439E+00
        -11   -1    0    0    0    0  0.00000000000E+00  0.00000000000E+00  0.45593999997E+02  0.45594000000E+02  0.51100000000E-03 0.  1.
         11   -1    0    0    0    0 -0.00000000000E+00 -0.00000000000E+00 -0.45593999997E+02  0.45594000000E+02  0.51100000000E-03 0. -1.
    9900012    2    1    2    0    0  0.25820200865E+02 -0.30186121689E+02  0.86764832538E+01  0.50528854940E+02  0.29999985077E+02 0.  0.
        -12    1    1    2    0    0 -0.25820200865E+02  0.30186121689E+02 -0.86764832538E+01  0.40659145060E+02  0.00000000000E+00 0.  1.
         11    1    3    3    0    0  0.84559904551E+01 -0.48706908419E+01 -0.40931436394E+01  0.10582118359E+02  0.51100000000E-03 0. -1.
        -11    1    3    3    0    0  0.69140008597E+00  0.37389242892E+01  0.35521322496E+01  0.52033866567E+01  0.51100000000E-03 0.  1.
         12    1    3    3    0    0  0.16672810324E+02 -0.29054355136E+02  0.92174946436E+01  0.34743349924E+02  0.00000000000E+00 0. -1.
</event>
<event>
 7    1  0.3014423E-011  0.5052886E+02  0.7816164E-02  0.1300439E+00
        -11   -1    0    0    0    0  0.00000000000E+00  0.00000000000E+00  0.45593999997E+02  0.45594000000E+02  0.51100000000E-03 0.  1.
         11   -1    0    0    0    0 -0.00000000000E+00 -0.00000000000E+00 -0.45593999997E+02  0.45594000000E+02  0.51100000000E-03 0. -1.
    9900012    2    1    2    0    0  0.40358442572E+02  0.49332650976E+01  0.15748870096E+00  0.50528858419E+02  0.29999995651E+02 0.  0.
        -12    1    1    2    0    0 -0.40358442572E+02 -0.49332650976E+01 -0.15748870096E+00  0.40659141581E+02  0.00000000000E+00 0.  1.
         11    1    3    3    0    0  0.34446333890E+02 -0.74413657334E+01  0.47428212236E+01  0.35558658522E+02  0.51100000000E-03 0. -1.
        -11    1    3    3    0    0  0.19385252433E+01  0.11373728293E+01 -0.14985758771E+00  0.22525440350E+01  0.51100000000E-03 0.  1.
         12    1    3    3    0    0  0.39735834391E+01  0.11237258002E+02 -0.44354749350E+01  0.12717655863E+02  0.00000000000E+00 0. -1.
</event>
<event>
 7    1  0.3014423E-011  0.5052890E+02  0.7816164E-02  0.1300439E+00
        -11   -1    0    0    0    0  0.00000000000E+00  0.00000000000E+00  0.45593999997E+02  0.45594000000E+02  0.51100000000E-03 0.  1.
         11   -1    0    0    0    0 -0.00000000000E+00 -0.00000000000E+00 -0.45593999997E+02  0.45594000000E+02  0.51100000000E-03 0. -1.
    9900012    2    1    2    0    0  0.27000987804E+02  0.11851441828E+02 -0.27993788051E+02  0.50528902799E+02  0.30000130548E+02 0.  0.
        -12    1    1    2    0    0 -0.27000987804E+02 -0.11851441828E+02  0.27993788051E+02  0.40659097201E+02  0.00000000000E+00 0.  1.
         11    1    3    3    0    0  0.71565814146E+01  0.85563690268E+00 -0.51981692552E+01  0.88864917667E+01  0.51100000000E-03 0.  1.
        -11    1    3    3    0    0  0.24954870522E+02  0.14041911478E+02 -0.16814164623E+02  0.33205977971E+02  0.51100000000E-03 0. -1.
         12    1    3    3    0    0 -0.51104641333E+01 -0.30461065527E+01 -0.59814541723E+01  0.84364330616E+01  0.00000000000E+00 0. -1.
</event>
<event>
 7    1  0.3350896E-011  0.5052886E+02  0.7816164E-02  0.1300439E+00
        -11   -1    0    0    0    0  0.00000000000E+00  0.00000000000E+00  0.45593999997E+02  0.45594000000E+02  0.51100000000E-03 0.  1.
         11   -1    0    0    0    0 -0.00000000000E+00 -0.00000000000E+00 -0.45593999997E+02  0.45594000000E+02  0.51100000000E-03 0. -1.
    9900012    2    1    2    0    0 -0.23312815863E+02  0.32555721008E+02 -0.70571479920E+01  0.50528859680E+02  0.29999999483E+02 0.  0.
        -12    1    1    2    0    0  0.23312815863E+02 -0.32555721008E+02  0.70571479920E+01  0.40659140320E+02  0.00000000000E+00 0.  1.
         11    1    3    3    0    0 -0.63496020361E+01  0.18423811882E+02 -0.42766486640E+01  0.19951040432E+02  0.51100000000E-03 0. -1.
        -11    1    3    3    0    0  0.38777339702E+01  0.77283345458E+01 -0.63243514283E+00  0.86697145320E+01  0.51100000000E-03 0.  1.
         12    1    3    3    0    0 -0.20840947797E+02  0.64035745803E+01 -0.21480641852E+01  0.21908104716E+02  0.00000000000E+00 0. -1.
</event>
<event>
 7    1  0.3014423E-011  0.5052887E+02  0.7816164E-02  0.1300439E+00
        -11   -1    0    0    0    0  0.00000000000E+00  0.00000000000E+00  0.45593999997E+02  0.45594000000E+02  0.51100000000E-03 0. -1.
         11   -1    0    0    0    0 -0.00000000000E+00 -0.00000000000E+00 -0.45593999997E+02  0.45594000000E+02  0.51100000000E-03 0.  1.
    9900012    2    1    2    0    0 -0.10606345883E+00 -0.33307815830E+02  0.23318290078E+02  0.50528874370E+02  0.30000044136E+02 0.  0.
        -12    1    1    2    0    0  0.10606345883E+00  0.33307815830E+02 -0.23318290078E+02  0.40659125630E+02  0.00000000000E+00 0.  1.
         11    1    3    3    0    0 -0.66368185033E+00 -0.17625371395E+01 -0.24743631239E+01  0.31095793761E+01  0.51100000000E-03 0. -1.
        -11    1    3    3    0    0 -0.70453693659E+01  0.29898241192E+00  0.45971301564E+01  0.84178516214E+01  0.51100000000E-03 0.  1.
         12    1    3    3    0    0  0.76029877574E+01 -0.31844261102E+02  0.21195523046E+02  0.39001443373E+02  0.00000000000E+00 0. -1.
</event>
<event>
 7    1  0.3014423E-011  0.5052886E+02  0.7816164E-02  0.1300439E+00
        -11   -1    0    0    0    0  0.00000000000E+00  0.00000000000E+00  0.45593999997E+02  0.45594000000E+02  0.51100000000E-03 0.  1.
         11   -1    0    0    0    0 -0.00000000000E+00 -0.00000000000E+00 -0.45593999997E+02  0.45594000000E+02  0.51100000000E-03 0. -1.
    9900012    2    1    2    0    0 -0.24603848204E+02 -0.11960532391E+02 -0.30079266477E+02  0.50528856461E+02  0.29999989698E+02 0.  0.
        -12    1    1    2    0    0  0.24603848204E+02  0.11960532391E+02  0.30079266477E+02  0.40659143539E+02  0.00000000000E+00 0.  1.
         11    1    3    3    0    0  0.88397078798E+00 -0.52944664324E+01 -0.69684541737E+01  0.87961430746E+01  0.51100000000E-03 0. -1.
        -11    1    3    3    0    0 -0.79220802515E+01 -0.12879788612E+02 -0.15355250504E+02  0.21550685105E+02  0.51100000000E-03 0.  1.
        -12    1    3    3    0    0 -0.17565738741E+02  0.62137226534E+01 -0.77555617999E+01  0.20182028281E+02  0.00000000000E+00 0.  1.
</event>
<event>
 7    1  0.3014423E-011  0.5052885E+02  0.7816164E-02  0.1300439E+00
        -11   -1    0    0    0    0  0.00000000000E+00  0.00000000000E+00  0.45593999997E+02  0.45594000000E+02  0.51100000000E-03 0. -1.
         11   -1    0    0    0    0 -0.00000000000E+00 -0.00000000000E+00 -0.45593999997E+02  0.45594000000E+02  0.51100000000E-03 0.  1.
    9900012    2    1    2    0    0 -0.59647651484E+01 -0.20310140141E+02  0.34714352425E+02  0.50528849983E+02  0.29999970007E+02 0.  0.
        -12    1    1    2    0    0  0.59647651484E+01  0.20310140141E+02 -0.34714352425E+02  0.40659150017E+02  0.00000000000E+00 0.  1.
         11    1    3    3    0    0 -0.66771013908E+01 -0.10928449059E+01 -0.14196482997E+01  0.69132766853E+01  0.51100000000E-03 0. -1.
        -11    1    3    3    0    0 -0.26106837643E+01 -0.26435012365E+00 -0.59836241644E-01  0.26247154783E+01  0.51100000000E-03 0.  1.
         12    1    3    3    0    0  0.33230200067E+01 -0.18952945112E+02  0.36193836966E+02  0.40990857819E+02  0.00000000000E+00 0. -1.
</event>
<event>
 7    1  0.3014423E-011  0.5052886E+02  0.7816164E-02  0.1300439E+00
        -11   -1    0    0    0    0  0.00000000000E+00  0.00000000000E+00  0.45593999997E+02  0.45594000000E+02  0.51100000000E-03 0. -1.
         11   -1    0    0    0    0 -0.00000000000E+00 -0.00000000000E+00 -0.45593999997E+02  0.45594000000E+02  0.51100000000E-03 0.  1.
    9900012    2    1    2    0    0  0.29654049257E+02 -0.27556644937E+02 -0.37992307056E+01  0.50528862386E+02  0.30000007709E+02 0.  0.
        -12    1    1    2    0    0 -0.29654049257E+02  0.27556644937E+02  0.37992307056E+01  0.40659137614E+02  0.00000000000E+00 0.  1.
         11    1    3    3    0    0  0.13457607716E+02 -0.11864590669E+02 -0.38630955657E+01  0.18352090475E+02  0.51100000000E-03 0. -1.
        -11    1    3    3    0    0  0.55168805787E+01 -0.25370765850E+01 -0.10557178210E+02  0.12178946627E+02  0.51100000000E-03 0.  1.
         12    1    3    3    0    0  0.10679560963E+02 -0.13154977683E+02  0.10621043070E+02  0.19997825284E+02  0.00000000000E+00 0. -1.
</event>
<event>
 7    1  0.3014423E-011  0.5052886E+02  0.7816164E-02  0.1300439E+00
        -11   -1    0    0    0    0  0.00000000000E+00  0.00000000000E+00  0.45593999997E+02  0.45594000000E+02  0.51100000000E-03 0.  1.
         11   -1    0    0    0    0 -0.00000000000E+00 -0.00000000000E+00 -0.45593999997E+02  0.45594000000E+02  0.51100000000E-03 0. -1.
    9900012    2    1    2    0    0  0.49825041385E+01  0.80399710695E+01 -0.39543634738E+02  0.50528861660E+02  0.30000005501E+02 0.  0.
        -12    1    1    2    0    0 -0.49825041385E+01 -0.80399710695E+01  0.39543634738E+02  0.40659138340E+02  0.00000000000E+00 0.  1.
         11    1    3    3    0    0  0.71267968141E+01  0.21312993331E+01 -0.31610204760E+02  0.32473661864E+02  0.51100000000E-03 0. -1.
        -11    1    3    3    0    0 -0.20252382422E+01 -0.47329290255E+01 -0.71883131008E+00  0.51979732408E+01  0.51100000000E-03 0.  1.
        -12    1    3    3    0    0 -0.11905443334E+00  0.10641600762E+02 -0.72145986682E+01  0.12857226555E+02  0.00000000000E+00 0.  1.
</event>
<event>
 7    1  0.3014423E-011  0.5052886E+02  0.7816164E-02  0.1300439E+00
        -11   -1    0    0    0    0  0.00000000000E+00  0.00000000000E+00  0.45593999997E+02  0.45594000000E+02  0.51100000000E-03 0.  1.
         11   -1    0    0    0    0 -0.00000000000E+00 -0.00000000000E+00 -0.45593999997E+02  0.45594000000E+02  0.51100000000E-03 0. -1.
    9900012    2    1    2    0    0  0.37360665569E+02 -0.89680307209E+01 -0.13301149438E+02  0.50528862243E+02  0.30000007273E+02 0.  0.
        -12    1    1    2    0    0 -0.37360665569E+02  0.89680307209E+01  0.13301149438E+02  0.40659137757E+02  0.00000000000E+00 0.  1.
         11    1    3    3    0    0  0.19918900780E+02 -0.10793054071E+02 -0.16054188046E+02  0.27766699093E+02  0.51100000000E-03 0. -1.
        -11    1    3    3    0    0  0.41976791090E+01 -0.40571713412E+01 -0.36862780984E+01  0.69043316602E+01  0.51100000000E-03 0.  1.
        -12    1    3    3    0    0  0.13244085681E+02  0.58821946908E+01  0.64393167066E+01  0.15857831490E+02  0.00000000000E+00 0.  1.
</event>
<event>
 7    1  0.3014423E-011  0.5052884E+02  0.7816164E-02  0.1300439E+00
        -11   -1    0    0    0    0  0.00000000000E+00  0.00000000000E+00  0.45593999997E+02  0.45594000000E+02  0.51100000000E-03 0. -1.
         11   -1    0    0    0    0 -0.00000000000E+00 -0.00000000000E+00 -0.45593999997E+02  0.45594000000E+02  0.51100000000E-03 0.  1.
    9900012    2    1    2    0    0 -0.37846367914E+02  0.37185244525E+01 -0.14387240638E+02  0.50528835208E+02  0.29999925100E+02 0.  0.
        -12    1    1    2    0    0  0.37846367914E+02 -0.37185244525E+01  0.14387240638E+02  0.40659164792E+02  0.00000000000E+00 0.  1.
         11    1    3    3    0    0 -0.15470446765E+02 -0.48301293411E+01 -0.10142704078E+01  0.16238645796E+02  0.51100000000E-03 0. -1.
        -11    1    3    3    0    0 -0.26375903336E+01  0.11107767723E+02 -0.69976475785E+01  0.13390536153E+02  0.51100000000E-03 0.  1.
         12    1    3    3    0    0 -0.19738330815E+02 -0.25591139298E+01 -0.63753226519E+01  0.20899653259E+02  0.00000000000E+00 0. -1.
</event>
<event>
 7    1  0.3014423E-011  0.5052885E+02  0.7816164E-02  0.1300439E+00
        -11   -1    0    0    0    0  0.00000000000E+00  0.00000000000E+00  0.45593999997E+02  0.45594000000E+02  0.51100000000E-03 0.  1.
         11   -1    0    0    0    0 -0.00000000000E+00 -0.00000000000E+00 -0.45593999997E+02  0.45594000000E+02  0.51100000000E-03 0. -1.
    9900012    2    1    2    0    0  0.98962701311E+01  0.38766699309E+02 -0.72369335938E+01  0.50528851636E+02  0.29999975033E+02 0.  0.
        -12    1    1    2    0    0 -0.98962701311E+01 -0.38766699309E+02  0.72369335938E+01  0.40659148364E+02  0.00000000000E+00 0.  1.
         11    1    3    3    0    0  0.17626933586E+02  0.20444176588E+02 -0.62452974944E+01  0.27706982605E+02  0.51100000000E-03 0. -1.
        -11    1    3    3    0    0  0.75456817791E+00  0.45264840716E+01 -0.43023526900E+01  0.62903632738E+01  0.51100000000E-03 0.  1.
         12    1    3    3    0    0 -0.84852316323E+01  0.13796038649E+02  0.33107165906E+01  0.16531505758E+02  0.00000000000E+00 0. -1.
</event>
<event>
 7    1  0.3014423E-011  0.5052883E+02  0.7816164E-02  0.1300439E+00
        -11   -1    0    0    0    0  0.00000000000E+00  0.00000000000E+00  0.45593999997E+02  0.45594000000E+02  0.51100000000E-03 0. -1.
         11   -1    0    0    0    0 -0.00000000000E+00 -0.00000000000E+00 -0.45593999997E+02  0.45594000000E+02  0.51100000000E-03 0.  1.
    9900012    2    1    2    0    0 -0.55250638683E+01 -0.21271932787E+01  0.40225823743E+02  0.50528829106E+02  0.29999906550E+02 0.  0.
        -12    1    1    2    0    0  0.55250638683E+01  0.21271932787E+01 -0.40225823743E+02  0.40659170894E+02  0.00000000000E+00 0.  1.
         11    1    3    3    0    0  0.53863773649E+00 -0.68231935446E+01  0.99685048680E+00  0.69166329896E+01  0.51100000000E-03 0. -1.
        -11    1    3    3    0    0 -0.41512155395E+01 -0.15315634626E+01  0.63240789167E+00  0.44696998890E+01  0.51100000000E-03 0.  1.
        -12    1    3    3    0    0 -0.19124860653E+01  0.62275637285E+01  0.38596565365E+02  0.39142496227E+02  0.00000000000E+00 0.  1.
</event>
<event>
 7    1  0.3014423E-011  0.5052886E+02  0.7816164E-02  0.1300439E+00
        -11   -1    0    0    0    0  0.00000000000E+00  0.00000000000E+00  0.45593999997E+02  0.45594000000E+02  0.51100000000E-03 0.  1.
         11   -1    0    0    0    0 -0.00000000000E+00 -0.00000000000E+00 -0.45593999997E+02  0.45594000000E+02  0.51100000000E-03 0. -1.
    9900012    2    1    2    0    0 -0.16273679200E+02 -0.28168178179E+02 -0.24390293243E+02  0.50528864481E+02  0.30000014077E+02 0.  0.
        -12    1    1    2    0    0  0.16273679200E+02  0.28168178179E+02  0.24390293243E+02  0.40659135519E+02  0.00000000000E+00 0.  1.
         11    1    3    3    0    0 -0.75358117895E+01 -0.28970648838E+02 -0.20453976680E+02  0.36255373611E+02  0.51100000000E-03 0. -1.
        -11    1    3    3    0    0  0.16552925915E+00  0.40353816332E+01 -0.23401629492E+01  0.46677690336E+01  0.51100000000E-03 0.  1.
        -12    1    3    3    0    0 -0.89033966701E+01 -0.32329109748E+01 -0.15961536133E+01  0.96057218362E+01  0.00000000000E+00 0.  1.
</event>
<event>
 7    1  0.3014423E-011  0.5052888E+02  0.7816164E-02  0.1300439E+00
        -11   -1    0    0    0    0  0.00000000000E+00  0.00000000000E+00  0.45593999997E+02  0.45594000000E+02  0.51100000000E-03 0.  1.
         11   -1    0    0    0    0 -0.00000000000E+00 -0.00000000000E+00 -0.45593999997E+02  0.45594000000E+02  0.51100000000E-03 0. -1.
    9900012    2    1    2    0    0 -0.32584854969E+02 -0.19908637905E+02 -0.13965575408E+02  0.50528881305E+02  0.30000065214E+02 0.  0.
        -12    1    1    2    0    0  0.32584854969E+02  0.19908637905E+02  0.13965575408E+02  0.40659118695E+02  0.00000000000E+00 0.  1.
         11    1    3    3    0    0 -0.55271623197E+01 -0.39566738627E+00 -0.77532320398E+01  0.95298836988E+01  0.51100000000E-03 0. -1.
        -11    1    3    3    0    0 -0.56377589561E+01 -0.12540351384E+02 -0.11425981048E+02  0.17877297952E+02  0.51100000000E-03 0.  1.
        -12    1    3    3    0    0 -0.21419933694E+02 -0.69726191343E+01  0.52136376801E+01  0.23121699654E+02  0.00000000000E+00 0.  1.
</event>
<event>
 7    1  0.3014423E-011  0.5052888E+02  0.7816164E-02  0.1300439E+00
        -11   -1    0    0    0    0  0.00000000000E+00  0.00000000000E+00  0.45593999997E+02  0.45594000000E+02  0.51100000000E-03 0.  1.
         11   -1    0    0    0    0 -0.00000000000E+00 -0.00000000000E+00 -0.45593999997E+02  0.45594000000E+02  0.51100000000E-03 0. -1.
    9900012    2    1    2    0    0  0.97902879280E+01 -0.32905248852E+02 -0.21784367125E+02  0.50528883055E+02  0.30000070534E+02 0.  0.
        -12    1    1    2    0    0 -0.97902879280E+01  0.32905248852E+02  0.21784367125E+02  0.40659116945E+02  0.00000000000E+00 0.  1.
         11    1    3    3    0    0  0.75436303736E+01 -0.19714463130E+02 -0.17182881125E+02  0.27217968692E+02  0.51100000000E-03 0. -1.
        -11    1    3    3    0    0 -0.68690814045E+01 -0.69137581328E+01 -0.69833592604E+01  0.11989647104E+02  0.51100000000E-03 0.  1.
         12    1    3    3    0    0  0.91157389589E+01 -0.62770275893E+01  0.23818732597E+01  0.11321267259E+02  0.00000000000E+00 0. -1.
</event>
<event>
 7    1  0.3014423E-011  0.5052886E+02  0.7816164E-02  0.1300439E+00
        -11   -1    0    0    0    0  0.00000000000E+00  0.00000000000E+00  0.45593999997E+02  0.45594000000E+02  0.51100000000E-03 0. -1.
         11   -1    0    0    0    0 -0.00000000000E+00 -0.00000000000E+00 -0.45593999997E+02  0.45594000000E+02  0.51100000000E-03 0.  1.
    9900012    2    1    2    0    0  0.30620920277E+01  0.40107546829E+02 -0.59307423542E+01  0.50528862957E+02  0.30000009444E+02 0.  0.
        -12    1    1    2    0    0 -0.30620920277E+01 -0.40107546829E+02  0.59307423542E+01  0.40659137043E+02  0.00000000000E+00 0.  1.
         11    1    3    3    0    0  0.96652607275E+01  0.59516017892E+01 -0.11653431874E+01  0.11410383595E+02  0.51100000000E-03 0. -1.
        -11    1    3    3    0    0  0.50930031035E+00  0.28491081286E+02 -0.77807381237E+01  0.29538804743E+02  0.51100000000E-03 0.  1.
        -12    1    3    3    0    0 -0.71124690101E+01  0.56648637536E+01  0.30153389568E+01  0.95796746182E+01  0.00000000000E+00 0.  1.
</event>
<event>
 7    1  0.3014423E-011  0.5052885E+02  0.7816164E-02  0.1300439E+00
        -11   -1    0    0    0    0  0.00000000000E+00  0.00000000000E+00  0.45593999997E+02  0.45594000000E+02  0.51100000000E-03 0.  1.
         11   -1    0    0    0    0 -0.00000000000E+00 -0.00000000000E+00 -0.45593999997E+02  0.45594000000E+02  0.51100000000E-03 0. -1.
    9900012    2    1    2    0    0  0.20704363005E+02  0.34913236540E+02 -0.23582541855E+01  0.50528854708E+02  0.29999984369E+02 0.  0.
        -12    1    1    2    0    0 -0.20704363005E+02 -0.34913236540E+02  0.23582541855E+01  0.40659145292E+02  0.00000000000E+00 0.  1.
         11    1    3    3    0    0 -0.17841710215E+01  0.18710727942E+02 -0.38160856556E+01  0.19179080175E+02  0.51100000000E-03 0. -1.
        -11    1    3    3    0    0 -0.17123882982E+01  0.62576498115E-01  0.14744313264E+01  0.22605613239E+01  0.51100000000E-03 0.  1.
         12    1    3    3    0    0  0.24200922325E+02  0.16139932099E+02 -0.16599856368E-01  0.29089213208E+02  0.00000000000E+00 0. -1.
</event>
<event>
 7    1  0.3014423E-011  0.5052887E+02  0.7816164E-02  0.1300439E+00
        -11   -1    0    0    0    0  0.00000000000E+00  0.00000000000E+00  0.45593999997E+02  0.45594000000E+02  0.51100000000E-03 0. -1.
         11   -1    0    0    0    0 -0.00000000000E+00 -0.00000000000E+00 -0.45593999997E+02  0.45594000000E+02  0.51100000000E-03 0.  1.
    9900012    2    1    2    0    0 -0.30046293186E+01  0.37902466943E+02 -0.14406259486E+02  0.50528866831E+02  0.30000021219E+02 0.  0.
        -12    1    1    2    0    0  0.30046293186E+01 -0.37902466943E+02  0.14406259486E+02  0.40659133169E+02  0.00000000000E+00 0.  1.
         11    1    3    3    0    0 -0.91565070884E+01  0.29806444726E+02 -0.41250165411E+01  0.31452846151E+02  0.51100000000E-03 0. -1.
        -11    1    3    3    0    0  0.55400531069E+00  0.47898942326E+00  0.28239595861E+01  0.29173790904E+01  0.51100000000E-03 0.  1.
         12    1    3    3    0    0  0.55978724590E+01  0.76170327939E+01 -0.13105202531E+02  0.16158641590E+02  0.00000000000E+00 0. -1.
</event>
<event>
 7    1  0.3014423E-011  0.5052885E+02  0.7816164E-02  0.1300439E+00
        -11   -1    0    0    0    0  0.00000000000E+00  0.00000000000E+00  0.45593999997E+02  0.45594000000E+02  0.51100000000E-03 0.  1.
         11   -1    0    0    0    0 -0.00000000000E+00 -0.00000000000E+00 -0.45593999997E+02  0.45594000000E+02  0.51100000000E-03 0. -1.
    9900012    2    1    2    0    0  0.83950207210E+01  0.27788153452E+02 -0.28469430493E+02  0.50528851979E+02  0.29999976075E+02 0.  0.
        -12    1    1    2    0    0 -0.83950207210E+01 -0.27788153452E+02  0.28469430493E+02  0.40659148021E+02  0.00000000000E+00 0.  1.
         11    1    3    3    0    0 -0.56548356895E+01  0.47153067605E+01 -0.87253078112E+01  0.11416754407E+02  0.51100000000E-03 0.  1.
        -11    1    3    3    0    0  0.33098126623E+01  0.22506929932E+02 -0.11092877031E+02  0.25309458230E+02  0.51100000000E-03 0. -1.
         12    1    3    3    0    0  0.10740043748E+02  0.56591676024E+00 -0.86512456514E+01  0.13802639342E+02  0.00000000000E+00 0. -1.
</event>
<event>
 7    1  0.3014423E-011  0.5052888E+02  0.7816164E-02  0.1300439E+00
        -11   -1    0    0    0    0  0.00000000000E+00  0.00000000000E+00  0.45593999997E+02  0.45594000000E+02  0.51100000000E-03 0.  1.
         11   -1    0    0    0    0 -0.00000000000E+00 -0.00000000000E+00 -0.45593999997E+02  0.45594000000E+02  0.51100000000E-03 0. -1.
    9900012    2    1    2    0    0 -0.21438330390E+02 -0.34535870457E+02  0.91431464963E+00  0.50528876431E+02  0.30000050398E+02 0.  0.
        -12    1    1    2    0    0  0.21438330390E+02  0.34535870457E+02 -0.91431464963E+00  0.40659123569E+02  0.00000000000E+00 0.  1.
         11    1    3    3    0    0  0.15735968047E+01 -0.22352913045E+02  0.66351038998E+01  0.23369927953E+02  0.51100000000E-03 0.  1.
        -11    1    3    3    0    0 -0.42612324396E+01 -0.91465416868E+00  0.57224994695E+00  0.43956983991E+01  0.51100000000E-03 0. -1.
        -12    1    3    3    0    0 -0.18750694755E+02 -0.11268303243E+02 -0.62930391971E+01  0.22763250078E+02  0.00000000000E+00 0.  1.
</event>
<event>
 7    1  0.3014423E-011  0.5052884E+02  0.7816164E-02  0.1300439E+00
        -11   -1    0    0    0    0  0.00000000000E+00  0.00000000000E+00  0.45593999997E+02  0.45594000000E+02  0.51100000000E-03 0.  1.
         11   -1    0    0    0    0 -0.00000000000E+00 -0.00000000000E+00 -0.45593999997E+02  0.45594000000E+02  0.51100000000E-03 0. -1.
    9900012    2    1    2    0    0 -0.64445624877E+01 -0.16019221505E+02 -0.36810583776E+02  0.50528844559E+02  0.29999953521E+02 0.  0.
        -12    1    1    2    0    0  0.64445624877E+01  0.16019221505E+02  0.36810583776E+02  0.40659155441E+02  0.00000000000E+00 0.  1.
         11    1    3    3    0    0 -0.76624565673E+01 -0.10452942825E+02 -0.91809990629E+01  0.15882946779E+02  0.51100000000E-03 0. -1.
        -11    1    3    3    0    0  0.10739454678E+01 -0.66108276773E+01  0.29253334946E+00  0.67038777934E+01  0.51100000000E-03 0.  1.
         12    1    3    3    0    0  0.14394861181E+00  0.10445489970E+01 -0.27922118062E+02  0.27942019986E+02  0.00000000000E+00 0. -1.
</event>
<event>
 7    1  0.3014423E-011  0.5052886E+02  0.7816164E-02  0.1300439E+00
        -11   -1    0    0    0    0  0.00000000000E+00  0.00000000000E+00  0.45593999997E+02  0.45594000000E+02  0.51100000000E-03 0.  1.
         11   -1    0    0    0    0 -0.00000000000E+00 -0.00000000000E+00 -0.45593999997E+02  0.45594000000E+02  0.51100000000E-03 0. -1.
    9900012    2    1    2    0    0 -0.28995257017E+01 -0.55378062193E+01 -0.40175747905E+02  0.50528864904E+02  0.30000015363E+02 0.  0.
        -12    1    1    2    0    0  0.28995257017E+01  0.55378062193E+01  0.40175747905E+02  0.40659135096E+02  0.00000000000E+00 0.  1.
         11    1    3    3    0    0 -0.49645369278E+01  0.11494737450E+01 -0.15038357883E+01  0.53131383511E+01  0.51100000000E-03 0. -1.
        -11    1    3    3    0    0 -0.35893805640E+01 -0.52616898174E+00  0.16861008120E+01  0.40004303318E+01  0.51100000000E-03 0.  1.
         12    1    3    3    0    0  0.56543917901E+01 -0.61611109825E+01 -0.40358012929E+02  0.41215296221E+02  0.00000000000E+00 0. -1.
</event>
<event>
 7    1  0.3014423E-011  0.5052884E+02  0.7816164E-02  0.1300439E+00
        -11   -1    0    0    0    0  0.00000000000E+00  0.00000000000E+00  0.45593999997E+02  0.45594000000E+02  0.51100000000E-03 0.  1.
         11   -1    0    0    0    0 -0.00000000000E+00 -0.00000000000E+00 -0.45593999997E+02  0.45594000000E+02  0.51100000000E-03 0. -1.
    9900012    2    1    2    0    0  0.38922536425E+02  0.10398521608E+02 -0.54839898753E+01  0.50528840658E+02  0.29999941665E+02 0.  0.
        -12    1    1    2    0    0 -0.38922536425E+02 -0.10398521608E+02  0.54839898753E+01  0.40659159342E+02  0.00000000000E+00 0.  1.
         11    1    3    3    0    0  0.23465437051E+02 -0.47864688460E+01 -0.50474874824E+00  0.23953951481E+02  0.51100000000E-03 0. -1.
        -11    1    3    3    0    0  0.17916888357E+01 -0.11111649396E+01  0.31636459183E+01  0.38017748703E+01  0.51100000000E-03 0.  1.
         12    1    3    3    0    0  0.13665410539E+02  0.16296155393E+02 -0.81428870453E+01  0.22773114307E+02  0.00000000000E+00 0. -1.
</event>
<event>
 7    1  0.3462176E-011  0.5052885E+02  0.7816164E-02  0.1300439E+00
        -11   -1    0    0    0    0  0.00000000000E+00  0.00000000000E+00  0.45593999997E+02  0.45594000000E+02  0.51100000000E-03 0. -1.
         11   -1    0    0    0    0 -0.00000000000E+00 -0.00000000000E+00 -0.45593999997E+02  0.45594000000E+02  0.51100000000E-03 0.  1.
    9900012    2    1    2    0    0  0.12201265968E+02 -0.28884622049E+02  0.25883854038E+02  0.50528853649E+02  0.29999981150E+02 0.  0.
        -12    1    1    2    0    0 -0.12201265968E+02  0.28884622049E+02 -0.25883854038E+02  0.40659146351E+02  0.00000000000E+00 0.  1.
         11    1    3    3    0    0  0.70577752574E+01 -0.18990608013E+02  0.20278978964E+02  0.28665176999E+02  0.51100000000E-03 0. -1.
        -11    1    3    3    0    0  0.93808527328E+01 -0.12410520542E+02  0.64900625518E+01  0.16856521892E+02  0.51100000000E-03 0.  1.
        -12    1    3    3    0    0 -0.42373620224E+01  0.25165065052E+01 -0.88518747761E+00  0.50071547579E+01  0.00000000000E+00 0.  1.
</event>
<event>
 7    1  0.3014423E-011  0.5052887E+02  0.7816164E-02  0.1300439E+00
        -11   -1    0    0    0    0  0.00000000000E+00  0.00000000000E+00  0.45593999997E+02  0.45594000000E+02  0.51100000000E-03 0.  1.
         11   -1    0    0    0    0 -0.00000000000E+00 -0.00000000000E+00 -0.45593999997E+02  0.45594000000E+02  0.51100000000E-03 0. -1.
    9900012    2    1    2    0    0  0.15800291693E+02 -0.32997350017E+02 -0.17739509069E+02  0.50528874238E+02  0.30000043734E+02 0.  0.
        -12    1    1    2    0    0 -0.15800291693E+02  0.32997350017E+02  0.17739509069E+02  0.40659125762E+02  0.00000000000E+00 0.  1.
         11    1    3    3    0    0  0.19972903465E+01  0.15593069027E+01 -0.22160050100E+01  0.33661974408E+01  0.51100000000E-03 0. -1.
        -11    1    3    3    0    0  0.76212352485E+01  0.69316283231E+00 -0.70058788372E+01  0.10375260959E+02  0.51100000000E-03 0.  1.
         12    1    3    3    0    0  0.61817660976E+01 -0.35249819752E+02 -0.85176252215E+01  0.36787415838E+02  0.00000000000E+00 0. -1.
</event>
<event>
 7    1  0.3014423E-011  0.5052887E+02  0.7816164E-02  0.1300439E+00
        -11   -1    0    0    0    0  0.00000000000E+00  0.00000000000E+00  0.45593999997E+02  0.45594000000E+02  0.51100000000E-03 0.  1.
         11   -1    0    0    0    0 -0.00000000000E+00 -0.00000000000E+00 -0.45593999997E+02  0.45594000000E+02  0.51100000000E-03 0. -1.
    9900012    2    1    2    0    0 -0.13494015605E+02  0.18514271762E+02 -0.33590144166E+02  0.50528874319E+02  0.30000043981E+02 0.  0.
        -12    1    1    2    0    0  0.13494015605E+02 -0.18514271762E+02  0.33590144166E+02  0.40659125681E+02  0.00000000000E+00 0.  1.
         11    1    3    3    0    0 -0.87672267895E+01  0.49394430817E+01 -0.14550054870E+02  0.17690858106E+02  0.51100000000E-03 0. -1.
        -11    1    3    3    0    0 -0.80777291034E+01  0.40377412101E+01  0.22178341489E+01  0.92990241489E+01  0.51100000000E-03 0.  1.
        -12    1    3    3    0    0  0.33509402883E+01  0.95370874702E+01 -0.21257923445E+02  0.23538992065E+02  0.00000000000E+00 0.  1.
</event>
<event>
 7    1  0.3014423E-011  0.5052887E+02  0.7816164E-02  0.1300439E+00
        -11   -1    0    0    0    0  0.00000000000E+00  0.00000000000E+00  0.45593999997E+02  0.45594000000E+02  0.51100000000E-03 0.  1.
         11   -1    0    0    0    0 -0.00000000000E+00 -0.00000000000E+00 -0.45593999997E+02  0.45594000000E+02  0.51100000000E-03 0. -1.
    9900012    2    1    2    0    0 -0.16855068629E+02  0.16504103366E+02 -0.33116256224E+02  0.50528865815E+02  0.30000018130E+02 0.  0.
        -12    1    1    2    0    0  0.16855068629E+02 -0.16504103366E+02  0.33116256224E+02  0.40659134185E+02  0.00000000000E+00 0.  1.
         11    1    3    3    0    0 -0.61833411653E+01 -0.26497914727E+01 -0.18487211634E+02  0.19673131349E+02  0.51100000000E-03 0. -1.
        -11    1    3    3    0    0  0.19399263037E+01  0.12225648145E+02 -0.94096161867E+01  0.15548976290E+02  0.51100000000E-03 0.  1.
        -12    1    3    3    0    0 -0.12611653767E+02  0.69282466939E+01 -0.52194284034E+01  0.15306758176E+02  0.00000000000E+00 0.  1.
</event>
<event>
 7    1  0.3014423E-011  0.5052886E+02  0.7816164E-02  0.1300439E+00
        -11   -1    0    0    0    0  0.00000000000E+00  0.00000000000E+00  0.45593999997E+02  0.45594000000E+02  0.51100000000E-03 0. -1.
         11   -1    0    0    0    0 -0.00000000000E+00 -0.00000000000E+00 -0.45593999997E+02  0.45594000000E+02  0.51100000000E-03 0.  1.
    9900012    2    1    2    0    0 -0.34180668742E+02 -0.15137804820E+02  0.15990457226E+02  0.50528856223E+02  0.29999988975E+02 0.  0.
        -12    1    1    2    0    0  0.34180668742E+02  0.15137804820E+02 -0.15990457226E+02  0.40659143777E+02  0.00000000000E+00 0.  1.
         11    1    3    3    0    0 -0.18532267711E+02 -0.15996622339E+02  0.64800813089E+01  0.25324461036E+02  0.51100000000E-03 0. -1.
        -11    1    3    3    0    0 -0.15954737874E+01 -0.51801231325E+01 -0.22917889374E+01  0.58848542096E+01  0.51100000000E-03 0.  1.
        -12    1    3    3    0    0 -0.14052927244E+02  0.60389406510E+01  0.11802164855E+02  0.19319540977E+02  0.00000000000E+00 0.  1.
</event>
<event>
 7    1  0.3014423E-011  0.5052886E+02  0.7816164E-02  0.1300439E+00
        -11   -1    0    0    0    0  0.00000000000E+00  0.00000000000E+00  0.45593999997E+02  0.45594000000E+02  0.51100000000E-03 0. -1.
         11   -1    0    0    0    0 -0.00000000000E+00 -0.00000000000E+00 -0.45593999997E+02  0.45594000000E+02  0.51100000000E-03 0.  1.
    9900012    2    1    2    0    0 -0.32246957278E+02 -0.17303700118E+02  0.17716705058E+02  0.50528856753E+02  0.29999990586E+02 0.  0.
        -12    1    1    2    0    0  0.32246957278E+02  0.17303700118E+02 -0.17716705058E+02  0.40659143247E+02  0.00000000000E+00 0.  1.
         11    1    3    3    0    0 -0.26528863177E+02 -0.52783822925E+01  0.13238562625E+02  0.30114804361E+02  0.51100000000E-03 0. -1.
        -11    1    3    3    0    0 -0.75338896867E+01  0.80197123675E-01  0.53330318306E+00  0.75531674108E+01  0.51100000000E-03 0.  1.
         12    1    3    3    0    0  0.18157955849E+01 -0.12105514949E+02  0.39448392502E+01  0.12860884981E+02  0.00000000000E+00 0. -1.
</event>
<event>
 7    1  0.3014423E-011  0.5052886E+02  0.7816164E-02  0.1300439E+00
        -11   -1    0    0    0    0  0.00000000000E+00  0.00000000000E+00  0.45593999997E+02  0.45594000000E+02  0.51100000000E-03 0.  1.
         11   -1    0    0    0    0 -0.00000000000E+00 -0.00000000000E+00 -0.45593999997E+02  0.45594000000E+02  0.51100000000E-03 0. -1.
    9900012    2    1    2    0    0  0.29226462623E+02 -0.23708857348E+02 -0.15390573678E+02  0.50528858441E+02  0.29999995718E+02 0.  0.
        -12    1    1    2    0    0 -0.29226462623E+02  0.23708857348E+02  0.15390573678E+02  0.40659141559E+02  0.00000000000E+00 0.  1.
         11    1    3    3    0    0  0.28839289443E+01 -0.15475031567E+01 -0.37967083242E+01  0.50126646144E+01  0.51100000000E-03 0. -1.
        -11    1    3    3    0    0  0.26379988361E+02 -0.23514121403E+02 -0.17515968475E+02  0.39441435612E+02  0.51100000000E-03 0.  1.
        -12    1    3    3    0    0 -0.37454682369E-01  0.13527672126E+01  0.59221031212E+01  0.60747582144E+01  0.00000000000E+00 0.  1.
</event>
<event>
 7    1  0.3014423E-011  0.5052887E+02  0.7816164E-02  0.1300439E+00
        -11   -1    0    0    0    0  0.00000000000E+00  0.00000000000E+00  0.45593999997E+02  0.45594000000E+02  0.51100000000E-03 0. -1.
         11   -1    0    0    0    0 -0.00000000000E+00 -0.00000000000E+00 -0.45593999997E+02  0.45594000000E+02  0.51100000000E-03 0.  1.
    9900012    2    1    2    0    0 -0.10063917281E+01  0.32033037071E+02 -0.25020727042E+02  0.50528867324E+02  0.30000022717E+02 0.  0.
        -12    1    1    2    0    0  0.10063917281E+01 -0.32033037071E+02  0.25020727042E+02  0.40659132676E+02  0.00000000000E+00 0.  1.
         11    1    3    3    0    0  0.88954994488E+01  0.28660156476E+01 -0.55544023673E-01  0.93459639169E+01  0.51100000000E-03 0. -1.
        -11    1    3    3    0    0 -0.42304370605E+01  0.10095605567E+02 -0.15935866532E+02  0.19333124214E+02  0.51100000000E-03 0.  1.
        -12    1    3    3    0    0 -0.56714541164E+01  0.19071415856E+02 -0.90293164866E+01  0.21849779193E+02  0.00000000000E+00 0.  1.
</event>
<event>
 7    1  0.3500601E-011  0.5052886E+02  0.7816164E-02  0.1300439E+00
        -11   -1    0    0    0    0  0.00000000000E+00  0.00000000000E+00  0.45593999997E+02  0.45594000000E+02  0.51100000000E-03 0. -1.
         11   -1    0    0    0    0 -0.00000000000E+00 -0.00000000000E+00 -0.45593999997E+02  0.45594000000E+02  0.51100000000E-03 0.  1.
    9900012    2    1    2    0    0  0.77987206079E+01 -0.15654702067E+02  0.36705254580E+02  0.50528862605E+02  0.30000008376E+02 0.  0.
        -12    1    1    2    0    0 -0.77987206079E+01  0.15654702067E+02 -0.36705254580E+02  0.40659137395E+02  0.00000000000E+00 0.  1.
         11    1    3    3    0    0 -0.71920809511E+00 -0.28694215627E+01 -0.15126180140E+01  0.33224770738E+01  0.51100000000E-03 0. -1.
        -11    1    3    3    0    0  0.93109418847E+01 -0.37035011892E+00  0.28961823015E+01  0.97580054404E+01  0.51100000000E-03 0.  1.
         12    1    3    3    0    0 -0.79301318166E+00 -0.12414930385E+02  0.35321690292E+02  0.37448380091E+02  0.00000000000E+00 0. -1.
</event>
<event>
 7    1  0.3014423E-011  0.5052886E+02  0.7816164E-02  0.1300439E+00
        -11   -1    0    0    0    0  0.00000000000E+00  0.00000000000E+00  0.45593999997E+02  0.45594000000E+02  0.51100000000E-03 0. -1.
         11   -1    0    0    0    0 -0.00000000000E+00 -0.00000000000E+00 -0.45593999997E+02  0.45594000000E+02  0.51100000000E-03 0.  1.
    9900012    2    1    2    0    0  0.16085090082E+02 -0.34587599597E+02  0.14075984790E+02  0.50528861831E+02  0.30000006020E+02 0.  0.
        -12    1    1    2    0    0 -0.16085090082E+02  0.34587599597E+02 -0.14075984790E+02  0.40659138169E+02  0.00000000000E+00 0.  1.
         11    1    3    3    0    0  0.14079558537E+02 -0.17547526136E+02  0.14463751555E+02  0.26746023095E+02  0.51100000000E-03 0. -1.
        -11    1    3    3    0    0  0.45815508123E+01  0.16728336673E+01  0.23672398895E+00  0.48831361676E+01  0.51100000000E-03 0.  1.
        -12    1    3    3    0    0 -0.25760192667E+01 -0.18712907128E+02 -0.62449075368E+00  0.18899702568E+02  0.00000000000E+00 0.  1.
</event>
<event>
 7    1  0.3014423E-011  0.5052883E+02  0.7816164E-02  0.1300439E+00
        -11   -1    0    0    0    0  0.00000000000E+00  0.00000000000E+00  0.45593999997E+02  0.45594000000E+02  0.51100000000E-03 0.  1.
         11   -1    0    0    0    0 -0.00000000000E+00 -0.00000000000E+00 -0.45593999997E+02  0.45594000000E+02  0.51100000000E-03 0. -1.
    9900012    2    1    2    0    0  0.33850663263E+02 -0.74626732469E+01 -0.21251094513E+02  0.50528832358E+02  0.29999916436E+02 0.  0.
        -12    1    1    2    0    0 -0.33850663263E+02  0.74626732469E+01  0.21251094513E+02  0.40659167642E+02  0.00000000000E+00 0.  1.
         11    1    3    3    0    0  0.15413804552E+02  0.30125747397E+01 -0.14594332854E+02  0.21439578565E+02  0.51100000000E-03 0. -1.
        -11    1    3    3    0    0  0.15392728030E+02  0.59012752962E+00  0.76340257392E+00  0.15422941044E+02  0.51100000000E-03 0.  1.
         12    1    3    3    0    0  0.30441306818E+01 -0.11065375516E+02 -0.74201642323E+01  0.13666312749E+02  0.00000000000E+00 0. -1.
</event>
<event>
 7    1  0.3014423E-011  0.5052886E+02  0.7816164E-02  0.1300439E+00
        -11   -1    0    0    0    0  0.00000000000E+00  0.00000000000E+00  0.45593999997E+02  0.45594000000E+02  0.51100000000E-03 0.  1.
         11   -1    0    0    0    0 -0.00000000000E+00 -0.00000000000E+00 -0.45593999997E+02  0.45594000000E+02  0.51100000000E-03 0. -1.
    9900012    2    1    2    0    0 -0.17789780461E+02 -0.35513698607E+02 -0.86871453593E+01  0.50528861149E+02  0.30000003949E+02 0.  0.
        -12    1    1    2    0    0  0.17789780461E+02  0.35513698607E+02  0.86871453593E+01  0.40659138851E+02  0.00000000000E+00 0.  1.
         11    1    3    3    0    0 -0.61283098151E+01 -0.11694208367E+02 -0.10231635776E+02  0.16703205125E+02  0.51100000000E-03 0. -1.
        -11    1    3    3    0    0 -0.49523457548E+00  0.18068448298E+01 -0.48074722448E+01  0.51596254873E+01  0.51100000000E-03 0.  1.
        -12    1    3    3    0    0 -0.11166236070E+02 -0.25626335070E+02  0.63519626619E+01  0.28666030537E+02  0.00000000000E+00 0.  1.
</event>
<event>
 7    1  0.3014423E-011  0.5052886E+02  0.7816164E-02  0.1300439E+00
        -11   -1    0    0    0    0  0.00000000000E+00  0.00000000000E+00  0.45593999997E+02  0.45594000000E+02  0.51100000000E-03 0.  1.
         11   -1    0    0    0    0 -0.00000000000E+00 -0.00000000000E+00 -0.45593999997E+02  0.45594000000E+02  0.51100000000E-03 0. -1.
    9900012    2    1    2    0    0  0.19336743212E+02 -0.14905682530E+02 -0.32512716027E+02  0.50528859414E+02  0.29999998675E+02 0.  0.
        -12    1    1    2    0    0 -0.19336743212E+02  0.14905682530E+02  0.32512716027E+02  0.40659140586E+02  0.00000000000E+00 0.  1.
         11    1    3    3    0    0  0.13613608261E+02  0.11152164250E+01 -0.10755166465E+02  0.17385270878E+02  0.51100000000E-03 0. -1.
        -11    1    3    3    0    0 -0.17914100475E+01  0.96035250692E+00  0.20922711721E+01  0.29170234512E+01  0.51100000000E-03 0.  1.
         12    1    3    3    0    0  0.75145449986E+01 -0.16981251462E+02 -0.23849820734E+02  0.30226565085E+02  0.00000000000E+00 0. -1.
</event>
<event>
 7    1  0.3014423E-011  0.5052887E+02  0.7816164E-02  0.1300439E+00
        -11   -1    0    0    0    0  0.00000000000E+00  0.00000000000E+00  0.45593999997E+02  0.45594000000E+02  0.51100000000E-03 0.  1.
         11   -1    0    0    0    0 -0.00000000000E+00 -0.00000000000E+00 -0.45593999997E+02  0.45594000000E+02  0.51100000000E-03 0. -1.
    9900012    2    1    2    0    0 -0.21423798107E+02 -0.31367834980E+02 -0.14499802385E+02  0.50528874753E+02  0.30000045298E+02 0.  0.
        -12    1    1    2    0    0  0.21423798107E+02  0.31367834980E+02  0.14499802385E+02  0.40659125247E+02  0.00000000000E+00 0.  1.
         11    1    3    3    0    0 -0.55461580093E+01 -0.40550656746E+01 -0.82617759779E+01  0.10745248664E+02  0.51100000000E-03 0. -1.
        -11    1    3    3    0    0 -0.12462471098E+02 -0.23412315885E+02 -0.14350552246E+02  0.30156061928E+02  0.51100000000E-03 0.  1.
        -12    1    3    3    0    0 -0.34151689998E+01 -0.39004534207E+01  0.81125258387E+01  0.96275641607E+01  0.00000000000E+00 0.  1.
</event>
<event>
 7    1  0.3014423E-011  0.5052888E+02  0.7816164E-02  0.1300439E+00
        -11   -1    0    0    0    0  0.00000000000E+00  0.00000000000E+00  0.45593999997E+02  0.45594000000E+02  0.51100000000E-03 0.  1.
         11   -1    0    0    0    0 -0.00000000000E+00 -0.00000000000E+00 -0.45593999997E+02  0.45594000000E+02  0.51100000000E-03 0. -1.
    9900012    2    1    2    0    0 -0.24434703175E+02 -0.31965598694E+02 -0.58574642108E+01  0.50528879177E+02  0.30000058747E+02 0.  0.
        -12    1    1    2    0    0  0.24434703175E+02  0.31965598694E+02  0.58574642108E+01  0.40659120823E+02  0.00000000000E+00 0.  1.
         11    1    3    3    0    0 -0.12377809559E+02 -0.85420840991E+01 -0.78247316595E+01  0.16952987821E+02  0.51100000000E-03 0. -1.
        -11    1    3    3    0    0 -0.10521943987E+02 -0.20569803206E+02 -0.69180214871E+01  0.24118190868E+02  0.51100000000E-03 0.  1.
        -12    1    3    3    0    0 -0.15349496286E+01 -0.28537113889E+01  0.88852889357E+01  0.94577004882E+01  0.00000000000E+00 0.  1.
</event>
<event>
 7    1  0.3014423E-011  0.5052884E+02  0.7816164E-02  0.1300439E+00
        -11   -1    0    0    0    0  0.00000000000E+00  0.00000000000E+00  0.45593999997E+02  0.45594000000E+02  0.51100000000E-03 0.  1.
         11   -1    0    0    0    0 -0.00000000000E+00 -0.00000000000E+00 -0.45593999997E+02  0.45594000000E+02  0.51100000000E-03 0. -1.
    9900012    2    1    2    0    0  0.37664443718E+02  0.12246430548E+01 -0.15266212645E+02  0.50528839658E+02  0.29999938624E+02 0.  0.
        -12    1    1    2    0    0 -0.37664443718E+02 -0.12246430548E+01  0.15266212645E+02  0.40659160342E+02  0.00000000000E+00 0.  1.
         11    1    3    3    0    0  0.11609264385E+02 -0.26134377094E+01 -0.11500761610E+02  0.16549096474E+02  0.51100000000E-03 0.  1.
        -11    1    3    3    0    0  0.20974575483E+02 -0.60815017327E+01 -0.59239684782E+01  0.22627657475E+02  0.51100000000E-03 0. -1.
        -12    1    3    3    0    0  0.50806038494E+01  0.99195824969E+01  0.21585174432E+01  0.11352085709E+02  0.00000000000E+00 0.  1.
</event>
<event>
 7    1  0.3014423E-011  0.5052886E+02  0.7816164E-02  0.1300439E+00
        -11   -1    0    0    0    0  0.00000000000E+00  0.00000000000E+00  0.45593999997E+02  0.45594000000E+02  0.51100000000E-03 0.  1.
         11   -1    0    0    0    0 -0.00000000000E+00 -0.00000000000E+00 -0.45593999997E+02  0.45594000000E+02  0.51100000000E-03 0. -1.
    9900012    2    1    2    0    0 -0.84426794732E+01  0.25619210425E+02 -0.30422739493E+02  0.50528857636E+02  0.29999993271E+02 0.  0.
        -12    1    1    2    0    0  0.84426794732E+01 -0.25619210425E+02  0.30422739493E+02  0.40659142364E+02  0.00000000000E+00 0.  1.
         11    1    3    3    0    0 -0.13572681187E+01  0.16450823798E+01 -0.90178807019E+01  0.92666415382E+01  0.51100000000E-03 0. -1.
        -11    1    3    3    0    0 -0.12997148834E+02  0.38549621694E+01 -0.12637168826E+02  0.18533338807E+02  0.51100000000E-03 0.  1.
        -12    1    3    3    0    0  0.59117374799E+01  0.20119165876E+02 -0.87676899651E+01  0.22728877291E+02  0.00000000000E+00 0.  1.
</event>
<event>
 7    1  0.3014423E-011  0.5052886E+02  0.7816164E-02  0.1300439E+00
        -11   -1    0    0    0    0  0.00000000000E+00  0.00000000000E+00  0.45593999997E+02  0.45594000000E+02  0.51100000000E-03 0.  1.
         11   -1    0    0    0    0 -0.00000000000E+00 -0.00000000000E+00 -0.45593999997E+02  0.45594000000E+02  0.51100000000E-03 0. -1.
    9900012    2    1    2    0    0  0.34438123637E+02  0.20619498896E+02  0.64820811397E+01  0.50528862401E+02  0.30000007755E+02 0.  0.
        -12    1    1    2    0    0 -0.34438123637E+02 -0.20619498896E+02 -0.64820811397E+01  0.40659137599E+02  0.00000000000E+00 0.  1.
         11    1    3    3    0    0  0.73424537736E+01  0.86987102833E+01 -0.20581116116E+01  0.11567843865E+02  0.51100000000E-03 0. -1.
        -11    1    3    3    0    0 -0.21412492878E+01 -0.38921517378E+01 -0.61342977749E+00  0.44844275014E+01  0.51100000000E-03 0.  1.
         12    1    3    3    0    0  0.29236919152E+02  0.15812940350E+02  0.91536225288E+01  0.34476591035E+02  0.00000000000E+00 0. -1.
</event>
<event>
 7    1  0.3014423E-011  0.5052886E+02  0.7816164E-02  0.1300439E+00
        -11   -1    0    0    0    0  0.00000000000E+00  0.00000000000E+00  0.45593999997E+02  0.45594000000E+02  0.51100000000E-03 0.  1.
         11   -1    0    0    0    0 -0.00000000000E+00 -0.00000000000E+00 -0.45593999997E+02  0.45594000000E+02  0.51100000000E-03 0. -1.
    9900012    2    1    2    0    0 -0.25958021898E+02 -0.15067385065E+02 -0.27428460529E+02  0.50528862767E+02  0.30000008866E+02 0.  0.
        -12    1    1    2    0    0  0.25958021898E+02  0.15067385065E+02  0.27428460529E+02  0.40659137233E+02  0.00000000000E+00 0.  1.
         11    1    3    3    0    0 -0.85465535145E+01  0.35740258945E+01 -0.14816047884E+01  0.93814919432E+01  0.51100000000E-03 0. -1.
        -11    1    3    3    0    0  0.32348459597E+01 -0.36481936521E+01 -0.98155419327E+01  0.10959854424E+02  0.51100000000E-03 0.  1.
         12    1    3    3    0    0 -0.20646314343E+02 -0.14993217307E+02 -0.16131313808E+02  0.30187516399E+02  0.00000000000E+00 0. -1.
</event>
<event>
 7    1  0.3014423E-011  0.5052886E+02  0.7816164E-02  0.1300439E+00
        -11   -1    0    0    0    0  0.00000000000E+00  0.00000000000E+00  0.45593999997E+02  0.45594000000E+02  0.51100000000E-03 0. -1.
         11   -1    0    0    0    0 -0.00000000000E+00 -0.00000000000E+00 -0.45593999997E+02  0.45594000000E+02  0.51100000000E-03 0.  1.
    9900012    2    1    2    0    0  0.34523786575E+02 -0.45637475940E+01 -0.20986805150E+02  0.50528860536E+02  0.30000002084E+02 0.  0.
        -12    1    1    2    0    0 -0.34523786575E+02  0.45637475940E+01  0.20986805150E+02  0.40659139464E+02  0.00000000000E+00 0.  1.
         11    1    3    3    0    0  0.60189905559E+01  0.24261725918E+01 -0.11275009163E+01  0.65867912776E+01  0.51100000000E-03 0. -1.
        -11    1    3    3    0    0  0.12392125812E+02  0.43229660344E+01 -0.20388337582E+02  0.24247414854E+02  0.51100000000E-03 0.  1.
         12    1    3    3    0    0  0.16112670207E+02 -0.11312886220E+02  0.52903334768E+00  0.19694654404E+02  0.00000000000E+00 0. -1.
</event>
<event>
 7    1  0.3014423E-011  0.5052885E+02  0.7816164E-02  0.1300439E+00
        -11   -1    0    0    0    0  0.00000000000E+00  0.00000000000E+00  0.45593999997E+02  0.45594000000E+02  0.51100000000E-03 0.  1.
         11   -1    0    0    0    0 -0.00000000000E+00 -0.00000000000E+00 -0.45593999997E+02  0.45594000000E+02  0.51100000000E-03 0. -1.
    9900012    2    1    2    0    0 -0.16024569763E+02 -0.35728602196E+02  0.10947444961E+02  0.50528850942E+02  0.29999972923E+02 0.  0.
        -12    1    1    2    0    0  0.16024569763E+02  0.35728602196E+02 -0.10947444961E+02  0.40659149058E+02  0.00000000000E+00 0.  1.
         11    1    3    3    0    0 -0.82717239876E+01 -0.23309284901E+02  0.13259507279E+02  0.28063476510E+02  0.51100000000E-03 0. -1.
        -11    1    3    3    0    0  0.17609578094E+01 -0.69931354547E+01  0.54517727192E+01  0.90402843947E+01  0.51100000000E-03 0.  1.
         12    1    3    3    0    0 -0.95138035850E+01 -0.54261818403E+01 -0.77638350368E+01  0.13425090037E+02  0.00000000000E+00 0. -1.
</event>
<event>
 7    1  0.3014423E-011  0.5052885E+02  0.7816164E-02  0.1300439E+00
        -11   -1    0    0    0    0  0.00000000000E+00  0.00000000000E+00  0.45593999997E+02  0.45594000000E+02  0.51100000000E-03 0.  1.
         11   -1    0    0    0    0 -0.00000000000E+00 -0.00000000000E+00 -0.45593999997E+02  0.45594000000E+02  0.51100000000E-03 0. -1.
    9900012    2    1    2    0    0 -0.23318132018E+02  0.13772519369E+02 -0.30327358795E+02  0.50528852665E+02  0.29999978160E+02 0.  0.
        -12    1    1    2    0    0  0.23318132018E+02 -0.13772519369E+02  0.30327358795E+02  0.40659147335E+02  0.00000000000E+00 0.  1.
         11    1    3    3    0    0 -0.16755924793E+02  0.78386518205E+01 -0.13368506563E+02  0.22823725507E+02  0.51100000000E-03 0. -1.
        -11    1    3    3    0    0 -0.59862418126E+01  0.51128778866E+01  0.24696142103E+01  0.82507942606E+01  0.51100000000E-03 0.  1.
         12    1    3    3    0    0 -0.57596541248E+00  0.82098966143E+00 -0.19428466442E+02  0.19454332897E+02  0.00000000000E+00 0. -1.
</event>
<event>
 7    1  0.3014423E-011  0.5052886E+02  0.7816164E-02  0.1300439E+00
        -11   -1    0    0    0    0  0.00000000000E+00  0.00000000000E+00  0.45593999997E+02  0.45594000000E+02  0.51100000000E-03 0. -1.
         11   -1    0    0    0    0 -0.00000000000E+00 -0.00000000000E+00 -0.45593999997E+02  0.45594000000E+02  0.51100000000E-03 0.  1.
    9900012    2    1    2    0    0 -0.33326647687E+01 -0.38934328569E+02 -0.11232862007E+02  0.50528858538E+02  0.29999996011E+02 0.  0.
        -12    1    1    2    0    0  0.33326647687E+01  0.38934328569E+02  0.11232862007E+02  0.40659141462E+02  0.00000000000E+00 0.  1.
         11    1    3    3    0    0 -0.59219169603E+01 -0.17868015491E+02 -0.87168585460E+01  0.20744124500E+02  0.51100000000E-03 0.  1.
        -11    1    3    3    0    0 -0.58735935717E+01 -0.16662318129E+02 -0.72954861898E+01  0.19114289573E+02  0.51100000000E-03 0. -1.
         12    1    3    3    0    0  0.84628457633E+01 -0.44039949488E+01  0.47794827288E+01  0.10670444465E+02  0.00000000000E+00 0. -1.
</event>
<event>
 7    1  0.3014423E-011  0.5052886E+02  0.7816164E-02  0.1300439E+00
        -11   -1    0    0    0    0  0.00000000000E+00  0.00000000000E+00  0.45593999997E+02  0.45594000000E+02  0.51100000000E-03 0.  1.
         11   -1    0    0    0    0 -0.00000000000E+00 -0.00000000000E+00 -0.45593999997E+02  0.45594000000E+02  0.51100000000E-03 0. -1.
    9900012    2    1    2    0    0  0.35230181226E+02 -0.20221015654E+02  0.17635608405E+01  0.50528864616E+02  0.30000014487E+02 0.  0.
        -12    1    1    2    0    0 -0.35230181226E+02  0.20221015654E+02 -0.17635608405E+01  0.40659135384E+02  0.00000000000E+00 0.  1.
         11    1    3    3    0    0  0.13186325052E+02  0.65982760365E+01  0.55383438111E+00  0.14755444684E+02  0.51100000000E-03 0. -1.
        -11    1    3    3    0    0  0.15051341999E+02 -0.11749619167E+02 -0.25408417033E+00  0.19096099224E+02  0.51100000000E-03 0.  1.
        -12    1    3    3    0    0  0.69925141753E+01 -0.15069672523E+02  0.14638106298E+01  0.16677320709E+02  0.00000000000E+00 0.  1.
</event>
<event>
 7    1  0.3014423E-011  0.5052885E+02  0.7816164E-02  0.1300439E+00
        -11   -1    0    0    0    0  0.00000000000E+00  0.00000000000E+00  0.45593999997E+02  0.45594000000E+02  0.51100000000E-03 0. -1.
         11   -1    0    0    0    0 -0.00000000000E+00 -0.00000000000E+00 -0.45593999997E+02  0.45594000000E+02  0.51100000000E-03 0.  1.
    9900012    2    1    2    0    0 -0.31811091831E+02  0.21190665326E+02  0.13862783374E+02  0.50528848222E+02  0.29999964654E+02 0.  0.
        -12    1    1    2    0    0  0.31811091831E+02 -0.21190665326E+02 -0.13862783374E+02  0.40659151778E+02  0.00000000000E+00 0.  1.
         11    1    3    3    0    0 -0.11749196384E+02  0.17913810647E+02  0.86658887618E+01  0.23109432184E+02  0.51100000000E-03 0. -1.
        -11    1    3    3    0    0 -0.23260154134E+02  0.19866368614E+01  0.36069017560E+01  0.23621838135E+02  0.51100000000E-03 0.  1.
         12    1    3    3    0    0  0.31982586866E+01  0.12902178178E+01  0.15899928565E+01  0.37975779027E+01  0.00000000000E+00 0. -1.
</event>
<event>
 7    1  0.3014423E-011  0.5052885E+02  0.7816164E-02  0.1300439E+00
        -11   -1    0    0    0    0  0.00000000000E+00  0.00000000000E+00  0.45593999997E+02  0.45594000000E+02  0.51100000000E-03 0. -1.
         11   -1    0    0    0    0 -0.00000000000E+00 -0.00000000000E+00 -0.45593999997E+02  0.45594000000E+02  0.51100000000E-03 0.  1.
    9900012    2    1    2    0    0 -0.12800860636E+02  0.32226885345E+02 -0.21230457568E+02  0.50528849731E+02  0.29999969241E+02 0.  0.
        -12    1    1    2    0    0  0.12800860636E+02 -0.32226885345E+02  0.21230457568E+02  0.40659150269E+02  0.00000000000E+00 0.  1.
         11    1    3    3    0    0 -0.13495692270E+02  0.94145574883E+01 -0.51048249448E+01  0.17228663341E+02  0.51100000000E-03 0. -1.
        -11    1    3    3    0    0  0.10157433440E+01 -0.30231300937E+01 -0.27223103328E+01  0.41930924046E+01  0.51100000000E-03 0.  1.
        -12    1    3    3    0    0 -0.32091171050E+00  0.25835457950E+02 -0.13403322291E+02  0.29107093985E+02  0.00000000000E+00 0.  1.
</event>
<event>
 7    1  0.3014423E-011  0.5052885E+02  0.7816164E-02  0.1300439E+00
        -11   -1    0    0    0    0  0.00000000000E+00  0.00000000000E+00  0.45593999997E+02  0.45594000000E+02  0.51100000000E-03 0.  1.
         11   -1    0    0    0    0 -0.00000000000E+00 -0.00000000000E+00 -0.45593999997E+02  0.45594000000E+02  0.51100000000E-03 0. -1.
    9900012    2    1    2    0    0  0.19545542438E+02 -0.25244197644E+02 -0.25176752618E+02  0.50528848308E+02  0.29999964918E+02 0.  0.
        -12    1    1    2    0    0 -0.19545542438E+02  0.25244197644E+02  0.25176752618E+02  0.40659151692E+02  0.00000000000E+00 0.  1.
         11    1    3    3    0    0  0.59970408173E+01  0.16238483003E+01 -0.18653926899E+01  0.64869925247E+01  0.51100000000E-03 0. -1.
        -11    1    3    3    0    0  0.58743326784E+01 -0.12539041869E+01  0.28365865823E+01  0.66427617620E+01  0.51100000000E-03 0.  1.
         12    1    3    3    0    0  0.76741689426E+01 -0.25614141757E+02 -0.26147946511E+02  0.37399094022E+02  0.00000000000E+00 0. -1.
</event>
<event>
 7    1  0.3014423E-011  0.5052885E+02  0.7816164E-02  0.1300439E+00
        -11   -1    0    0    0    0  0.00000000000E+00  0.00000000000E+00  0.45593999997E+02  0.45594000000E+02  0.51100000000E-03 0.  1.
         11   -1    0    0    0    0 -0.00000000000E+00 -0.00000000000E+00 -0.45593999997E+02  0.45594000000E+02  0.51100000000E-03 0. -1.
    9900012    2    1    2    0    0 -0.14549524191E+02 -0.35280826729E+02  0.14026437211E+02  0.50528851833E+02  0.29999975630E+02 0.  0.
        -12    1    1    2    0    0  0.14549524191E+02  0.35280826729E+02 -0.14026437211E+02  0.40659148167E+02  0.00000000000E+00 0.  1.
         11    1    3    3    0    0 -0.25927405495E+01 -0.16967197406E+02  0.10084092432E+02  0.19907210046E+02  0.51100000000E-03 0. -1.
        -11    1    3    3    0    0 -0.69262935391E+01 -0.82401240894E+01  0.12487394412E+02  0.16486606888E+02  0.51100000000E-03 0.  1.
         12    1    3    3    0    0 -0.50304901023E+01 -0.10073505234E+02 -0.85450496334E+01  0.14135034899E+02  0.00000000000E+00 0. -1.
</event>
<event>
 7    1  0.3014423E-011  0.5052886E+02  0.7816164E-02  0.1300439E+00
        -11   -1    0    0    0    0  0.00000000000E+00  0.00000000000E+00  0.45593999997E+02  0.45594000000E+02  0.51100000000E-03 0. -1.
         11   -1    0    0    0    0 -0.00000000000E+00 -0.00000000000E+00 -0.45593999997E+02  0.45594000000E+02  0.51100000000E-03 0.  1.
    9900012    2    1    2    0    0 -0.51256333679E+01  0.12802665681E+02  0.38248992851E+02  0.50528858100E+02  0.29999994680E+02 0.  0.
        -12    1    1    2    0    0  0.51256333679E+01 -0.12802665681E+02 -0.38248992851E+02  0.40659141900E+02  0.00000000000E+00 0.  1.
         11    1    3    3    0    0  0.20675949967E+01  0.36659979011E+01  0.18088816047E+02  0.18572015397E+02  0.51100000000E-03 0. -1.
        -11    1    3    3    0    0  0.48717750662E+01 -0.21206718349E+01 -0.69986744265E+00  0.53592215876E+01  0.51100000000E-03 0.  1.
        -12    1    3    3    0    0 -0.12065003431E+02  0.11257339615E+02  0.20860044247E+02  0.26597621115E+02  0.00000000000E+00 0.  1.
</event>
<event>
 7    1  0.3014423E-011  0.5052886E+02  0.7816164E-02  0.1300439E+00
        -11   -1    0    0    0    0  0.00000000000E+00  0.00000000000E+00  0.45593999997E+02  0.45594000000E+02  0.51100000000E-03 0. -1.
         11   -1    0    0    0    0 -0.00000000000E+00 -0.00000000000E+00 -0.45593999997E+02  0.45594000000E+02  0.51100000000E-03 0.  1.
    9900012    2    1    2    0    0  0.14651152435E+02 -0.33541583251E+02  0.17705119441E+02  0.50528864138E+02  0.30000013035E+02 0.  0.
        -12    1    1    2    0    0 -0.14651152435E+02  0.33541583251E+02 -0.17705119441E+02  0.40659135862E+02  0.00000000000E+00 0.  1.
         11    1    3    3    0    0  0.86928033848E+01 -0.64715515364E+01  0.60819102446E+01  0.12427205738E+02  0.51100000000E-03 0. -1.
        -11    1    3    3    0    0  0.12448032881E+02 -0.22513457992E+02  0.14661077111E+02  0.29610074227E+02  0.51100000000E-03 0.  1.
        -12    1    3    3    0    0 -0.64896838310E+01 -0.45565737216E+01 -0.30378679149E+01  0.84915841735E+01  0.00000000000E+00 0.  1.
</event>
<event>
 7    1  0.3014423E-011  0.5052886E+02  0.7816164E-02  0.1300439E+00
        -11   -1    0    0    0    0  0.00000000000E+00  0.00000000000E+00  0.45593999997E+02  0.45594000000E+02  0.51100000000E-03 0.  1.
         11   -1    0    0    0    0 -0.00000000000E+00 -0.00000000000E+00 -0.45593999997E+02  0.45594000000E+02  0.51100000000E-03 0. -1.
    9900012    2    1    2    0    0  0.18999225946E+02  0.35870750756E+02  0.23419426191E+01  0.50528855375E+02  0.29999986399E+02 0.  0.
        -12    1    1    2    0    0 -0.18999225946E+02 -0.35870750756E+02 -0.23419426191E+01  0.40659144625E+02  0.00000000000E+00 0.  1.
         11    1    3    3    0    0  0.22404353754E+01  0.19169425102E+02 -0.44008392839E+01  0.19795297323E+02  0.51100000000E-03 0. -1.
        -11    1    3    3    0    0  0.35100888381E+01  0.10012234845E+02 -0.50756457356E+01  0.11761281824E+02  0.51100000000E-03 0.  1.
        -12    1    3    3    0    0  0.13248701733E+02  0.66890908086E+01  0.11818427639E+02  0.18972276229E+02  0.00000000000E+00 0.  1.
</event>
<event>
 7    1  0.3014423E-011  0.5052886E+02  0.7816164E-02  0.1300439E+00
        -11   -1    0    0    0    0  0.00000000000E+00  0.00000000000E+00  0.45593999997E+02  0.45594000000E+02  0.51100000000E-03 0.  1.
         11   -1    0    0    0    0 -0.00000000000E+00 -0.00000000000E+00 -0.45593999997E+02  0.45594000000E+02  0.51100000000E-03 0. -1.
    9900012    2    1    2    0    0 -0.26491652978E+02 -0.11563442218E+02 -0.28594482120E+02  0.50528864727E+02  0.30000014824E+02 0.  0.
        -12    1    1    2    0    0  0.26491652978E+02  0.11563442218E+02  0.28594482120E+02  0.40659135273E+02  0.00000000000E+00 0.  1.
         11    1    3    3    0    0 -0.13211884079E+02 -0.14238227101E+01  0.75768881481E-01  0.13288600122E+02  0.51100000000E-03 0. -1.
        -11    1    3    3    0    0 -0.76110785261E+01  0.34905658452E+01 -0.64777080757E+01  0.10586466286E+02  0.51100000000E-03 0.  1.
         12    1    3    3    0    0 -0.56686903733E+01 -0.13630185353E+02 -0.22192542926E+02  0.26653798319E+02  0.00000000000E+00 0. -1.
</event>
<event>
 7    1  0.3014423E-011  0.5052886E+02  0.7816164E-02  0.1300439E+00
        -11   -1    0    0    0    0  0.00000000000E+00  0.00000000000E+00  0.45593999997E+02  0.45594000000E+02  0.51100000000E-03 0.  1.
         11   -1    0    0    0    0 -0.00000000000E+00 -0.00000000000E+00 -0.45593999997E+02  0.45594000000E+02  0.51100000000E-03 0. -1.
    9900012    2    1    2    0    0 -0.29232763691E+02 -0.28250381935E+02 -0.72600999402E+00  0.50528860277E+02  0.30000001297E+02 0.  0.
        -12    1    1    2    0    0  0.29232763691E+02  0.28250381935E+02  0.72600999402E+00  0.40659139723E+02  0.00000000000E+00 0.  1.
         11    1    3    3    0    0 -0.18212102907E+02 -0.22215230114E+02  0.51938706501E+01  0.29192009762E+02  0.51100000000E-03 0. -1.
        -11    1    3    3    0    0 -0.14858885747E+02 -0.45668697696E+01 -0.70587876207E+01  0.17072471059E+02  0.51100000000E-03 0.  1.
        -12    1    3    3    0    0  0.38382249624E+01 -0.14682820515E+01  0.11389069766E+01  0.42643794561E+01  0.00000000000E+00 0.  1.
</event>
<event>
 7    1  0.3014423E-011  0.5052887E+02  0.7816164E-02  0.1300439E+00
        -11   -1    0    0    0    0  0.00000000000E+00  0.00000000000E+00  0.45593999997E+02  0.45594000000E+02  0.51100000000E-03 0.  1.
         11   -1    0    0    0    0 -0.00000000000E+00 -0.00000000000E+00 -0.45593999997E+02  0.45594000000E+02  0.51100000000E-03 0. -1.
    9900012    2    1    2    0    0  0.57522877486E+00 -0.30431787813E+01 -0.40541008430E+02  0.50528865851E+02  0.30000018242E+02 0.  0.
        -12    1    1    2    0    0 -0.57522877486E+00  0.30431787813E+01  0.40541008430E+02  0.40659134149E+02  0.00000000000E+00 0.  1.
         11    1    3    3    0    0  0.21624641878E+01 -0.69869232140E+01 -0.90510150149E+01  0.11636761595E+02  0.51100000000E-03 0. -1.
        -11    1    3    3    0    0 -0.10861619331E+02  0.70206332184E-01 -0.84709851450E+01  0.13774516072E+02  0.51100000000E-03 0.  1.
         12    1    3    3    0    0  0.92743839182E+01  0.38735381006E+01 -0.23019008270E+02  0.25117588184E+02  0.00000000000E+00 0. -1.
</event>
<event>
 7    1  0.3014423E-011  0.5052885E+02  0.7816164E-02  0.1300439E+00
        -11   -1    0    0    0    0  0.00000000000E+00  0.00000000000E+00  0.45593999997E+02  0.45594000000E+02  0.51100000000E-03 0.  1.
         11   -1    0    0    0    0 -0.00000000000E+00 -0.00000000000E+00 -0.45593999997E+02  0.45594000000E+02  0.51100000000E-03 0. -1.
    9900012    2    1    2    0    0 -0.18237472944E+02 -0.36221521560E+02 -0.29261238263E+01  0.50528852884E+02  0.29999978827E+02 0.  0.
        -12    1    1    2    0    0  0.18237472944E+02  0.36221521560E+02  0.29261238263E+01  0.40659147116E+02  0.00000000000E+00 0.  1.
         11    1    3    3    0    0 -0.15964138261E+02 -0.33683319437E+02 -0.10662410659E+02  0.38769920300E+02  0.51100000000E-03 0. -1.
        -11    1    3    3    0    0 -0.31324259497E+01 -0.42504339662E+01  0.18920762316E+01  0.56087640313E+01  0.51100000000E-03 0.  1.
         12    1    3    3    0    0  0.85909126696E+00  0.17122318428E+01  0.58442106009E+01  0.61501685535E+01  0.00000000000E+00 0. -1.
</event>
<event>
 7    1  0.3014423E-011  0.5052886E+02  0.7816164E-02  0.1300439E+00
        -11   -1    0    0    0    0  0.00000000000E+00  0.00000000000E+00  0.45593999997E+02  0.45594000000E+02  0.51100000000E-03 0.  1.
         11   -1    0    0    0    0 -0.00000000000E+00 -0.00000000000E+00 -0.45593999997E+02  0.45594000000E+02  0.51100000000E-03 0. -1.
    9900012    2    1    2    0    0  0.28710657014E+02  0.57061836613E+01 -0.28218844319E+02  0.50528861632E+02  0.30000005416E+02 0.  0.
        -12    1    1    2    0    0 -0.28710657014E+02 -0.57061836613E+01  0.28218844319E+02  0.40659138368E+02  0.00000000000E+00 0.  1.
         11    1    3    3    0    0  0.46689423342E+01 -0.18925651583E+01 -0.12652623409E+02  0.13618726255E+02  0.51100000000E-03 0. -1.
        -11    1    3    3    0    0  0.12574897615E+01 -0.62002450509E+01 -0.56658173313E+01  0.84926912981E+01  0.51100000000E-03 0.  1.
        -12    1    3    3    0    0  0.22784224918E+02  0.13798993870E+02 -0.99004035783E+01  0.28417444079E+02  0.00000000000E+00 0.  1.
</event>
<event>
 7    1  0.3014423E-011  0.5052886E+02  0.7816164E-02  0.1300439E+00
        -11   -1    0    0    0    0  0.00000000000E+00  0.00000000000E+00  0.45593999997E+02  0.45594000000E+02  0.51100000000E-03 0.  1.
         11   -1    0    0    0    0 -0.00000000000E+00 -0.00000000000E+00 -0.45593999997E+02  0.45594000000E+02  0.51100000000E-03 0. -1.
    9900012    2    1    2    0    0  0.17938562825E+02  0.91492347312E+00 -0.36476518633E+02  0.50528861632E+02  0.30000005417E+02 0.  0.
        -12    1    1    2    0    0 -0.17938562825E+02 -0.91492347312E+00  0.36476518633E+02  0.40659138368E+02  0.00000000000E+00 0.  1.
         11    1    3    3    0    0  0.98171431221E+01  0.96543970894E-01 -0.14825179665E+02  0.17781214024E+02  0.51100000000E-03 0. -1.
        -11    1    3    3    0    0  0.12606209896E+02  0.57765151015E+01 -0.22052698480E+02  0.26050070348E+02  0.51100000000E-03 0.  1.
        -12    1    3    3    0    0 -0.44847901928E+01 -0.49581355992E+01  0.40135951106E+00  0.66975772598E+01  0.00000000000E+00 0.  1.
</event>
<event>
 7    1  0.3014423E-011  0.5052886E+02  0.7816164E-02  0.1300439E+00
        -11   -1    0    0    0    0  0.00000000000E+00  0.00000000000E+00  0.45593999997E+02  0.45594000000E+02  0.51100000000E-03 0.  1.
         11   -1    0    0    0    0 -0.00000000000E+00 -0.00000000000E+00 -0.45593999997E+02  0.45594000000E+02  0.51100000000E-03 0. -1.
    9900012    2    1    2    0    0 -0.94056870389E+01  0.33185318615E+02 -0.21527501954E+02  0.50528860060E+02  0.30000000639E+02 0.  0.
        -12    1    1    2    0    0  0.94056870389E+01 -0.33185318615E+02  0.21527501954E+02  0.40659139940E+02  0.00000000000E+00 0.  1.
         11    1    3    3    0    0 -0.14010108574E+02  0.13422533927E+02 -0.11042596301E+02  0.22324571499E+02  0.51100000000E-03 0. -1.
        -11    1    3    3    0    0 -0.39450774668E+01  0.28181898593E+01 -0.75887959684E+01  0.90053125883E+01  0.51100000000E-03 0.  1.
        -12    1    3    3    0    0  0.85494990020E+01  0.16944594829E+02 -0.28961096841E+01  0.19198975973E+02  0.00000000000E+00 0.  1.
</event>
<event>
 7    1  0.3014423E-011  0.5052879E+02  0.7816164E-02  0.1300439E+00
        -11   -1    0    0    0    0  0.00000000000E+00  0.00000000000E+00  0.45593999997E+02  0.45594000000E+02  0.51100000000E-03 0. -1.
         11   -1    0    0    0    0 -0.00000000000E+00 -0.00000000000E+00 -0.45593999997E+02  0.45594000000E+02  0.51100000000E-03 0.  1.
    9900012    2    1    2    0    0 -0.27859754175E+02 -0.26383236804E+02  0.13451045170E+02  0.50528785754E+02  0.29999774777E+02 0.  0.
        -12    1    1    2    0    0  0.27859754175E+02  0.26383236804E+02 -0.13451045170E+02  0.40659214246E+02  0.00000000000E+00 0.  1.
         11    1    3    3    0    0 -0.25306469226E+02 -0.16188241117E+02  0.13128625074E+02  0.32784711860E+02  0.51100000000E-03 0. -1.
        -11    1    3    3    0    0  0.80290675225E+00 -0.27469764211E+01  0.67614837540E+01  0.73422204766E+01  0.51100000000E-03 0.  1.
         12    1    3    3    0    0 -0.33561917011E+01 -0.74480192661E+01 -0.64390636579E+01  0.10401853417E+02  0.00000000000E+00 0. -1.
</event>
<event>
 7    1  0.3014423E-011  0.5052886E+02  0.7816164E-02  0.1300439E+00
        -11   -1    0    0    0    0  0.00000000000E+00  0.00000000000E+00  0.45593999997E+02  0.45594000000E+02  0.51100000000E-03 0.  1.
         11   -1    0    0    0    0 -0.00000000000E+00 -0.00000000000E+00 -0.45593999997E+02  0.45594000000E+02  0.51100000000E-03 0. -1.
    9900012    2    1    2    0    0  0.12916007479E+02 -0.37671072291E+02 -0.81995353255E+01  0.50528864295E+02  0.30000013511E+02 0.  0.
        -12    1    1    2    0    0 -0.12916007479E+02  0.37671072291E+02  0.81995353255E+01  0.40659135705E+02  0.00000000000E+00 0.  1.
         11    1    3    3    0    0  0.17969298574E+02 -0.20246486441E+02 -0.20295151651E+01  0.27146543730E+02  0.51100000000E-03 0. -1.
        -11    1    3    3    0    0  0.25704926017E+00 -0.11022419451E+02  0.25656601227E+01  0.11320000751E+02  0.51100000000E-03 0.  1.
        -12    1    3    3    0    0 -0.53103403552E+01 -0.64021663993E+01 -0.87356802830E+01  0.12062319814E+02  0.00000000000E+00 0.  1.
</event>
<event>
 7    1  0.3014423E-011  0.5052886E+02  0.7816164E-02  0.1300439E+00
        -11   -1    0    0    0    0  0.00000000000E+00  0.00000000000E+00  0.45593999997E+02  0.45594000000E+02  0.51100000000E-03 0.  1.
         11   -1    0    0    0    0 -0.00000000000E+00 -0.00000000000E+00 -0.45593999997E+02  0.45594000000E+02  0.51100000000E-03 0. -1.
    9900012    2    1    2    0    0  0.77545908567E+01 -0.37098974507E+02 -0.14720672497E+02  0.50528858499E+02  0.29999995894E+02 0.  0.
        -12    1    1    2    0    0 -0.77545908567E+01  0.37098974507E+02  0.14720672497E+02  0.40659141501E+02  0.00000000000E+00 0.  1.
         11    1    3    3    0    0  0.47273709757E+01 -0.16443624357E+01 -0.10185484454E+02  0.11348835093E+02  0.51100000000E-03 0. -1.
        -11    1    3    3    0    0 -0.41653752884E+01 -0.30903202596E+01 -0.29975925112E+01  0.59904917765E+01  0.51100000000E-03 0.  1.
         12    1    3    3    0    0  0.71925951694E+01 -0.32364291812E+02 -0.15375955325E+01  0.33189531629E+02  0.00000000000E+00 0. -1.
</event>
<event>
 7    1  0.3014423E-011  0.5052886E+02  0.7816164E-02  0.1300439E+00
        -11   -1    0    0    0    0  0.00000000000E+00  0.00000000000E+00  0.45593999997E+02  0.45594000000E+02  0.51100000000E-03 0.  1.
         11   -1    0    0    0    0 -0.00000000000E+00 -0.00000000000E+00 -0.45593999997E+02  0.45594000000E+02  0.51100000000E-03 0. -1.
    9900012    2    1    2    0    0 -0.33812661084E+02 -0.22288029926E+02 -0.36212782746E+01  0.50528856085E+02  0.29999988556E+02 0.  0.
        -12    1    1    2    0    0  0.33812661084E+02  0.22288029926E+02  0.36212782746E+01  0.40659143915E+02  0.00000000000E+00 0.  1.
         11    1    3    3    0    0  0.16279641053E+01 -0.20872318257E+01 -0.37981184397E+01  0.46295256523E+01  0.51100000000E-03 0.  1.
        -11    1    3    3    0    0 -0.21846422248E+02 -0.31991243385E+01 -0.66949714066E+01  0.23072130460E+02  0.51100000000E-03 0. -1.
         12    1    3    3    0    0 -0.13594202941E+02 -0.17001673762E+02  0.68718115716E+01  0.22827199972E+02  0.00000000000E+00 0. -1.
</event>
<event>
 7    1  0.3014423E-011  0.5052887E+02  0.7816164E-02  0.1300439E+00
        -11   -1    0    0    0    0  0.00000000000E+00  0.00000000000E+00  0.45593999997E+02  0.45594000000E+02  0.51100000000E-03 0.  1.
         11   -1    0    0    0    0 -0.00000000000E+00 -0.00000000000E+00 -0.45593999997E+02  0.45594000000E+02  0.51100000000E-03 0. -1.
    9900012    2    1    2    0    0 -0.36766106610E+02  0.15056656247E+02 -0.86438127589E+01  0.50528868288E+02  0.30000025647E+02 0.  0.
        -12    1    1    2    0    0  0.36766106610E+02 -0.15056656247E+02  0.86438127589E+01  0.40659131712E+02  0.00000000000E+00 0.  1.
         11    1    3    3    0    0 -0.21251498539E+02  0.88490963253E+01 -0.30632483271E+01  0.23223182092E+02  0.51100000000E-03 0. -1.
        -11    1    3    3    0    0 -0.98684587509E+01  0.75922245515E+01 -0.12919803003E+02  0.17942955767E+02  0.51100000000E-03 0.  1.
         12    1    3    3    0    0 -0.56461493202E+01 -0.13846646295E+01  0.73392385710E+01  0.93627304289E+01  0.00000000000E+00 0. -1.
</event>
<event>
 7    1  0.3014423E-011  0.5052883E+02  0.7816164E-02  0.1300439E+00
        -11   -1    0    0    0    0  0.00000000000E+00  0.00000000000E+00  0.45593999997E+02  0.45594000000E+02  0.51100000000E-03 0.  1.
         11   -1    0    0    0    0 -0.00000000000E+00 -0.00000000000E+00 -0.45593999997E+02  0.45594000000E+02  0.51100000000E-03 0. -1.
    9900012    2    1    2    0    0  0.58724644840E+01  0.16666056571E+01 -0.40198321266E+02  0.50528825806E+02  0.29999896521E+02 0.  0.
        -12    1    1    2    0    0 -0.58724644840E+01 -0.16666056571E+01  0.40198321266E+02  0.40659174194E+02  0.00000000000E+00 0.  1.
         11    1    3    3    0    0 -0.56949540287E+01  0.42512991864E+01 -0.33436351137E+01  0.78540398647E+01  0.51100000000E-03 0. -1.
        -11    1    3    3    0    0 -0.19918907351E+01 -0.43218320219E+01 -0.18679524424E+01  0.51122507092E+01  0.51100000000E-03 0.  1.
         12    1    3    3    0    0  0.13559309248E+02  0.17371384926E+01 -0.34986733710E+02  0.37562535232E+02  0.00000000000E+00 0. -1.
</event>
<event>
 7    1  0.3014423E-011  0.5052886E+02  0.7816164E-02  0.1300439E+00
        -11   -1    0    0    0    0  0.00000000000E+00  0.00000000000E+00  0.45593999997E+02  0.45594000000E+02  0.51100000000E-03 0.  1.
         11   -1    0    0    0    0 -0.00000000000E+00 -0.00000000000E+00 -0.45593999997E+02  0.45594000000E+02  0.51100000000E-03 0. -1.
    9900012    2    1    2    0    0  0.26034471114E+02  0.82960890574E+01 -0.30108920479E+02  0.50528857457E+02  0.29999992728E+02 0.  0.
        -12    1    1    2    0    0 -0.26034471114E+02 -0.82960890574E+01  0.30108920479E+02  0.40659142543E+02  0.00000000000E+00 0.  1.
         11    1    3    3    0    0  0.12534255021E+02 -0.64105512656E+01 -0.12936609925E+02  0.19119586634E+02  0.51100000000E-03 0. -1.
        -11    1    3    3    0    0  0.39450868755E+00  0.71204246321E+01 -0.14323574304E+02  0.16000652023E+02  0.51100000000E-03 0.  1.
        -12    1    3    3    0    0  0.13105707406E+02  0.75862156909E+01 -0.28487362509E+01  0.15408618801E+02  0.00000000000E+00 0.  1.
</event>
<event>
 7    1  0.3014423E-011  0.5052888E+02  0.7816164E-02  0.1300439E+00
        -11   -1    0    0    0    0  0.00000000000E+00  0.00000000000E+00  0.45593999997E+02  0.45594000000E+02  0.51100000000E-03 0.  1.
         11   -1    0    0    0    0 -0.00000000000E+00 -0.00000000000E+00 -0.45593999997E+02  0.45594000000E+02  0.51100000000E-03 0. -1.
    9900012    2    1    2    0    0 -0.10555862575E+02 -0.11170921033E+02 -0.37642373714E+02  0.50528880355E+02  0.30000062328E+02 0.  0.
        -12    1    1    2    0    0  0.10555862575E+02  0.11170921033E+02  0.37642373714E+02  0.40659119645E+02  0.00000000000E+00 0.  1.
         11    1    3    3    0    0 -0.73443605942E+01  0.34584654143E+01 -0.80172704600E+01  0.11409524155E+02  0.51100000000E-03 0. -1.
        -11    1    3    3    0    0 -0.21012286119E+01 -0.10393213136E+02 -0.32294460253E+02  0.33990678196E+02  0.51100000000E-03 0.  1.
         12    1    3    3    0    0 -0.11102733690E+01 -0.42361733117E+01  0.26693569985E+01  0.51286780037E+01  0.00000000000E+00 0. -1.
</event>
<event>
 7    1  0.3014423E-011  0.5052886E+02  0.7816164E-02  0.1300439E+00
        -11   -1    0    0    0    0  0.00000000000E+00  0.00000000000E+00  0.45593999997E+02  0.45594000000E+02  0.51100000000E-03 0. -1.
         11   -1    0    0    0    0 -0.00000000000E+00 -0.00000000000E+00 -0.45593999997E+02  0.45594000000E+02  0.51100000000E-03 0.  1.
    9900012    2    1    2    0    0 -0.23606210173E+02  0.32787678048E+02  0.45695733938E+01  0.50528855991E+02  0.29999988271E+02 0.  0.
        -12    1    1    2    0    0  0.23606210173E+02 -0.32787678048E+02 -0.45695733938E+01  0.40659144009E+02  0.00000000000E+00 0.  1.
         11    1    3    3    0    0 -0.40942597060E+01  0.69524379291E+01 -0.59442662892E+01  0.10021659427E+02  0.51100000000E-03 0. -1.
        -11    1    3    3    0    0 -0.21812443430E+02  0.13797693656E+02  0.26499070376E+01  0.25945732717E+02  0.51100000000E-03 0.  1.
        -12    1    3    3    0    0  0.23004929638E+01  0.12037546463E+02  0.78639326454E+01  0.14561463847E+02  0.00000000000E+00 0.  1.
</event>
<event>
 7    1  0.3014423E-011  0.5052886E+02  0.7816164E-02  0.1300439E+00
        -11   -1    0    0    0    0  0.00000000000E+00  0.00000000000E+00  0.45593999997E+02  0.45594000000E+02  0.51100000000E-03 0.  1.
         11   -1    0    0    0    0 -0.00000000000E+00 -0.00000000000E+00 -0.45593999997E+02  0.45594000000E+02  0.51100000000E-03 0. -1.
    9900012    2    1    2    0    0 -0.30658446162E+02 -0.25977243944E+02 -0.61974546059E+01  0.50528856285E+02  0.29999989165E+02 0.  0.
        -12    1    1    2    0    0  0.30658446162E+02  0.25977243944E+02  0.61974546059E+01  0.40659143715E+02  0.00000000000E+00 0.  1.
         11    1    3    3    0    0 -0.59819258489E+01 -0.12043594465E+02 -0.46552486393E+01  0.14230352935E+02  0.51100000000E-03 0. -1.
        -11    1    3    3    0    0 -0.10051894000E+01 -0.54584274481E+01 -0.85534767946E+01  0.10196411206E+02  0.51100000000E-03 0.  1.
         12    1    3    3    0    0 -0.23671330914E+02 -0.84752220305E+01  0.70112708280E+01  0.26102092144E+02  0.00000000000E+00 0. -1.
</event>
<event>
 7    1  0.3014423E-011  0.5052886E+02  0.7816164E-02  0.1300439E+00
        -11   -1    0    0    0    0  0.00000000000E+00  0.00000000000E+00  0.45593999997E+02  0.45594000000E+02  0.51100000000E-03 0.  1.
         11   -1    0    0    0    0 -0.00000000000E+00 -0.00000000000E+00 -0.45593999997E+02  0.45594000000E+02  0.51100000000E-03 0. -1.
    9900012    2    1    2    0    0  0.39159832027E+02 -0.10669729084E+02  0.24146428642E+01  0.50528855109E+02  0.29999985590E+02 0.  0.
        -12    1    1    2    0    0 -0.39159832027E+02  0.10669729084E+02 -0.24146428642E+01  0.40659144891E+02  0.00000000000E+00 0.  1.
         11    1    3    3    0    0  0.97198444469E+01  0.69351403836E+01  0.11859410706E+00  0.11940921783E+02  0.51100000000E-03 0. -1.
        -11    1    3    3    0    0  0.41361908027E+01  0.26059733095E+01 -0.30543003695E+01  0.57643665961E+01  0.51100000000E-03 0.  1.
        -12    1    3    3    0    0  0.25303796777E+02 -0.20210842777E+02  0.53503491266E+01  0.32823566730E+02  0.00000000000E+00 0.  1.
</event>
<event>
 7    1  0.3014423E-011  0.5052881E+02  0.7816164E-02  0.1300439E+00
        -11   -1    0    0    0    0  0.00000000000E+00  0.00000000000E+00  0.45593999997E+02  0.45594000000E+02  0.51100000000E-03 0.  1.
         11   -1    0    0    0    0 -0.00000000000E+00 -0.00000000000E+00 -0.45593999997E+02  0.45594000000E+02  0.51100000000E-03 0. -1.
    9900012    2    1    2    0    0  0.18968240654E+02 -0.35204564768E+02 -0.73494371576E+01  0.50528809642E+02  0.29999847387E+02 0.  0.
        -12    1    1    2    0    0 -0.18968240654E+02  0.35204564768E+02  0.73494371576E+01  0.40659190358E+02  0.00000000000E+00 0.  1.
         11    1    3    3    0    0  0.77756331779E+01 -0.17036482239E+02 -0.76138951476E+01  0.20215677035E+02  0.51100000000E-03 0. -1.
        -11    1    3    3    0    0  0.13831637332E+01 -0.18681017657E+02 -0.46917210259E+01  0.19310769250E+02  0.51100000000E-03 0.  1.
        -12    1    3    3    0    0  0.98094437431E+01  0.51293512745E+00  0.49561790159E+01  0.11002363357E+02  0.00000000000E+00 0.  1.
</event>
<event>
 7    1  0.3014423E-011  0.5052887E+02  0.7816164E-02  0.1300439E+00
        -11   -1    0    0    0    0  0.00000000000E+00  0.00000000000E+00  0.45593999997E+02  0.45594000000E+02  0.51100000000E-03 0. -1.
         11   -1    0    0    0    0 -0.00000000000E+00 -0.00000000000E+00 -0.45593999997E+02  0.45594000000E+02  0.51100000000E-03 0.  1.
    9900012    2    1    2    0    0  0.16270330364E+02  0.34760206910E+02  0.13422721977E+02  0.50528866956E+02  0.30000021601E+02 0.  0.
        -12    1    1    2    0    0 -0.16270330364E+02 -0.34760206910E+02 -0.13422721977E+02  0.40659133044E+02  0.00000000000E+00 0.  1.
         11    1    3    3    0    0  0.31348423894E+01  0.47478186467E+01 -0.35626537905E+01  0.67127878709E+01  0.51100000000E-03 0. -1.
        -11    1    3    3    0    0 -0.34330114075E+01  0.10380431187E+02 -0.29211235934E+01  0.11316884830E+02  0.51100000000E-03 0.  1.
         12    1    3    3    0    0  0.16568499382E+02  0.19631957076E+02  0.19906499361E+02  0.32499194255E+02  0.00000000000E+00 0. -1.
</event>
<event>
 7    1  0.3014423E-011  0.5052887E+02  0.7816164E-02  0.1300439E+00
        -11   -1    0    0    0    0  0.00000000000E+00  0.00000000000E+00  0.45593999997E+02  0.45594000000E+02  0.51100000000E-03 0.  1.
         11   -1    0    0    0    0 -0.00000000000E+00 -0.00000000000E+00 -0.45593999997E+02  0.45594000000E+02  0.51100000000E-03 0. -1.
    9900012    2    1    2    0    0  0.33779860667E+02  0.10370522729E+02 -0.20113124518E+02  0.50528874257E+02  0.30000043790E+02 0.  0.
        -12    1    1    2    0    0 -0.33779860667E+02 -0.10370522729E+02  0.20113124518E+02  0.40659125743E+02  0.00000000000E+00 0.  1.
         11    1    3    3    0    0  0.13510304183E+02  0.31792338394E+01 -0.22624946575E+01  0.14062529262E+02  0.51100000000E-03 0. -1.
        -11    1    3    3    0    0  0.13898343524E+02  0.14507527436E+02 -0.56329536602E+01  0.20865341411E+02  0.51100000000E-03 0.  1.
        -12    1    3    3    0    0  0.63712129597E+01 -0.73162385463E+01 -0.12217676201E+02  0.15601003583E+02  0.00000000000E+00 0.  1.
</event>
<event>
 7    1  0.3014423E-011  0.5052888E+02  0.7816164E-02  0.1300439E+00
        -11   -1    0    0    0    0  0.00000000000E+00  0.00000000000E+00  0.45593999997E+02  0.45594000000E+02  0.51100000000E-03 0. -1.
         11   -1    0    0    0    0 -0.00000000000E+00 -0.00000000000E+00 -0.45593999997E+02  0.45594000000E+02  0.51100000000E-03 0.  1.
    9900012    2    1    2    0    0  0.32680019629E+01  0.37069264279E+02 -0.16381520372E+02  0.50528875554E+02  0.30000047733E+02 0.  0.
        -12    1    1    2    0    0 -0.32680019629E+01 -0.37069264279E+02  0.16381520372E+02  0.40659124446E+02  0.00000000000E+00 0.  1.
         11    1    3    3    0    0 -0.16555407312E+01  0.39753732272E+00 -0.36921750829E+01  0.40658342489E+01  0.51100000000E-03 0. -1.
        -11    1    3    3    0    0  0.45033577212E+01  0.10557036313E+02 -0.16468023353E+02  0.20073042617E+02  0.51100000000E-03 0.  1.
         12    1    3    3    0    0  0.42018497290E+00  0.26114690644E+02  0.37786780638E+01  0.26389998688E+02  0.00000000000E+00 0. -1.
</event>
<event>
 7    1  0.3014423E-011  0.5052886E+02  0.7816164E-02  0.1300439E+00
        -11   -1    0    0    0    0  0.00000000000E+00  0.00000000000E+00  0.45593999997E+02  0.45594000000E+02  0.51100000000E-03 0. -1.
         11   -1    0    0    0    0 -0.00000000000E+00 -0.00000000000E+00 -0.45593999997E+02  0.45594000000E+02  0.51100000000E-03 0.  1.
    9900012    2    1    2    0    0  0.87510636666E+01 -0.63966593992E+01  0.39187590749E+02  0.50528860370E+02  0.30000001580E+02 0.  0.
        -12    1    1    2    0    0 -0.87510636666E+01  0.63966593992E+01 -0.39187590749E+02  0.40659139630E+02  0.00000000000E+00 0.  1.
         11    1    3    3    0    0 -0.19427502843E+01  0.28974667710E+01  0.26928073310E+01  0.44069041219E+01  0.51100000000E-03 0. -1.
        -11    1    3    3    0    0 -0.23514223517E+01  0.68378493597E+01  0.70215783304E+01  0.10079083959E+02  0.51100000000E-03 0.  1.
         12    1    3    3    0    0  0.13045236303E+02 -0.16131975530E+02  0.29473205088E+02  0.36042872289E+02  0.00000000000E+00 0. -1.
</event>
<event>
 7    1  0.3014423E-011  0.5052886E+02  0.7816164E-02  0.1300439E+00
        -11   -1    0    0    0    0  0.00000000000E+00  0.00000000000E+00  0.45593999997E+02  0.45594000000E+02  0.51100000000E-03 0.  1.
         11   -1    0    0    0    0 -0.00000000000E+00 -0.00000000000E+00 -0.45593999997E+02  0.45594000000E+02  0.51100000000E-03 0. -1.
    9900012    2    1    2    0    0  0.15429037586E+01  0.39999249244E+02  0.71305612084E+01  0.50528863324E+02  0.30000010560E+02 0.  0.
        -12    1    1    2    0    0 -0.15429037586E+01 -0.39999249244E+02 -0.71305612084E+01  0.40659136676E+02  0.00000000000E+00 0.  1.
         11    1    3    3    0    0  0.22731264980E+01  0.71942465146E+00  0.19664385561E+01  0.30905592958E+01  0.51100000000E-03 0. -1.
        -11    1    3    3    0    0  0.34438909975E+01  0.67459811127E+01  0.11753345997E+02  0.13982481495E+02  0.51100000000E-03 0.  1.
         12    1    3    3    0    0 -0.41741137369E+01  0.32533843480E+02 -0.65892233452E+01  0.33455822533E+02  0.00000000000E+00 0. -1.
</event>
<event>
 7    1  0.3014423E-011  0.5052895E+02  0.7816164E-02  0.1300438E+00
        -11   -1    0    0    0    0  0.00000000000E+00  0.00000000000E+00  0.45593999997E+02  0.45594000000E+02  0.51100000000E-03 0. -1.
         11   -1    0    0    0    0 -0.00000000000E+00 -0.00000000000E+00 -0.45593999997E+02  0.45594000000E+02  0.51100000000E-03 0.  1.
    9900012    2    1    2    0    0  0.78438978309E+01 -0.33597330714E+02 -0.21513973236E+02  0.50528949240E+02  0.30000271708E+02 0.  0.
        -12    1    1    2    0    0 -0.78438978309E+01  0.33597330714E+02  0.21513973236E+02  0.40659050760E+02  0.00000000000E+00 0.  1.
         11    1    3    3    0    0 -0.84479956395E+00  0.26170475240E+01 -0.35070576987E+01  0.44566891308E+01  0.51100000000E-03 0.  1.
        -11    1    3    3    0    0 -0.48527958524E+01 -0.41977343172E+01  0.93461366622E+00  0.64841424991E+01  0.51100000000E-03 0. -1.
         12    1    3    3    0    0  0.13541493247E+02 -0.32016643921E+02 -0.18941529204E+02  0.39588117610E+02  0.00000000000E+00 0. -1.
</event>
<event>
 7    1  0.3014423E-011  0.5052886E+02  0.7816164E-02  0.1300439E+00
        -11   -1    0    0    0    0  0.00000000000E+00  0.00000000000E+00  0.45593999997E+02  0.45594000000E+02  0.51100000000E-03 0.  1.
         11   -1    0    0    0    0 -0.00000000000E+00 -0.00000000000E+00 -0.45593999997E+02  0.45594000000E+02  0.51100000000E-03 0. -1.
    9900012    2    1    2    0    0 -0.17422731513E+02 -0.34231566178E+02 -0.13334690641E+02  0.50528859934E+02  0.30000000255E+02 0.  0.
        -12    1    1    2    0    0  0.17422731513E+02  0.34231566178E+02  0.13334690641E+02  0.40659140066E+02  0.00000000000E+00 0.  1.
         11    1    3    3    0    0  0.12624780076E+01 -0.98452021967E+01  0.46238092409E+01  0.10949952930E+02  0.51100000000E-03 0.  1.
        -11    1    3    3    0    0 -0.42133509857E+01 -0.17385045610E+01  0.30340587469E+01  0.54754212055E+01  0.51100000000E-03 0. -1.
         12    1    3    3    0    0 -0.14471858535E+02 -0.22647859421E+02 -0.20992558629E+02  0.34103485798E+02  0.00000000000E+00 0. -1.
</event>
<event>
 7    1  0.3014423E-011  0.5052886E+02  0.7816164E-02  0.1300439E+00
        -11   -1    0    0    0    0  0.00000000000E+00  0.00000000000E+00  0.45593999997E+02  0.45594000000E+02  0.51100000000E-03 0.  1.
         11   -1    0    0    0    0 -0.00000000000E+00 -0.00000000000E+00 -0.45593999997E+02  0.45594000000E+02  0.51100000000E-03 0. -1.
    9900012    2    1    2    0    0  0.27330122728E+02 -0.30810634983E+01 -0.29945563832E+02  0.50528863833E+02  0.30000012107E+02 0.  0.
        -12    1    1    2    0    0 -0.27330122728E+02  0.30810634983E+01  0.29945563832E+02  0.40659136167E+02  0.00000000000E+00 0.  1.
         11    1    3    3    0    0  0.11659309584E+01 -0.36218002337E+01 -0.47127480107E+01  0.60569650821E+01  0.51100000000E-03 0. -1.
        -11    1    3    3    0    0  0.17798672534E+02 -0.96104923782E+01 -0.23808448480E+02  0.31240943119E+02  0.51100000000E-03 0.  1.
         12    1    3    3    0    0  0.83655192360E+01  0.10151229114E+02 -0.14243673420E+01  0.13230955632E+02  0.00000000000E+00 0. -1.
</event>
<event>
 7    1  0.3014423E-011  0.5052888E+02  0.7816164E-02  0.1300439E+00
        -11   -1    0    0    0    0  0.00000000000E+00  0.00000000000E+00  0.45593999997E+02  0.45594000000E+02  0.51100000000E-03 0.  1.
         11   -1    0    0    0    0 -0.00000000000E+00 -0.00000000000E+00 -0.45593999997E+02  0.45594000000E+02  0.51100000000E-03 0. -1.
    9900012    2    1    2    0    0 -0.28961725774E+02 -0.25885574564E+02 -0.12013314328E+02  0.50528877389E+02  0.30000053313E+02 0.  0.
        -12    1    1    2    0    0  0.28961725774E+02  0.25885574564E+02  0.12013314328E+02  0.40659122611E+02  0.00000000000E+00 0.  1.
         11    1    3    3    0    0 -0.18118218063E+02 -0.29623905190E+02 -0.10687265386E+02  0.36332674361E+02  0.51100000000E-03 0. -1.
        -11    1    3    3    0    0 -0.49977624923E+01 -0.24669516754E+01 -0.33107227821E-01  0.55735605181E+01  0.51100000000E-03 0.  1.
        -12    1    3    3    0    0 -0.58457452183E+01  0.62052823013E+01 -0.12929417140E+01  0.86226425109E+01  0.00000000000E+00 0.  1.
</event>
<event>
 7    1  0.3014423E-011  0.5052886E+02  0.7816164E-02  0.1300439E+00
        -11   -1    0    0    0    0  0.00000000000E+00  0.00000000000E+00  0.45593999997E+02  0.45594000000E+02  0.51100000000E-03 0.  1.
         11   -1    0    0    0    0 -0.00000000000E+00 -0.00000000000E+00 -0.45593999997E+02  0.45594000000E+02  0.51100000000E-03 0. -1.
    9900012    2    1    2    0    0  0.21826025634E+02  0.10788260865E+02 -0.32563842041E+02  0.50528858643E+02  0.29999996331E+02 0.  0.
        -12    1    1    2    0    0 -0.21826025634E+02 -0.10788260865E+02  0.32563842041E+02  0.40659141357E+02  0.00000000000E+00 0.  1.
         11    1    3    3    0    0 -0.24865290332E+01  0.53986292910E+01 -0.98077452641E+01  0.11468212253E+02  0.51100000000E-03 0. -1.
        -11    1    3    3    0    0 -0.26504637307E+01  0.37823732707E+01 -0.45745786893E+01  0.65006212005E+01  0.51100000000E-03 0.  1.
         12    1    3    3    0    0  0.26963018398E+02  0.16072583031E+01 -0.18181518087E+02  0.32560025189E+02  0.00000000000E+00 0. -1.
</event>
<event>
 7    1  0.3014423E-011  0.5052886E+02  0.7816164E-02  0.1300439E+00
        -11   -1    0    0    0    0  0.00000000000E+00  0.00000000000E+00  0.45593999997E+02  0.45594000000E+02  0.51100000000E-03 0.  1.
         11   -1    0    0    0    0 -0.00000000000E+00 -0.00000000000E+00 -0.45593999997E+02  0.45594000000E+02  0.51100000000E-03 0. -1.
    9900012    2    1    2    0    0  0.31482682306E+01 -0.14280131283E+02 -0.37938524057E+02  0.50528863881E+02  0.30000012252E+02 0.  0.
        -12    1    1    2    0    0 -0.31482682306E+01  0.14280131283E+02  0.37938524057E+02  0.40659136119E+02  0.00000000000E+00 0.  1.
         11    1    3    3    0    0 -0.54904148355E+01 -0.95430883685E+01 -0.60472173708E+01  0.12561211282E+02  0.51100000000E-03 0. -1.
        -11    1    3    3    0    0  0.11139729403E+02 -0.61444756404E+01 -0.10817390320E+02  0.16699224103E+02  0.51100000000E-03 0.  1.
        -12    1    3    3    0    0 -0.25010463364E+01  0.14074327256E+01 -0.21073916366E+02  0.21268428496E+02  0.00000000000E+00 0.  1.
</event>
<event>
 7    1  0.3014423E-011  0.5052886E+02  0.7816164E-02  0.1300439E+00
        -11   -1    0    0    0    0  0.00000000000E+00  0.00000000000E+00  0.45593999997E+02  0.45594000000E+02  0.51100000000E-03 0. -1.
         11   -1    0    0    0    0 -0.00000000000E+00 -0.00000000000E+00 -0.45593999997E+02  0.45594000000E+02  0.51100000000E-03 0.  1.
    9900012    2    1    2    0    0 -0.32800964466E+02  0.21670331613E+02 -0.10375886279E+02  0.50528861320E+02  0.30000004468E+02 0.  0.
        -12    1    1    2    0    0  0.32800964466E+02 -0.21670331613E+02  0.10375886279E+02  0.40659138680E+02  0.00000000000E+00 0.  1.
         11    1    3    3    0    0 -0.18196793960E+02  0.23649816986E+01 -0.81997224042E+01  0.20098554590E+02  0.51100000000E-03 0. -1.
        -11    1    3    3    0    0 -0.73400419137E+01  0.26509530971E+01 -0.81692252140E+01  0.11297787769E+02  0.51100000000E-03 0.  1.
         12    1    3    3    0    0 -0.72641285928E+01  0.16654396817E+02  0.59930613396E+01  0.19132518961E+02  0.00000000000E+00 0. -1.
</event>
<event>
 7    1  0.3014423E-011  0.5052885E+02  0.7816164E-02  0.1300439E+00
        -11   -1    0    0    0    0  0.00000000000E+00  0.00000000000E+00  0.45593999997E+02  0.45594000000E+02  0.51100000000E-03 0.  1.
         11   -1    0    0    0    0 -0.00000000000E+00 -0.00000000000E+00 -0.45593999997E+02  0.45594000000E+02  0.51100000000E-03 0. -1.
    9900012    2    1    2    0    0  0.35671442101E+02  0.42936420930E+01 -0.19033627306E+02  0.50528854504E+02  0.29999983752E+02 0.  0.
        -12    1    1    2    0    0 -0.35671442101E+02 -0.42936420930E+01  0.19033627306E+02  0.40659145496E+02  0.00000000000E+00 0.  1.
         11    1    3    3    0    0  0.15675924878E+02  0.76375066397E+01 -0.12622189436E+02  0.21526397628E+02  0.51100000000E-03 0. -1.
        -11    1    3    3    0    0  0.17657006636E+02  0.49915862485E+01 -0.83042722222E+01  0.20140674121E+02  0.51100000000E-03 0.  1.
        -12    1    3    3    0    0  0.23385105869E+01 -0.83354507951E+01  0.18928343514E+01  0.88617827555E+01  0.00000000000E+00 0.  1.
</event>
<event>
 7    1  0.3014423E-011  0.5052885E+02  0.7816164E-02  0.1300439E+00
        -11   -1    0    0    0    0  0.00000000000E+00  0.00000000000E+00  0.45593999997E+02  0.45594000000E+02  0.51100000000E-03 0.  1.
         11   -1    0    0    0    0 -0.00000000000E+00 -0.00000000000E+00 -0.45593999997E+02  0.45594000000E+02  0.51100000000E-03 0. -1.
    9900012    2    1    2    0    0  0.15186647326E+02  0.16469422847E+02 -0.33930675394E+02  0.50528845082E+02  0.29999955112E+02 0.  0.
        -12    1    1    2    0    0 -0.15186647326E+02 -0.16469422847E+02  0.33930675394E+02  0.40659154918E+02  0.00000000000E+00 0.  1.
         11    1    3    3    0    0  0.55167756702E-01  0.52740932527E+01  0.27608566883E+01  0.59532707846E+01  0.51100000000E-03 0.  1.
        -11    1    3    3    0    0 -0.37053474526E+01  0.27308710929E+01 -0.55736718481E+01  0.72286288328E+01  0.51100000000E-03 0. -1.
         12    1    3    3    0    0  0.18836827022E+02  0.84644585011E+01 -0.31117860234E+02  0.37346945465E+02  0.00000000000E+00 0. -1.
</event>
<event>
 7    1  0.3014423E-011  0.5052883E+02  0.7816164E-02  0.1300439E+00
        -11   -1    0    0    0    0  0.00000000000E+00  0.00000000000E+00  0.45593999997E+02  0.45594000000E+02  0.51100000000E-03 0.  1.
         11   -1    0    0    0    0 -0.00000000000E+00 -0.00000000000E+00 -0.45593999997E+02  0.45594000000E+02  0.51100000000E-03 0. -1.
    9900012    2    1    2    0    0 -0.32277921951E+02 -0.14497512505E+02 -0.20028124151E+02  0.50528832875E+02  0.29999918008E+02 0.  0.
        -12    1    1    2    0    0  0.32277921951E+02  0.14497512505E+02  0.20028124151E+02  0.40659167125E+02  0.00000000000E+00 0.  1.
         11    1    3    3    0    0 -0.14385400752E+02 -0.21732537069E+02 -0.13712178758E+02  0.29449393352E+02  0.51100000000E-03 0.  1.
        -11    1    3    3    0    0 -0.12039144047E+02  0.31443855332E+01 -0.62806564108E+01  0.13938249351E+02  0.51100000000E-03 0. -1.
        -12    1    3    3    0    0 -0.58533771521E+01  0.40906390310E+01 -0.35288981776E-01  0.71411901724E+01  0.00000000000E+00 0.  1.
</event>
<event>
 7    1  0.3014423E-011  0.5052888E+02  0.7816164E-02  0.1300439E+00
        -11   -1    0    0    0    0  0.00000000000E+00  0.00000000000E+00  0.45593999997E+02  0.45594000000E+02  0.51100000000E-03 0. -1.
         11   -1    0    0    0    0 -0.00000000000E+00 -0.00000000000E+00 -0.45593999997E+02  0.45594000000E+02  0.51100000000E-03 0.  1.
    9900012    2    1    2    0    0  0.36685897644E+01  0.48319158582E+01  0.40203959356E+02  0.50528876674E+02  0.30000051138E+02 0.  0.
        -12    1    1    2    0    0 -0.36685897644E+01 -0.48319158582E+01 -0.40203959356E+02  0.40659123326E+02  0.00000000000E+00 0.  1.
         11    1    3    3    0    0 -0.18951884672E+01  0.80093880275E+00  0.38244999440E+01  0.43428150288E+01  0.51100000000E-03 0. -1.
        -11    1    3    3    0    0  0.54893853144E+01 -0.11198414720E+02  0.21729182843E+02  0.25053846624E+02  0.51100000000E-03 0.  1.
         12    1    3    3    0    0  0.74392917262E-01  0.15229391775E+02  0.14650276569E+02  0.21132215021E+02  0.00000000000E+00 0. -1.
</event>
<event>
 7    1  0.3014423E-011  0.5052886E+02  0.7816164E-02  0.1300439E+00
        -11   -1    0    0    0    0  0.00000000000E+00  0.00000000000E+00  0.45593999997E+02  0.45594000000E+02  0.51100000000E-03 0. -1.
         11   -1    0    0    0    0 -0.00000000000E+00 -0.00000000000E+00 -0.45593999997E+02  0.45594000000E+02  0.51100000000E-03 0.  1.
    9900012    2    1    2    0    0  0.30293272277E+02  0.19859166817E+01 -0.27046992880E+02  0.50528855467E+02  0.29999986676E+02 0.  0.
        -12    1    1    2    0    0 -0.30293272277E+02 -0.19859166817E+01  0.27046992880E+02  0.40659144533E+02  0.00000000000E+00 0.  1.
         11    1    3    3    0    0  0.17510809936E+02  0.14311966686E+02 -0.11962875744E+02  0.25584590115E+02  0.51100000000E-03 0. -1.
        -11    1    3    3    0    0  0.23208987682E+01  0.13193198266E+01 -0.18853392144E+01  0.32682839704E+01  0.51100000000E-03 0.  1.
        -12    1    3    3    0    0  0.10461563572E+02 -0.13645369830E+02 -0.13198777922E+02  0.21675981381E+02  0.00000000000E+00 0.  1.
</event>
<event>
 7    1  0.3014423E-011  0.5052887E+02  0.7816164E-02  0.1300439E+00
        -11   -1    0    0    0    0  0.00000000000E+00  0.00000000000E+00  0.45593999997E+02  0.45594000000E+02  0.51100000000E-03 0. -1.
         11   -1    0    0    0    0 -0.00000000000E+00 -0.00000000000E+00 -0.45593999997E+02  0.45594000000E+02  0.51100000000E-03 0.  1.
    9900012    2    1    2    0    0  0.20886575705E+02  0.33492227932E+02 -0.97563648602E+01  0.50528867793E+02  0.30000024144E+02 0.  0.
        -12    1    1    2    0    0 -0.20886575705E+02 -0.33492227932E+02  0.97563648602E+01  0.40659132207E+02  0.00000000000E+00 0.  1.
         11    1    3    3    0    0 -0.38496489010E+00  0.33901226187E+01 -0.42310826051E+00  0.34380445311E+01  0.51100000000E-03 0. -1.
        -11    1    3    3    0    0  0.22567234513E+02  0.33172071540E+02 -0.33728025575E+01  0.40262168362E+02  0.51100000000E-03 0.  1.
        -12    1    3    3    0    0 -0.12956939187E+01 -0.30699662262E+01 -0.59604540422E+01  0.68286549005E+01  0.00000000000E+00 0.  1.
</event>
<event>
 7    1  0.3014423E-011  0.5052885E+02  0.7816164E-02  0.1300439E+00
        -11   -1    0    0    0    0  0.00000000000E+00  0.00000000000E+00  0.45593999997E+02  0.45594000000E+02  0.51100000000E-03 0.  1.
         11   -1    0    0    0    0 -0.00000000000E+00 -0.00000000000E+00 -0.45593999997E+02  0.45594000000E+02  0.51100000000E-03 0. -1.
    9900012    2    1    2    0    0  0.25565300885E+01 -0.40578682455E+02 -0.29471187039E-01  0.50528853619E+02  0.29999981060E+02 0.  0.
        -12    1    1    2    0    0 -0.25565300885E+01  0.40578682455E+02  0.29471187039E-01  0.40659146381E+02  0.00000000000E+00 0.  1.
         11    1    3    3    0    0 -0.12562478720E+01 -0.50247679988E+01 -0.77934539216E+01  0.93575839001E+01  0.51100000000E-03 0. -1.
        -11    1    3    3    0    0 -0.66401636729E+01 -0.16021131205E+02  0.78033352128E+01  0.19017372568E+02  0.51100000000E-03 0.  1.
        -12    1    3    3    0    0  0.10452941633E+02 -0.19532783251E+02 -0.39352478232E-01  0.22153897151E+02  0.00000000000E+00 0.  1.
</event>
<event>
 7    1  0.3014423E-011  0.5052886E+02  0.7816164E-02  0.1300439E+00
        -11   -1    0    0    0    0  0.00000000000E+00  0.00000000000E+00  0.45593999997E+02  0.45594000000E+02  0.51100000000E-03 0. -1.
         11   -1    0    0    0    0 -0.00000000000E+00 -0.00000000000E+00 -0.45593999997E+02  0.45594000000E+02  0.51100000000E-03 0.  1.
    9900012    2    1    2    0    0  0.20035082619E+02  0.16513492905E+02  0.31290028218E+02  0.50528857740E+02  0.29999993586E+02 0.  0.
        -12    1    1    2    0    0 -0.20035082619E+02 -0.16513492905E+02 -0.31290028218E+02  0.40659142260E+02  0.00000000000E+00 0.  1.
         11    1    3    3    0    0  0.12937858677E+02  0.12155736325E+02  0.52780070763E+00  0.17760312120E+02  0.51100000000E-03 0.  1.
        -11    1    3    3    0    0  0.10517274515E+01  0.32441669957E+01  0.37634972324E+01  0.50788445347E+01  0.51100000000E-03 0. -1.
        -12    1    3    3    0    0  0.60454964908E+01  0.11135895844E+01  0.26998730278E+02  0.27689701085E+02  0.00000000000E+00 0.  1.
</event>
<event>
 7    1  0.3014423E-011  0.5052886E+02  0.7816164E-02  0.1300439E+00
        -11   -1    0    0    0    0  0.00000000000E+00  0.00000000000E+00  0.45593999997E+02  0.45594000000E+02  0.51100000000E-03 0.  1.
         11   -1    0    0    0    0 -0.00000000000E+00 -0.00000000000E+00 -0.45593999997E+02  0.45594000000E+02  0.51100000000E-03 0. -1.
    9900012    2    1    2    0    0 -0.31889261458E+02 -0.15599466073E+02 -0.19821632187E+02  0.50528862766E+02  0.30000008863E+02 0.  0.
        -12    1    1    2    0    0  0.31889261458E+02  0.15599466073E+02  0.19821632187E+02  0.40659137234E+02  0.00000000000E+00 0.  1.
         11    1    3    3    0    0 -0.21236973163E+02 -0.44713350186E+01 -0.11773994702E+02  0.24690662557E+02  0.51100000000E-03 0. -1.
        -11    1    3    3    0    0 -0.10821586857E+02 -0.14062650538E+02 -0.11621056158E+02  0.21211172263E+02  0.51100000000E-03 0.  1.
         12    1    3    3    0    0  0.16929856278E+00  0.29345194844E+01  0.35734186726E+01  0.46270279465E+01  0.00000000000E+00 0. -1.
</event>
<event>
 7    1  0.3014423E-011  0.5052886E+02  0.7816164E-02  0.1300439E+00
        -11   -1    0    0    0    0  0.00000000000E+00  0.00000000000E+00  0.45593999997E+02  0.45594000000E+02  0.51100000000E-03 0.  1.
         11   -1    0    0    0    0 -0.00000000000E+00 -0.00000000000E+00 -0.45593999997E+02  0.45594000000E+02  0.51100000000E-03 0. -1.
    9900012    2    1    2    0    0  0.45660111268E+01 -0.56702936024E+01 -0.40002061033E+02  0.50528861125E+02  0.30000003876E+02 0.  0.
        -12    1    1    2    0    0 -0.45660111268E+01  0.56702936024E+01  0.40002061033E+02  0.40659138875E+02  0.00000000000E+00 0.  1.
         11    1    3    3    0    0  0.28201557441E+01  0.20339348306E+01  0.13667120024E+00  0.34797770898E+01  0.51100000000E-03 0. -1.
        -11    1    3    3    0    0 -0.49410584457E+01 -0.96904650552E+01 -0.64506012305E+01  0.12646320732E+02  0.51100000000E-03 0.  1.
         12    1    3    3    0    0  0.66869138284E+01  0.19862366221E+01 -0.33688131003E+02  0.34402763304E+02  0.00000000000E+00 0. -1.
</event>
<event>
 7    1  0.3014423E-011  0.5052886E+02  0.7816164E-02  0.1300439E+00
        -11   -1    0    0    0    0  0.00000000000E+00  0.00000000000E+00  0.45593999997E+02  0.45594000000E+02  0.51100000000E-03 0.  1.
         11   -1    0    0    0    0 -0.00000000000E+00 -0.00000000000E+00 -0.45593999997E+02  0.45594000000E+02  0.51100000000E-03 0. -1.
    9900012    2    1    2    0    0 -0.10060555869E+02 -0.21761506155E+02 -0.32838811488E+02  0.50528862350E+02  0.30000007598E+02 0.  0.
        -12    1    1    2    0    0  0.10060555869E+02  0.21761506155E+02  0.32838811488E+02  0.40659137650E+02  0.00000000000E+00 0.  1.
         11    1    3    3    0    0  0.27978841082E+01 -0.66122856318E+01 -0.11693461455E+02  0.13721789891E+02  0.51100000000E-03 0. -1.
        -11    1    3    3    0    0  0.16087023140E+01 -0.81198929890E+00 -0.15591750062E+02  0.15695538220E+02  0.51100000000E-03 0.  1.
         12    1    3    3    0    0 -0.14467142292E+02 -0.14337231224E+02 -0.55535999708E+01  0.21111534238E+02  0.00000000000E+00 0. -1.
</event>
<event>
 7    1  0.3014423E-011  0.5052885E+02  0.7816164E-02  0.1300439E+00
        -11   -1    0    0    0    0  0.00000000000E+00  0.00000000000E+00  0.45593999997E+02  0.45594000000E+02  0.51100000000E-03 0.  1.
         11   -1    0    0    0    0 -0.00000000000E+00 -0.00000000000E+00 -0.45593999997E+02  0.45594000000E+02  0.51100000000E-03 0. -1.
    9900012    2    1    2    0    0  0.37643332886E+02 -0.15284021749E+02  0.15950734043E+01  0.50528854771E+02  0.29999984563E+02 0.  0.
        -12    1    1    2    0    0 -0.37643332886E+02  0.15284021749E+02 -0.15950734043E+01  0.40659145229E+02  0.00000000000E+00 0.  1.
         11    1    3    3    0    0  0.16784907575E+02 -0.69951538925E+01  0.10024132762E+02  0.20764116600E+02  0.51100000000E-03 0. -1.
        -11    1    3    3    0    0  0.61597511449E+01 -0.10348214998E+02  0.11535254819E+01  0.12097880356E+02  0.51100000000E-03 0.  1.
         12    1    3    3    0    0  0.14698674166E+02  0.20593471415E+01 -0.95825848391E+01  0.17666857816E+02  0.00000000000E+00 0. -1.
</event>
<event>
 7    1  0.3014423E-011  0.5052886E+02  0.7816164E-02  0.1300439E+00
        -11   -1    0    0    0    0  0.00000000000E+00  0.00000000000E+00  0.45593999997E+02  0.45594000000E+02  0.51100000000E-03 0. -1.
         11   -1    0    0    0    0 -0.00000000000E+00 -0.00000000000E+00 -0.45593999997E+02  0.45594000000E+02  0.51100000000E-03 0.  1.
    9900012    2    1    2    0    0 -0.24814427213E+00  0.30636540068E+01  0.40542793412E+02  0.50528860202E+02  0.30000001071E+02 0.  0.
        -12    1    1    2    0    0  0.24814427213E+00 -0.30636540068E+01 -0.40542793412E+02  0.40659139798E+02  0.00000000000E+00 0.  1.
         11    1    3    3    0    0 -0.54771756048E+01  0.99960915701E+01  0.19766126909E+02  0.22817122354E+02  0.51100000000E-03 0. -1.
        -11    1    3    3    0    0 -0.29352448658E+01 -0.25493624639E+01 -0.10265936825E+01  0.40210454169E+01  0.51100000000E-03 0.  1.
        -12    1    3    3    0    0  0.81642761985E+01 -0.43830750995E+01  0.21803260185E+02  0.23690692432E+02  0.00000000000E+00 0.  1.
</event>
<event>
 7    1  0.3014423E-011  0.5052886E+02  0.7816164E-02  0.1300439E+00
        -11   -1    0    0    0    0  0.00000000000E+00  0.00000000000E+00  0.45593999997E+02  0.45594000000E+02  0.51100000000E-03 0. -1.
         11   -1    0    0    0    0 -0.00000000000E+00 -0.00000000000E+00 -0.45593999997E+02  0.45594000000E+02  0.51100000000E-03 0.  1.
    9900012    2    1    2    0    0  0.46805368556E+01 -0.29657417680E+02  0.27417078524E+02  0.50528855353E+02  0.29999986330E+02 0.  0.
        -12    1    1    2    0    0 -0.46805368556E+01  0.29657417680E+02 -0.27417078524E+02  0.40659144647E+02  0.00000000000E+00 0.  1.
         11    1    3    3    0    0  0.77737879828E+01  0.16012018934E+01  0.83456489745E+00  0.79807346739E+01  0.51100000000E-03 0. -1.
        -11    1    3    3    0    0  0.29030410088E+01 -0.19697541095E+02  0.13286898138E+02  0.23936633737E+02  0.51100000000E-03 0.  1.
         12    1    3    3    0    0 -0.59962921361E+01 -0.11561078478E+02  0.13295615489E+02  0.18611486942E+02  0.00000000000E+00 0. -1.
</event>
<event>
 7    1  0.3014423E-011  0.5052887E+02  0.7816164E-02  0.1300439E+00
        -11   -1    0    0    0    0  0.00000000000E+00  0.00000000000E+00  0.45593999997E+02  0.45594000000E+02  0.51100000000E-03 0. -1.
         11   -1    0    0    0    0 -0.00000000000E+00 -0.00000000000E+00 -0.45593999997E+02  0.45594000000E+02  0.51100000000E-03 0.  1.
    9900012    2    1    2    0    0 -0.34911469602E+02  0.10244523471E+02  0.18149485366E+02  0.50528870767E+02  0.30000033185E+02 0.  0.
        -12    1    1    2    0    0  0.34911469602E+02 -0.10244523471E+02 -0.18149485366E+02  0.40659129233E+02  0.00000000000E+00 0.  1.
         11    1    3    3    0    0 -0.22787202501E+02  0.43076437629E+00  0.65185721624E+01  0.23705145836E+02  0.51100000000E-03 0. -1.
        -11    1    3    3    0    0 -0.16844568826E+02  0.62661214271E+01  0.68771958955E+01  0.19243170226E+02  0.51100000000E-03 0.  1.
        -12    1    3    3    0    0  0.47203017261E+01  0.35476376677E+01  0.47537173084E+01  0.75805547063E+01  0.00000000000E+00 0.  1.
</event>
<event>
 7    1  0.3014423E-011  0.5052886E+02  0.7816164E-02  0.1300439E+00
        -11   -1    0    0    0    0  0.00000000000E+00  0.00000000000E+00  0.45593999997E+02  0.45594000000E+02  0.51100000000E-03 0.  1.
         11   -1    0    0    0    0 -0.00000000000E+00 -0.00000000000E+00 -0.45593999997E+02  0.45594000000E+02  0.51100000000E-03 0. -1.
    9900012    2    1    2    0    0 -0.22881574618E+02  0.60190224346E+01 -0.33066160292E+02  0.50528855340E+02  0.29999986290E+02 0.  0.
        -12    1    1    2    0    0  0.22881574618E+02 -0.60190224346E+01  0.33066160292E+02  0.40659144660E+02  0.00000000000E+00 0.  1.
         11    1    3    3    0    0 -0.20399865200E+02  0.89840091151E+00 -0.12077009541E+02  0.23723738831E+02  0.51100000000E-03 0. -1.
        -11    1    3    3    0    0 -0.97031992954E+00  0.45986029564E+01  0.96074897217E+00  0.47970520912E+01  0.51100000000E-03 0.  1.
         12    1    3    3    0    0 -0.15113894882E+01  0.52201856666E+00 -0.21949899723E+02  0.22008064418E+02  0.00000000000E+00 0. -1.
</event>
<event>
 7    1  0.3014423E-011  0.5052887E+02  0.7816164E-02  0.1300439E+00
        -11   -1    0    0    0    0  0.00000000000E+00  0.00000000000E+00  0.45593999997E+02  0.45594000000E+02  0.51100000000E-03 0. -1.
         11   -1    0    0    0    0 -0.00000000000E+00 -0.00000000000E+00 -0.45593999997E+02  0.45594000000E+02  0.51100000000E-03 0.  1.
    9900012    2    1    2    0    0  0.62065866578E+01 -0.12559443616E+02  0.38169410105E+02  0.50528865607E+02  0.30000017498E+02 0.  0.
        -12    1    1    2    0    0 -0.62065866578E+01  0.12559443616E+02 -0.38169410105E+02  0.40659134393E+02  0.00000000000E+00 0.  1.
         11    1    3    3    0    0  0.10131116385E+01  0.23399829209E+01  0.18416475571E+02  0.18592162004E+02  0.51100000000E-03 0. -1.
        -11    1    3    3    0    0 -0.10183080197E+01  0.31903473061E+01 -0.12087018184E+01  0.35603690123E+01  0.51100000000E-03 0.  1.
        -12    1    3    3    0    0  0.62117830390E+01 -0.18089773843E+02  0.20961636352E+02  0.28376334590E+02  0.00000000000E+00 0.  1.
</event>
<event>
 7    1  0.3014423E-011  0.5052885E+02  0.7816164E-02  0.1300439E+00
        -11   -1    0    0    0    0  0.00000000000E+00  0.00000000000E+00  0.45593999997E+02  0.45594000000E+02  0.51100000000E-03 0. -1.
         11   -1    0    0    0    0 -0.00000000000E+00 -0.00000000000E+00 -0.45593999997E+02  0.45594000000E+02  0.51100000000E-03 0.  1.
    9900012    2    1    2    0    0 -0.17252474546E+02 -0.20340951750E+02  0.30688173534E+02  0.50528853540E+02  0.29999980819E+02 0.  0.
        -12    1    1    2    0    0  0.17252474546E+02  0.20340951750E+02 -0.30688173534E+02  0.40659146460E+02  0.00000000000E+00 0.  1.
         11    1    3    3    0    0  0.21867082852E+01 -0.11988642702E+01  0.98428152303E+00  0.26810033645E+01  0.51100000000E-03 0. -1.
        -11    1    3    3    0    0 -0.14926359480E+01  0.57583338304E+01  0.91288111002E+01  0.10895942499E+02  0.51100000000E-03 0.  1.
        -12    1    3    3    0    0 -0.17946546883E+02 -0.24900421310E+02  0.20575080910E+02  0.36951907676E+02  0.00000000000E+00 0.  1.
</event>
<event>
 7    1  0.3014423E-011  0.5052886E+02  0.7816164E-02  0.1300439E+00
        -11   -1    0    0    0    0  0.00000000000E+00  0.00000000000E+00  0.45593999997E+02  0.45594000000E+02  0.51100000000E-03 0.  1.
         11   -1    0    0    0    0 -0.00000000000E+00 -0.00000000000E+00 -0.45593999997E+02  0.45594000000E+02  0.51100000000E-03 0. -1.
    9900012    2    1    2    0    0 -0.31907466159E+01  0.59610932311E+01 -0.40093014414E+02  0.50528864480E+02  0.30000014072E+02 0.  0.
        -12    1    1    2    0    0  0.31907466159E+01 -0.59610932311E+01  0.40093014414E+02  0.40659135520E+02  0.00000000000E+00 0.  1.
         11    1    3    3    0    0 -0.39649695020E+00 -0.26768394353E+01  0.27736527177E+01  0.38750263036E+01  0.51100000000E-03 0. -1.
        -11    1    3    3    0    0  0.12994834739E+01 -0.18859901646E+00  0.10443740290E+01  0.16777795629E+01  0.51100000000E-03 0.  1.
         12    1    3    3    0    0 -0.40937331397E+01  0.88265316828E+01 -0.43911041161E+02  0.44976058613E+02  0.00000000000E+00 0. -1.
</event>
<event>
 7    1  0.3014423E-011  0.5052887E+02  0.7816164E-02  0.1300439E+00
        -11   -1    0    0    0    0  0.00000000000E+00  0.00000000000E+00  0.45593999997E+02  0.45594000000E+02  0.51100000000E-03 0. -1.
         11   -1    0    0    0    0 -0.00000000000E+00 -0.00000000000E+00 -0.45593999997E+02  0.45594000000E+02  0.51100000000E-03 0.  1.
    9900012    2    1    2    0    0 -0.33879143952E+02  0.62481812600E+01  0.21594640836E+02  0.50528872159E+02  0.30000037413E+02 0.  0.
        -12    1    1    2    0    0  0.33879143952E+02 -0.62481812600E+01 -0.21594640836E+02  0.40659127841E+02  0.00000000000E+00 0.  1.
         11    1    3    3    0    0  0.14768963768E+01  0.40825038406E+00  0.37021962007E+01  0.40067628147E+01  0.51100000000E-03 0. -1.
        -11    1    3    3    0    0  0.34563979589E+01  0.14160751053E+01  0.52620861424E+00  0.37721149665E+01  0.51100000000E-03 0.  1.
         12    1    3    3    0    0 -0.38812438288E+02  0.44238557707E+01  0.17366236021E+02  0.42749994377E+02  0.00000000000E+00 0. -1.
</event>
<event>
 7    1  0.3014423E-011  0.5052885E+02  0.7816164E-02  0.1300439E+00
        -11   -1    0    0    0    0  0.00000000000E+00  0.00000000000E+00  0.45593999997E+02  0.45594000000E+02  0.51100000000E-03 0. -1.
         11   -1    0    0    0    0 -0.00000000000E+00 -0.00000000000E+00 -0.45593999997E+02  0.45594000000E+02  0.51100000000E-03 0.  1.
    9900012    2    1    2    0    0 -0.19880398632E+02  0.14459598817E+02  0.32386052766E+02  0.50528847752E+02  0.29999963228E+02 0.  0.
        -12    1    1    2    0    0  0.19880398632E+02 -0.14459598817E+02 -0.32386052766E+02  0.40659152248E+02  0.00000000000E+00 0.  1.
         11    1    3    3    0    0 -0.12815546001E+02  0.12028618550E+02  0.14447509719E+02  0.22752064101E+02  0.51100000000E-03 0. -1.
        -11    1    3    3    0    0 -0.41020718356E+01  0.10223563702E+02  0.43684272623E+01  0.11850375737E+02  0.51100000000E-03 0.  1.
         12    1    3    3    0    0 -0.29627807952E+01 -0.77925834342E+01  0.13570115785E+02  0.15926407914E+02  0.00000000000E+00 0. -1.
</event>
