<event>
 7    1  0.5426550E-010  0.4778727E+02  0.7816164E-02  0.1312668E+00
        -11   -1    0    0    0    0  0.00000000000E+00  0.00000000000E+00  0.45593999997E+02  0.45594000000E+02  0.51100000000E-03 0.  1.
         11   -1    0    0    0    0 -0.00000000000E+00 -0.00000000000E+00 -0.45593999997E+02  0.45594000000E+02  0.51100000000E-03 0. -1.
    9900012    2    1    2    0    0  0.35998447791E+02  0.17491650904E+02  0.16786218677E+02  0.47787271525E+02  0.20000002191E+02 0.  0.
         12    1    1    2    0    0 -0.35998447791E+02 -0.17491650904E+02 -0.16786218677E+02  0.43400728475E+02  0.00000000000E+00 0. -1.
         11    1    3    3    0    0  0.21296544847E+02  0.18883827628E+01  0.98005657893E+01  0.23519351648E+02  0.51100000000E-03 0.  1.
        -11    1    3    3    0    0  0.81445574135E+01  0.85230425359E+01 -0.87509237824E+00  0.11821245978E+02  0.51100000000E-03 0. -1.
         12    1    3    3    0    0  0.65573455303E+01  0.70802256053E+01  0.78607452658E+01  0.12446673899E+02  0.00000000000E+00 0. -1.
</event>
<event>
 7    1  0.5426550E-010  0.4778727E+02  0.7816164E-02  0.1312668E+00
        -11   -1    0    0    0    0  0.00000000000E+00  0.00000000000E+00  0.45593999997E+02  0.45594000000E+02  0.51100000000E-03 0.  1.
         11   -1    0    0    0    0 -0.00000000000E+00 -0.00000000000E+00 -0.45593999997E+02  0.45594000000E+02  0.51100000000E-03 0. -1.
    9900012    2    1    2    0    0 -0.12444333889E+02 -0.22653657586E+02  0.34865084122E+02  0.47787265688E+02  0.19999975579E+02 0.  0.
         12    1    1    2    0    0  0.12444333889E+02  0.22653657586E+02 -0.34865084122E+02  0.43400734312E+02  0.00000000000E+00 0. -1.
         11    1    3    3    0    0 -0.35907191073E+01 -0.79288879722E+01  0.26573844768E+01  0.91006714424E+01  0.51100000000E-03 0. -1.
        -11    1    3    3    0    0  0.20379757155E+01 -0.43935166728E+01  0.15434631063E+02  0.16176655095E+02  0.51100000000E-03 0.  1.
        -12    1    3    3    0    0 -0.10891590498E+02 -0.10331252941E+02  0.16773068583E+02  0.22509939151E+02  0.00000000000E+00 0.  1.
</event>
<event>
 7    1  0.5426550E-010  0.4778727E+02  0.7816164E-02  0.1312668E+00
        -11   -1    0    0    0    0  0.00000000000E+00  0.00000000000E+00  0.45593999997E+02  0.45594000000E+02  0.51100000000E-03 0.  1.
         11   -1    0    0    0    0 -0.00000000000E+00 -0.00000000000E+00 -0.45593999997E+02  0.45594000000E+02  0.51100000000E-03 0. -1.
    9900012    2    1    2    0    0  0.42462051728E+02  0.56841008882E+01 -0.69489801843E+01  0.47787272293E+02  0.20000005693E+02 0.  0.
         12    1    1    2    0    0 -0.42462051728E+02 -0.56841008882E+01  0.69489801843E+01  0.43400727707E+02  0.00000000000E+00 0. -1.
         11    1    3    3    0    0  0.31904895084E+01  0.12048368670E+01  0.26413579176E+01  0.43136558845E+01  0.51100000000E-03 0. -1.
        -11    1    3    3    0    0  0.84111319497E+01 -0.40361863010E+01 -0.63735503682E+01  0.11298676254E+02  0.51100000000E-03 0.  1.
        -12    1    3    3    0    0  0.30860430270E+02  0.85154503222E+01 -0.32167877337E+01  0.32174940155E+02  0.00000000000E+00 0.  1.
</event>
<event>
 7    1  0.5426550E-010  0.4778728E+02  0.7816164E-02  0.1312668E+00
        -11   -1    0    0    0    0  0.00000000000E+00  0.00000000000E+00  0.45593999997E+02  0.45594000000E+02  0.51100000000E-03 0.  1.
         11   -1    0    0    0    0 -0.00000000000E+00 -0.00000000000E+00 -0.45593999997E+02  0.45594000000E+02  0.51100000000E-03 0. -1.
    9900012    2    1    2    0    0  0.41145959885E+02  0.81727354729E+01  0.11128299139E+02  0.47787278097E+02  0.20000032157E+02 0.  0.
         12    1    1    2    0    0 -0.41145959885E+02 -0.81727354729E+01 -0.11128299139E+02  0.43400721903E+02  0.00000000000E+00 0. -1.
         11    1    3    3    0    0  0.22685926727E+02  0.13052224346E+02  0.14770994541E+01  0.26214378782E+02  0.51100000000E-03 0.  1.
        -11    1    3    3    0    0  0.16205867179E+02 -0.34219216142E+01  0.77710744185E+01  0.18295608119E+02  0.51100000000E-03 0. -1.
        -12    1    3    3    0    0  0.22541659784E+01 -0.14575672587E+01  0.18801252665E+01  0.32772911970E+01  0.00000000000E+00 0.  1.
</event>
<event>
 7    1  0.5426550E-010  0.4778727E+02  0.7816164E-02  0.1312668E+00
        -11   -1    0    0    0    0  0.00000000000E+00  0.00000000000E+00  0.45593999997E+02  0.45594000000E+02  0.51100000000E-03 0. -1.
         11   -1    0    0    0    0 -0.00000000000E+00 -0.00000000000E+00 -0.45593999997E+02  0.45594000000E+02  0.51100000000E-03 0.  1.
    9900012    2    1    2    0    0 -0.41864976518E+02 -0.88846425918E+01 -0.72118001457E+01  0.47787271963E+02  0.20000004188E+02 0.  0.
         12    1    1    2    0    0  0.41864976518E+02  0.88846425918E+01  0.72118001457E+01  0.43400728037E+02  0.00000000000E+00 0. -1.
         11    1    3    3    0    0 -0.46976986393E+01 -0.38552667853E+01 -0.35015192886E+01  0.70137074420E+01  0.51100000000E-03 0. -1.
        -11    1    3    3    0    0 -0.17229802147E+02 -0.86937076408E+01  0.27585473969E+01  0.19495030612E+02  0.51100000000E-03 0.  1.
        -12    1    3    3    0    0 -0.19937475731E+02  0.36643318343E+01 -0.64688282540E+01  0.21278533909E+02  0.00000000000E+00 0.  1.
</event>
<event>
 7    1  0.5426550E-010  0.4778729E+02  0.7816164E-02  0.1312668E+00
        -11   -1    0    0    0    0  0.00000000000E+00  0.00000000000E+00  0.45593999997E+02  0.45594000000E+02  0.51100000000E-03 0. -1.
         11   -1    0    0    0    0 -0.00000000000E+00 -0.00000000000E+00 -0.45593999997E+02  0.45594000000E+02  0.51100000000E-03 0.  1.
    9900012    2    1    2    0    0  0.36690327725E+02 -0.75917344291E+01 -0.21904497640E+02  0.47787290362E+02  0.20000088075E+02 0.  0.
         12    1    1    2    0    0 -0.36690327725E+02  0.75917344291E+01  0.21904497640E+02  0.43400709638E+02  0.00000000000E+00 0. -1.
         11    1    3    3    0    0  0.34181772890E+01  0.54902264957E+01 -0.38709243583E+01  0.75372792573E+01  0.51100000000E-03 0. -1.
        -11    1    3    3    0    0  0.24223964061E+02 -0.94603007168E+01 -0.15101347079E+02  0.30072386143E+02  0.51100000000E-03 0.  1.
         12    1    3    3    0    0  0.90481863753E+01 -0.36216602080E+01 -0.29322262031E+01  0.10177624961E+02  0.00000000000E+00 0. -1.
</event>
<event>
 7    1  0.5426550E-010  0.4778727E+02  0.7816164E-02  0.1312668E+00
        -11   -1    0    0    0    0  0.00000000000E+00  0.00000000000E+00  0.45593999997E+02  0.45594000000E+02  0.51100000000E-03 0.  1.
         11   -1    0    0    0    0 -0.00000000000E+00 -0.00000000000E+00 -0.45593999997E+02  0.45594000000E+02  0.51100000000E-03 0. -1.
    9900012    2    1    2    0    0  0.27595677938E+02  0.32199857880E+02  0.92342403536E+01  0.47787268632E+02  0.19999989000E+02 0.  0.
         12    1    1    2    0    0 -0.27595677938E+02 -0.32199857880E+02 -0.92342403536E+01  0.43400731368E+02  0.00000000000E+00 0. -1.
         11    1    3    3    0    0 -0.11810873384E+01 -0.10518649253E+01  0.49845242672E+00  0.16582648175E+01  0.51100000000E-03 0. -1.
        -11    1    3    3    0    0  0.19248594468E+02  0.15657888136E+02  0.15199414521E+01  0.24859365884E+02  0.51100000000E-03 0.  1.
        -12    1    3    3    0    0  0.95281708086E+01  0.17593834670E+02  0.72158464748E+01  0.21269637930E+02  0.00000000000E+00 0.  1.
</event>
<event>
 7    1  0.5426550E-010  0.4778727E+02  0.7816164E-02  0.1312668E+00
        -11   -1    0    0    0    0  0.00000000000E+00  0.00000000000E+00  0.45593999997E+02  0.45594000000E+02  0.51100000000E-03 0.  1.
         11   -1    0    0    0    0 -0.00000000000E+00 -0.00000000000E+00 -0.45593999997E+02  0.45594000000E+02  0.51100000000E-03 0. -1.
    9900012    2    1    2    0    0 -0.15298342391E+02 -0.11442194494E-01  0.40615067621E+02  0.47787272717E+02  0.20000007625E+02 0.  0.
         12    1    1    2    0    0  0.15298342391E+02  0.11442194494E-01 -0.40615067621E+02  0.43400727283E+02  0.00000000000E+00 0. -1.
         11    1    3    3    0    0 -0.10079398825E+02  0.87800476313E+01  0.21061387883E+02  0.24945251591E+02  0.51100000000E-03 0. -1.
        -11    1    3    3    0    0 -0.35710109135E+01 -0.93925569518E+01  0.16870126335E+02  0.19636023219E+02  0.51100000000E-03 0.  1.
        -12    1    3    3    0    0 -0.16479326523E+01  0.60106712598E+00  0.26835534026E+01  0.32059979072E+01  0.00000000000E+00 0.  1.
</event>
<event>
 7    1  0.5426550E-010  0.4778727E+02  0.7816164E-02  0.1312668E+00
        -11   -1    0    0    0    0  0.00000000000E+00  0.00000000000E+00  0.45593999997E+02  0.45594000000E+02  0.51100000000E-03 0.  1.
         11   -1    0    0    0    0 -0.00000000000E+00 -0.00000000000E+00 -0.45593999997E+02  0.45594000000E+02  0.51100000000E-03 0. -1.
    9900012    2    1    2    0    0 -0.33817986387E+02  0.18136553104E+02  0.20273939367E+02  0.47787269831E+02  0.19999994466E+02 0.  0.
         12    1    1    2    0    0  0.33817986387E+02 -0.18136553104E+02 -0.20273939367E+02  0.43400730169E+02  0.00000000000E+00 0. -1.
         11    1    3    3    0    0 -0.27266691274E+01  0.52531005273E+01 -0.27904695000E+01  0.65434325833E+01  0.51100000000E-03 0. -1.
        -11    1    3    3    0    0 -0.11708694628E+02  0.54042232896E+01  0.12403434856E+02  0.17892578231E+02  0.51100000000E-03 0.  1.
         12    1    3    3    0    0 -0.19382622631E+02  0.74792292870E+01  0.10660974011E+02  0.23351259017E+02  0.00000000000E+00 0. -1.
</event>
<event>
 7    1  0.5426550E-010  0.4778729E+02  0.7816164E-02  0.1312668E+00
        -11   -1    0    0    0    0  0.00000000000E+00  0.00000000000E+00  0.45593999997E+02  0.45594000000E+02  0.51100000000E-03 0. -1.
         11   -1    0    0    0    0 -0.00000000000E+00 -0.00000000000E+00 -0.45593999997E+02  0.45594000000E+02  0.51100000000E-03 0.  1.
    9900012    2    1    2    0    0 -0.77639454543E+00  0.41623141412E+02 -0.12269184005E+02  0.47787290724E+02  0.20000089729E+02 0.  0.
         12    1    1    2    0    0  0.77639454543E+00 -0.41623141412E+02  0.12269184005E+02  0.43400709276E+02  0.00000000000E+00 0. -1.
         11    1    3    3    0    0 -0.57549621796E+01  0.95486952600E+01 -0.49684816327E+01  0.12205858464E+02  0.51100000000E-03 0. -1.
        -11    1    3    3    0    0  0.80770700761E+01  0.13579846258E+02 -0.55532469427E+01  0.16747830823E+02  0.51100000000E-03 0.  1.
        -12    1    3    3    0    0 -0.30985024420E+01  0.18494599894E+02 -0.17474554295E+01  0.18833601437E+02  0.00000000000E+00 0.  1.
</event>
<event>
 7    1  0.5426550E-010  0.4778726E+02  0.7816164E-02  0.1312668E+00
        -11   -1    0    0    0    0  0.00000000000E+00  0.00000000000E+00  0.45593999997E+02  0.45594000000E+02  0.51100000000E-03 0.  1.
         11   -1    0    0    0    0 -0.00000000000E+00 -0.00000000000E+00 -0.45593999997E+02  0.45594000000E+02  0.51100000000E-03 0. -1.
    9900012    2    1    2    0    0  0.19920434906E+02  0.19764300604E+01  0.38508370619E+02  0.47787255647E+02  0.19999929797E+02 0.  0.
         12    1    1    2    0    0 -0.19920434906E+02 -0.19764300604E+01 -0.38508370619E+02  0.43400744353E+02  0.00000000000E+00 0. -1.
         11    1    3    3    0    0  0.16454967560E+01 -0.35939332748E+01  0.49295774338E+01  0.63186034766E+01  0.51100000000E-03 0. -1.
        -11    1    3    3    0    0  0.15833752835E+02  0.76029996397E+01  0.16506990100E+02  0.24103818262E+02  0.51100000000E-03 0.  1.
        -12    1    3    3    0    0  0.24411853150E+01 -0.20326363045E+01  0.17071803085E+02  0.17364833908E+02  0.00000000000E+00 0.  1.
</event>
<event>
 7    1  0.5426550E-010  0.4778727E+02  0.7816164E-02  0.1312668E+00
        -11   -1    0    0    0    0  0.00000000000E+00  0.00000000000E+00  0.45593999997E+02  0.45594000000E+02  0.51100000000E-03 0.  1.
         11   -1    0    0    0    0 -0.00000000000E+00 -0.00000000000E+00 -0.45593999997E+02  0.45594000000E+02  0.51100000000E-03 0. -1.
    9900012    2    1    2    0    0 -0.32585109363E+02 -0.27197923057E+02  0.90612884968E+01  0.47787270513E+02  0.19999997576E+02 0.  0.
         12    1    1    2    0    0  0.32585109363E+02  0.27197923057E+02 -0.90612884968E+01  0.43400729487E+02  0.00000000000E+00 0. -1.
         11    1    3    3    0    0 -0.17471753150E+02 -0.13165416623E+02 -0.15511975836E+01  0.21931633938E+02  0.51100000000E-03 0. -1.
        -11    1    3    3    0    0 -0.21079380393E+01  0.10167985997E+01  0.44579781360E+01  0.50349629087E+01  0.51100000000E-03 0.  1.
        -12    1    3    3    0    0 -0.13005418173E+02 -0.15049305034E+02  0.61545079443E+01  0.20820673666E+02  0.00000000000E+00 0.  1.
</event>
<event>
 7    1  0.5426550E-010  0.4778727E+02  0.7816164E-02  0.1312668E+00
        -11   -1    0    0    0    0  0.00000000000E+00  0.00000000000E+00  0.45593999997E+02  0.45594000000E+02  0.51100000000E-03 0.  1.
         11   -1    0    0    0    0 -0.00000000000E+00 -0.00000000000E+00 -0.45593999997E+02  0.45594000000E+02  0.51100000000E-03 0. -1.
    9900012    2    1    2    0    0  0.22472297508E+02 -0.14385926696E+02  0.34229581004E+02  0.47787271228E+02  0.20000000838E+02 0.  0.
         12    1    1    2    0    0 -0.22472297508E+02  0.14385926696E+02 -0.34229581004E+02  0.43400728772E+02  0.00000000000E+00 0. -1.
         11    1    3    3    0    0  0.66269395752E+01 -0.22672148856E+01  0.58448952790E+01  0.91224663635E+01  0.51100000000E-03 0. -1.
        -11    1    3    3    0    0  0.14497077502E+02 -0.16059946084E+02  0.26143134670E+02  0.33934504785E+02  0.51100000000E-03 0.  1.
        -12    1    3    3    0    0  0.13482804315E+01  0.39412342733E+01  0.22415510543E+01  0.47303000801E+01  0.00000000000E+00 0.  1.
</event>
<event>
 7    1  0.5426550E-010  0.4778727E+02  0.7816164E-02  0.1312668E+00
        -11   -1    0    0    0    0  0.00000000000E+00  0.00000000000E+00  0.45593999997E+02  0.45594000000E+02  0.51100000000E-03 0. -1.
         11   -1    0    0    0    0 -0.00000000000E+00 -0.00000000000E+00 -0.45593999997E+02  0.45594000000E+02  0.51100000000E-03 0.  1.
    9900012    2    1    2    0    0  0.42858221508E+02 -0.34373798081E+01 -0.59144101302E+01  0.47787274453E+02  0.20000015542E+02 0.  0.
         12    1    1    2    0    0 -0.42858221508E+02  0.34373798081E+01  0.59144101302E+01  0.43400725547E+02  0.00000000000E+00 0. -1.
         11    1    3    3    0    0  0.96506408362E+01  0.32801472599E+01  0.36736562135E+01  0.10834665885E+02  0.51100000000E-03 0. -1.
        -11    1    3    3    0    0  0.26715299714E+02 -0.12089940626E+01 -0.96718104903E+01  0.28437876571E+02  0.51100000000E-03 0.  1.
         12    1    3    3    0    0  0.64922809584E+01 -0.55085330053E+01  0.83744146632E-01  0.85147319979E+01  0.00000000000E+00 0. -1.
</event>
<event>
 7    1  0.5426550E-010  0.4778727E+02  0.7816164E-02  0.1312668E+00
        -11   -1    0    0    0    0  0.00000000000E+00  0.00000000000E+00  0.45593999997E+02  0.45594000000E+02  0.51100000000E-03 0. -1.
         11   -1    0    0    0    0 -0.00000000000E+00 -0.00000000000E+00 -0.45593999997E+02  0.45594000000E+02  0.51100000000E-03 0.  1.
    9900012    2    1    2    0    0  0.31567079391E+02  0.23605920278E+02  0.18163240641E+02  0.47787270927E+02  0.19999999465E+02 0.  0.
         12    1    1    2    0    0 -0.31567079391E+02 -0.23605920278E+02 -0.18163240641E+02  0.43400729073E+02  0.00000000000E+00 0. -1.
         11    1    3    3    0    0  0.68602949290E+01  0.23569248515E+01  0.14480572343E+01  0.73970001544E+01  0.51100000000E-03 0. -1.
        -11    1    3    3    0    0  0.25470021522E+02  0.21664634421E+02  0.11891988055E+02  0.35489403504E+02  0.51100000000E-03 0.  1.
        -12    1    3    3    0    0 -0.76323705950E+00 -0.41563899491E+00  0.48231953515E+01  0.49008672684E+01  0.00000000000E+00 0.  1.
</event>
<event>
 7    1  0.5426550E-010  0.4778727E+02  0.7816164E-02  0.1312668E+00
        -11   -1    0    0    0    0  0.00000000000E+00  0.00000000000E+00  0.45593999997E+02  0.45594000000E+02  0.51100000000E-03 0.  1.
         11   -1    0    0    0    0 -0.00000000000E+00 -0.00000000000E+00 -0.45593999997E+02  0.45594000000E+02  0.51100000000E-03 0. -1.
    9900012    2    1    2    0    0  0.29673265066E+02  0.31571773436E+02  0.25186549007E+01  0.47787272356E+02  0.20000005978E+02 0.  0.
         12    1    1    2    0    0 -0.29673265066E+02 -0.31571773436E+02 -0.25186549007E+01  0.43400727644E+02  0.00000000000E+00 0. -1.
         11    1    3    3    0    0  0.46449935973E+01  0.61190855056E+01 -0.66364636654E+01  0.10151936918E+02  0.51100000000E-03 0. -1.
        -11    1    3    3    0    0  0.19208640999E+02  0.21543580544E+02  0.44805228385E+01  0.29209122494E+02  0.51100000000E-03 0.  1.
         12    1    3    3    0    0  0.58196304698E+01  0.39091073861E+01  0.46745957276E+01  0.84262129439E+01  0.00000000000E+00 0. -1.
</event>
<event>
 7    1  0.5426550E-010  0.4778727E+02  0.7816164E-02  0.1312668E+00
        -11   -1    0    0    0    0  0.00000000000E+00  0.00000000000E+00  0.45593999997E+02  0.45594000000E+02  0.51100000000E-03 0.  1.
         11   -1    0    0    0    0 -0.00000000000E+00 -0.00000000000E+00 -0.45593999997E+02  0.45594000000E+02  0.51100000000E-03 0. -1.
    9900012    2    1    2    0    0  0.35008947491E+02  0.53799341260E+01  0.25080930050E+02  0.47787272497E+02  0.20000006624E+02 0.  0.
         12    1    1    2    0    0 -0.35008947491E+02 -0.53799341260E+01 -0.25080930050E+02  0.43400727503E+02  0.00000000000E+00 0. -1.
         11    1    3    3    0    0  0.43943700007E+01  0.16142164745E+01  0.65536235632E+01  0.80539533522E+01  0.51100000000E-03 0. -1.
        -11    1    3    3    0    0  0.27032635007E+02  0.91388287944E+01  0.16511822650E+02  0.32968497610E+02  0.51100000000E-03 0.  1.
        -12    1    3    3    0    0  0.35819424832E+01 -0.53731111430E+01  0.20154838359E+01  0.67648215350E+01  0.00000000000E+00 0.  1.
</event>
<event>
 7    1  0.5426550E-010  0.4778727E+02  0.7816164E-02  0.1312668E+00
        -11   -1    0    0    0    0  0.00000000000E+00  0.00000000000E+00  0.45593999997E+02  0.45594000000E+02  0.51100000000E-03 0. -1.
         11   -1    0    0    0    0 -0.00000000000E+00 -0.00000000000E+00 -0.45593999997E+02  0.45594000000E+02  0.51100000000E-03 0.  1.
    9900012    2    1    2    0    0  0.23211522413E+02  0.32015491862E+02 -0.17884545476E+02  0.47787268914E+02  0.19999990288E+02 0.  0.
         12    1    1    2    0    0 -0.23211522413E+02 -0.32015491862E+02  0.17884545476E+02  0.43400731086E+02  0.00000000000E+00 0. -1.
         11    1    3    3    0    0  0.37419750812E+00  0.56687305566E+00 -0.26922803843E+01  0.27766423546E+01  0.51100000000E-03 0. -1.
        -11    1    3    3    0    0  0.89414294232E+01  0.13077473604E+01 -0.47971965161E+01  0.10230955868E+02  0.51100000000E-03 0.  1.
        -12    1    3    3    0    0  0.13895895482E+02  0.30140871446E+02 -0.10395068575E+02  0.34779670692E+02  0.00000000000E+00 0.  1.
</event>
<event>
 7    1  0.5426550E-010  0.4778727E+02  0.7816164E-02  0.1312668E+00
        -11   -1    0    0    0    0  0.00000000000E+00  0.00000000000E+00  0.45593999997E+02  0.45594000000E+02  0.51100000000E-03 0.  1.
         11   -1    0    0    0    0 -0.00000000000E+00 -0.00000000000E+00 -0.45593999997E+02  0.45594000000E+02  0.51100000000E-03 0. -1.
    9900012    2    1    2    0    0 -0.74047363847E+01 -0.77850006061E+01  0.42049817420E+02  0.47787268434E+02  0.19999988100E+02 0.  0.
         12    1    1    2    0    0  0.74047363847E+01  0.77850006061E+01 -0.42049817420E+02  0.43400731566E+02  0.00000000000E+00 0. -1.
         11    1    3    3    0    0  0.40014007434E+01 -0.52047203855E+01  0.11165106208E+02  0.12952216764E+02  0.51100000000E-03 0. -1.
        -11    1    3    3    0    0 -0.83351028596E+01  0.21680920576E+00  0.79274697768E+01  0.11505030345E+02  0.51100000000E-03 0.  1.
        -12    1    3    3    0    0 -0.30710342685E+01 -0.27970894263E+01  0.22957241435E+02  0.23330021326E+02  0.00000000000E+00 0.  1.
</event>
<event>
 7    1  0.5426550E-010  0.4778727E+02  0.7816164E-02  0.1312668E+00
        -11   -1    0    0    0    0  0.00000000000E+00  0.00000000000E+00  0.45593999997E+02  0.45594000000E+02  0.51100000000E-03 0. -1.
         11   -1    0    0    0    0 -0.00000000000E+00 -0.00000000000E+00 -0.45593999997E+02  0.45594000000E+02  0.51100000000E-03 0.  1.
    9900012    2    1    2    0    0  0.13813594957E+02 -0.98549798399E+01 -0.39946055586E+02  0.47787269705E+02  0.19999993892E+02 0.  0.
         12    1    1    2    0    0 -0.13813594957E+02  0.98549798399E+01  0.39946055586E+02  0.43400730295E+02  0.00000000000E+00 0. -1.
         11    1    3    3    0    0 -0.43593210598E+01  0.15713659491E+00 -0.73351334572E+01  0.85341991486E+01  0.51100000000E-03 0. -1.
        -11    1    3    3    0    0  0.96557982474E+01 -0.86777216683E+01 -0.22394123528E+02  0.25885016168E+02  0.51100000000E-03 0.  1.
         12    1    3    3    0    0  0.85171177692E+01 -0.13343947665E+01 -0.10216798601E+02  0.13368054389E+02  0.00000000000E+00 0. -1.
</event>
<event>
 7    1  0.5426550E-010  0.4778727E+02  0.7816164E-02  0.1312668E+00
        -11   -1    0    0    0    0  0.00000000000E+00  0.00000000000E+00  0.45593999997E+02  0.45594000000E+02  0.51100000000E-03 0.  1.
         11   -1    0    0    0    0 -0.00000000000E+00 -0.00000000000E+00 -0.45593999997E+02  0.45594000000E+02  0.51100000000E-03 0. -1.
    9900012    2    1    2    0    0 -0.63866573468E+01 -0.64022136428E+01  0.42448151886E+02  0.47787270397E+02  0.19999997046E+02 0.  0.
         12    1    1    2    0    0  0.63866573468E+01  0.64022136428E+01 -0.42448151886E+02  0.43400729603E+02  0.00000000000E+00 0. -1.
         11    1    3    3    0    0  0.36283793294E+01  0.37870842177E+01  0.12075480272E+02  0.13165271265E+02  0.51100000000E-03 0. -1.
        -11    1    3    3    0    0 -0.12051995871E+01  0.10790715397E+01  0.72866448389E+01  0.74640535034E+01  0.51100000000E-03 0.  1.
         12    1    3    3    0    0 -0.88098370891E+01 -0.11268369400E+02  0.23086026775E+02  0.27157945628E+02  0.00000000000E+00 0. -1.
</event>
<event>
 7    1  0.5426550E-010  0.4778727E+02  0.7816164E-02  0.1312668E+00
        -11   -1    0    0    0    0  0.00000000000E+00  0.00000000000E+00  0.45593999997E+02  0.45594000000E+02  0.51100000000E-03 0.  1.
         11   -1    0    0    0    0 -0.00000000000E+00 -0.00000000000E+00 -0.45593999997E+02  0.45594000000E+02  0.51100000000E-03 0. -1.
    9900012    2    1    2    0    0 -0.15026818540E+02 -0.27908862049E+02  0.29646475439E+02  0.47787270026E+02  0.19999995358E+02 0.  0.
         12    1    1    2    0    0  0.15026818540E+02  0.27908862049E+02 -0.29646475439E+02  0.43400729974E+02  0.00000000000E+00 0. -1.
         11    1    3    3    0    0  0.22495257638E+00 -0.13185652299E+02  0.44810965290E+01  0.13928110301E+02  0.51100000000E-03 0. -1.
        -11    1    3    3    0    0 -0.10449964246E+02 -0.11071488172E+02  0.12026167306E+02  0.19401244894E+02  0.51100000000E-03 0.  1.
         12    1    3    3    0    0 -0.48018068705E+01 -0.36517215779E+01  0.13139211603E+02  0.14457914831E+02  0.00000000000E+00 0. -1.
</event>
<event>
 7    1  0.5426550E-010  0.4778727E+02  0.7816164E-02  0.1312668E+00
        -11   -1    0    0    0    0  0.00000000000E+00  0.00000000000E+00  0.45593999997E+02  0.45594000000E+02  0.51100000000E-03 0. -1.
         11   -1    0    0    0    0 -0.00000000000E+00 -0.00000000000E+00 -0.45593999997E+02  0.45594000000E+02  0.51100000000E-03 0.  1.
    9900012    2    1    2    0    0 -0.25909973035E+02  0.27737702510E+02 -0.21045571706E+02  0.47787274987E+02  0.20000017978E+02 0.  0.
         12    1    1    2    0    0  0.25909973035E+02 -0.27737702510E+02  0.21045571706E+02  0.43400725013E+02  0.00000000000E+00 0. -1.
         11    1    3    3    0    0 -0.64274944480E+01  0.17403430348E+01 -0.10756456496E+02  0.12650803744E+02  0.51100000000E-03 0. -1.
        -11    1    3    3    0    0 -0.18520613337E+02  0.24222110646E+02 -0.11715248048E+02  0.32664518971E+02  0.51100000000E-03 0.  1.
        -12    1    3    3    0    0 -0.96186525053E+00  0.17752488289E+01  0.14261328386E+01  0.24719522726E+01  0.00000000000E+00 0.  1.
</event>
<event>
 7    1  0.5426550E-010  0.4778727E+02  0.7816164E-02  0.1312668E+00
        -11   -1    0    0    0    0  0.00000000000E+00  0.00000000000E+00  0.45593999997E+02  0.45594000000E+02  0.51100000000E-03 0. -1.
         11   -1    0    0    0    0 -0.00000000000E+00 -0.00000000000E+00 -0.45593999997E+02  0.45594000000E+02  0.51100000000E-03 0.  1.
    9900012    2    1    2    0    0  0.24215161788E+02 -0.35700881142E+02 -0.47640588858E+01  0.47787271529E+02  0.20000002209E+02 0.  0.
         12    1    1    2    0    0 -0.24215161788E+02  0.35700881142E+02  0.47640588858E+01  0.43400728471E+02  0.00000000000E+00 0. -1.
         11    1    3    3    0    0  0.11542033276E+02 -0.18516317223E+02 -0.10513899121E+02  0.24220128213E+02  0.51100000000E-03 0. -1.
        -11    1    3    3    0    0  0.77273611200E+01 -0.12658931583E+02  0.75268867709E+01  0.16631737234E+02  0.51100000000E-03 0.  1.
        -12    1    3    3    0    0  0.49457673914E+01 -0.45256323368E+01 -0.17770465356E+01  0.69354060823E+01  0.00000000000E+00 0.  1.
</event>
<event>
 7    1  0.5426550E-010  0.4778727E+02  0.7816164E-02  0.1312668E+00
        -11   -1    0    0    0    0  0.00000000000E+00  0.00000000000E+00  0.45593999997E+02  0.45594000000E+02  0.51100000000E-03 0. -1.
         11   -1    0    0    0    0 -0.00000000000E+00 -0.00000000000E+00 -0.45593999997E+02  0.45594000000E+02  0.51100000000E-03 0.  1.
    9900012    2    1    2    0    0 -0.26060846618E+02  0.17599360130E+02 -0.29911840978E+02  0.47787269198E+02  0.19999991582E+02 0.  0.
         12    1    1    2    0    0  0.26060846618E+02 -0.17599360130E+02  0.29911840978E+02  0.43400730802E+02  0.00000000000E+00 0. -1.
         11    1    3    3    0    0 -0.69026039130E+01  0.13794251402E+02 -0.85173276473E+01  0.17620220857E+02  0.51100000000E-03 0. -1.
        -11    1    3    3    0    0 -0.10937306613E+02  0.63442529191E+01 -0.12090469725E+02  0.17494389943E+02  0.51100000000E-03 0.  1.
         12    1    3    3    0    0 -0.82209360917E+01 -0.25391441917E+01 -0.93040436062E+01  0.12672658398E+02  0.00000000000E+00 0. -1.
</event>
<event>
 7    1  0.5426550E-010  0.4778728E+02  0.7816164E-02  0.1312668E+00
        -11   -1    0    0    0    0  0.00000000000E+00  0.00000000000E+00  0.45593999997E+02  0.45594000000E+02  0.51100000000E-03 0. -1.
         11   -1    0    0    0    0 -0.00000000000E+00 -0.00000000000E+00 -0.45593999997E+02  0.45594000000E+02  0.51100000000E-03 0.  1.
    9900012    2    1    2    0    0  0.27809094783E+02 -0.24040814109E+01 -0.33233974157E+02  0.47787281131E+02  0.20000045991E+02 0.  0.
         12    1    1    2    0    0 -0.27809094783E+02  0.24040814109E+01  0.33233974157E+02  0.43400718869E+02  0.00000000000E+00 0. -1.
         11    1    3    3    0    0  0.19774706948E+01 -0.28437621635E+01  0.18850259749E+01  0.39434371782E+01  0.51100000000E-03 0. -1.
        -11    1    3    3    0    0  0.18050032057E+02  0.60324916479E+00 -0.20802244827E+02  0.27548157052E+02  0.51100000000E-03 0.  1.
         12    1    3    3    0    0  0.77815920305E+01 -0.16356841217E+00 -0.14316755304E+02  0.16295686902E+02  0.00000000000E+00 0. -1.
</event>
<event>
 7    1  0.5426550E-010  0.4778727E+02  0.7816164E-02  0.1312668E+00
        -11   -1    0    0    0    0  0.00000000000E+00  0.00000000000E+00  0.45593999997E+02  0.45594000000E+02  0.51100000000E-03 0.  1.
         11   -1    0    0    0    0 -0.00000000000E+00 -0.00000000000E+00 -0.45593999997E+02  0.45594000000E+02  0.51100000000E-03 0. -1.
    9900012    2    1    2    0    0 -0.33663812046E+02  0.17254331864E+02  0.21275783648E+02  0.47787272133E+02  0.20000004963E+02 0.  0.
         12    1    1    2    0    0  0.33663812046E+02 -0.17254331864E+02 -0.21275783648E+02  0.43400727867E+02  0.00000000000E+00 0. -1.
         11    1    3    3    0    0 -0.22001925825E+02  0.10029882036E+02  0.10538758861E+02  0.26377048968E+02  0.51100000000E-03 0. -1.
        -11    1    3    3    0    0 -0.12744370158E+02  0.94465446035E+01  0.81596141499E+01  0.17839155781E+02  0.51100000000E-03 0.  1.
         12    1    3    3    0    0  0.10824839360E+01 -0.22220947763E+01  0.25774106367E+01  0.35710673834E+01  0.00000000000E+00 0. -1.
</event>
<event>
 7    1  0.5426550E-010  0.4778727E+02  0.7816164E-02  0.1312668E+00
        -11   -1    0    0    0    0  0.00000000000E+00  0.00000000000E+00  0.45593999997E+02  0.45594000000E+02  0.51100000000E-03 0.  1.
         11   -1    0    0    0    0 -0.00000000000E+00 -0.00000000000E+00 -0.45593999997E+02  0.45594000000E+02  0.51100000000E-03 0. -1.
    9900012    2    1    2    0    0  0.23821316146E+02 -0.35932104472E+02  0.50051786575E+01  0.47787273646E+02  0.20000011860E+02 0.  0.
         12    1    1    2    0    0 -0.23821316146E+02  0.35932104472E+02 -0.50051786575E+01  0.43400726354E+02  0.00000000000E+00 0. -1.
         11    1    3    3    0    0  0.21255896133E+02 -0.36923780844E+02  0.29886470659E+01  0.42709609268E+02  0.51100000000E-03 0.  1.
        -11    1    3    3    0    0  0.64499574204E+00  0.17824750693E+01 -0.35151101065E+00  0.19278996685E+01  0.51100000000E-03 0. -1.
         12    1    3    3    0    0  0.19204242700E+01 -0.79079869705E+00  0.23680426023E+01  0.31497647090E+01  0.00000000000E+00 0. -1.
</event>
<event>
 7    1  0.5426550E-010  0.4778727E+02  0.7816164E-02  0.1312668E+00
        -11   -1    0    0    0    0  0.00000000000E+00  0.00000000000E+00  0.45593999997E+02  0.45594000000E+02  0.51100000000E-03 0.  1.
         11   -1    0    0    0    0 -0.00000000000E+00 -0.00000000000E+00 -0.45593999997E+02  0.45594000000E+02  0.51100000000E-03 0. -1.
    9900012    2    1    2    0    0 -0.22485890863E+02 -0.42822774397E+01  0.36873705195E+02  0.47787270481E+02  0.19999997432E+02 0.  0.
         12    1    1    2    0    0  0.22485890863E+02  0.42822774397E+01 -0.36873705195E+02  0.43400729519E+02  0.00000000000E+00 0. -1.
         11    1    3    3    0    0 -0.44648780091E+01  0.29005847106E+01  0.19260052232E+02  0.19982445785E+02  0.51100000000E-03 0. -1.
        -11    1    3    3    0    0 -0.17363383849E+02 -0.87057170564E+01  0.14369230730E+02  0.24160947833E+02  0.51100000000E-03 0.  1.
        -12    1    3    3    0    0 -0.65762900557E+00  0.15228549061E+01  0.32444222323E+01  0.36438768634E+01  0.00000000000E+00 0.  1.
</event>
<event>
 7    1  0.5426550E-010  0.4778727E+02  0.7816164E-02  0.1312668E+00
        -11   -1    0    0    0    0  0.00000000000E+00  0.00000000000E+00  0.45593999997E+02  0.45594000000E+02  0.51100000000E-03 0. -1.
         11   -1    0    0    0    0 -0.00000000000E+00 -0.00000000000E+00 -0.45593999997E+02  0.45594000000E+02  0.51100000000E-03 0.  1.
    9900012    2    1    2    0    0 -0.12050133958E+02  0.39577958119E+02 -0.13114991441E+02  0.47787268465E+02  0.19999988239E+02 0.  0.
         12    1    1    2    0    0  0.12050133958E+02 -0.39577958119E+02  0.13114991441E+02  0.43400731535E+02  0.00000000000E+00 0. -1.
         11    1    3    3    0    0  0.18420358640E+01  0.84728901132E+01 -0.20674104044E+01  0.89138739634E+01  0.51100000000E-03 0. -1.
        -11    1    3    3    0    0 -0.12557163149E+02  0.15115730534E+02 -0.11598999150E+02  0.22818949087E+02  0.51100000000E-03 0.  1.
        -12    1    3    3    0    0 -0.13350066734E+01  0.15989337472E+02  0.55141811346E+00  0.16054445414E+02  0.00000000000E+00 0.  1.
</event>
<event>
 7    1  0.5426550E-010  0.4778729E+02  0.7816164E-02  0.1312668E+00
        -11   -1    0    0    0    0  0.00000000000E+00  0.00000000000E+00  0.45593999997E+02  0.45594000000E+02  0.51100000000E-03 0.  1.
         11   -1    0    0    0    0 -0.00000000000E+00 -0.00000000000E+00 -0.45593999997E+02  0.45594000000E+02  0.51100000000E-03 0. -1.
    9900012    2    1    2    0    0  0.16824708357E+02  0.24446872545E+02  0.31668609431E+02  0.47787294800E+02  0.20000108313E+02 0.  0.
         12    1    1    2    0    0 -0.16824708357E+02 -0.24446872545E+02 -0.31668609431E+02  0.43400705200E+02  0.00000000000E+00 0. -1.
         11    1    3    3    0    0  0.16541863486E+02  0.21968076169E+02  0.17115644899E+02  0.32390969709E+02  0.51100000000E-03 0. -1.
        -11    1    3    3    0    0 -0.12785075523E+01 -0.61206184653E+00  0.60802223437E+01  0.62432607887E+01  0.51100000000E-03 0.  1.
         12    1    3    3    0    0  0.15613524241E+01  0.30908582226E+01  0.84727421878E+01  0.91530643025E+01  0.00000000000E+00 0. -1.
</event>
<event>
 7    1  0.5426550E-010  0.4778727E+02  0.7816164E-02  0.1312668E+00
        -11   -1    0    0    0    0  0.00000000000E+00  0.00000000000E+00  0.45593999997E+02  0.45594000000E+02  0.51100000000E-03 0.  1.
         11   -1    0    0    0    0 -0.00000000000E+00 -0.00000000000E+00 -0.45593999997E+02  0.45594000000E+02  0.51100000000E-03 0. -1.
    9900012    2    1    2    0    0  0.26232388833E+02  0.15315990504E+02  0.30998479714E+02  0.47787268053E+02  0.19999986360E+02 0.  0.
         12    1    1    2    0    0 -0.26232388833E+02 -0.15315990504E+02 -0.30998479714E+02  0.43400731947E+02  0.00000000000E+00 0. -1.
         11    1    3    3    0    0  0.48855811004E+01  0.74241193787E+00  0.16466196191E-01  0.49416950099E+01  0.51100000000E-03 0. -1.
        -11    1    3    3    0    0  0.47769000654E+01  0.71118901556E+01  0.22648796203E+01  0.88615707285E+01  0.51100000000E-03 0.  1.
        -12    1    3    3    0    0  0.16569907667E+02  0.74616884105E+01  0.28717133897E+02  0.33984002314E+02  0.00000000000E+00 0.  1.
</event>
<event>
 7    1  0.5426550E-010  0.4778727E+02  0.7816164E-02  0.1312668E+00
        -11   -1    0    0    0    0  0.00000000000E+00  0.00000000000E+00  0.45593999997E+02  0.45594000000E+02  0.51100000000E-03 0.  1.
         11   -1    0    0    0    0 -0.00000000000E+00 -0.00000000000E+00 -0.45593999997E+02  0.45594000000E+02  0.51100000000E-03 0. -1.
    9900012    2    1    2    0    0 -0.29506867023E+01  0.38903926655E+02  0.19010559846E+02  0.47787269052E+02  0.19999990913E+02 0.  0.
         12    1    1    2    0    0  0.29506867023E+01 -0.38903926655E+02 -0.19010559846E+02  0.43400730948E+02  0.00000000000E+00 0. -1.
         11    1    3    3    0    0  0.52609745282E+01  0.98717064071E+01  0.96598061553E+01  0.14779725829E+02  0.51100000000E-03 0. -1.
        -11    1    3    3    0    0 -0.88760659010E+01  0.19996226444E+02  0.33313777214E+01  0.22129882415E+02  0.51100000000E-03 0.  1.
        -12    1    3    3    0    0  0.66440467059E+00  0.90359938037E+01  0.60193759690E+01  0.10877660807E+02  0.00000000000E+00 0.  1.
</event>
<event>
 7    1  0.5426550E-010  0.4778727E+02  0.7816164E-02  0.1312668E+00
        -11   -1    0    0    0    0  0.00000000000E+00  0.00000000000E+00  0.45593999997E+02  0.45594000000E+02  0.51100000000E-03 0. -1.
         11   -1    0    0    0    0 -0.00000000000E+00 -0.00000000000E+00 -0.45593999997E+02  0.45594000000E+02  0.51100000000E-03 0.  1.
    9900012    2    1    2    0    0 -0.94464164524E+01  0.39654163659E+02 -0.14897526272E+02  0.47787265349E+02  0.19999974030E+02 0.  0.
         12    1    1    2    0    0  0.94464164524E+01 -0.39654163659E+02  0.14897526272E+02  0.43400734651E+02  0.00000000000E+00 0. -1.
         11    1    3    3    0    0  0.21491738794E-01  0.42711309801E+00  0.36709774436E+00  0.56360314794E+00  0.51100000000E-03 0. -1.
        -11    1    3    3    0    0 -0.14401566994E+02  0.34506950563E+02 -0.10308388218E+02  0.38786565161E+02  0.51100000000E-03 0.  1.
        -12    1    3    3    0    0  0.49336588028E+01  0.47200999975E+01 -0.49562357988E+01  0.84370970400E+01  0.00000000000E+00 0.  1.
</event>
<event>
 7    1  0.5426550E-010  0.4778727E+02  0.7816164E-02  0.1312668E+00
        -11   -1    0    0    0    0  0.00000000000E+00  0.00000000000E+00  0.45593999997E+02  0.45594000000E+02  0.51100000000E-03 0.  1.
         11   -1    0    0    0    0 -0.00000000000E+00 -0.00000000000E+00 -0.45593999997E+02  0.45594000000E+02  0.51100000000E-03 0. -1.
    9900012    2    1    2    0    0 -0.12178982598E+02  0.15455398836E+02  0.38683665922E+02  0.47787274436E+02  0.20000015465E+02 0.  0.
         12    1    1    2    0    0  0.12178982598E+02 -0.15455398836E+02 -0.38683665922E+02  0.43400725564E+02  0.00000000000E+00 0. -1.
         11    1    3    3    0    0 -0.39448682421E+01 -0.15020402314E+01  0.35962057483E+01  0.55453409588E+01  0.51100000000E-03 0. -1.
        -11    1    3    3    0    0  0.17128355360E+01  0.12376310403E+02  0.17000030702E+02  0.21097580641E+02  0.51100000000E-03 0.  1.
        -12    1    3    3    0    0 -0.99469498920E+01  0.45811286648E+01  0.18087429471E+02  0.21144352837E+02  0.00000000000E+00 0.  1.
</event>
<event>
 7    1  0.5426550E-010  0.4778728E+02  0.7816164E-02  0.1312668E+00
        -11   -1    0    0    0    0  0.00000000000E+00  0.00000000000E+00  0.45593999997E+02  0.45594000000E+02  0.51100000000E-03 0. -1.
         11   -1    0    0    0    0 -0.00000000000E+00 -0.00000000000E+00 -0.45593999997E+02  0.45594000000E+02  0.51100000000E-03 0.  1.
    9900012    2    1    2    0    0 -0.35732514932E+02  0.41810516371E+01 -0.24276099582E+02  0.47787276192E+02  0.20000023471E+02 0.  0.
         12    1    1    2    0    0  0.35732514932E+02 -0.41810516371E+01  0.24276099582E+02  0.43400723808E+02  0.00000000000E+00 0. -1.
         11    1    3    3    0    0 -0.32735593297E+01 -0.22526935862E+01 -0.43411758668E+01  0.58852890538E+01  0.51100000000E-03 0. -1.
        -11    1    3    3    0    0 -0.26281765122E+02 -0.16708094432E+01 -0.16813119912E+02  0.31244260010E+02  0.51100000000E-03 0.  1.
        -12    1    3    3    0    0 -0.61771904803E+01  0.81045546664E+01 -0.31218038029E+01  0.10657727129E+02  0.00000000000E+00 0.  1.
</event>
<event>
 7    1  0.5426550E-010  0.4778727E+02  0.7816164E-02  0.1312668E+00
        -11   -1    0    0    0    0  0.00000000000E+00  0.00000000000E+00  0.45593999997E+02  0.45594000000E+02  0.51100000000E-03 0. -1.
         11   -1    0    0    0    0 -0.00000000000E+00 -0.00000000000E+00 -0.45593999997E+02  0.45594000000E+02  0.51100000000E-03 0.  1.
    9900012    2    1    2    0    0 -0.83978710372E+01  0.11972571723E+02 -0.40862655815E+02  0.47787270146E+02  0.19999995903E+02 0.  0.
         12    1    1    2    0    0  0.83978710372E+01 -0.11972571723E+02  0.40862655815E+02  0.43400729854E+02  0.00000000000E+00 0. -1.
         11    1    3    3    0    0 -0.46919458166E+01 -0.13811040420E+01 -0.20273715261E+01  0.52945292035E+01  0.51100000000E-03 0. -1.
        -11    1    3    3    0    0  0.30130683192E+01  0.68073299534E+01 -0.21930746658E+02  0.23159792119E+02  0.51100000000E-03 0.  1.
        -12    1    3    3    0    0 -0.67189935398E+01  0.65463458118E+01 -0.16904537631E+02  0.19332948823E+02  0.00000000000E+00 0.  1.
</event>
<event>
 7    1  0.5426550E-010  0.4778727E+02  0.7816164E-02  0.1312668E+00
        -11   -1    0    0    0    0  0.00000000000E+00  0.00000000000E+00  0.45593999997E+02  0.45594000000E+02  0.51100000000E-03 0.  1.
         11   -1    0    0    0    0 -0.00000000000E+00 -0.00000000000E+00 -0.45593999997E+02  0.45594000000E+02  0.51100000000E-03 0. -1.
    9900012    2    1    2    0    0  0.14400962299E+02  0.27242502797E+02  0.30562743002E+02  0.47787274965E+02  0.20000017875E+02 0.  0.
         12    1    1    2    0    0 -0.14400962299E+02 -0.27242502797E+02 -0.30562743002E+02  0.43400725035E+02  0.00000000000E+00 0. -1.
         11    1    3    3    0    0 -0.41996578848E+01  0.25078947596E+01  0.40073305880E+01  0.63233979139E+01  0.51100000000E-03 0. -1.
        -11    1    3    3    0    0  0.15294692235E+02  0.15743886847E+02  0.21065917126E+02  0.30423189317E+02  0.51100000000E-03 0.  1.
        -12    1    3    3    0    0  0.33059279487E+01  0.89907211900E+01  0.54894952879E+01  0.11040687734E+02  0.00000000000E+00 0.  1.
</event>
<event>
 7    1  0.5426550E-010  0.4778727E+02  0.7816164E-02  0.1312668E+00
        -11   -1    0    0    0    0  0.00000000000E+00  0.00000000000E+00  0.45593999997E+02  0.45594000000E+02  0.51100000000E-03 0.  1.
         11   -1    0    0    0    0 -0.00000000000E+00 -0.00000000000E+00 -0.45593999997E+02  0.45594000000E+02  0.51100000000E-03 0. -1.
    9900012    2    1    2    0    0  0.34990583132E+02 -0.54085607367E+01  0.25100389593E+02  0.47787274258E+02  0.20000014652E+02 0.  0.
         12    1    1    2    0    0 -0.34990583132E+02  0.54085607367E+01 -0.25100389593E+02  0.43400725742E+02  0.00000000000E+00 0. -1.
         11    1    3    3    0    0  0.50039300444E+01 -0.84346082685E+01  0.67690040327E+01  0.11916431865E+02  0.51100000000E-03 0. -1.
        -11    1    3    3    0    0  0.10496419955E+02  0.35749311117E+01  0.88638034353E+01  0.14195843614E+02  0.51100000000E-03 0.  1.
         12    1    3    3    0    0  0.19490233133E+02 -0.54888357990E+00  0.94675821253E+01  0.21674998779E+02  0.00000000000E+00 0. -1.
</event>
<event>
 7    1  0.5426550E-010  0.4778729E+02  0.7816164E-02  0.1312668E+00
        -11   -1    0    0    0    0  0.00000000000E+00  0.00000000000E+00  0.45593999997E+02  0.45594000000E+02  0.51100000000E-03 0.  1.
         11   -1    0    0    0    0 -0.00000000000E+00 -0.00000000000E+00 -0.45593999997E+02  0.45594000000E+02  0.51100000000E-03 0. -1.
    9900012    2    1    2    0    0  0.38363602766E+02 -0.19322375674E+02 -0.62049533712E+01  0.47787289577E+02  0.20000084498E+02 0.  0.
         12    1    1    2    0    0 -0.38363602766E+02  0.19322375674E+02  0.62049533712E+01  0.43400710423E+02  0.00000000000E+00 0. -1.
         11    1    3    3    0    0  0.35670609107E+02 -0.15137641931E+02 -0.91042028411E+01  0.39804862353E+02  0.51100000000E-03 0. -1.
        -11    1    3    3    0    0  0.17522709449E+01  0.73041420296E-01  0.31601326176E+01  0.36141702969E+01  0.51100000000E-03 0.  1.
         12    1    3    3    0    0  0.94072271382E+00 -0.42577751632E+01 -0.26088314765E+00  0.43682569272E+01  0.00000000000E+00 0. -1.
</event>
<event>
 7    1  0.5426550E-010  0.4778727E+02  0.7816164E-02  0.1312668E+00
        -11   -1    0    0    0    0  0.00000000000E+00  0.00000000000E+00  0.45593999997E+02  0.45594000000E+02  0.51100000000E-03 0. -1.
         11   -1    0    0    0    0 -0.00000000000E+00 -0.00000000000E+00 -0.45593999997E+02  0.45594000000E+02  0.51100000000E-03 0.  1.
    9900012    2    1    2    0    0 -0.14691834887E+02 -0.34342291113E+02 -0.22099327354E+02  0.47787271426E+02  0.20000001742E+02 0.  0.
         12    1    1    2    0    0  0.14691834887E+02  0.34342291113E+02  0.22099327354E+02  0.43400728574E+02  0.00000000000E+00 0. -1.
         11    1    3    3    0    0  0.30399190619E+01 -0.10371953702E+02 -0.10506333436E+02  0.15073207158E+02  0.51100000000E-03 0. -1.
        -11    1    3    3    0    0 -0.13952036714E+02 -0.22584639845E+02 -0.10447936248E+02  0.28528663788E+02  0.51100000000E-03 0.  1.
         12    1    3    3    0    0 -0.37797172345E+01 -0.13856975651E+01 -0.11450576703E+01  0.41854004806E+01  0.00000000000E+00 0. -1.
</event>
<event>
 7    1  0.5426550E-010  0.4778727E+02  0.7816164E-02  0.1312668E+00
        -11   -1    0    0    0    0  0.00000000000E+00  0.00000000000E+00  0.45593999997E+02  0.45594000000E+02  0.51100000000E-03 0.  1.
         11   -1    0    0    0    0 -0.00000000000E+00 -0.00000000000E+00 -0.45593999997E+02  0.45594000000E+02  0.51100000000E-03 0. -1.
    9900012    2    1    2    0    0 -0.30256577715E+02  0.11560490808E+02  0.28888020544E+02  0.47787272198E+02  0.20000005260E+02 0.  0.
         12    1    1    2    0    0  0.30256577715E+02 -0.11560490808E+02 -0.28888020544E+02  0.43400727802E+02  0.00000000000E+00 0. -1.
         11    1    3    3    0    0 -0.11624325213E+02 -0.40562575442E+01  0.74055399438E+01  0.14367330443E+02  0.51100000000E-03 0. -1.
        -11    1    3    3    0    0 -0.13144505524E+02  0.70692879252E+01  0.15987884106E+02  0.21871563632E+02  0.51100000000E-03 0.  1.
         12    1    3    3    0    0 -0.54877469783E+01  0.85474604271E+01  0.54945964942E+01  0.11548378124E+02  0.00000000000E+00 0. -1.
</event>
<event>
 7    1  0.5426550E-010  0.4778727E+02  0.7816164E-02  0.1312668E+00
        -11   -1    0    0    0    0  0.00000000000E+00  0.00000000000E+00  0.45593999997E+02  0.45594000000E+02  0.51100000000E-03 0.  1.
         11   -1    0    0    0    0 -0.00000000000E+00 -0.00000000000E+00 -0.45593999997E+02  0.45594000000E+02  0.51100000000E-03 0. -1.
    9900012    2    1    2    0    0  0.32668919263E+02  0.27947084070E+02  0.59435132882E+01  0.47787272541E+02  0.20000006822E+02 0.  0.
         12    1    1    2    0    0 -0.32668919263E+02 -0.27947084070E+02 -0.59435132882E+01  0.43400727459E+02  0.00000000000E+00 0. -1.
         11    1    3    3    0    0  0.21817828326E+02  0.63679396431E+01  0.44058127342E+00  0.22732408589E+02  0.51100000000E-03 0. -1.
        -11    1    3    3    0    0  0.63283227420E+01  0.12544241920E+02  0.12941024578E+01  0.14109584526E+02  0.51100000000E-03 0.  1.
         12    1    3    3    0    0  0.45227681948E+01  0.90349025072E+01  0.42088295570E+01  0.10945279425E+02  0.00000000000E+00 0. -1.
</event>
<event>
 7    1  0.5426550E-010  0.4778727E+02  0.7816164E-02  0.1312668E+00
        -11   -1    0    0    0    0  0.00000000000E+00  0.00000000000E+00  0.45593999997E+02  0.45594000000E+02  0.51100000000E-03 0.  1.
         11   -1    0    0    0    0 -0.00000000000E+00 -0.00000000000E+00 -0.45593999997E+02  0.45594000000E+02  0.51100000000E-03 0. -1.
    9900012    2    1    2    0    0 -0.17558636767E+02  0.24459483590E+02  0.31257816361E+02  0.47787272515E+02  0.20000006705E+02 0.  0.
         12    1    1    2    0    0  0.17558636767E+02 -0.24459483590E+02 -0.31257816361E+02  0.43400727485E+02  0.00000000000E+00 0. -1.
         11    1    3    3    0    0 -0.55321534228E+01 -0.20030673651E+01  0.48303313185E+01  0.76124307071E+01  0.51100000000E-03 0. -1.
        -11    1    3    3    0    0 -0.10998753632E+02  0.23902578841E+02  0.26594958189E+02  0.37411196961E+02  0.51100000000E-03 0.  1.
        -12    1    3    3    0    0 -0.10277297127E+01  0.25599721133E+01 -0.16747314740E+00  0.27636448466E+01  0.00000000000E+00 0.  1.
</event>
<event>
 7    1  0.5426550E-010  0.4778727E+02  0.7816164E-02  0.1312668E+00
        -11   -1    0    0    0    0  0.00000000000E+00  0.00000000000E+00  0.45593999997E+02  0.45594000000E+02  0.51100000000E-03 0.  1.
         11   -1    0    0    0    0 -0.00000000000E+00 -0.00000000000E+00 -0.45593999997E+02  0.45594000000E+02  0.51100000000E-03 0. -1.
    9900012    2    1    2    0    0 -0.16859793969E+02  0.20077645522E+02  0.34586972903E+02  0.47787271930E+02  0.20000004038E+02 0.  0.
         12    1    1    2    0    0  0.16859793969E+02 -0.20077645522E+02 -0.34586972903E+02  0.43400728070E+02  0.00000000000E+00 0. -1.
         11    1    3    3    0    0 -0.90884972483E+01  0.36553835057E+01  0.77257224822E+01  0.12475952827E+02  0.51100000000E-03 0. -1.
        -11    1    3    3    0    0  0.13838597270E+01  0.88751455858E+01  0.19174255242E+02  0.21173930699E+02  0.51100000000E-03 0.  1.
        -12    1    3    3    0    0 -0.91551564479E+01  0.75471164305E+01  0.76869951791E+01  0.14137388404E+02  0.00000000000E+00 0.  1.
</event>
<event>
 7    1  0.5426550E-010  0.4778726E+02  0.7816164E-02  0.1312668E+00
        -11   -1    0    0    0    0  0.00000000000E+00  0.00000000000E+00  0.45593999997E+02  0.45594000000E+02  0.51100000000E-03 0. -1.
         11   -1    0    0    0    0 -0.00000000000E+00 -0.00000000000E+00 -0.45593999997E+02  0.45594000000E+02  0.51100000000E-03 0.  1.
    9900012    2    1    2    0    0 -0.41062272409E+02 -0.13009426921E+02  0.53168241759E+01  0.47787262408E+02  0.19999960624E+02 0.  0.
         12    1    1    2    0    0  0.41062272409E+02  0.13009426921E+02 -0.53168241759E+01  0.43400737592E+02  0.00000000000E+00 0. -1.
         11    1    3    3    0    0  0.82809615491E+00 -0.58920577698E+00  0.67737593595E+00  0.12213701769E+01  0.51100000000E-03 0. -1.
        -11    1    3    3    0    0 -0.11379684982E+02 -0.10943195519E+02  0.15336828604E+01  0.15861996780E+02  0.51100000000E-03 0.  1.
        -12    1    3    3    0    0 -0.30510683581E+02 -0.14770256249E+01  0.31057653795E+01  0.30703895451E+02  0.00000000000E+00 0.  1.
</event>
<event>
 7    1  0.5426550E-010  0.4778727E+02  0.7816164E-02  0.1312668E+00
        -11   -1    0    0    0    0  0.00000000000E+00  0.00000000000E+00  0.45593999997E+02  0.45594000000E+02  0.51100000000E-03 0.  1.
         11   -1    0    0    0    0 -0.00000000000E+00 -0.00000000000E+00 -0.45593999997E+02  0.45594000000E+02  0.51100000000E-03 0. -1.
    9900012    2    1    2    0    0 -0.99910188872E+01  0.66171548397E+01  0.41713501727E+02  0.47787269328E+02  0.19999992173E+02 0.  0.
         12    1    1    2    0    0  0.99910188872E+01 -0.66171548397E+01 -0.41713501727E+02  0.43400730672E+02  0.00000000000E+00 0. -1.
         11    1    3    3    0    0 -0.10160019896E+01  0.22250573710E+00 -0.55868611355E+00  0.11806351174E+01  0.51100000000E-03 0. -1.
        -11    1    3    3    0    0 -0.12081831984E+02 -0.18503909997E+00  0.22520975368E+02  0.25557762722E+02  0.51100000000E-03 0.  1.
        -12    1    3    3    0    0  0.31068150860E+01  0.65796882026E+01  0.19751212472E+02  0.21048871488E+02  0.00000000000E+00 0.  1.
</event>
<event>
 7    1  0.5426550E-010  0.4778727E+02  0.7816164E-02  0.1312668E+00
        -11   -1    0    0    0    0  0.00000000000E+00  0.00000000000E+00  0.45593999997E+02  0.45594000000E+02  0.51100000000E-03 0. -1.
         11   -1    0    0    0    0 -0.00000000000E+00 -0.00000000000E+00 -0.45593999997E+02  0.45594000000E+02  0.51100000000E-03 0.  1.
    9900012    2    1    2    0    0 -0.28477552505E+02 -0.30404770494E+02 -0.12173835064E+02  0.47787270448E+02  0.19999997280E+02 0.  0.
         12    1    1    2    0    0  0.28477552505E+02  0.30404770494E+02  0.12173835064E+02  0.43400729552E+02  0.00000000000E+00 0. -1.
         11    1    3    3    0    0 -0.57756138799E+01 -0.14221360648E+02 -0.68589035604E+01  0.16812179296E+02  0.51100000000E-03 0. -1.
        -11    1    3    3    0    0 -0.51373209258E+01 -0.30644215909E+01  0.39566606156E+01  0.71720226903E+01  0.51100000000E-03 0.  1.
        -12    1    3    3    0    0 -0.17564617699E+02 -0.13118988256E+02 -0.92715921196E+01  0.23803068462E+02  0.00000000000E+00 0.  1.
</event>
<event>
 7    1  0.5426550E-010  0.4778727E+02  0.7816164E-02  0.1312668E+00
        -11   -1    0    0    0    0  0.00000000000E+00  0.00000000000E+00  0.45593999997E+02  0.45594000000E+02  0.51100000000E-03 0. -1.
         11   -1    0    0    0    0 -0.00000000000E+00 -0.00000000000E+00 -0.45593999997E+02  0.45594000000E+02  0.51100000000E-03 0.  1.
    9900012    2    1    2    0    0 -0.47979908986E+01  0.29175074557E+02 -0.31771330746E+02  0.47787272478E+02  0.20000006536E+02 0.  0.
         12    1    1    2    0    0  0.47979908986E+01 -0.29175074557E+02  0.31771330746E+02  0.43400727522E+02  0.00000000000E+00 0. -1.
         11    1    3    3    0    0  0.41872733515E+01 -0.48194205661E+00 -0.52556501387E+01  0.67370160240E+01  0.51100000000E-03 0. -1.
        -11    1    3    3    0    0 -0.79642809109E+01  0.19225008242E+02 -0.18673754825E+02  0.27959610724E+02  0.51100000000E-03 0.  1.
         12    1    3    3    0    0 -0.10209833392E+01  0.10432008372E+02 -0.78419257831E+01  0.13090645730E+02  0.00000000000E+00 0. -1.
</event>
<event>
 7    1  0.5426550E-010  0.4778727E+02  0.7816164E-02  0.1312668E+00
        -11   -1    0    0    0    0  0.00000000000E+00  0.00000000000E+00  0.45593999997E+02  0.45594000000E+02  0.51100000000E-03 0. -1.
         11   -1    0    0    0    0 -0.00000000000E+00 -0.00000000000E+00 -0.45593999997E+02  0.45594000000E+02  0.51100000000E-03 0.  1.
    9900012    2    1    2    0    0 -0.24147416272E+02 -0.21844000598E+02 -0.28694335889E+02  0.47787274351E+02  0.20000015077E+02 0.  0.
         12    1    1    2    0    0  0.24147416272E+02  0.21844000598E+02  0.28694335889E+02  0.43400725649E+02  0.00000000000E+00 0. -1.
         11    1    3    3    0    0 -0.50512822246E+01 -0.49782825750E+01 -0.89998106016E+00  0.71490359965E+01  0.51100000000E-03 0. -1.
        -11    1    3    3    0    0 -0.40736710855E+01 -0.13296841387E+02 -0.10308489899E+02  0.17310856456E+02  0.51100000000E-03 0.  1.
        -12    1    3    3    0    0 -0.15022462962E+02 -0.35688766353E+01 -0.17485864930E+02  0.23327381898E+02  0.00000000000E+00 0.  1.
</event>
<event>
 7    1  0.5426550E-010  0.4778727E+02  0.7816164E-02  0.1312668E+00
        -11   -1    0    0    0    0  0.00000000000E+00  0.00000000000E+00  0.45593999997E+02  0.45594000000E+02  0.51100000000E-03 0.  1.
         11   -1    0    0    0    0 -0.00000000000E+00 -0.00000000000E+00 -0.45593999997E+02  0.45594000000E+02  0.51100000000E-03 0. -1.
    9900012    2    1    2    0    0  0.35185195068E+01  0.20506348470E+02  0.38088487393E+02  0.47787272138E+02  0.20000004985E+02 0.  0.
         12    1    1    2    0    0 -0.35185195068E+01 -0.20506348470E+02 -0.38088487393E+02  0.43400727862E+02  0.00000000000E+00 0. -1.
         11    1    3    3    0    0  0.10033480022E+01  0.31222865534E+01  0.18110616232E+02  0.18405156916E+02  0.51100000000E-03 0. -1.
        -11    1    3    3    0    0  0.18667754796E+01  0.17537957692E+02  0.11898522869E+02  0.21275329784E+02  0.51100000000E-03 0.  1.
        -12    1    3    3    0    0  0.64839602506E+00 -0.15389577534E+00  0.80793482911E+01  0.81067854371E+01  0.00000000000E+00 0.  1.
</event>
<event>
 7    1  0.5426550E-010  0.4778727E+02  0.7816164E-02  0.1312668E+00
        -11   -1    0    0    0    0  0.00000000000E+00  0.00000000000E+00  0.45593999997E+02  0.45594000000E+02  0.51100000000E-03 0.  1.
         11   -1    0    0    0    0 -0.00000000000E+00 -0.00000000000E+00 -0.45593999997E+02  0.45594000000E+02  0.51100000000E-03 0. -1.
    9900012    2    1    2    0    0  0.30856725878E+01 -0.17678024165E+02  0.39516951656E+02  0.47787269800E+02  0.19999994326E+02 0.  0.
         12    1    1    2    0    0 -0.30856725878E+01  0.17678024165E+02 -0.39516951656E+02  0.43400730200E+02  0.00000000000E+00 0. -1.
         11    1    3    3    0    0 -0.18848506291E+01  0.10926606066E+01  0.14700016217E+02  0.14860587005E+02  0.51100000000E-03 0. -1.
        -11    1    3    3    0    0 -0.97132504185E+00 -0.12779254681E+02  0.11843864176E+02  0.17450786269E+02  0.51100000000E-03 0.  1.
        -12    1    3    3    0    0  0.59418482588E+01 -0.59914300908E+01  0.12973071264E+02  0.15475896526E+02  0.00000000000E+00 0.  1.
</event>
<event>
 7    1  0.5426550E-010  0.4778728E+02  0.7816164E-02  0.1312668E+00
        -11   -1    0    0    0    0  0.00000000000E+00  0.00000000000E+00  0.45593999997E+02  0.45594000000E+02  0.51100000000E-03 0.  1.
         11   -1    0    0    0    0 -0.00000000000E+00 -0.00000000000E+00 -0.45593999997E+02  0.45594000000E+02  0.51100000000E-03 0. -1.
    9900012    2    1    2    0    0  0.30032505069E+02 -0.28955244310E+02 -0.11969345773E+02  0.47787276826E+02  0.20000026363E+02 0.  0.
         12    1    1    2    0    0 -0.30032505069E+02  0.28955244310E+02  0.11969345773E+02  0.43400723174E+02  0.00000000000E+00 0. -1.
         11    1    3    3    0    0  0.29110428648E+00  0.10434136788E+01 -0.12717281204E+01  0.16705527480E+01  0.51100000000E-03 0. -1.
        -11    1    3    3    0    0  0.97669783574E+01 -0.15632302583E+02  0.18000201160E+01  0.18520335390E+02  0.51100000000E-03 0.  1.
        -12    1    3    3    0    0  0.19974422425E+02 -0.14366355406E+02 -0.12497637769E+02  0.27596388689E+02  0.00000000000E+00 0.  1.
</event>
<event>
 7    1  0.5426550E-010  0.4778726E+02  0.7816164E-02  0.1312668E+00
        -11   -1    0    0    0    0  0.00000000000E+00  0.00000000000E+00  0.45593999997E+02  0.45594000000E+02  0.51100000000E-03 0.  1.
         11   -1    0    0    0    0 -0.00000000000E+00 -0.00000000000E+00 -0.45593999997E+02  0.45594000000E+02  0.51100000000E-03 0. -1.
    9900012    2    1    2    0    0  0.23621186345E+02  0.34655813144E+02  0.11164149061E+02  0.47787262065E+02  0.19999959059E+02 0.  0.
         12    1    1    2    0    0 -0.23621186345E+02 -0.34655813144E+02 -0.11164149061E+02  0.43400737935E+02  0.00000000000E+00 0. -1.
         11    1    3    3    0    0  0.11322041529E+02  0.20396259005E+02 -0.36666924883E+01  0.23614415933E+02  0.51100000000E-03 0. -1.
        -11    1    3    3    0    0  0.68154111167E+01  0.98295869480E+01  0.10369114554E+02  0.15830007743E+02  0.51100000000E-03 0.  1.
         12    1    3    3    0    0  0.54837336995E+01  0.44299671910E+01  0.44617269959E+01  0.83428383891E+01  0.00000000000E+00 0. -1.
</event>
<event>
 7    1  0.5426550E-010  0.4778727E+02  0.7816164E-02  0.1312668E+00
        -11   -1    0    0    0    0  0.00000000000E+00  0.00000000000E+00  0.45593999997E+02  0.45594000000E+02  0.51100000000E-03 0.  1.
         11   -1    0    0    0    0 -0.00000000000E+00 -0.00000000000E+00 -0.45593999997E+02  0.45594000000E+02  0.51100000000E-03 0. -1.
    9900012    2    1    2    0    0  0.43164461866E+02 -0.22803508612E+00  0.45166769390E+01  0.47787272601E+02  0.20000007099E+02 0.  0.
         12    1    1    2    0    0 -0.43164461866E+02  0.22803508612E+00 -0.45166769390E+01  0.43400727399E+02  0.00000000000E+00 0. -1.
         11    1    3    3    0    0  0.17823889760E+02 -0.35953894373E+01 -0.50844421617E+01  0.18880397870E+02  0.51100000000E-03 0. -1.
        -11    1    3    3    0    0  0.23126780820E+02 -0.98782892886E-01  0.76922620136E+01  0.24372702852E+02  0.51100000000E-03 0.  1.
         12    1    3    3    0    0  0.22137912853E+01  0.34661372440E+01  0.19088570871E+01  0.45341718790E+01  0.00000000000E+00 0. -1.
</event>
<event>
 7    1  0.5426550E-010  0.4778726E+02  0.7816164E-02  0.1312668E+00
        -11   -1    0    0    0    0  0.00000000000E+00  0.00000000000E+00  0.45593999997E+02  0.45594000000E+02  0.51100000000E-03 0.  1.
         11   -1    0    0    0    0 -0.00000000000E+00 -0.00000000000E+00 -0.45593999997E+02  0.45594000000E+02  0.51100000000E-03 0. -1.
    9900012    2    1    2    0    0 -0.40363836256E+02 -0.15601040288E+02  0.33154831844E+01  0.47787260789E+02  0.19999953240E+02 0.  0.
         12    1    1    2    0    0  0.40363836256E+02  0.15601040288E+02 -0.33154831844E+01  0.43400739211E+02  0.00000000000E+00 0. -1.
         11    1    3    3    0    0 -0.40235206373E+01 -0.33817178798E+01  0.60858756984E+00  0.52910408455E+01  0.51100000000E-03 0. -1.
        -11    1    3    3    0    0 -0.31055728291E+02 -0.10631693156E+02  0.90882349597E+01  0.34060052466E+02  0.51100000000E-03 0.  1.
        -12    1    3    3    0    0 -0.52845873270E+01 -0.15876292529E+01 -0.63813393451E+01  0.84361674770E+01  0.00000000000E+00 0.  1.
</event>
<event>
 7    1  0.5426550E-010  0.4778728E+02  0.7816164E-02  0.1312668E+00
        -11   -1    0    0    0    0  0.00000000000E+00  0.00000000000E+00  0.45593999997E+02  0.45594000000E+02  0.51100000000E-03 0. -1.
         11   -1    0    0    0    0 -0.00000000000E+00 -0.00000000000E+00 -0.45593999997E+02  0.45594000000E+02  0.51100000000E-03 0.  1.
    9900012    2    1    2    0    0  0.37898196322E+02 -0.73426287016E+01 -0.19835203481E+02  0.47787276759E+02  0.20000026056E+02 0.  0.
         12    1    1    2    0    0 -0.37898196322E+02  0.73426287016E+01  0.19835203481E+02  0.43400723241E+02  0.00000000000E+00 0. -1.
         11    1    3    3    0    0 -0.20227030278E+00 -0.20890288234E+01  0.45246972238E+00  0.21470174222E+01  0.51100000000E-03 0. -1.
        -11    1    3    3    0    0  0.29524310952E+02 -0.93164166935E+01 -0.18236807479E+02  0.35931347101E+02  0.51100000000E-03 0.  1.
        -12    1    3    3    0    0  0.85761556725E+01  0.40628168153E+01 -0.20508657245E+01  0.97089122364E+01  0.00000000000E+00 0.  1.
</event>
<event>
 7    1  0.5426550E-010  0.4778727E+02  0.7816164E-02  0.1312668E+00
        -11   -1    0    0    0    0  0.00000000000E+00  0.00000000000E+00  0.45593999997E+02  0.45594000000E+02  0.51100000000E-03 0.  1.
         11   -1    0    0    0    0 -0.00000000000E+00 -0.00000000000E+00 -0.45593999997E+02  0.45594000000E+02  0.51100000000E-03 0. -1.
    9900012    2    1    2    0    0  0.28569507678E+02 -0.23790993449E+02  0.22391857610E+02  0.47787269297E+02  0.19999992034E+02 0.  0.
         12    1    1    2    0    0 -0.28569507678E+02  0.23790993449E+02 -0.22391857610E+02  0.43400730703E+02  0.00000000000E+00 0. -1.
         11    1    3    3    0    0  0.10892189863E+02 -0.18606539676E+02  0.61641287905E+01  0.22424085327E+02  0.51100000000E-03 0. -1.
        -11    1    3    3    0    0  0.73583845409E+01  0.91885983129E+00  0.73891706562E+01  0.10468522804E+02  0.51100000000E-03 0.  1.
         12    1    3    3    0    0  0.10318933274E+02 -0.61033136046E+01  0.88385581632E+01  0.14894661167E+02  0.00000000000E+00 0. -1.
</event>
<event>
 7    1  0.5426550E-010  0.4778722E+02  0.7816164E-02  0.1312668E+00
        -11   -1    0    0    0    0  0.00000000000E+00  0.00000000000E+00  0.45593999997E+02  0.45594000000E+02  0.51100000000E-03 0.  1.
         11   -1    0    0    0    0 -0.00000000000E+00 -0.00000000000E+00 -0.45593999997E+02  0.45594000000E+02  0.51100000000E-03 0. -1.
    9900012    2    1    2    0    0  0.36196108944E+02 -0.14924618336E+02  0.18727647223E+02  0.47787224596E+02  0.19999788221E+02 0.  0.
         12    1    1    2    0    0 -0.36196108944E+02  0.14924618336E+02 -0.18727647223E+02  0.43400775404E+02  0.00000000000E+00 0. -1.
         11    1    3    3    0    0  0.30525938433E+01 -0.51769770813E+01 -0.75100359323E+00  0.60566845329E+01  0.51100000000E-03 0. -1.
        -11    1    3    3    0    0  0.28372195124E+02 -0.43459160047E+01  0.19171290682E+02  0.34516761563E+02  0.51100000000E-03 0.  1.
        -12    1    3    3    0    0  0.47713199765E+01 -0.54017252504E+01  0.30736013428E+00  0.72137785002E+01  0.00000000000E+00 0.  1.
</event>
<event>
 7    1  0.5426550E-010  0.4778727E+02  0.7816164E-02  0.1312668E+00
        -11   -1    0    0    0    0  0.00000000000E+00  0.00000000000E+00  0.45593999997E+02  0.45594000000E+02  0.51100000000E-03 0.  1.
         11   -1    0    0    0    0 -0.00000000000E+00 -0.00000000000E+00 -0.45593999997E+02  0.45594000000E+02  0.51100000000E-03 0. -1.
    9900012    2    1    2    0    0  0.24930394288E+00  0.36919099238E+02  0.22815371597E+02  0.47787271641E+02  0.20000002720E+02 0.  0.
         12    1    1    2    0    0 -0.24930394288E+00 -0.36919099238E+02 -0.22815371597E+02  0.43400728359E+02  0.00000000000E+00 0. -1.
         11    1    3    3    0    0 -0.17096124605E+01  0.32767494615E+01  0.93117503957E+01  0.10018410927E+02  0.51100000000E-03 0. -1.
        -11    1    3    3    0    0  0.62422470713E+01  0.20318684043E+02  0.87810760611E+01  0.22998301389E+02  0.51100000000E-03 0.  1.
         12    1    3    3    0    0 -0.42833306679E+01  0.13323665733E+02  0.47225451406E+01  0.14770559325E+02  0.00000000000E+00 0. -1.
</event>
<event>
 7    1  0.5426550E-010  0.4778727E+02  0.7816164E-02  0.1312668E+00
        -11   -1    0    0    0    0  0.00000000000E+00  0.00000000000E+00  0.45593999997E+02  0.45594000000E+02  0.51100000000E-03 0.  1.
         11   -1    0    0    0    0 -0.00000000000E+00 -0.00000000000E+00 -0.45593999997E+02  0.45594000000E+02  0.51100000000E-03 0. -1.
    9900012    2    1    2    0    0  0.29279536019E+02 -0.24483892700E+02  0.20660853646E+02  0.47787272994E+02  0.20000008890E+02 0.  0.
         12    1    1    2    0    0 -0.29279536019E+02  0.24483892700E+02 -0.20660853646E+02  0.43400727006E+02  0.00000000000E+00 0. -1.
         11    1    3    3    0    0  0.36168886334E+01 -0.17131709333E+01 -0.68520484930E+00  0.40603379144E+01  0.51100000000E-03 0. -1.
        -11    1    3    3    0    0  0.14920579230E+02 -0.89678058985E+01  0.18047968970E+01  0.17501500487E+02  0.51100000000E-03 0.  1.
        -12    1    3    3    0    0  0.10742068156E+02 -0.13802915868E+02  0.19541261598E+02  0.26225434593E+02  0.00000000000E+00 0.  1.
</event>
<event>
 7    1  0.5426550E-010  0.4778728E+02  0.7816164E-02  0.1312668E+00
        -11   -1    0    0    0    0  0.00000000000E+00  0.00000000000E+00  0.45593999997E+02  0.45594000000E+02  0.51100000000E-03 0.  1.
         11   -1    0    0    0    0 -0.00000000000E+00 -0.00000000000E+00 -0.45593999997E+02  0.45594000000E+02  0.51100000000E-03 0. -1.
    9900012    2    1    2    0    0 -0.30086088640E+02 -0.98295545760E+01  0.29695623533E+02  0.47787275009E+02  0.20000018074E+02 0.  0.
         12    1    1    2    0    0  0.30086088640E+02  0.98295545760E+01 -0.29695623533E+02  0.43400724991E+02  0.00000000000E+00 0. -1.
         11    1    3    3    0    0 -0.18810883313E+02 -0.68817411767E+01  0.26857605235E+02  0.33504307960E+02  0.51100000000E-03 0. -1.
        -11    1    3    3    0    0 -0.24018307777E+01 -0.40824085883E+01  0.24410092737E+01  0.53285436568E+01  0.51100000000E-03 0.  1.
         12    1    3    3    0    0 -0.88733745485E+01  0.11345951890E+01  0.39700902431E+00  0.89544233922E+01  0.00000000000E+00 0. -1.
</event>
<event>
 7    1  0.5426550E-010  0.4778727E+02  0.7816164E-02  0.1312668E+00
        -11   -1    0    0    0    0  0.00000000000E+00  0.00000000000E+00  0.45593999997E+02  0.45594000000E+02  0.51100000000E-03 0.  1.
         11   -1    0    0    0    0 -0.00000000000E+00 -0.00000000000E+00 -0.45593999997E+02  0.45594000000E+02  0.51100000000E-03 0. -1.
    9900012    2    1    2    0    0 -0.20727052818E+02 -0.33289357885E+02  0.18596543676E+02  0.47787268398E+02  0.19999987933E+02 0.  0.
         12    1    1    2    0    0  0.20727052818E+02  0.33289357885E+02 -0.18596543676E+02  0.43400731602E+02  0.00000000000E+00 0. -1.
         11    1    3    3    0    0 -0.13175598353E+02 -0.62948296502E+01  0.77085218341E+01  0.16511892121E+02  0.51100000000E-03 0. -1.
        -11    1    3    3    0    0  0.68419720230E+00 -0.13093213859E+02  0.39702252956E+01  0.13699016903E+02  0.51100000000E-03 0.  1.
         12    1    3    3    0    0 -0.82356516669E+01 -0.13901314377E+02  0.69177965459E+01  0.17576359373E+02  0.00000000000E+00 0. -1.
</event>
<event>
 7    1  0.5426550E-010  0.4778727E+02  0.7816164E-02  0.1312668E+00
        -11   -1    0    0    0    0  0.00000000000E+00  0.00000000000E+00  0.45593999997E+02  0.45594000000E+02  0.51100000000E-03 0.  1.
         11   -1    0    0    0    0 -0.00000000000E+00 -0.00000000000E+00 -0.45593999997E+02  0.45594000000E+02  0.51100000000E-03 0. -1.
    9900012    2    1    2    0    0 -0.39992472689E+02  0.11116695652E+02 -0.12674548444E+02  0.47787274519E+02  0.20000015843E+02 0.  0.
         12    1    1    2    0    0  0.39992472689E+02 -0.11116695652E+02  0.12674548444E+02  0.43400725481E+02  0.00000000000E+00 0. -1.
         11    1    3    3    0    0 -0.11163519376E+02  0.11661037284E+02 -0.95430069516E+01  0.18752944764E+02  0.51100000000E-03 0. -1.
        -11    1    3    3    0    0 -0.13212011332E+02 -0.25220144126E+00 -0.21042641370E+01  0.13380910912E+02  0.51100000000E-03 0.  1.
         12    1    3    3    0    0 -0.15616941981E+02 -0.29214019014E+00 -0.10272773554E+01  0.15653418843E+02  0.00000000000E+00 0. -1.
</event>
<event>
 7    1  0.5426550E-010  0.4778727E+02  0.7816164E-02  0.1312668E+00
        -11   -1    0    0    0    0  0.00000000000E+00  0.00000000000E+00  0.45593999997E+02  0.45594000000E+02  0.51100000000E-03 0.  1.
         11   -1    0    0    0    0 -0.00000000000E+00 -0.00000000000E+00 -0.45593999997E+02  0.45594000000E+02  0.51100000000E-03 0. -1.
    9900012    2    1    2    0    0  0.24972707563E+02 -0.16170895579E+01  0.35459444449E+02  0.47787270717E+02  0.19999998506E+02 0.  0.
         12    1    1    2    0    0 -0.24972707563E+02  0.16170895579E+01 -0.35459444449E+02  0.43400729283E+02  0.00000000000E+00 0. -1.
         11    1    3    3    0    0  0.23741280369E+02 -0.22821976632E+01  0.22907257450E+02  0.33069612394E+02  0.51100000000E-03 0. -1.
        -11    1    3    3    0    0  0.24745516809E+00  0.40887865324E+01  0.61074255015E+01  0.73539143241E+01  0.51100000000E-03 0.  1.
         12    1    3    3    0    0  0.98397202615E+00 -0.34236784272E+01  0.64447614972E+01  0.73637439986E+01  0.00000000000E+00 0. -1.
</event>
<event>
 7    1  0.5426550E-010  0.4778727E+02  0.7816164E-02  0.1312668E+00
        -11   -1    0    0    0    0  0.00000000000E+00  0.00000000000E+00  0.45593999997E+02  0.45594000000E+02  0.51100000000E-03 0.  1.
         11   -1    0    0    0    0 -0.00000000000E+00 -0.00000000000E+00 -0.45593999997E+02  0.45594000000E+02  0.51100000000E-03 0. -1.
    9900012    2    1    2    0    0  0.14048674122E+02 -0.75588465173E+01  0.40362384761E+02  0.47787268337E+02  0.19999987658E+02 0.  0.
         12    1    1    2    0    0 -0.14048674122E+02  0.75588465173E+01 -0.40362384761E+02  0.43400731663E+02  0.00000000000E+00 0. -1.
         11    1    3    3    0    0  0.69776118314E+00  0.27795601018E+01  0.43499040608E+01  0.52090777137E+01  0.51100000000E-03 0. -1.
        -11    1    3    3    0    0  0.12908484447E+02 -0.86150338224E+00  0.17346933601E+02  0.21639946035E+02  0.51100000000E-03 0.  1.
        -12    1    3    3    0    0  0.44242849179E+00 -0.94769032369E+01  0.18665547099E+02  0.20938244589E+02  0.00000000000E+00 0.  1.
</event>
<event>
 7    1  0.5426550E-010  0.4778728E+02  0.7816164E-02  0.1312668E+00
        -11   -1    0    0    0    0  0.00000000000E+00  0.00000000000E+00  0.45593999997E+02  0.45594000000E+02  0.51100000000E-03 0.  1.
         11   -1    0    0    0    0 -0.00000000000E+00 -0.00000000000E+00 -0.45593999997E+02  0.45594000000E+02  0.51100000000E-03 0. -1.
    9900012    2    1    2    0    0  0.22498669792E+02  0.21518692158E+01  0.37051342363E+02  0.47787278181E+02  0.20000032537E+02 0.  0.
         12    1    1    2    0    0 -0.22498669792E+02 -0.21518692158E+01 -0.37051342363E+02  0.43400721819E+02  0.00000000000E+00 0. -1.
         11    1    3    3    0    0  0.73080640932E+01  0.25706843879E+00  0.18219924735E+01  0.75361490038E+01  0.51100000000E-03 0. -1.
        -11    1    3    3    0    0  0.17116429701E+02  0.62742248011E+00  0.30210318979E+02  0.34727931090E+02  0.51100000000E-03 0.  1.
        -12    1    3    3    0    0 -0.19258240022E+01  0.12673782969E+01  0.50190309102E+01  0.55231980873E+01  0.00000000000E+00 0.  1.
</event>
<event>
 7    1  0.5426550E-010  0.4778727E+02  0.7816164E-02  0.1312668E+00
        -11   -1    0    0    0    0  0.00000000000E+00  0.00000000000E+00  0.45593999997E+02  0.45594000000E+02  0.51100000000E-03 0.  1.
         11   -1    0    0    0    0 -0.00000000000E+00 -0.00000000000E+00 -0.45593999997E+02  0.45594000000E+02  0.51100000000E-03 0. -1.
    9900012    2    1    2    0    0  0.22616293525E+02 -0.34045916851E+02 -0.14594594290E+02  0.47787269942E+02  0.19999994975E+02 0.  0.
         12    1    1    2    0    0 -0.22616293525E+02  0.34045916851E+02  0.14594594290E+02  0.43400730058E+02  0.00000000000E+00 0. -1.
         11    1    3    3    0    0  0.21413625153E+01  0.73733170517E+00 -0.28121131347E+00  0.22821418732E+01  0.51100000000E-03 0. -1.
        -11    1    3    3    0    0  0.29269567738E+01 -0.19328033721E+01  0.28286008743E+01  0.45059724809E+01  0.51100000000E-03 0.  1.
        -12    1    3    3    0    0  0.17547974236E+02 -0.32850445184E+02 -0.17141983851E+02  0.40999155588E+02  0.00000000000E+00 0.  1.
</event>
<event>
 7    1  0.5426550E-010  0.4778727E+02  0.7816164E-02  0.1312668E+00
        -11   -1    0    0    0    0  0.00000000000E+00  0.00000000000E+00  0.45593999997E+02  0.45594000000E+02  0.51100000000E-03 0.  1.
         11   -1    0    0    0    0 -0.00000000000E+00 -0.00000000000E+00 -0.45593999997E+02  0.45594000000E+02  0.51100000000E-03 0. -1.
    9900012    2    1    2    0    0  0.30206593014E+02 -0.65524018517E+01  0.30467214416E+02  0.47787269755E+02  0.19999994120E+02 0.  0.
         12    1    1    2    0    0 -0.30206593014E+02  0.65524018517E+01 -0.30467214416E+02  0.43400730245E+02  0.00000000000E+00 0. -1.
         11    1    3    3    0    0  0.20107596193E+02 -0.20537507488E+01  0.26287262879E+02  0.33159516081E+02  0.51100000000E-03 0. -1.
        -11    1    3    3    0    0  0.56074722773E+01 -0.57569631009E+01  0.55494492846E+01  0.97664096325E+01  0.51100000000E-03 0.  1.
         12    1    3    3    0    0  0.44915245439E+01  0.12583119980E+01 -0.13694977472E+01  0.48613440418E+01  0.00000000000E+00 0. -1.
</event>
<event>
 7    1  0.5426550E-010  0.4778727E+02  0.7816164E-02  0.1312668E+00
        -11   -1    0    0    0    0  0.00000000000E+00  0.00000000000E+00  0.45593999997E+02  0.45594000000E+02  0.51100000000E-03 0.  1.
         11   -1    0    0    0    0 -0.00000000000E+00 -0.00000000000E+00 -0.45593999997E+02  0.45594000000E+02  0.51100000000E-03 0. -1.
    9900012    2    1    2    0    0 -0.36473702344E+02  0.23516029725E+02 -0.53731053062E+00  0.47787270521E+02  0.19999997614E+02 0.  0.
         12    1    1    2    0    0  0.36473702344E+02 -0.23516029725E+02  0.53731053062E+00  0.43400729479E+02  0.00000000000E+00 0. -1.
         11    1    3    3    0    0 -0.56720786968E+01  0.34231625811E+01 -0.76382092446E+01  0.10111021685E+02  0.51100000000E-03 0. -1.
        -11    1    3    3    0    0 -0.13277091576E+02  0.10314985373E+02  0.47502165489E+01  0.17471251858E+02  0.51100000000E-03 0.  1.
        -12    1    3    3    0    0 -0.17524532071E+02  0.97778817709E+01  0.23506821651E+01  0.20204996978E+02  0.00000000000E+00 0.  1.
</event>
<event>
 7    1  0.5426550E-010  0.4778727E+02  0.7816164E-02  0.1312668E+00
        -11   -1    0    0    0    0  0.00000000000E+00  0.00000000000E+00  0.45593999997E+02  0.45594000000E+02  0.51100000000E-03 0.  1.
         11   -1    0    0    0    0 -0.00000000000E+00 -0.00000000000E+00 -0.45593999997E+02  0.45594000000E+02  0.51100000000E-03 0. -1.
    9900012    2    1    2    0    0 -0.38514478575E+02 -0.17179728972E+02 -0.10252564676E+02  0.47787271551E+02  0.20000002310E+02 0.  0.
         12    1    1    2    0    0  0.38514478575E+02  0.17179728972E+02  0.10252564676E+02  0.43400728449E+02  0.00000000000E+00 0. -1.
         11    1    3    3    0    0 -0.33516397546E+02 -0.18608785900E+02 -0.28309399712E+01  0.38440213820E+02  0.51100000000E-03 0.  1.
        -11    1    3    3    0    0 -0.42194530628E+01  0.21325640020E+00 -0.52412286710E+01  0.67319938119E+01  0.51100000000E-03 0. -1.
        -12    1    3    3    0    0 -0.77862796625E+00  0.12158005285E+01 -0.21803960338E+01  0.26150639188E+01  0.00000000000E+00 0.  1.
</event>
<event>
 7    1  0.5426550E-010  0.4778728E+02  0.7816164E-02  0.1312668E+00
        -11   -1    0    0    0    0  0.00000000000E+00  0.00000000000E+00  0.45593999997E+02  0.45594000000E+02  0.51100000000E-03 0. -1.
         11   -1    0    0    0    0 -0.00000000000E+00 -0.00000000000E+00 -0.45593999997E+02  0.45594000000E+02  0.51100000000E-03 0.  1.
    9900012    2    1    2    0    0 -0.55035362565E+01  0.39441332719E+02 -0.17254427623E+02  0.47787275230E+02  0.20000019083E+02 0.  0.
         12    1    1    2    0    0  0.55035362565E+01 -0.39441332719E+02  0.17254427623E+02  0.43400724770E+02  0.00000000000E+00 0. -1.
         11    1    3    3    0    0 -0.37290565473E+01  0.31335934304E+02 -0.17872491964E+02  0.36266687341E+02  0.51100000000E-03 0.  1.
        -11    1    3    3    0    0 -0.47650712086E+01  0.33272605541E+01  0.87813081956E+00  0.58777274873E+01  0.51100000000E-03 0. -1.
        -12    1    3    3    0    0  0.29905914994E+01  0.47781378613E+01 -0.26006647845E+00  0.56428604015E+01  0.00000000000E+00 0.  1.
</event>
<event>
 7    1  0.5426550E-010  0.4778727E+02  0.7816164E-02  0.1312668E+00
        -11   -1    0    0    0    0  0.00000000000E+00  0.00000000000E+00  0.45593999997E+02  0.45594000000E+02  0.51100000000E-03 0. -1.
         11   -1    0    0    0    0 -0.00000000000E+00 -0.00000000000E+00 -0.45593999997E+02  0.45594000000E+02  0.51100000000E-03 0.  1.
    9900012    2    1    2    0    0  0.13994435869E+01 -0.17330652882E+02 -0.39765729386E+02  0.47787271835E+02  0.20000003606E+02 0.  0.
         12    1    1    2    0    0 -0.13994435869E+01  0.17330652882E+02  0.39765729386E+02  0.43400728165E+02  0.00000000000E+00 0. -1.
         11    1    3    3    0    0  0.18236767381E+01 -0.14383633114E+02 -0.22349687236E+02  0.26640630965E+02  0.51100000000E-03 0. -1.
        -11    1    3    3    0    0 -0.21537346232E+01  0.25602862968E+01 -0.64146454944E+00  0.34066282125E+01  0.51100000000E-03 0.  1.
        -12    1    3    3    0    0  0.17295014720E+01 -0.55073060642E+01 -0.16774577600E+02  0.17740012658E+02  0.00000000000E+00 0.  1.
</event>
<event>
 7    1  0.5426550E-010  0.4778727E+02  0.7816164E-02  0.1312668E+00
        -11   -1    0    0    0    0  0.00000000000E+00  0.00000000000E+00  0.45593999997E+02  0.45594000000E+02  0.51100000000E-03 0.  1.
         11   -1    0    0    0    0 -0.00000000000E+00 -0.00000000000E+00 -0.45593999997E+02  0.45594000000E+02  0.51100000000E-03 0. -1.
    9900012    2    1    2    0    0 -0.19925412360E+02  0.37382392436E+02  0.94423615466E+01  0.47787268283E+02  0.19999987409E+02 0.  0.
         12    1    1    2    0    0  0.19925412360E+02 -0.37382392436E+02 -0.94423615466E+01  0.43400731717E+02  0.00000000000E+00 0. -1.
         11    1    3    3    0    0  0.19114634567E+01  0.49386945085E+01  0.91751773232E-01  0.52964907858E+01  0.51100000000E-03 0. -1.
        -11    1    3    3    0    0 -0.21489955565E+02  0.21169752370E+02  0.70698668676E+01  0.30983215188E+02  0.51100000000E-03 0.  1.
        -12    1    3    3    0    0 -0.34692025254E+00  0.11273945558E+02  0.22807429058E+01  0.11507562309E+02  0.00000000000E+00 0.  1.
</event>
<event>
 7    1  0.5426550E-010  0.4778727E+02  0.7816164E-02  0.1312668E+00
        -11   -1    0    0    0    0  0.00000000000E+00  0.00000000000E+00  0.45593999997E+02  0.45594000000E+02  0.51100000000E-03 0.  1.
         11   -1    0    0    0    0 -0.00000000000E+00 -0.00000000000E+00 -0.45593999997E+02  0.45594000000E+02  0.51100000000E-03 0. -1.
    9900012    2    1    2    0    0 -0.39273171781E+02 -0.18472103331E+02 -0.15047931087E+00  0.47787271121E+02  0.20000000348E+02 0.  0.
         12    1    1    2    0    0  0.39273171781E+02  0.18472103331E+02  0.15047931087E+00  0.43400728879E+02  0.00000000000E+00 0. -1.
         11    1    3    3    0    0  0.14533572185E+01  0.61456001633E+00  0.90505923046E+00  0.18190832004E+01  0.51100000000E-03 0. -1.
        -11    1    3    3    0    0 -0.31871439321E+02 -0.15415150245E+02 -0.46969089661E+01  0.35713813232E+02  0.51100000000E-03 0.  1.
         12    1    3    3    0    0 -0.88550896792E+01 -0.36715131022E+01  0.36413704248E+01  0.10254374689E+02  0.00000000000E+00 0. -1.
</event>
<event>
 7    1  0.5426550E-010  0.4778727E+02  0.7816164E-02  0.1312668E+00
        -11   -1    0    0    0    0  0.00000000000E+00  0.00000000000E+00  0.45593999997E+02  0.45594000000E+02  0.51100000000E-03 0. -1.
         11   -1    0    0    0    0 -0.00000000000E+00 -0.00000000000E+00 -0.45593999997E+02  0.45594000000E+02  0.51100000000E-03 0.  1.
    9900012    2    1    2    0    0  0.27740003821E+02  0.30769752245E+02  0.12935931835E+02  0.47787265011E+02  0.19999972491E+02 0.  0.
         12    1    1    2    0    0 -0.27740003821E+02 -0.30769752245E+02 -0.12935931835E+02  0.43400734989E+02  0.00000000000E+00 0. -1.
         11    1    3    3    0    0  0.35415036300E+01  0.11327539522E+02  0.32443138895E+01  0.12303697511E+02  0.51100000000E-03 0. -1.
        -11    1    3    3    0    0  0.96690670395E+01 -0.22401299033E+00  0.31624795511E+01  0.10175574500E+02  0.51100000000E-03 0.  1.
        -12    1    3    3    0    0  0.14529433151E+02  0.19666225713E+02  0.65291383943E+01  0.25307993000E+02  0.00000000000E+00 0.  1.
</event>
<event>
 7    1  0.5426550E-010  0.4778727E+02  0.7816164E-02  0.1312668E+00
        -11   -1    0    0    0    0  0.00000000000E+00  0.00000000000E+00  0.45593999997E+02  0.45594000000E+02  0.51100000000E-03 0. -1.
         11   -1    0    0    0    0 -0.00000000000E+00 -0.00000000000E+00 -0.45593999997E+02  0.45594000000E+02  0.51100000000E-03 0.  1.
    9900012    2    1    2    0    0 -0.34226351103E+02  0.69692092361E+01 -0.25760631161E+02  0.47787272990E+02  0.20000008872E+02 0.  0.
         12    1    1    2    0    0  0.34226351103E+02 -0.69692092361E+01  0.25760631161E+02  0.43400727010E+02  0.00000000000E+00 0. -1.
         11    1    3    3    0    0 -0.14284605633E+01 -0.13942312111E+01 -0.36820161701E+01  0.41882721483E+01  0.51100000000E-03 0. -1.
        -11    1    3    3    0    0 -0.12214101341E+02 -0.34608752632E+01 -0.27560099322E+01  0.12990670505E+02  0.51100000000E-03 0.  1.
        -12    1    3    3    0    0 -0.20583789198E+02  0.11824315710E+02 -0.19322605059E+02  0.30608330337E+02  0.00000000000E+00 0.  1.
</event>
<event>
 7    1  0.5426550E-010  0.4778727E+02  0.7816164E-02  0.1312668E+00
        -11   -1    0    0    0    0  0.00000000000E+00  0.00000000000E+00  0.45593999997E+02  0.45594000000E+02  0.51100000000E-03 0.  1.
         11   -1    0    0    0    0 -0.00000000000E+00 -0.00000000000E+00 -0.45593999997E+02  0.45594000000E+02  0.51100000000E-03 0. -1.
    9900012    2    1    2    0    0  0.25551864223E+02 -0.69121561989E+01  0.34394004860E+02  0.47787271447E+02  0.20000001837E+02 0.  0.
         12    1    1    2    0    0 -0.25551864223E+02  0.69121561989E+01 -0.34394004860E+02  0.43400728553E+02  0.00000000000E+00 0. -1.
         11    1    3    3    0    0  0.10429244591E+02  0.66753806720E+01  0.11053465286E+02  0.16598462126E+02  0.51100000000E-03 0. -1.
        -11    1    3    3    0    0  0.11993266413E+02 -0.11443818578E+02  0.20909459536E+02  0.26683420344E+02  0.51100000000E-03 0.  1.
        -12    1    3    3    0    0  0.31293532185E+01 -0.21437182927E+01  0.24310800390E+01  0.45053889777E+01  0.00000000000E+00 0.  1.
</event>
<event>
 7    1  0.5426550E-010  0.4778728E+02  0.7816164E-02  0.1312668E+00
        -11   -1    0    0    0    0  0.00000000000E+00  0.00000000000E+00  0.45593999997E+02  0.45594000000E+02  0.51100000000E-03 0. -1.
         11   -1    0    0    0    0 -0.00000000000E+00 -0.00000000000E+00 -0.45593999997E+02  0.45594000000E+02  0.51100000000E-03 0.  1.
    9900012    2    1    2    0    0  0.14999019983E+02 -0.22963034388E+02 -0.33635559661E+02  0.47787280853E+02  0.20000044722E+02 0.  0.
         12    1    1    2    0    0 -0.14999019983E+02  0.22963034388E+02  0.33635559661E+02  0.43400719147E+02  0.00000000000E+00 0. -1.
         11    1    3    3    0    0  0.61255533376E+01 -0.48910519663E+01 -0.21947792399E+02  0.23305586980E+02  0.51100000000E-03 0. -1.
        -11    1    3    3    0    0  0.58779944853E+01 -0.79184858879E+01 -0.18572816651E+01  0.10035075155E+02  0.51100000000E-03 0.  1.
        -12    1    3    3    0    0  0.29954721605E+01 -0.10153496534E+02 -0.98304855969E+01  0.14446618718E+02  0.00000000000E+00 0.  1.
</event>
<event>
 7    1  0.5426550E-010  0.4778727E+02  0.7816164E-02  0.1312668E+00
        -11   -1    0    0    0    0  0.00000000000E+00  0.00000000000E+00  0.45593999997E+02  0.45594000000E+02  0.51100000000E-03 0.  1.
         11   -1    0    0    0    0 -0.00000000000E+00 -0.00000000000E+00 -0.45593999997E+02  0.45594000000E+02  0.51100000000E-03 0. -1.
    9900012    2    1    2    0    0  0.16233744559E+02 -0.27908321649E+02  0.29003700335E+02  0.47787268292E+02  0.19999987451E+02 0.  0.
         12    1    1    2    0    0 -0.16233744559E+02  0.27908321649E+02 -0.29003700335E+02  0.43400731708E+02  0.00000000000E+00 0. -1.
         11    1    3    3    0    0 -0.26037262402E+01 -0.80037760168E+01  0.99409752983E+01  0.13025467784E+02  0.51100000000E-03 0. -1.
        -11    1    3    3    0    0  0.14975848928E+02 -0.94432619608E+01  0.96182671692E+01  0.20148506425E+02  0.51100000000E-03 0.  1.
        -12    1    3    3    0    0  0.38616218715E+01 -0.10461283671E+02  0.94444578671E+01  0.14613294082E+02  0.00000000000E+00 0.  1.
</event>
<event>
 7    1  0.5426550E-010  0.4778726E+02  0.7816164E-02  0.1312668E+00
        -11   -1    0    0    0    0  0.00000000000E+00  0.00000000000E+00  0.45593999997E+02  0.45594000000E+02  0.51100000000E-03 0. -1.
         11   -1    0    0    0    0 -0.00000000000E+00 -0.00000000000E+00 -0.45593999997E+02  0.45594000000E+02  0.51100000000E-03 0.  1.
    9900012    2    1    2    0    0  0.10401226917E+02 -0.33350021678E+02 -0.25752951532E+02  0.47787262910E+02  0.19999962914E+02 0.  0.
         12    1    1    2    0    0 -0.10401226917E+02  0.33350021678E+02  0.25752951532E+02  0.43400737090E+02  0.00000000000E+00 0. -1.
         11    1    3    3    0    0  0.65613156297E+01 -0.49584584905E+01 -0.61588270846E+01  0.10274644749E+02  0.51100000000E-03 0. -1.
        -11    1    3    3    0    0  0.22395223928E+01 -0.75122835204E+01 -0.13656742540E+02  0.15746633968E+02  0.51100000000E-03 0.  1.
        -12    1    3    3    0    0  0.16003888943E+01 -0.20879279667E+02 -0.59373819076E+01  0.21765984194E+02  0.00000000000E+00 0.  1.
</event>
<event>
 7    1  0.5426550E-010  0.4778726E+02  0.7816164E-02  0.1312668E+00
        -11   -1    0    0    0    0  0.00000000000E+00  0.00000000000E+00  0.45593999997E+02  0.45594000000E+02  0.51100000000E-03 0.  1.
         11   -1    0    0    0    0 -0.00000000000E+00 -0.00000000000E+00 -0.45593999997E+02  0.45594000000E+02  0.51100000000E-03 0. -1.
    9900012    2    1    2    0    0 -0.11813190880E+02  0.28412522409E+02  0.30607209072E+02  0.47787260886E+02  0.19999953685E+02 0.  0.
         12    1    1    2    0    0  0.11813190880E+02 -0.28412522409E+02 -0.30607209072E+02  0.43400739114E+02  0.00000000000E+00 0. -1.
         11    1    3    3    0    0 -0.65204333240E+01  0.43415502487E+01  0.17554210389E+02  0.19222783668E+02  0.51100000000E-03 0. -1.
        -11    1    3    3    0    0 -0.38693469789E+01  0.19298657548E+02  0.12992181470E+02  0.23584037161E+02  0.51100000000E-03 0.  1.
        -12    1    3    3    0    0 -0.14234105770E+01  0.47723146127E+01  0.60817212989E-01  0.49804400575E+01  0.00000000000E+00 0.  1.
</event>
<event>
 7    1  0.5426550E-010  0.4778727E+02  0.7816164E-02  0.1312668E+00
        -11   -1    0    0    0    0  0.00000000000E+00  0.00000000000E+00  0.45593999997E+02  0.45594000000E+02  0.51100000000E-03 0.  1.
         11   -1    0    0    0    0 -0.00000000000E+00 -0.00000000000E+00 -0.45593999997E+02  0.45594000000E+02  0.51100000000E-03 0. -1.
    9900012    2    1    2    0    0 -0.74719007402E+01 -0.36627796569E+02  0.22049918728E+02  0.47787266157E+02  0.19999977717E+02 0.  0.
         12    1    1    2    0    0  0.74719007402E+01  0.36627796569E+02 -0.22049918728E+02  0.43400733843E+02  0.00000000000E+00 0. -1.
         11    1    3    3    0    0 -0.54644089054E+01 -0.11326851748E+01  0.11356081730E+01  0.56949404364E+01  0.51100000000E-03 0. -1.
        -11    1    3    3    0    0  0.20332967600E+01 -0.22435142280E+02  0.10227261816E+02  0.24739983617E+02  0.51100000000E-03 0.  1.
        -12    1    3    3    0    0 -0.40407885948E+01 -0.13059969114E+02  0.10687048740E+02  0.17352342104E+02  0.00000000000E+00 0.  1.
</event>
<event>
 7    1  0.5426550E-010  0.4778727E+02  0.7816164E-02  0.1312668E+00
        -11   -1    0    0    0    0  0.00000000000E+00  0.00000000000E+00  0.45593999997E+02  0.45594000000E+02  0.51100000000E-03 0. -1.
         11   -1    0    0    0    0 -0.00000000000E+00 -0.00000000000E+00 -0.45593999997E+02  0.45594000000E+02  0.51100000000E-03 0.  1.
    9900012    2    1    2    0    0 -0.17519347061E+01  0.15250002553E+02 -0.40595464534E+02  0.47787267358E+02  0.19999983192E+02 0.  0.
         12    1    1    2    0    0  0.17519347061E+01 -0.15250002553E+02  0.40595464534E+02  0.43400732642E+02  0.00000000000E+00 0. -1.
         11    1    3    3    0    0 -0.55873776724E+01  0.53833452379E+01 -0.51560889175E+01  0.93158171081E+01  0.51100000000E-03 0. -1.
        -11    1    3    3    0    0  0.12837911988E+01  0.54541093509E+01 -0.31592493738E+02  0.32085527727E+02  0.51100000000E-03 0.  1.
         12    1    3    3    0    0  0.25516517675E+01  0.44125479646E+01 -0.38468818786E+01  0.63859225230E+01  0.00000000000E+00 0. -1.
</event>
<event>
 7    1  0.5426550E-010  0.4778727E+02  0.7816164E-02  0.1312668E+00
        -11   -1    0    0    0    0  0.00000000000E+00  0.00000000000E+00  0.45593999997E+02  0.45594000000E+02  0.51100000000E-03 0. -1.
         11   -1    0    0    0    0 -0.00000000000E+00 -0.00000000000E+00 -0.45593999997E+02  0.45594000000E+02  0.51100000000E-03 0.  1.
    9900012    2    1    2    0    0 -0.13138268606E+02 -0.39769760458E+02  0.11374347311E+02  0.47787265840E+02  0.19999976271E+02 0.  0.
         12    1    1    2    0    0  0.13138268606E+02  0.39769760458E+02 -0.11374347311E+02  0.43400734160E+02  0.00000000000E+00 0. -1.
         11    1    3    3    0    0  0.40906804838E+00  0.37799756061E+00 -0.28802550139E+01  0.29336134766E+01  0.51100000000E-03 0. -1.
        -11    1    3    3    0    0 -0.13254591782E+02 -0.35972268033E+02  0.13075210417E+02  0.40504930545E+02  0.51100000000E-03 0.  1.
        -12    1    3    3    0    0 -0.29274487265E+00 -0.41754899858E+01  0.11793919077E+01  0.43487218184E+01  0.00000000000E+00 0.  1.
</event>
<event>
 7    1  0.5426550E-010  0.4778727E+02  0.7816164E-02  0.1312668E+00
        -11   -1    0    0    0    0  0.00000000000E+00  0.00000000000E+00  0.45593999997E+02  0.45594000000E+02  0.51100000000E-03 0. -1.
         11   -1    0    0    0    0 -0.00000000000E+00 -0.00000000000E+00 -0.45593999997E+02  0.45594000000E+02  0.51100000000E-03 0.  1.
    9900012    2    1    2    0    0 -0.25273432710E+02 -0.27198879370E+02 -0.22474383869E+02  0.47787269934E+02  0.19999994938E+02 0.  0.
         12    1    1    2    0    0  0.25273432710E+02  0.27198879370E+02  0.22474383869E+02  0.43400730066E+02  0.00000000000E+00 0. -1.
         11    1    3    3    0    0 -0.80244394616E+01 -0.48775857294E+01 -0.71853336031E+01  0.11824190901E+02  0.51100000000E-03 0. -1.
        -11    1    3    3    0    0  0.23033792940E+01 -0.20255359806E+01  0.12208416600E+01  0.33013340941E+01  0.51100000000E-03 0.  1.
        -12    1    3    3    0    0 -0.19552372542E+02 -0.20295757660E+02 -0.16509891926E+02  0.32661744939E+02  0.00000000000E+00 0.  1.
</event>
<event>
 7    1  0.5426550E-010  0.4778727E+02  0.7816164E-02  0.1312668E+00
        -11   -1    0    0    0    0  0.00000000000E+00  0.00000000000E+00  0.45593999997E+02  0.45594000000E+02  0.51100000000E-03 0.  1.
         11   -1    0    0    0    0 -0.00000000000E+00 -0.00000000000E+00 -0.45593999997E+02  0.45594000000E+02  0.51100000000E-03 0. -1.
    9900012    2    1    2    0    0 -0.13504279733E+02 -0.39394880950E+02  0.12218885549E+02  0.47787269820E+02  0.19999994415E+02 0.  0.
         12    1    1    2    0    0  0.13504279733E+02  0.39394880950E+02 -0.12218885549E+02  0.43400730180E+02  0.00000000000E+00 0. -1.
         11    1    3    3    0    0 -0.84626034203E+01 -0.93960212195E+01 -0.90130537713E+00  0.12677271909E+02  0.51100000000E-03 0. -1.
        -11    1    3    3    0    0 -0.71264353256E+01 -0.28551990822E+02  0.99833551926E+01  0.31075225526E+02  0.51100000000E-03 0.  1.
        -12    1    3    3    0    0  0.20847590129E+01 -0.14468689085E+01  0.31368357330E+01  0.40347723847E+01  0.00000000000E+00 0.  1.
</event>
<event>
 7    1  0.5426550E-010  0.4778727E+02  0.7816164E-02  0.1312668E+00
        -11   -1    0    0    0    0  0.00000000000E+00  0.00000000000E+00  0.45593999997E+02  0.45594000000E+02  0.51100000000E-03 0.  1.
         11   -1    0    0    0    0 -0.00000000000E+00 -0.00000000000E+00 -0.45593999997E+02  0.45594000000E+02  0.51100000000E-03 0. -1.
    9900012    2    1    2    0    0  0.40445888427E+02  0.13565179048E+02 -0.79836808658E+01  0.47787272663E+02  0.20000007379E+02 0.  0.
         12    1    1    2    0    0 -0.40445888427E+02 -0.13565179048E+02  0.79836808658E+01  0.43400727337E+02  0.00000000000E+00 0. -1.
         11    1    3    3    0    0  0.33754211067E+01  0.46560059302E+01 -0.67615447733E+01  0.88763926711E+01  0.51100000000E-03 0. -1.
        -11    1    3    3    0    0  0.17778069438E+02  0.14548536840E+01  0.21095485018E+01  0.17961808019E+02  0.51100000000E-03 0.  1.
        -12    1    3    3    0    0  0.19292397882E+02  0.74543194339E+01 -0.33316845943E+01  0.20949071973E+02  0.00000000000E+00 0.  1.
</event>
<event>
 7    1  0.5426550E-010  0.4778727E+02  0.7816164E-02  0.1312668E+00
        -11   -1    0    0    0    0  0.00000000000E+00  0.00000000000E+00  0.45593999997E+02  0.45594000000E+02  0.51100000000E-03 0.  1.
         11   -1    0    0    0    0 -0.00000000000E+00 -0.00000000000E+00 -0.45593999997E+02  0.45594000000E+02  0.51100000000E-03 0. -1.
    9900012    2    1    2    0    0 -0.21499279978E+02  0.22206051216E+02  0.30467943170E+02  0.47787270614E+02  0.19999998038E+02 0.  0.
         12    1    1    2    0    0  0.21499279978E+02 -0.22206051216E+02 -0.30467943170E+02  0.43400729386E+02  0.00000000000E+00 0. -1.
         11    1    3    3    0    0 -0.44376415472E+01 -0.85346590237E+00 -0.24834505244E-01  0.45190356894E+01  0.51100000000E-03 0. -1.
        -11    1    3    3    0    0 -0.16364147736E+02  0.23372514561E+02  0.25652932612E+02  0.38368381774E+02  0.51100000000E-03 0.  1.
        -12    1    3    3    0    0 -0.69749069493E+00 -0.31299744298E+00  0.48398450629E+01  0.48998531511E+01  0.00000000000E+00 0.  1.
</event>
<event>
 7    1  0.5426550E-010  0.4778727E+02  0.7816164E-02  0.1312668E+00
        -11   -1    0    0    0    0  0.00000000000E+00  0.00000000000E+00  0.45593999997E+02  0.45594000000E+02  0.51100000000E-03 0. -1.
         11   -1    0    0    0    0 -0.00000000000E+00 -0.00000000000E+00 -0.45593999997E+02  0.45594000000E+02  0.51100000000E-03 0.  1.
    9900012    2    1    2    0    0 -0.33079159045E+02 -0.65396344168E+01 -0.27324448476E+02  0.47787273440E+02  0.20000010921E+02 0.  0.
         12    1    1    2    0    0  0.33079159045E+02  0.65396344168E+01  0.27324448476E+02  0.43400726560E+02  0.00000000000E+00 0. -1.
         11    1    3    3    0    0 -0.59101891643E+01  0.48340574514E+01 -0.16710866217E+01  0.78160717857E+01  0.51100000000E-03 0. -1.
        -11    1    3    3    0    0 -0.11968428867E+02 -0.96122875104E+01 -0.12790002263E+02  0.19980578542E+02  0.51100000000E-03 0.  1.
         12    1    3    3    0    0 -0.15200541013E+02 -0.17614043578E+01 -0.12863359591E+02  0.19990623112E+02  0.00000000000E+00 0. -1.
</event>
<event>
 7    1  0.5426550E-010  0.4778727E+02  0.7816164E-02  0.1312668E+00
        -11   -1    0    0    0    0  0.00000000000E+00  0.00000000000E+00  0.45593999997E+02  0.45594000000E+02  0.51100000000E-03 0.  1.
         11   -1    0    0    0    0 -0.00000000000E+00 -0.00000000000E+00 -0.45593999997E+02  0.45594000000E+02  0.51100000000E-03 0. -1.
    9900012    2    1    2    0    0  0.21638042765E+01 -0.93415739566E+01  0.42328195064E+02  0.47787272468E+02  0.20000006488E+02 0.  0.
         12    1    1    2    0    0 -0.21638042765E+01  0.93415739566E+01 -0.42328195064E+02  0.43400727532E+02  0.00000000000E+00 0. -1.
         11    1    3    3    0    0  0.96886413910E+00 -0.13901370049E+02  0.30445391473E+02  0.33482960580E+02  0.51100000000E-03 0. -1.
        -11    1    3    3    0    0  0.33575916215E+01  0.18091534130E+01  0.33288358359E+01  0.50623715640E+01  0.51100000000E-03 0.  1.
         12    1    3    3    0    0 -0.21626514841E+01  0.27506426793E+01  0.85539677552E+01  0.92419403237E+01  0.00000000000E+00 0. -1.
</event>
<event>
 7    1  0.5426550E-010  0.4778731E+02  0.7816164E-02  0.1312668E+00
        -11   -1    0    0    0    0  0.00000000000E+00  0.00000000000E+00  0.45593999997E+02  0.45594000000E+02  0.51100000000E-03 0.  1.
         11   -1    0    0    0    0 -0.00000000000E+00 -0.00000000000E+00 -0.45593999997E+02  0.45594000000E+02  0.51100000000E-03 0. -1.
    9900012    2    1    2    0    0  0.10400770550E+02 -0.41553182354E+02  0.69840536979E+01  0.47787308786E+02  0.20000172077E+02 0.  0.
         12    1    1    2    0    0 -0.10400770550E+02  0.41553182354E+02 -0.69840536979E+01  0.43400691214E+02  0.00000000000E+00 0. -1.
         11    1    3    3    0    0  0.76543204132E+01 -0.12240655353E+02 -0.56339929459E+01  0.15497230115E+02  0.51100000000E-03 0. -1.
        -11    1    3    3    0    0  0.38204157026E+01 -0.21538060751E+02  0.92586893502E+01  0.23753041190E+02  0.51100000000E-03 0.  1.
         12    1    3    3    0    0 -0.10739655656E+01 -0.77744662503E+01  0.33593572936E+01  0.85370374803E+01  0.00000000000E+00 0. -1.
</event>
<event>
 7    1  0.5426550E-010  0.4778727E+02  0.7816164E-02  0.1312668E+00
        -11   -1    0    0    0    0  0.00000000000E+00  0.00000000000E+00  0.45593999997E+02  0.45594000000E+02  0.51100000000E-03 0. -1.
         11   -1    0    0    0    0 -0.00000000000E+00 -0.00000000000E+00 -0.45593999997E+02  0.45594000000E+02  0.51100000000E-03 0.  1.
    9900012    2    1    2    0    0 -0.99575125622E+01  0.40074433697E+02  0.13360800829E+02  0.47787270843E+02  0.19999999083E+02 0.  0.
         12    1    1    2    0    0  0.99575125622E+01 -0.40074433697E+02 -0.13360800829E+02  0.43400729157E+02  0.00000000000E+00 0. -1.
         11    1    3    3    0    0  0.85835622855E+00  0.16688608812E+01  0.63908955187E+01  0.66607370348E+01  0.51100000000E-03 0. -1.
        -11    1    3    3    0    0 -0.84969612968E+01  0.25560931220E+02  0.15106381126E+01  0.26978539321E+02  0.51100000000E-03 0.  1.
         12    1    3    3    0    0 -0.23189074940E+01  0.12844641595E+02  0.54592671976E+01  0.14147994487E+02  0.00000000000E+00 0. -1.
</event>
<event>
 7    1  0.6091585E-010  0.4778725E+02  0.7816164E-02  0.1312668E+00
        -11   -1    0    0    0    0  0.00000000000E+00  0.00000000000E+00  0.45593999997E+02  0.45594000000E+02  0.51100000000E-03 0.  1.
         11   -1    0    0    0    0 -0.00000000000E+00 -0.00000000000E+00 -0.45593999997E+02  0.45594000000E+02  0.51100000000E-03 0. -1.
    9900012    2    1    2    0    0 -0.15262044226E+02 -0.28636342198E+02  0.28821081877E+02  0.47787252898E+02  0.19999917263E+02 0.  0.
         12    1    1    2    0    0  0.15262044226E+02  0.28636342198E+02 -0.28821081877E+02  0.43400747102E+02  0.00000000000E+00 0. -1.
         11    1    3    3    0    0 -0.15348714697E+02 -0.14106917857E+02  0.15753811548E+02  0.26129882373E+02  0.51100000000E-03 0.  1.
        -11    1    3    3    0    0 -0.40353644398E+01 -0.99937891317E+01  0.61242282263E+01  0.12396215511E+02  0.51100000000E-03 0. -1.
         12    1    3    3    0    0  0.41220349104E+01 -0.45356352092E+01  0.69430421027E+01  0.92611550140E+01  0.00000000000E+00 0. -1.
</event>
<event>
 7    1  0.5426550E-010  0.4778728E+02  0.7816164E-02  0.1312668E+00
        -11   -1    0    0    0    0  0.00000000000E+00  0.00000000000E+00  0.45593999997E+02  0.45594000000E+02  0.51100000000E-03 0.  1.
         11   -1    0    0    0    0 -0.00000000000E+00 -0.00000000000E+00 -0.45593999997E+02  0.45594000000E+02  0.51100000000E-03 0. -1.
    9900012    2    1    2    0    0 -0.23128124281E+02  0.23441062958E+02  0.28270631398E+02  0.47787283820E+02  0.20000058247E+02 0.  0.
         12    1    1    2    0    0  0.23128124281E+02 -0.23441062958E+02 -0.28270631398E+02  0.43400716180E+02  0.00000000000E+00 0. -1.
         11    1    3    3    0    0  0.13316154537E+01 -0.60826834608E+00  0.51049996113E+00  0.15504194816E+01  0.51100000000E-03 0. -1.
        -11    1    3    3    0    0 -0.23524965162E+02  0.25244755715E+02  0.23591160586E+02  0.41800293480E+02  0.51100000000E-03 0.  1.
        -12    1    3    3    0    0 -0.93477457260E+00 -0.11954244112E+01  0.41689708505E+01  0.44365708579E+01  0.00000000000E+00 0.  1.
</event>
<event>
 7    1  0.5426550E-010  0.4778727E+02  0.7816164E-02  0.1312668E+00
        -11   -1    0    0    0    0  0.00000000000E+00  0.00000000000E+00  0.45593999997E+02  0.45594000000E+02  0.51100000000E-03 0.  1.
         11   -1    0    0    0    0 -0.00000000000E+00 -0.00000000000E+00 -0.45593999997E+02  0.45594000000E+02  0.51100000000E-03 0. -1.
    9900012    2    1    2    0    0  0.32950961435E+02 -0.27016397354E+02  0.82444998419E+01  0.47787270016E+02  0.19999995311E+02 0.  0.
         12    1    1    2    0    0 -0.32950961435E+02  0.27016397354E+02 -0.82444998419E+01  0.43400729984E+02  0.00000000000E+00 0. -1.
         11    1    3    3    0    0  0.34085938635E+00 -0.60576544362E+01 -0.52952458231E+00  0.60903003977E+01  0.51100000000E-03 0. -1.
        -11    1    3    3    0    0  0.82686695062E+01 -0.42961493234E+01 -0.32124979176E+01  0.98563653313E+01  0.51100000000E-03 0.  1.
        -12    1    3    3    0    0  0.24341432543E+02 -0.16662593594E+02  0.11986522342E+02  0.31840604287E+02  0.00000000000E+00 0.  1.
</event>
<event>
 7    1  0.5426550E-010  0.4778730E+02  0.7816164E-02  0.1312668E+00
        -11   -1    0    0    0    0  0.00000000000E+00  0.00000000000E+00  0.45593999997E+02  0.45594000000E+02  0.51100000000E-03 0.  1.
         11   -1    0    0    0    0 -0.00000000000E+00 -0.00000000000E+00 -0.45593999997E+02  0.45594000000E+02  0.51100000000E-03 0. -1.
    9900012    2    1    2    0    0 -0.32616199511E+02  0.14093197840E+02  0.24923600247E+02  0.47787302480E+02  0.20000143328E+02 0.  0.
         12    1    1    2    0    0  0.32616199511E+02 -0.14093197840E+02 -0.24923600247E+02  0.43400697520E+02  0.00000000000E+00 0. -1.
         11    1    3    3    0    0 -0.14028346861E+01  0.14972957953E+01 -0.11252052139E+01  0.23400698472E+01  0.51100000000E-03 0. -1.
        -11    1    3    3    0    0 -0.86212694990E+00 -0.28628414189E+01  0.34774743722E+01  0.45860606339E+01  0.51100000000E-03 0.  1.
        -12    1    3    3    0    0 -0.30351237875E+02  0.15458743463E+02  0.22571331089E+02  0.40861171999E+02  0.00000000000E+00 0.  1.
</event>
<event>
 7    1  0.5426550E-010  0.4778727E+02  0.7816164E-02  0.1312668E+00
        -11   -1    0    0    0    0  0.00000000000E+00  0.00000000000E+00  0.45593999997E+02  0.45594000000E+02  0.51100000000E-03 0.  1.
         11   -1    0    0    0    0 -0.00000000000E+00 -0.00000000000E+00 -0.45593999997E+02  0.45594000000E+02  0.51100000000E-03 0. -1.
    9900012    2    1    2    0    0  0.68673385648E+01 -0.19641274173E+02  0.38087839828E+02  0.47787268061E+02  0.19999986396E+02 0.  0.
         12    1    1    2    0    0 -0.68673385648E+01  0.19641274173E+02 -0.38087839828E+02  0.43400731939E+02  0.00000000000E+00 0. -1.
         11    1    3    3    0    0  0.88718583461E+01 -0.15850585238E+02  0.14744666551E+02  0.23395643074E+02  0.51100000000E-03 0. -1.
        -11    1    3    3    0    0 -0.72192461430E+00 -0.32693706499E+01  0.51300716415E+01  0.61259770570E+01  0.51100000000E-03 0.  1.
         12    1    3    3    0    0 -0.12825951670E+01 -0.52131828602E+00  0.18213101635E+02  0.18265647929E+02  0.00000000000E+00 0. -1.
</event>
<event>
 7    1  0.5426550E-010  0.4778727E+02  0.7816164E-02  0.1312668E+00
        -11   -1    0    0    0    0  0.00000000000E+00  0.00000000000E+00  0.45593999997E+02  0.45594000000E+02  0.51100000000E-03 0.  1.
         11   -1    0    0    0    0 -0.00000000000E+00 -0.00000000000E+00 -0.45593999997E+02  0.45594000000E+02  0.51100000000E-03 0. -1.
    9900012    2    1    2    0    0  0.43112009869E+02  0.40052072764E+01 -0.29892989840E+01  0.47787274330E+02  0.20000014979E+02 0.  0.
         12    1    1    2    0    0 -0.43112009869E+02 -0.40052072764E+01  0.29892989840E+01  0.43400725670E+02  0.00000000000E+00 0. -1.
         11    1    3    3    0    0  0.12022408961E+02  0.10975014028E+01 -0.80858689663E+01  0.14530110246E+02  0.51100000000E-03 0. -1.
        -11    1    3    3    0    0  0.12312670851E+02  0.24430341807E+01  0.70097423969E+01  0.14377300450E+02  0.51100000000E-03 0.  1.
        -12    1    3    3    0    0  0.18776930058E+02  0.46467169293E+00 -0.19131724146E+01  0.18879863635E+02  0.00000000000E+00 0.  1.
</event>
<event>
 7    1  0.5426550E-010  0.4778727E+02  0.7816164E-02  0.1312668E+00
        -11   -1    0    0    0    0  0.00000000000E+00  0.00000000000E+00  0.45593999997E+02  0.45594000000E+02  0.51100000000E-03 0.  1.
         11   -1    0    0    0    0 -0.00000000000E+00 -0.00000000000E+00 -0.45593999997E+02  0.45594000000E+02  0.51100000000E-03 0. -1.
    9900012    2    1    2    0    0  0.63763857592E+01 -0.36984140668E+02  0.21797662377E+02  0.47787273723E+02  0.20000012210E+02 0.  0.
         12    1    1    2    0    0 -0.63763857592E+01  0.36984140668E+02 -0.21797662377E+02  0.43400726277E+02  0.00000000000E+00 0. -1.
         11    1    3    3    0    0  0.13993560780E+01 -0.28397150048E+02  0.99127156176E+01  0.30110102282E+02  0.51100000000E-03 0. -1.
        -11    1    3    3    0    0  0.36024826231E+00 -0.55893403589E+01  0.10654126302E+02  0.12036648702E+02  0.51100000000E-03 0.  1.
         12    1    3    3    0    0  0.46167814189E+01 -0.29976502614E+01  0.12308204572E+01  0.56405227380E+01  0.00000000000E+00 0. -1.
</event>
<event>
 7    1  0.5426550E-010  0.4778728E+02  0.7816164E-02  0.1312668E+00
        -11   -1    0    0    0    0  0.00000000000E+00  0.00000000000E+00  0.45593999997E+02  0.45594000000E+02  0.51100000000E-03 0.  1.
         11   -1    0    0    0    0 -0.00000000000E+00 -0.00000000000E+00 -0.45593999997E+02  0.45594000000E+02  0.51100000000E-03 0. -1.
    9900012    2    1    2    0    0  0.33579312902E+02 -0.26780949336E+02 -0.62316054702E+01  0.47787281008E+02  0.20000045426E+02 0.  0.
         12    1    1    2    0    0 -0.33579312902E+02  0.26780949336E+02  0.62316054702E+01  0.43400718992E+02  0.00000000000E+00 0. -1.
         11    1    3    3    0    0  0.14444998522E+02 -0.57373915144E+01 -0.10863828606E+02  0.18963080338E+02  0.51100000000E-03 0. -1.
        -11    1    3    3    0    0  0.94344826873E+01 -0.99543304515E+01  0.20718382696E+01  0.13870496472E+02  0.51100000000E-03 0.  1.
         12    1    3    3    0    0  0.96998316935E+01 -0.11089227370E+02  0.25603848664E+01  0.14953704197E+02  0.00000000000E+00 0. -1.
</event>
<event>
 7    1  0.5426550E-010  0.4778727E+02  0.7816164E-02  0.1312668E+00
        -11   -1    0    0    0    0  0.00000000000E+00  0.00000000000E+00  0.45593999997E+02  0.45594000000E+02  0.51100000000E-03 0. -1.
         11   -1    0    0    0    0 -0.00000000000E+00 -0.00000000000E+00 -0.45593999997E+02  0.45594000000E+02  0.51100000000E-03 0.  1.
    9900012    2    1    2    0    0  0.28559923661E+02 -0.25905404193E+01 -0.32576725810E+02  0.47787271853E+02  0.20000003686E+02 0.  0.
         12    1    1    2    0    0 -0.28559923661E+02  0.25905404193E+01  0.32576725810E+02  0.43400728147E+02  0.00000000000E+00 0. -1.
         11    1    3    3    0    0  0.17485323814E+02 -0.29365436159E+01 -0.30390012943E+02  0.35183983917E+02  0.51100000000E-03 0. -1.
        -11    1    3    3    0    0  0.49059177331E+01 -0.71993600178E+00 -0.36711705723E+01  0.61695891503E+01  0.51100000000E-03 0.  1.
         12    1    3    3    0    0  0.61686821133E+01  0.10659391983E+01  0.14844577051E+01  0.64336987859E+01  0.00000000000E+00 0. -1.
</event>
<event>
 7    1  0.5426550E-010  0.4778727E+02  0.7816164E-02  0.1312668E+00
        -11   -1    0    0    0    0  0.00000000000E+00  0.00000000000E+00  0.45593999997E+02  0.45594000000E+02  0.51100000000E-03 0.  1.
         11   -1    0    0    0    0 -0.00000000000E+00 -0.00000000000E+00 -0.45593999997E+02  0.45594000000E+02  0.51100000000E-03 0. -1.
    9900012    2    1    2    0    0 -0.39877293640E+02  0.10499548263E+02  0.13534563264E+02  0.47787268848E+02  0.19999989987E+02 0.  0.
         12    1    1    2    0    0  0.39877293640E+02 -0.10499548263E+02 -0.13534563264E+02  0.43400731152E+02  0.00000000000E+00 0. -1.
         11    1    3    3    0    0 -0.89182353976E+01  0.13028014608E+00 -0.31391705088E+01  0.94554897953E+01  0.51100000000E-03 0. -1.
        -11    1    3    3    0    0 -0.11230746943E+02  0.81973988800E+01  0.10882571682E+02  0.17656652909E+02  0.51100000000E-03 0.  1.
        -12    1    3    3    0    0 -0.19728311299E+02  0.21718692366E+01  0.57911620910E+01  0.20675126144E+02  0.00000000000E+00 0.  1.
</event>
<event>
 7    1  0.5426550E-010  0.4778727E+02  0.7816164E-02  0.1312668E+00
        -11   -1    0    0    0    0  0.00000000000E+00  0.00000000000E+00  0.45593999997E+02  0.45594000000E+02  0.51100000000E-03 0. -1.
         11   -1    0    0    0    0 -0.00000000000E+00 -0.00000000000E+00 -0.45593999997E+02  0.45594000000E+02  0.51100000000E-03 0.  1.
    9900012    2    1    2    0    0  0.32484398665E+02  0.10321772812E+02 -0.26867236318E+02  0.47787268002E+02  0.19999986130E+02 0.  0.
         12    1    1    2    0    0 -0.32484398665E+02 -0.10321772812E+02  0.26867236318E+02  0.43400731998E+02  0.00000000000E+00 0. -1.
         11    1    3    3    0    0  0.11090792032E+02  0.20365506195E+01 -0.20909913915E+02  0.23756634999E+02  0.51100000000E-03 0. -1.
        -11    1    3    3    0    0  0.14311272825E+02  0.66715976288E+01 -0.56154570327E+01  0.16758761969E+02  0.51100000000E-03 0.  1.
         12    1    3    3    0    0  0.70823338083E+01  0.16136245633E+01 -0.34186537043E+00  0.72718710340E+01  0.00000000000E+00 0. -1.
</event>
<event>
 7    1  0.5426550E-010  0.4778727E+02  0.7816164E-02  0.1312668E+00
        -11   -1    0    0    0    0  0.00000000000E+00  0.00000000000E+00  0.45593999997E+02  0.45594000000E+02  0.51100000000E-03 0.  1.
         11   -1    0    0    0    0 -0.00000000000E+00 -0.00000000000E+00 -0.45593999997E+02  0.45594000000E+02  0.51100000000E-03 0. -1.
    9900012    2    1    2    0    0 -0.10899547788E+02  0.12770447503E+02  0.40021735128E+02  0.47787265512E+02  0.19999974775E+02 0.  0.
         12    1    1    2    0    0  0.10899547788E+02 -0.12770447503E+02 -0.40021735128E+02  0.43400734488E+02  0.00000000000E+00 0. -1.
         11    1    3    3    0    0 -0.64219049042E+01  0.13920146021E+02  0.23724787384E+02  0.28246714225E+02  0.51100000000E-03 0.  1.
        -11    1    3    3    0    0 -0.23403815930E+01 -0.43039482429E+01  0.14543138848E+02  0.15346147539E+02  0.51100000000E-03 0. -1.
         12    1    3    3    0    0 -0.21372612903E+01  0.31542497250E+01  0.17538088964E+01  0.41944037474E+01  0.00000000000E+00 0. -1.
</event>
<event>
 7    1  0.5426550E-010  0.4778724E+02  0.7816164E-02  0.1312668E+00
        -11   -1    0    0    0    0  0.00000000000E+00  0.00000000000E+00  0.45593999997E+02  0.45594000000E+02  0.51100000000E-03 0.  1.
         11   -1    0    0    0    0 -0.00000000000E+00 -0.00000000000E+00 -0.45593999997E+02  0.45594000000E+02  0.51100000000E-03 0. -1.
    9900012    2    1    2    0    0  0.86857009417E+01  0.19598223079E+02  0.37737176836E+02  0.47787236593E+02  0.19999842924E+02 0.  0.
         12    1    1    2    0    0 -0.86857009417E+01 -0.19598223079E+02 -0.37737176836E+02  0.43400763407E+02  0.00000000000E+00 0. -1.
         11    1    3    3    0    0 -0.21937474317E+01  0.23248121921E+01  0.13923849629E+01  0.34865478153E+01  0.51100000000E-03 0. -1.
        -11    1    3    3    0    0  0.83515560462E+01  0.69233204142E+00  0.97265201640E+01  0.12838730732E+02  0.51100000000E-03 0.  1.
        -12    1    3    3    0    0  0.25278923271E+01  0.16581078846E+02  0.26618271709E+02  0.31461958046E+02  0.00000000000E+00 0.  1.
</event>
<event>
 7    1  0.5426550E-010  0.4778731E+02  0.7816164E-02  0.1312668E+00
        -11   -1    0    0    0    0  0.00000000000E+00  0.00000000000E+00  0.45593999997E+02  0.45594000000E+02  0.51100000000E-03 0. -1.
         11   -1    0    0    0    0 -0.00000000000E+00 -0.00000000000E+00 -0.45593999997E+02  0.45594000000E+02  0.51100000000E-03 0.  1.
    9900012    2    1    2    0    0 -0.10952872598E+01 -0.35776554588E+02  0.24545020442E+02  0.47787314051E+02  0.20000196083E+02 0.  0.
         12    1    1    2    0    0  0.10952872598E+01  0.35776554588E+02 -0.24545020442E+02  0.43400685949E+02  0.00000000000E+00 0. -1.
         11    1    3    3    0    0 -0.38193063392E+01 -0.12462122641E+02  0.11859625063E+02  0.17622210659E+02  0.51100000000E-03 0. -1.
        -11    1    3    3    0    0  0.71373923222E+01 -0.90763444673E+01  0.94285768777E+01  0.14907060751E+02  0.51100000000E-03 0.  1.
        -12    1    3    3    0    0 -0.44133732427E+01 -0.14238087480E+02  0.32568185016E+01  0.15258042640E+02  0.00000000000E+00 0.  1.
</event>
<event>
 7    1  0.5426550E-010  0.4778727E+02  0.7816164E-02  0.1312668E+00
        -11   -1    0    0    0    0  0.00000000000E+00  0.00000000000E+00  0.45593999997E+02  0.45594000000E+02  0.51100000000E-03 0.  1.
         11   -1    0    0    0    0 -0.00000000000E+00 -0.00000000000E+00 -0.45593999997E+02  0.45594000000E+02  0.51100000000E-03 0. -1.
    9900012    2    1    2    0    0  0.34320599743E+02 -0.24478074034E+02  0.10321999618E+02  0.47787270153E+02  0.19999995937E+02 0.  0.
         12    1    1    2    0    0 -0.34320599743E+02  0.24478074034E+02 -0.10321999618E+02  0.43400729847E+02  0.00000000000E+00 0. -1.
         11    1    3    3    0    0 -0.43941043092E-01 -0.82742855361E+01  0.25931755283E+00  0.82784647008E+01  0.51100000000E-03 0. -1.
        -11    1    3    3    0    0  0.24191470111E+02 -0.10613639960E+02  0.87414066200E+01  0.27826044801E+02  0.51100000000E-03 0.  1.
         12    1    3    3    0    0  0.10173070675E+02 -0.55901485379E+01  0.13212754449E+01  0.11682760652E+02  0.00000000000E+00 0. -1.
</event>
<event>
 7    1  0.5426550E-010  0.4778726E+02  0.7816164E-02  0.1312668E+00
        -11   -1    0    0    0    0  0.00000000000E+00  0.00000000000E+00  0.45593999997E+02  0.45594000000E+02  0.51100000000E-03 0. -1.
         11   -1    0    0    0    0 -0.00000000000E+00 -0.00000000000E+00 -0.45593999997E+02  0.45594000000E+02  0.51100000000E-03 0.  1.
    9900012    2    1    2    0    0  0.22397304733E+02 -0.15718684827E+02  0.33688399230E+02  0.47787256289E+02  0.19999932724E+02 0.  0.
         12    1    1    2    0    0 -0.22397304733E+02  0.15718684827E+02 -0.33688399230E+02  0.43400743711E+02  0.00000000000E+00 0. -1.
         11    1    3    3    0    0  0.10284874653E+02 -0.27595560162E+01  0.44649269916E+01  0.11546833736E+02  0.51100000000E-03 0. -1.
        -11    1    3    3    0    0  0.12706490304E+02 -0.14763773460E+02  0.25831342708E+02  0.32352467742E+02  0.51100000000E-03 0.  1.
         12    1    3    3    0    0 -0.59406022372E+00  0.18046446497E+01  0.33921295301E+01  0.38879548107E+01  0.00000000000E+00 0. -1.
</event>
<event>
 7    1  0.5426550E-010  0.4778727E+02  0.7816164E-02  0.1312668E+00
        -11   -1    0    0    0    0  0.00000000000E+00  0.00000000000E+00  0.45593999997E+02  0.45594000000E+02  0.51100000000E-03 0.  1.
         11   -1    0    0    0    0 -0.00000000000E+00 -0.00000000000E+00 -0.45593999997E+02  0.45594000000E+02  0.51100000000E-03 0. -1.
    9900012    2    1    2    0    0  0.59729014153E+01  0.31037849190E+02  0.29742219745E+02  0.47787271100E+02  0.20000000255E+02 0.  0.
         12    1    1    2    0    0 -0.59729014153E+01 -0.31037849190E+02 -0.29742219745E+02  0.43400728900E+02  0.00000000000E+00 0. -1.
         11    1    3    3    0    0  0.13479384402E+01  0.32591453536E+01  0.91812734531E+00  0.36444374816E+01  0.51100000000E-03 0. -1.
        -11    1    3    3    0    0 -0.51996242983E+01  0.11458320086E+02  0.18785539457E+02  0.22610300418E+02  0.51100000000E-03 0.  1.
        -12    1    3    3    0    0  0.98245872734E+01  0.16320383751E+02  0.10038552943E+02  0.21532533201E+02  0.00000000000E+00 0.  1.
</event>
<event>
 7    1  0.5426550E-010  0.4778728E+02  0.7816164E-02  0.1312668E+00
        -11   -1    0    0    0    0  0.00000000000E+00  0.00000000000E+00  0.45593999997E+02  0.45594000000E+02  0.51100000000E-03 0.  1.
         11   -1    0    0    0    0 -0.00000000000E+00 -0.00000000000E+00 -0.45593999997E+02  0.45594000000E+02  0.51100000000E-03 0. -1.
    9900012    2    1    2    0    0 -0.39305876082E+02 -0.14725157668E+02  0.11038148331E+02  0.47787275565E+02  0.20000020610E+02 0.  0.
         12    1    1    2    0    0  0.39305876082E+02  0.14725157668E+02 -0.11038148331E+02  0.43400724435E+02  0.00000000000E+00 0. -1.
         11    1    3    3    0    0  0.23641428998E+01 -0.43480232509E+00  0.53757064443E+00  0.24631701467E+01  0.51100000000E-03 0. -1.
        -11    1    3    3    0    0 -0.18331522102E+02 -0.53471841408E+01  0.43252464880E+01  0.19579194014E+02  0.51100000000E-03 0.  1.
         12    1    3    3    0    0 -0.23338496880E+02 -0.89431712021E+01  0.61753311982E+01  0.25744911404E+02  0.00000000000E+00 0. -1.
</event>
<event>
 7    1  0.5426550E-010  0.4778727E+02  0.7816164E-02  0.1312668E+00
        -11   -1    0    0    0    0  0.00000000000E+00  0.00000000000E+00  0.45593999997E+02  0.45594000000E+02  0.51100000000E-03 0.  1.
         11   -1    0    0    0    0 -0.00000000000E+00 -0.00000000000E+00 -0.45593999997E+02  0.45594000000E+02  0.51100000000E-03 0. -1.
    9900012    2    1    2    0    0  0.41597153842E+02 -0.67515839649E+01 -0.10378643765E+02  0.47787270281E+02  0.19999996518E+02 0.  0.
         12    1    1    2    0    0 -0.41597153842E+02  0.67515839649E+01  0.10378643765E+02  0.43400729719E+02  0.00000000000E+00 0. -1.
         11    1    3    3    0    0  0.18177737933E+02 -0.68838886226E+01 -0.10117093675E+02  0.21912865253E+02  0.51100000000E-03 0. -1.
        -11    1    3    3    0    0  0.23950776201E+02 -0.11744790878E+01  0.97373360976E+00  0.23999317473E+02  0.51100000000E-03 0.  1.
         12    1    3    3    0    0 -0.53136029212E+00  0.13067837455E+01 -0.12352837003E+01  0.18750875547E+01  0.00000000000E+00 0. -1.
</event>
<event>
 7    1  0.5426550E-010  0.4778727E+02  0.7816164E-02  0.1312668E+00
        -11   -1    0    0    0    0  0.00000000000E+00  0.00000000000E+00  0.45593999997E+02  0.45594000000E+02  0.51100000000E-03 0.  1.
         11   -1    0    0    0    0 -0.00000000000E+00 -0.00000000000E+00 -0.45593999997E+02  0.45594000000E+02  0.51100000000E-03 0. -1.
    9900012    2    1    2    0    0 -0.12815192892E+02 -0.40689195978E+02  0.79864327774E+01  0.47787274814E+02  0.20000017187E+02 0.  0.
         12    1    1    2    0    0  0.12815192892E+02  0.40689195978E+02 -0.79864327774E+01  0.43400725186E+02  0.00000000000E+00 0. -1.
         11    1    3    3    0    0 -0.88196257515E+01 -0.14583289901E+02  0.29028694733E+01  0.17288284883E+02  0.51100000000E-03 0.  1.
        -11    1    3    3    0    0  0.15095506244E+01 -0.15486514969E+02 -0.32821577757E+01  0.15902309546E+02  0.51100000000E-03 0. -1.
        -12    1    3    3    0    0 -0.55051177644E+01 -0.10619391107E+02  0.83657210798E+01  0.14596680385E+02  0.00000000000E+00 0.  1.
</event>
<event>
 7    1  0.5426550E-010  0.4778732E+02  0.7816164E-02  0.1312668E+00
        -11   -1    0    0    0    0  0.00000000000E+00  0.00000000000E+00  0.45593999997E+02  0.45594000000E+02  0.51100000000E-03 0.  1.
         11   -1    0    0    0    0 -0.00000000000E+00 -0.00000000000E+00 -0.45593999997E+02  0.45594000000E+02  0.51100000000E-03 0. -1.
    9900012    2    1    2    0    0 -0.37627088829E+02  0.16184106243E+02  0.14349063059E+02  0.47787323516E+02  0.20000239238E+02 0.  0.
         12    1    1    2    0    0  0.37627088829E+02 -0.16184106243E+02 -0.14349063059E+02  0.43400676484E+02  0.00000000000E+00 0. -1.
         11    1    3    3    0    0 -0.15128845740E+02 -0.23260540040E+01  0.31832180347E+01  0.15634109440E+02  0.51100000000E-03 0. -1.
        -11    1    3    3    0    0 -0.85096290002E+01  0.71341627127E+01  0.83738082771E+01  0.13907937613E+02  0.51100000000E-03 0.  1.
         12    1    3    3    0    0 -0.13988614088E+02  0.11375997534E+02  0.27920367468E+01  0.18245276463E+02  0.00000000000E+00 0. -1.
</event>
<event>
 7    1  0.5426550E-010  0.4778727E+02  0.7816164E-02  0.1312668E+00
        -11   -1    0    0    0    0  0.00000000000E+00  0.00000000000E+00  0.45593999997E+02  0.45594000000E+02  0.51100000000E-03 0.  1.
         11   -1    0    0    0    0 -0.00000000000E+00 -0.00000000000E+00 -0.45593999997E+02  0.45594000000E+02  0.51100000000E-03 0. -1.
    9900012    2    1    2    0    0  0.21239831245E+02  0.35050736967E+02  0.14280714218E+02  0.47787269686E+02  0.19999993806E+02 0.  0.
         12    1    1    2    0    0 -0.21239831245E+02 -0.35050736967E+02 -0.14280714218E+02  0.43400730314E+02  0.00000000000E+00 0. -1.
         11    1    3    3    0    0  0.22435122483E+00  0.68537453367E+01  0.72844165366E+01  0.10004343214E+02  0.51100000000E-03 0. -1.
        -11    1    3    3    0    0  0.20616174797E+02  0.19387043540E+02  0.57178637750E+01  0.28871752404E+02  0.51100000000E-03 0.  1.
        -12    1    3    3    0    0  0.39930522312E+00  0.88099480896E+01  0.12784339062E+01  0.89111740671E+01  0.00000000000E+00 0.  1.
</event>
<event>
 7    1  0.5426550E-010  0.4778725E+02  0.7816164E-02  0.1312668E+00
        -11   -1    0    0    0    0  0.00000000000E+00  0.00000000000E+00  0.45593999997E+02  0.45594000000E+02  0.51100000000E-03 0.  1.
         11   -1    0    0    0    0 -0.00000000000E+00 -0.00000000000E+00 -0.45593999997E+02  0.45594000000E+02  0.51100000000E-03 0. -1.
    9900012    2    1    2    0    0 -0.91564997038E+01  0.37834717868E+02  0.19191600492E+02  0.47787252398E+02  0.19999914983E+02 0.  0.
         12    1    1    2    0    0  0.91564997038E+01 -0.37834717868E+02 -0.19191600492E+02  0.43400747602E+02  0.00000000000E+00 0. -1.
         11    1    3    3    0    0 -0.42882934951E+01  0.17852275948E+01  0.67700165317E+01  0.82103363370E+01  0.51100000000E-03 0.  1.
        -11    1    3    3    0    0 -0.31549528260E+01  0.27068773987E+01  0.85943966021E+00  0.42449439780E+01  0.51100000000E-03 0. -1.
        -12    1    3    3    0    0 -0.17132533827E+01  0.33342612874E+02  0.11562144300E+02  0.35331972083E+02  0.00000000000E+00 0.  1.
</event>
<event>
 7    1  0.5426550E-010  0.4778727E+02  0.7816164E-02  0.1312668E+00
        -11   -1    0    0    0    0  0.00000000000E+00  0.00000000000E+00  0.45593999997E+02  0.45594000000E+02  0.51100000000E-03 0.  1.
         11   -1    0    0    0    0 -0.00000000000E+00 -0.00000000000E+00 -0.45593999997E+02  0.45594000000E+02  0.51100000000E-03 0. -1.
    9900012    2    1    2    0    0  0.18029351377E+02 -0.25976426100E+02  0.29728631049E+02  0.47787265812E+02  0.19999976144E+02 0.  0.
         12    1    1    2    0    0 -0.18029351377E+02  0.25976426100E+02 -0.29728631049E+02  0.43400734188E+02  0.00000000000E+00 0. -1.
         11    1    3    3    0    0  0.31091298048E+01 -0.14297012911E+01  0.65455153197E+00  0.34841314404E+01  0.51100000000E-03 0. -1.
        -11    1    3    3    0    0 -0.59011352298E+00  0.19021686799E+01  0.47983906844E+01  0.51952895086E+01  0.51100000000E-03 0.  1.
        -12    1    3    3    0    0  0.15510335095E+02 -0.26448893488E+02  0.24275688833E+02  0.39107844863E+02  0.00000000000E+00 0.  1.
</event>
<event>
 7    1  0.5426550E-010  0.4778727E+02  0.7816164E-02  0.1312668E+00
        -11   -1    0    0    0    0  0.00000000000E+00  0.00000000000E+00  0.45593999997E+02  0.45594000000E+02  0.51100000000E-03 0. -1.
         11   -1    0    0    0    0 -0.00000000000E+00 -0.00000000000E+00 -0.45593999997E+02  0.45594000000E+02  0.51100000000E-03 0.  1.
    9900012    2    1    2    0    0 -0.26112063397E+02 -0.28977055449E+02 -0.19029284918E+02  0.47787270952E+02  0.19999999579E+02 0.  0.
         12    1    1    2    0    0  0.26112063397E+02  0.28977055449E+02  0.19029284918E+02  0.43400729048E+02  0.00000000000E+00 0. -1.
         11    1    3    3    0    0 -0.13063272686E+01 -0.52211440344E+01  0.20282959708E+01  0.57515928895E+01  0.51100000000E-03 0. -1.
        -11    1    3    3    0    0 -0.18492680876E+02 -0.22681494851E+02 -0.20234910001E+02  0.35579221994E+02  0.51100000000E-03 0.  1.
         12    1    3    3    0    0 -0.63130552529E+01 -0.10744165636E+01 -0.82267088773E+00  0.64564560688E+01  0.00000000000E+00 0. -1.
</event>
<event>
 7    1  0.5426550E-010  0.4778727E+02  0.7816164E-02  0.1312668E+00
        -11   -1    0    0    0    0  0.00000000000E+00  0.00000000000E+00  0.45593999997E+02  0.45594000000E+02  0.51100000000E-03 0.  1.
         11   -1    0    0    0    0 -0.00000000000E+00 -0.00000000000E+00 -0.45593999997E+02  0.45594000000E+02  0.51100000000E-03 0. -1.
    9900012    2    1    2    0    0 -0.16051593636E+02  0.73437947572E+01  0.39648939021E+02  0.47787270223E+02  0.19999996256E+02 0.  0.
         12    1    1    2    0    0  0.16051593636E+02 -0.73437947572E+01 -0.39648939021E+02  0.43400729777E+02  0.00000000000E+00 0. -1.
         11    1    3    3    0    0  0.11181370871E+00  0.92790448260E+00 -0.30876267037E+00  0.98429857362E+00  0.51100000000E-03 0. -1.
        -11    1    3    3    0    0  0.22684436217E+01  0.52952349292E+01  0.11788292009E+02  0.13120563180E+02  0.51100000000E-03 0.  1.
        -12    1    3    3    0    0 -0.18431850966E+02  0.11206553453E+01  0.28169409682E+02  0.33682408469E+02  0.00000000000E+00 0.  1.
</event>
<event>
 7    1  0.5426550E-010  0.4778729E+02  0.7816164E-02  0.1312668E+00
        -11   -1    0    0    0    0  0.00000000000E+00  0.00000000000E+00  0.45593999997E+02  0.45594000000E+02  0.51100000000E-03 0.  1.
         11   -1    0    0    0    0 -0.00000000000E+00 -0.00000000000E+00 -0.45593999997E+02  0.45594000000E+02  0.51100000000E-03 0. -1.
    9900012    2    1    2    0    0  0.39586890438E+02  0.13842624016E+02  0.11175036418E+02  0.47787290638E+02  0.20000089333E+02 0.  0.
         12    1    1    2    0    0 -0.39586890438E+02 -0.13842624016E+02 -0.11175036418E+02  0.43400709362E+02  0.00000000000E+00 0. -1.
         11    1    3    3    0    0  0.26646520090E+02  0.74541384546E+00  0.10916569690E+01  0.26679287657E+02  0.51100000000E-03 0. -1.
        -11    1    3    3    0    0  0.76997466291E+01  0.63476187494E+01  0.59157591164E+01  0.11600627919E+02  0.51100000000E-03 0.  1.
         12    1    3    3    0    0  0.52406237197E+01  0.67495914210E+01  0.41676203323E+01  0.95073750612E+01  0.00000000000E+00 0. -1.
</event>
<event>
 7    1  0.5426550E-010  0.4778726E+02  0.7816164E-02  0.1312668E+00
        -11   -1    0    0    0    0  0.00000000000E+00  0.00000000000E+00  0.45593999997E+02  0.45594000000E+02  0.51100000000E-03 0. -1.
         11   -1    0    0    0    0 -0.00000000000E+00 -0.00000000000E+00 -0.45593999997E+02  0.45594000000E+02  0.51100000000E-03 0.  1.
    9900012    2    1    2    0    0  0.19082366935E+02  0.30205959890E+02 -0.24639143269E+02  0.47787261277E+02  0.19999955467E+02 0.  0.
         12    1    1    2    0    0 -0.19082366935E+02 -0.30205959890E+02  0.24639143269E+02  0.43400738723E+02  0.00000000000E+00 0. -1.
         11    1    3    3    0    0 -0.27385803718E+00  0.66689714008E+01 -0.50583481027E+01  0.83747873739E+01  0.51100000000E-03 0. -1.
        -11    1    3    3    0    0  0.15149965224E+02  0.13510175772E+02 -0.20046608927E+02  0.28529157461E+02  0.51100000000E-03 0.  1.
        -12    1    3    3    0    0  0.42062597476E+01  0.10026812717E+02  0.46581376133E+00  0.10883316442E+02  0.00000000000E+00 0.  1.
</event>
<event>
 7    1  0.5426550E-010  0.4778726E+02  0.7816164E-02  0.1312668E+00
        -11   -1    0    0    0    0  0.00000000000E+00  0.00000000000E+00  0.45593999997E+02  0.45594000000E+02  0.51100000000E-03 0. -1.
         11   -1    0    0    0    0 -0.00000000000E+00 -0.00000000000E+00 -0.45593999997E+02  0.45594000000E+02  0.51100000000E-03 0.  1.
    9900012    2    1    2    0    0  0.40390549696E+02 -0.59113479042E+01 -0.14740548711E+02  0.47787259049E+02  0.19999945309E+02 0.  0.
         12    1    1    2    0    0 -0.40390549696E+02  0.59113479042E+01  0.14740548711E+02  0.43400740951E+02  0.00000000000E+00 0. -1.
         11    1    3    3    0    0  0.23987653653E+02  0.25510427953E+01 -0.18461121236E+00  0.24123628017E+02  0.51100000000E-03 0. -1.
        -11    1    3    3    0    0  0.54535661727E+01 -0.42943643477E+01 -0.54323928168E+01  0.88144109916E+01  0.51100000000E-03 0.  1.
         12    1    3    3    0    0  0.10949329870E+02 -0.41680263517E+01 -0.91235446817E+01  0.14849220041E+02  0.00000000000E+00 0. -1.
</event>
<event>
 7    1  0.5426550E-010  0.4778727E+02  0.7816164E-02  0.1312668E+00
        -11   -1    0    0    0    0  0.00000000000E+00  0.00000000000E+00  0.45593999997E+02  0.45594000000E+02  0.51100000000E-03 0.  1.
         11   -1    0    0    0    0 -0.00000000000E+00 -0.00000000000E+00 -0.45593999997E+02  0.45594000000E+02  0.51100000000E-03 0. -1.
    9900012    2    1    2    0    0 -0.41571445588E+01 -0.33895284087E+02  0.26785281221E+02  0.47787269312E+02  0.19999992099E+02 0.  0.
         12    1    1    2    0    0  0.41571445588E+01  0.33895284087E+02 -0.26785281221E+02  0.43400730688E+02  0.00000000000E+00 0. -1.
         11    1    3    3    0    0  0.13116749744E+01  0.21111821173E+01  0.11404977800E+00  0.24880893842E+01  0.51100000000E-03 0. -1.
        -11    1    3    3    0    0 -0.12001848768E+01 -0.16084927972E+02  0.13550233183E+02  0.21065948143E+02  0.51100000000E-03 0.  1.
         12    1    3    3    0    0 -0.42686346564E+01 -0.19921538232E+02  0.13120998261E+02  0.24233231784E+02  0.00000000000E+00 0. -1.
</event>
<event>
 7    1  0.5426550E-010  0.4778725E+02  0.7816164E-02  0.1312668E+00
        -11   -1    0    0    0    0  0.00000000000E+00  0.00000000000E+00  0.45593999997E+02  0.45594000000E+02  0.51100000000E-03 0.  1.
         11   -1    0    0    0    0 -0.00000000000E+00 -0.00000000000E+00 -0.45593999997E+02  0.45594000000E+02  0.51100000000E-03 0. -1.
    9900012    2    1    2    0    0  0.15009309310E+02 -0.71977218415E+01  0.40081647347E+02  0.47787250931E+02  0.19999908296E+02 0.  0.
         12    1    1    2    0    0 -0.15009309310E+02  0.71977218415E+01 -0.40081647347E+02  0.43400749069E+02  0.00000000000E+00 0. -1.
         11    1    3    3    0    0  0.33475965552E+01  0.32213128146E+01  0.15046773970E+02  0.15747655892E+02  0.51100000000E-03 0. -1.
        -11    1    3    3    0    0  0.38067396051E+01 -0.36361059006E+01  0.36653325007E+00  0.52770142529E+01  0.51100000000E-03 0.  1.
        -12    1    3    3    0    0  0.78549731498E+01 -0.67829287555E+01  0.24668340127E+02  0.26762580786E+02  0.00000000000E+00 0.  1.
</event>
<event>
 7    1  0.5426550E-010  0.4778727E+02  0.7816164E-02  0.1312668E+00
        -11   -1    0    0    0    0  0.00000000000E+00  0.00000000000E+00  0.45593999997E+02  0.45594000000E+02  0.51100000000E-03 0.  1.
         11   -1    0    0    0    0 -0.00000000000E+00 -0.00000000000E+00 -0.45593999997E+02  0.45594000000E+02  0.51100000000E-03 0. -1.
    9900012    2    1    2    0    0  0.17619408748E+02 -0.32282474856E+02 -0.23043897851E+02  0.47787274480E+02  0.20000015665E+02 0.  0.
         12    1    1    2    0    0 -0.17619408748E+02  0.32282474856E+02  0.23043897851E+02  0.43400725520E+02  0.00000000000E+00 0. -1.
         11    1    3    3    0    0  0.64077669474E+01 -0.10233113597E+02  0.17938142766E+00  0.12075109486E+02  0.51100000000E-03 0. -1.
        -11    1    3    3    0    0  0.52567842678E+01 -0.23681833654E+01 -0.18535076199E+01  0.60562004630E+01  0.51100000000E-03 0.  1.
         12    1    3    3    0    0  0.59548575333E+01 -0.19681177894E+02 -0.21369771659E+02  0.29655964531E+02  0.00000000000E+00 0. -1.
</event>
<event>
 7    1  0.5426550E-010  0.4778728E+02  0.7816164E-02  0.1312668E+00
        -11   -1    0    0    0    0  0.00000000000E+00  0.00000000000E+00  0.45593999997E+02  0.45594000000E+02  0.51100000000E-03 0. -1.
         11   -1    0    0    0    0 -0.00000000000E+00 -0.00000000000E+00 -0.45593999997E+02  0.45594000000E+02  0.51100000000E-03 0.  1.
    9900012    2    1    2    0    0 -0.20201695049E+02 -0.38411725291E+02 -0.23155297593E+00  0.47787277201E+02  0.20000028072E+02 0.  0.
         12    1    1    2    0    0  0.20201695049E+02  0.38411725291E+02  0.23155297593E+00  0.43400722799E+02  0.00000000000E+00 0. -1.
         11    1    3    3    0    0 -0.97749333672E+00  0.13076139200E+01 -0.98123592858E+00  0.19047759962E+01  0.51100000000E-03 0.  1.
        -11    1    3    3    0    0 -0.94217911805E+01 -0.81253221263E+01  0.27519403042E+01  0.12742220544E+02  0.51100000000E-03 0. -1.
        -12    1    3    3    0    0 -0.98024105320E+01 -0.31594017084E+02 -0.20022573516E+01  0.33140280661E+02  0.00000000000E+00 0.  1.
</event>
<event>
 7    1  0.5426550E-010  0.4778727E+02  0.7816164E-02  0.1312668E+00
        -11   -1    0    0    0    0  0.00000000000E+00  0.00000000000E+00  0.45593999997E+02  0.45594000000E+02  0.51100000000E-03 0.  1.
         11   -1    0    0    0    0 -0.00000000000E+00 -0.00000000000E+00 -0.45593999997E+02  0.45594000000E+02  0.51100000000E-03 0. -1.
    9900012    2    1    2    0    0  0.14842587230E+02  0.38589980901E+02 -0.13195989416E+02  0.47787272376E+02  0.20000006071E+02 0.  0.
         12    1    1    2    0    0 -0.14842587230E+02 -0.38589980901E+02  0.13195989416E+02  0.43400727624E+02  0.00000000000E+00 0. -1.
         11    1    3    3    0    0 -0.99857542141E-01  0.17434497483E+01  0.84906273465E+00  0.19417765943E+01  0.51100000000E-03 0. -1.
        -11    1    3    3    0    0  0.65025647244E+01  0.23405306300E+02  0.52940961166E+00  0.24297571603E+02  0.51100000000E-03 0.  1.
        -12    1    3    3    0    0  0.84398800473E+01  0.13441224853E+02 -0.14574461763E+02  0.21547924179E+02  0.00000000000E+00 0.  1.
</event>
<event>
 7    1  0.5426550E-010  0.4778727E+02  0.7816164E-02  0.1312668E+00
        -11   -1    0    0    0    0  0.00000000000E+00  0.00000000000E+00  0.45593999997E+02  0.45594000000E+02  0.51100000000E-03 0. -1.
         11   -1    0    0    0    0 -0.00000000000E+00 -0.00000000000E+00 -0.45593999997E+02  0.45594000000E+02  0.51100000000E-03 0.  1.
    9900012    2    1    2    0    0 -0.34909877415E+02  0.86301348846E+01 -0.24299061833E+02  0.47787272181E+02  0.20000005184E+02 0.  0.
         12    1    1    2    0    0  0.34909877415E+02 -0.86301348846E+01  0.24299061833E+02  0.43400727819E+02  0.00000000000E+00 0. -1.
         11    1    3    3    0    0 -0.94127449643E+01  0.50779637340E+01 -0.36743166178E+01  0.11308673057E+02  0.51100000000E-03 0. -1.
        -11    1    3    3    0    0 -0.14897450858E+02  0.97518674924E+01 -0.12470840605E+02  0.21738326231E+02  0.51100000000E-03 0.  1.
        -12    1    3    3    0    0 -0.10599681592E+02 -0.61996963418E+01 -0.81539046096E+01  0.14740272893E+02  0.00000000000E+00 0.  1.
</event>
<event>
 7    1  0.5426550E-010  0.4778727E+02  0.7816164E-02  0.1312668E+00
        -11   -1    0    0    0    0  0.00000000000E+00  0.00000000000E+00  0.45593999997E+02  0.45594000000E+02  0.51100000000E-03 0.  1.
         11   -1    0    0    0    0 -0.00000000000E+00 -0.00000000000E+00 -0.45593999997E+02  0.45594000000E+02  0.51100000000E-03 0. -1.
    9900012    2    1    2    0    0 -0.34169998012E+02 -0.13685446789E+02  0.22994421130E+02  0.47787267045E+02  0.19999981763E+02 0.  0.
         12    1    1    2    0    0  0.34169998012E+02  0.13685446789E+02 -0.22994421130E+02  0.43400732955E+02  0.00000000000E+00 0. -1.
         11    1    3    3    0    0 -0.41278195046E+01  0.22369124098E+01  0.28133006819E+01  0.54733291496E+01  0.51100000000E-03 0. -1.
        -11    1    3    3    0    0 -0.28812712952E+02 -0.17830004051E+02  0.21043367553E+02  0.39886147850E+02  0.51100000000E-03 0.  1.
        -12    1    3    3    0    0 -0.12294655557E+01  0.19076448518E+01 -0.86224710474E+00  0.24277900451E+01  0.00000000000E+00 0.  1.
</event>
<event>
 7    1  0.5426550E-010  0.4778727E+02  0.7816164E-02  0.1312668E+00
        -11   -1    0    0    0    0  0.00000000000E+00  0.00000000000E+00  0.45593999997E+02  0.45594000000E+02  0.51100000000E-03 0.  1.
         11   -1    0    0    0    0 -0.00000000000E+00 -0.00000000000E+00 -0.45593999997E+02  0.45594000000E+02  0.51100000000E-03 0. -1.
    9900012    2    1    2    0    0  0.20249396643E+02  0.10376237101E+02  0.36958338445E+02  0.47787272570E+02  0.20000006956E+02 0.  0.
         12    1    1    2    0    0 -0.20249396643E+02 -0.10376237101E+02 -0.36958338445E+02  0.43400727430E+02  0.00000000000E+00 0. -1.
         11    1    3    3    0    0 -0.76787316282E+00  0.51334276902E+01  0.33181621271E+01  0.61605120897E+01  0.51100000000E-03 0. -1.
        -11    1    3    3    0    0  0.21308670310E+02  0.61409249986E+01  0.34019612214E+02  0.40609166523E+02  0.51100000000E-03 0.  1.
         12    1    3    3    0    0 -0.29140050366E+00 -0.89811558807E+00 -0.37943589608E+00  0.10175939575E+01  0.00000000000E+00 0. -1.
</event>
<event>
 7    1  0.5426550E-010  0.4778727E+02  0.7816164E-02  0.1312668E+00
        -11   -1    0    0    0    0  0.00000000000E+00  0.00000000000E+00  0.45593999997E+02  0.45594000000E+02  0.51100000000E-03 0. -1.
         11   -1    0    0    0    0 -0.00000000000E+00 -0.00000000000E+00 -0.45593999997E+02  0.45594000000E+02  0.51100000000E-03 0.  1.
    9900012    2    1    2    0    0 -0.32383280624E+02  0.17220623082E+02 -0.23203371030E+02  0.47787272466E+02  0.20000006483E+02 0.  0.
         12    1    1    2    0    0  0.32383280624E+02 -0.17220623082E+02  0.23203371030E+02  0.43400727534E+02  0.00000000000E+00 0. -1.
         11    1    3    3    0    0 -0.36211456811E+01 -0.28845341939E+01 -0.13519899992E+01  0.48229773770E+01  0.51100000000E-03 0. -1.
        -11    1    3    3    0    0 -0.26021726268E+02  0.19632257504E+02 -0.23063242464E+02  0.39930801719E+02  0.51100000000E-03 0.  1.
        -12    1    3    3    0    0 -0.27404086746E+01  0.47289977219E+00  0.12118614332E+01  0.30334933709E+01  0.00000000000E+00 0.  1.
</event>
<event>
 7    1  0.5426550E-010  0.4778727E+02  0.7816164E-02  0.1312668E+00
        -11   -1    0    0    0    0  0.00000000000E+00  0.00000000000E+00  0.45593999997E+02  0.45594000000E+02  0.51100000000E-03 0. -1.
         11   -1    0    0    0    0 -0.00000000000E+00 -0.00000000000E+00 -0.45593999997E+02  0.45594000000E+02  0.51100000000E-03 0.  1.
    9900012    2    1    2    0    0 -0.13274208818E+02 -0.41287914054E+02 -0.16513402215E+01  0.47787269693E+02  0.19999993838E+02 0.  0.
         12    1    1    2    0    0  0.13274208818E+02  0.41287914054E+02  0.16513402215E+01  0.43400730307E+02  0.00000000000E+00 0. -1.
         11    1    3    3    0    0 -0.21216759410E+01 -0.36927162401E+01  0.26593596555E+01  0.50209417510E+01  0.51100000000E-03 0. -1.
        -11    1    3    3    0    0  0.57253262269E+00 -0.88352491908E+01  0.52208394538E+01  0.10278452546E+02  0.51100000000E-03 0.  1.
        -12    1    3    3    0    0 -0.11725065499E+02 -0.28759948623E+02 -0.95315393308E+01  0.32487875396E+02  0.00000000000E+00 0.  1.
</event>
<event>
 7    1  0.5426550E-010  0.4778727E+02  0.7816164E-02  0.1312668E+00
        -11   -1    0    0    0    0  0.00000000000E+00  0.00000000000E+00  0.45593999997E+02  0.45594000000E+02  0.51100000000E-03 0.  1.
         11   -1    0    0    0    0 -0.00000000000E+00 -0.00000000000E+00 -0.45593999997E+02  0.45594000000E+02  0.51100000000E-03 0. -1.
    9900012    2    1    2    0    0 -0.19059931028E+02  0.38808016469E+02  0.37789560344E+01  0.47787267037E+02  0.19999981727E+02 0.  0.
         12    1    1    2    0    0  0.19059931028E+02 -0.38808016469E+02 -0.37789560344E+01  0.43400732963E+02  0.00000000000E+00 0. -1.
         11    1    3    3    0    0  0.18377227628E+01 -0.90196505959E-01 -0.15513831657E+01  0.24066886692E+01  0.51100000000E-03 0. -1.
        -11    1    3    3    0    0 -0.91902686395E+01  0.22565325556E+02  0.66060577842E+01  0.25244701520E+02  0.51100000000E-03 0.  1.
         12    1    3    3    0    0 -0.11707385151E+02  0.16332887419E+02 -0.12757185842E+01  0.20135876847E+02  0.00000000000E+00 0. -1.
</event>
<event>
 7    1  0.5426550E-010  0.4778727E+02  0.7816164E-02  0.1312668E+00
        -11   -1    0    0    0    0  0.00000000000E+00  0.00000000000E+00  0.45593999997E+02  0.45594000000E+02  0.51100000000E-03 0.  1.
         11   -1    0    0    0    0 -0.00000000000E+00 -0.00000000000E+00 -0.45593999997E+02  0.45594000000E+02  0.51100000000E-03 0. -1.
    9900012    2    1    2    0    0 -0.11662011180E+02 -0.20280964224E+02  0.36555484481E+02  0.47787268897E+02  0.19999990209E+02 0.  0.
         12    1    1    2    0    0  0.11662011180E+02  0.20280964224E+02 -0.36555484481E+02  0.43400731103E+02  0.00000000000E+00 0. -1.
         11    1    3    3    0    0 -0.60821841898E+01  0.26396416649E+01  0.47664057152E+01  0.81657391791E+01  0.51100000000E-03 0. -1.
        -11    1    3    3    0    0 -0.39881533826E+01 -0.19081458178E+02  0.26256812212E+02  0.32702103929E+02  0.51100000000E-03 0.  1.
         12    1    3    3    0    0 -0.15916736077E+01 -0.38391477112E+01  0.55322665540E+01  0.69194257888E+01  0.00000000000E+00 0. -1.
</event>
<event>
 7    1  0.5426550E-010  0.4778729E+02  0.7816164E-02  0.1312668E+00
        -11   -1    0    0    0    0  0.00000000000E+00  0.00000000000E+00  0.45593999997E+02  0.45594000000E+02  0.51100000000E-03 0. -1.
         11   -1    0    0    0    0 -0.00000000000E+00 -0.00000000000E+00 -0.45593999997E+02  0.45594000000E+02  0.51100000000E-03 0.  1.
    9900012    2    1    2    0    0  0.20411023931E+02 -0.20104571517E+02 -0.32600890792E+02  0.47787288321E+02  0.20000078769E+02 0.  0.
         12    1    1    2    0    0 -0.20411023931E+02  0.20104571517E+02  0.32600890792E+02  0.43400711679E+02  0.00000000000E+00 0. -1.
         11    1    3    3    0    0 -0.36200955255E+01 -0.28506774681E+01 -0.70115343565E+01  0.83900576837E+01  0.51100000000E-03 0. -1.
        -11    1    3    3    0    0  0.20907766902E+02 -0.12839332449E+02 -0.21395957989E+02  0.32554111769E+02  0.51100000000E-03 0.  1.
         12    1    3    3    0    0  0.31233525547E+01 -0.44145616005E+01 -0.41933984467E+01  0.68431188678E+01  0.00000000000E+00 0. -1.
</event>
<event>
 7    1  0.5426550E-010  0.4778727E+02  0.7816164E-02  0.1312668E+00
        -11   -1    0    0    0    0  0.00000000000E+00  0.00000000000E+00  0.45593999997E+02  0.45594000000E+02  0.51100000000E-03 0.  1.
         11   -1    0    0    0    0 -0.00000000000E+00 -0.00000000000E+00 -0.45593999997E+02  0.45594000000E+02  0.51100000000E-03 0. -1.
    9900012    2    1    2    0    0 -0.16247082534E+02 -0.18576048608E+02  0.35701344841E+02  0.47787270787E+02  0.19999998826E+02 0.  0.
         12    1    1    2    0    0  0.16247082534E+02  0.18576048608E+02 -0.35701344841E+02  0.43400729213E+02  0.00000000000E+00 0. -1.
         11    1    3    3    0    0 -0.47165528535E+01 -0.13860268517E+02  0.11700506966E+02  0.18741792276E+02  0.51100000000E-03 0. -1.
        -11    1    3    3    0    0 -0.42188243165E+01 -0.72724905238E+01  0.14770175413E+02  0.16995460542E+02  0.51100000000E-03 0.  1.
         12    1    3    3    0    0 -0.73117053639E+01  0.25567104331E+01  0.92306624624E+01  0.12050017969E+02  0.00000000000E+00 0. -1.
</event>
<event>
 7    1  0.5426550E-010  0.4778727E+02  0.7816164E-02  0.1312668E+00
        -11   -1    0    0    0    0  0.00000000000E+00  0.00000000000E+00  0.45593999997E+02  0.45594000000E+02  0.51100000000E-03 0.  1.
         11   -1    0    0    0    0 -0.00000000000E+00 -0.00000000000E+00 -0.45593999997E+02  0.45594000000E+02  0.51100000000E-03 0. -1.
    9900012    2    1    2    0    0  0.36577422093E+02  0.11099546950E+02  0.20555182023E+02  0.47787271233E+02  0.20000000861E+02 0.  0.
         12    1    1    2    0    0 -0.36577422093E+02 -0.11099546950E+02 -0.20555182023E+02  0.43400728767E+02  0.00000000000E+00 0. -1.
         11    1    3    3    0    0  0.11122614343E+02 -0.16797561464E+01  0.59280265062E+01  0.12715173182E+02  0.51100000000E-03 0. -1.
        -11    1    3    3    0    0  0.75710431622E+00  0.61142335101E+01  0.16022650609E+01  0.63658708712E+01  0.51100000000E-03 0.  1.
        -12    1    3    3    0    0  0.24697703434E+02  0.66650695863E+01  0.13024890456E+02  0.28706227180E+02  0.00000000000E+00 0.  1.
</event>
<event>
 7    1  0.5426550E-010  0.4778727E+02  0.7816164E-02  0.1312668E+00
        -11   -1    0    0    0    0  0.00000000000E+00  0.00000000000E+00  0.45593999997E+02  0.45594000000E+02  0.51100000000E-03 0.  1.
         11   -1    0    0    0    0 -0.00000000000E+00 -0.00000000000E+00 -0.45593999997E+02  0.45594000000E+02  0.51100000000E-03 0. -1.
    9900012    2    1    2    0    0 -0.53603761732E+01  0.26737878126E+02  0.33763525235E+02  0.47787269641E+02  0.19999993603E+02 0.  0.
         12    1    1    2    0    0  0.53603761732E+01 -0.26737878126E+02 -0.33763525235E+02  0.43400730359E+02  0.00000000000E+00 0. -1.
         11    1    3    3    0    0 -0.11541718507E+02  0.20656885279E+02  0.18367985794E+02  0.29954984191E+02  0.51100000000E-03 0.  1.
        -11    1    3    3    0    0  0.41542307913E+01  0.50601841657E+01  0.97151612941E+01  0.11715265959E+02  0.51100000000E-03 0. -1.
        -12    1    3    3    0    0  0.20271115420E+01  0.10208086815E+01  0.56803781464E+01  0.61170194910E+01  0.00000000000E+00 0.  1.
</event>
<event>
 7    1  0.5426550E-010  0.4778727E+02  0.7816164E-02  0.1312668E+00
        -11   -1    0    0    0    0  0.00000000000E+00  0.00000000000E+00  0.45593999997E+02  0.45594000000E+02  0.51100000000E-03 0. -1.
         11   -1    0    0    0    0 -0.00000000000E+00 -0.00000000000E+00 -0.45593999997E+02  0.45594000000E+02  0.51100000000E-03 0.  1.
    9900012    2    1    2    0    0  0.75597248552E+01 -0.38014434677E+02 -0.19528862327E+02  0.47787272500E+02  0.20000006637E+02 0.  0.
         12    1    1    2    0    0 -0.75597248552E+01  0.38014434677E+02  0.19528862327E+02  0.43400727500E+02  0.00000000000E+00 0. -1.
         11    1    3    3    0    0  0.61976057733E+01 -0.63198144560E+01 -0.11614363851E+02  0.14602870266E+02  0.51100000000E-03 0. -1.
        -11    1    3    3    0    0  0.15648490787E+01 -0.24575381927E+02 -0.36801995432E+01  0.24898634871E+02  0.51100000000E-03 0.  1.
         12    1    3    3    0    0 -0.20272999673E+00 -0.71192382938E+01 -0.42342989325E+01  0.82857673624E+01  0.00000000000E+00 0. -1.
</event>
<event>
 7    1  0.5426550E-010  0.4778727E+02  0.7816164E-02  0.1312668E+00
        -11   -1    0    0    0    0  0.00000000000E+00  0.00000000000E+00  0.45593999997E+02  0.45594000000E+02  0.51100000000E-03 0.  1.
         11   -1    0    0    0    0 -0.00000000000E+00 -0.00000000000E+00 -0.45593999997E+02  0.45594000000E+02  0.51100000000E-03 0. -1.
    9900012    2    1    2    0    0  0.12936255718E+01  0.19563944194E+02  0.38719534278E+02  0.47787265971E+02  0.19999976867E+02 0.  0.
         12    1    1    2    0    0 -0.12936255718E+01 -0.19563944194E+02 -0.38719534278E+02  0.43400734029E+02  0.00000000000E+00 0. -1.
         11    1    3    3    0    0 -0.10440301197E+01  0.41016991923E+01  0.84649182075E+01  0.94640781736E+01  0.51100000000E-03 0. -1.
        -11    1    3    3    0    0 -0.72574473142E+00  0.16334001001E+02  0.31004150457E+02  0.35051157469E+02  0.51100000000E-03 0.  1.
        -12    1    3    3    0    0  0.30634004229E+01 -0.87175599915E+00 -0.74953438589E+00  0.32720303282E+01  0.00000000000E+00 0.  1.
</event>
<event>
 7    1  0.5426550E-010  0.4778727E+02  0.7816164E-02  0.1312668E+00
        -11   -1    0    0    0    0  0.00000000000E+00  0.00000000000E+00  0.45593999997E+02  0.45594000000E+02  0.51100000000E-03 0.  1.
         11   -1    0    0    0    0 -0.00000000000E+00 -0.00000000000E+00 -0.45593999997E+02  0.45594000000E+02  0.51100000000E-03 0. -1.
    9900012    2    1    2    0    0 -0.47140438069E+01 -0.20749102531E+02  0.37826919771E+02  0.47787270465E+02  0.19999997358E+02 0.  0.
         12    1    1    2    0    0  0.47140438069E+01  0.20749102531E+02 -0.37826919771E+02  0.43400729535E+02  0.00000000000E+00 0. -1.
         11    1    3    3    0    0 -0.71037380803E+01 -0.12884072857E+01  0.69757836705E+01  0.10039155648E+02  0.51100000000E-03 0. -1.
        -11    1    3    3    0    0 -0.30695791865E+01 -0.68947311344E+01  0.72894326765E+01  0.10492638505E+02  0.51100000000E-03 0.  1.
         12    1    3    3    0    0  0.54592734599E+01 -0.12565964111E+02  0.23561703424E+02  0.27255476311E+02  0.00000000000E+00 0. -1.
</event>
<event>
 7    1  0.5426550E-010  0.4778727E+02  0.7816164E-02  0.1312668E+00
        -11   -1    0    0    0    0  0.00000000000E+00  0.00000000000E+00  0.45593999997E+02  0.45594000000E+02  0.51100000000E-03 0.  1.
         11   -1    0    0    0    0 -0.00000000000E+00 -0.00000000000E+00 -0.45593999997E+02  0.45594000000E+02  0.51100000000E-03 0. -1.
    9900012    2    1    2    0    0 -0.27746842191E+02 -0.26366502509E+02  0.20458336690E+02  0.47787271363E+02  0.20000001453E+02 0.  0.
         12    1    1    2    0    0  0.27746842191E+02  0.26366502509E+02 -0.20458336690E+02  0.43400728637E+02  0.00000000000E+00 0. -1.
         11    1    3    3    0    0 -0.12911019123E+02 -0.11353730432E+01  0.40644656474E+01  0.13583201684E+02  0.51100000000E-03 0.  1.
        -11    1    3    3    0    0 -0.92000571346E+01 -0.19687811564E+02  0.95072929440E+01  0.23720025186E+02  0.51100000000E-03 0. -1.
        -12    1    3    3    0    0 -0.56357659335E+01 -0.55433179017E+01  0.68865780984E+01  0.10484044493E+02  0.00000000000E+00 0.  1.
</event>
<event>
 7    1  0.5426550E-010  0.4778727E+02  0.7816164E-02  0.1312668E+00
        -11   -1    0    0    0    0  0.00000000000E+00  0.00000000000E+00  0.45593999997E+02  0.45594000000E+02  0.51100000000E-03 0.  1.
         11   -1    0    0    0    0 -0.00000000000E+00 -0.00000000000E+00 -0.45593999997E+02  0.45594000000E+02  0.51100000000E-03 0. -1.
    9900012    2    1    2    0    0 -0.23534560460E+02 -0.36184021332E+01  0.36285739630E+02  0.47787271082E+02  0.20000000173E+02 0.  0.
         12    1    1    2    0    0  0.23534560460E+02  0.36184021332E+01 -0.36285739630E+02  0.43400728918E+02  0.00000000000E+00 0. -1.
         11    1    3    3    0    0 -0.73096602980E+01  0.34302780841E+01  0.13300179384E+01  0.81833299692E+01  0.51100000000E-03 0. -1.
        -11    1    3    3    0    0 -0.12871848924E+02 -0.59565246052E+01  0.32001027199E+02  0.35003291590E+02  0.51100000000E-03 0.  1.
         12    1    3    3    0    0 -0.33530512383E+01 -0.10921556121E+01  0.29546944931E+01  0.46006495232E+01  0.00000000000E+00 0. -1.
</event>
<event>
 7    1  0.5426550E-010  0.4778727E+02  0.7816164E-02  0.1312668E+00
        -11   -1    0    0    0    0  0.00000000000E+00  0.00000000000E+00  0.45593999997E+02  0.45594000000E+02  0.51100000000E-03 0. -1.
         11   -1    0    0    0    0 -0.00000000000E+00 -0.00000000000E+00 -0.45593999997E+02  0.45594000000E+02  0.51100000000E-03 0.  1.
    9900012    2    1    2    0    0  0.42874437858E+02 -0.66842590020E+01 -0.85253645162E+00  0.47787267766E+02  0.19999985054E+02 0.  0.
         12    1    1    2    0    0 -0.42874437858E+02  0.66842590020E+01  0.85253645162E+00  0.43400732234E+02  0.00000000000E+00 0. -1.
         11    1    3    3    0    0  0.25608221423E+01 -0.36808847672E+01 -0.50876484419E-01  0.44843406864E+01  0.51100000000E-03 0. -1.
        -11    1    3    3    0    0  0.14701171685E+00  0.27117590421E+01 -0.25994130209E+00  0.27281530912E+01  0.51100000000E-03 0.  1.
        -12    1    3    3    0    0  0.40166603998E+02 -0.57151332769E+01 -0.54171866512E+00  0.40574773989E+02  0.00000000000E+00 0.  1.
</event>
<event>
 7    1  0.5426550E-010  0.4778725E+02  0.7816164E-02  0.1312668E+00
        -11   -1    0    0    0    0  0.00000000000E+00  0.00000000000E+00  0.45593999997E+02  0.45594000000E+02  0.51100000000E-03 0. -1.
         11   -1    0    0    0    0 -0.00000000000E+00 -0.00000000000E+00 -0.45593999997E+02  0.45594000000E+02  0.51100000000E-03 0.  1.
    9900012    2    1    2    0    0  0.57174080881E+01 -0.26508678344E+02 -0.33885491735E+02  0.47787247323E+02  0.19999891845E+02 0.  0.
         12    1    1    2    0    0 -0.57174080881E+01  0.26508678344E+02  0.33885491735E+02  0.43400752677E+02  0.00000000000E+00 0. -1.
         11    1    3    3    0    0  0.65599376696E+00 -0.50128777449E+01  0.14982003426E+01  0.52729380459E+01  0.51100000000E-03 0. -1.
        -11    1    3    3    0    0  0.11126186719E+00 -0.81793193770E+01 -0.19819248457E+02  0.21440994715E+02  0.51100000000E-03 0.  1.
         12    1    3    3    0    0  0.49501524539E+01 -0.13316481222E+02 -0.15564443620E+02  0.21073314563E+02  0.00000000000E+00 0. -1.
</event>
<event>
 7    1  0.5426550E-010  0.4778725E+02  0.7816164E-02  0.1312668E+00
        -11   -1    0    0    0    0  0.00000000000E+00  0.00000000000E+00  0.45593999997E+02  0.45594000000E+02  0.51100000000E-03 0. -1.
         11   -1    0    0    0    0 -0.00000000000E+00 -0.00000000000E+00 -0.45593999997E+02  0.45594000000E+02  0.51100000000E-03 0.  1.
    9900012    2    1    2    0    0  0.34015302332E+02 -0.18297181669E+02 -0.19793863670E+02  0.47787254745E+02  0.19999925682E+02 0.  0.
         12    1    1    2    0    0 -0.34015302332E+02  0.18297181669E+02  0.19793863670E+02  0.43400745255E+02  0.00000000000E+00 0. -1.
         11    1    3    3    0    0  0.15924492713E+01  0.24701537418E+01 -0.12409499759E+01  0.31902211982E+01  0.51100000000E-03 0. -1.
        -11    1    3    3    0    0  0.28671042191E+02 -0.21726270246E+02 -0.19028122670E+02  0.40695564030E+02  0.51100000000E-03 0.  1.
        -12    1    3    3    0    0  0.37518108689E+01  0.95893483590E+00  0.47520897490E+00  0.39014695161E+01  0.00000000000E+00 0.  1.
</event>
<event>
 7    1  0.5426550E-010  0.4778727E+02  0.7816164E-02  0.1312668E+00
        -11   -1    0    0    0    0  0.00000000000E+00  0.00000000000E+00  0.45593999997E+02  0.45594000000E+02  0.51100000000E-03 0. -1.
         11   -1    0    0    0    0 -0.00000000000E+00 -0.00000000000E+00 -0.45593999997E+02  0.45594000000E+02  0.51100000000E-03 0.  1.
    9900012    2    1    2    0    0  0.21919673184E+01  0.15275699165E+02 -0.40564412200E+02  0.47787271402E+02  0.20000001632E+02 0.  0.
         12    1    1    2    0    0 -0.21919673184E+01 -0.15275699165E+02  0.40564412200E+02  0.43400728598E+02  0.00000000000E+00 0. -1.
         11    1    3    3    0    0 -0.47050204978E+00  0.43439440348E+01 -0.47121124925E+01  0.64261361921E+01  0.51100000000E-03 0. -1.
        -11    1    3    3    0    0  0.93998650488E+01  0.94330602975E+01 -0.27269100675E+02  0.30347058200E+02  0.51100000000E-03 0.  1.
        -12    1    3    3    0    0 -0.67373956806E+01  0.14986948323E+01 -0.85831990326E+01  0.11014077010E+02  0.00000000000E+00 0.  1.
</event>
<event>
 7    1  0.5426550E-010  0.4778727E+02  0.7816164E-02  0.1312668E+00
        -11   -1    0    0    0    0  0.00000000000E+00  0.00000000000E+00  0.45593999997E+02  0.45594000000E+02  0.51100000000E-03 0. -1.
         11   -1    0    0    0    0 -0.00000000000E+00 -0.00000000000E+00 -0.45593999997E+02  0.45594000000E+02  0.51100000000E-03 0.  1.
    9900012    2    1    2    0    0 -0.41679376477E+01 -0.24995426670E+02 -0.35234649334E+02  0.47787267606E+02  0.19999984321E+02 0.  0.
         12    1    1    2    0    0  0.41679376477E+01  0.24995426670E+02  0.35234649334E+02  0.43400732394E+02  0.00000000000E+00 0. -1.
         11    1    3    3    0    0  0.36523288113E+01 -0.19150613952E+02 -0.18087033904E+02  0.26593727008E+02  0.51100000000E-03 0. -1.
        -11    1    3    3    0    0 -0.48792983408E+01  0.95918212605E+00 -0.80027970609E+01  0.94219076470E+01  0.51100000000E-03 0.  1.
        -12    1    3    3    0    0 -0.29409681182E+01 -0.68039948446E+01 -0.91448183693E+01  0.11771632951E+02  0.00000000000E+00 0.  1.
</event>
<event>
 7    1  0.5426550E-010  0.4778727E+02  0.7816164E-02  0.1312668E+00
        -11   -1    0    0    0    0  0.00000000000E+00  0.00000000000E+00  0.45593999997E+02  0.45594000000E+02  0.51100000000E-03 0. -1.
         11   -1    0    0    0    0 -0.00000000000E+00 -0.00000000000E+00 -0.45593999997E+02  0.45594000000E+02  0.51100000000E-03 0.  1.
    9900012    2    1    2    0    0 -0.36278923842E+02  0.15959657227E+02  0.17684811308E+02  0.47787268152E+02  0.19999986810E+02 0.  0.
         12    1    1    2    0    0  0.36278923842E+02 -0.15959657227E+02 -0.17684811308E+02  0.43400731848E+02  0.00000000000E+00 0. -1.
         11    1    3    3    0    0 -0.22268763506E+01  0.14494404528E+01  0.42278373088E+01  0.49934421472E+01  0.51100000000E-03 0. -1.
        -11    1    3    3    0    0 -0.27900667712E+02  0.16667278063E+02  0.62849387832E+01  0.33102052392E+02  0.51100000000E-03 0.  1.
        -12    1    3    3    0    0 -0.61513797800E+01 -0.21570612890E+01  0.71720352165E+01  0.96917736122E+01  0.00000000000E+00 0.  1.
</event>
<event>
 7    1  0.5426550E-010  0.4778727E+02  0.7816164E-02  0.1312668E+00
        -11   -1    0    0    0    0  0.00000000000E+00  0.00000000000E+00  0.45593999997E+02  0.45594000000E+02  0.51100000000E-03 0.  1.
         11   -1    0    0    0    0 -0.00000000000E+00 -0.00000000000E+00 -0.45593999997E+02  0.45594000000E+02  0.51100000000E-03 0. -1.
    9900012    2    1    2    0    0  0.32678239617E+02 -0.25746377972E+02 -0.12364475910E+02  0.47787267429E+02  0.19999983516E+02 0.  0.
         12    1    1    2    0    0 -0.32678239617E+02  0.25746377972E+02  0.12364475910E+02  0.43400732571E+02  0.00000000000E+00 0. -1.
         11    1    3    3    0    0  0.17861837868E+01 -0.40838156000E+01  0.28450996207E+01  0.52879669522E+01  0.51100000000E-03 0. -1.
        -11    1    3    3    0    0  0.13806593335E+02 -0.15854966752E+02 -0.11883069139E+02  0.24149727175E+02  0.51100000000E-03 0.  1.
        -12    1    3    3    0    0  0.17085462495E+02 -0.58075956202E+01 -0.33265063923E+01  0.18349573302E+02  0.00000000000E+00 0.  1.
</event>
<event>
 7    1  0.5426550E-010  0.4778728E+02  0.7816164E-02  0.1312668E+00
        -11   -1    0    0    0    0  0.00000000000E+00  0.00000000000E+00  0.45593999997E+02  0.45594000000E+02  0.51100000000E-03 0. -1.
         11   -1    0    0    0    0 -0.00000000000E+00 -0.00000000000E+00 -0.45593999997E+02  0.45594000000E+02  0.51100000000E-03 0.  1.
    9900012    2    1    2    0    0  0.30138961539E+02 -0.34200539469E+01 -0.31041408513E+02  0.47787276341E+02  0.20000024151E+02 0.  0.
         12    1    1    2    0    0 -0.30138961539E+02  0.34200539469E+01  0.31041408513E+02  0.43400723659E+02  0.00000000000E+00 0. -1.
         11    1    3    3    0    0  0.67482399419E+01  0.54125035377E+01 -0.13474946276E+02  0.16012748491E+02  0.51100000000E-03 0.  1.
        -11    1    3    3    0    0  0.40711305623E+01 -0.13509766804E+01  0.45773306129E+00  0.43137874151E+01  0.51100000000E-03 0. -1.
         12    1    3    3    0    0  0.19319591035E+02 -0.74815808041E+01 -0.18024195298E+02  0.27460740435E+02  0.00000000000E+00 0. -1.
</event>
<event>
 7    1  0.5426550E-010  0.4778726E+02  0.7816164E-02  0.1312668E+00
        -11   -1    0    0    0    0  0.00000000000E+00  0.00000000000E+00  0.45593999997E+02  0.45594000000E+02  0.51100000000E-03 0. -1.
         11   -1    0    0    0    0 -0.00000000000E+00 -0.00000000000E+00 -0.45593999997E+02  0.45594000000E+02  0.51100000000E-03 0.  1.
    9900012    2    1    2    0    0 -0.80802900701E+01  0.35067032502E+02 -0.24261829886E+02  0.47787259850E+02  0.19999948962E+02 0.  0.
         12    1    1    2    0    0  0.80802900701E+01 -0.35067032502E+02  0.24261829886E+02  0.43400740150E+02  0.00000000000E+00 0. -1.
         11    1    3    3    0    0  0.21957699428E+01  0.26367263275E+02 -0.14316166642E+02  0.30083327706E+02  0.51100000000E-03 0. -1.
        -11    1    3    3    0    0 -0.92656040587E+01  0.74713363337E+01 -0.57537027147E+01  0.13220339647E+02  0.51100000000E-03 0.  1.
         12    1    3    3    0    0 -0.10104559542E+01  0.12284328931E+01 -0.41919605291E+01  0.44835924978E+01  0.00000000000E+00 0. -1.
</event>
<event>
 7    1  0.5426550E-010  0.4778727E+02  0.7816164E-02  0.1312668E+00
        -11   -1    0    0    0    0  0.00000000000E+00  0.00000000000E+00  0.45593999997E+02  0.45594000000E+02  0.51100000000E-03 0.  1.
         11   -1    0    0    0    0 -0.00000000000E+00 -0.00000000000E+00 -0.45593999997E+02  0.45594000000E+02  0.51100000000E-03 0. -1.
    9900012    2    1    2    0    0  0.37734551876E+02 -0.59630744211E+01  0.20595357674E+02  0.47787269366E+02  0.19999992349E+02 0.  0.
         12    1    1    2    0    0 -0.37734551876E+02  0.59630744211E+01 -0.20595357674E+02  0.43400730634E+02  0.00000000000E+00 0. -1.
         11    1    3    3    0    0  0.11328010787E+02  0.21107341709E+01 -0.57176646429E+00  0.11537154948E+02  0.51100000000E-03 0. -1.
        -11    1    3    3    0    0  0.12408116760E+02 -0.26802358622E+01  0.15910844552E+02  0.20354360723E+02  0.51100000000E-03 0.  1.
         12    1    3    3    0    0  0.13998424329E+02 -0.53935727298E+01  0.52562795860E+01  0.15895753696E+02  0.00000000000E+00 0. -1.
</event>
<event>
 7    1  0.5426550E-010  0.4778727E+02  0.7816164E-02  0.1312668E+00
        -11   -1    0    0    0    0  0.00000000000E+00  0.00000000000E+00  0.45593999997E+02  0.45594000000E+02  0.51100000000E-03 0.  1.
         11   -1    0    0    0    0 -0.00000000000E+00 -0.00000000000E+00 -0.45593999997E+02  0.45594000000E+02  0.51100000000E-03 0. -1.
    9900012    2    1    2    0    0  0.24665930115E+02  0.25971308751E+02  0.24509309230E+02  0.47787271601E+02  0.20000002538E+02 0.  0.
         12    1    1    2    0    0 -0.24665930115E+02 -0.25971308751E+02 -0.24509309230E+02  0.43400728399E+02  0.00000000000E+00 0. -1.
         11    1    3    3    0    0 -0.48959150477E+00  0.62691611279E+01  0.11415681912E+02  0.13033030149E+02  0.51100000000E-03 0. -1.
        -11    1    3    3    0    0  0.13133061926E+02  0.11642750454E+02  0.54008104330E+01  0.18362998319E+02  0.51100000000E-03 0.  1.
         12    1    3    3    0    0  0.12022459694E+02  0.80593971690E+01  0.76928168844E+01  0.16391243133E+02  0.00000000000E+00 0. -1.
</event>
<event>
 7    1  0.5426550E-010  0.4778726E+02  0.7816164E-02  0.1312668E+00
        -11   -1    0    0    0    0  0.00000000000E+00  0.00000000000E+00  0.45593999997E+02  0.45594000000E+02  0.51100000000E-03 0. -1.
         11   -1    0    0    0    0 -0.00000000000E+00 -0.00000000000E+00 -0.45593999997E+02  0.45594000000E+02  0.51100000000E-03 0.  1.
    9900012    2    1    2    0    0 -0.28822655086E+02  0.30527341748E+02  0.10998171961E+02  0.47787264674E+02  0.19999970954E+02 0.  0.
         12    1    1    2    0    0  0.28822655086E+02 -0.30527341748E+02 -0.10998171961E+02  0.43400735326E+02  0.00000000000E+00 0. -1.
         11    1    3    3    0    0 -0.22746018818E+02  0.22273952053E+02  0.12677084212E+02  0.34266875791E+02  0.51100000000E-03 0. -1.
        -11    1    3    3    0    0 -0.62589122773E+01  0.95808877379E+01 -0.27904791917E+01  0.11779395873E+02  0.51100000000E-03 0.  1.
         12    1    3    3    0    0  0.18227600957E+00 -0.13274980431E+01  0.11115669405E+01  0.17409930101E+01  0.00000000000E+00 0. -1.
</event>
<event>
 7    1  0.5426550E-010  0.4778727E+02  0.7816164E-02  0.1312668E+00
        -11   -1    0    0    0    0  0.00000000000E+00  0.00000000000E+00  0.45593999997E+02  0.45594000000E+02  0.51100000000E-03 0.  1.
         11   -1    0    0    0    0 -0.00000000000E+00 -0.00000000000E+00 -0.45593999997E+02  0.45594000000E+02  0.51100000000E-03 0. -1.
    9900012    2    1    2    0    0 -0.15954707582E+02 -0.34354842633E+02  0.21185265596E+02  0.47787269767E+02  0.19999994175E+02 0.  0.
         12    1    1    2    0    0  0.15954707582E+02  0.34354842633E+02 -0.21185265596E+02  0.43400730233E+02  0.00000000000E+00 0. -1.
         11    1    3    3    0    0 -0.29650797233E+01 -0.34305903420E+00 -0.76997959829E+00  0.30825729690E+01  0.51100000000E-03 0. -1.
        -11    1    3    3    0    0  0.20007021471E+01 -0.12787291425E+02  0.78814995583E+01  0.15153734411E+02  0.51100000000E-03 0.  1.
        -12    1    3    3    0    0 -0.14990330006E+02 -0.21224492174E+02  0.14073745636E+02  0.29550962387E+02  0.00000000000E+00 0.  1.
</event>
<event>
 7    1  0.5426550E-010  0.4778727E+02  0.7816164E-02  0.1312668E+00
        -11   -1    0    0    0    0  0.00000000000E+00  0.00000000000E+00  0.45593999997E+02  0.45594000000E+02  0.51100000000E-03 0. -1.
         11   -1    0    0    0    0 -0.00000000000E+00 -0.00000000000E+00 -0.45593999997E+02  0.45594000000E+02  0.51100000000E-03 0.  1.
    9900012    2    1    2    0    0  0.16183325504E+02  0.29018614168E+02 -0.27922102196E+02  0.47787265172E+02  0.19999973224E+02 0.  0.
         12    1    1    2    0    0 -0.16183325504E+02 -0.29018614168E+02  0.27922102196E+02  0.43400734828E+02  0.00000000000E+00 0. -1.
         11    1    3    3    0    0 -0.30781094818E+01  0.21393901869E+00 -0.48069919152E+01  0.57120661253E+01  0.51100000000E-03 0. -1.
        -11    1    3    3    0    0  0.94047368172E+01  0.15579405199E+02 -0.87050751536E+01  0.20172884639E+02  0.51100000000E-03 0.  1.
         12    1    3    3    0    0  0.98566981689E+01  0.13225269950E+02 -0.14410035127E+02  0.21902314408E+02  0.00000000000E+00 0. -1.
</event>
<event>
 7    1  0.5426550E-010  0.4778727E+02  0.7816164E-02  0.1312668E+00
        -11   -1    0    0    0    0  0.00000000000E+00  0.00000000000E+00  0.45593999997E+02  0.45594000000E+02  0.51100000000E-03 0.  1.
         11   -1    0    0    0    0 -0.00000000000E+00 -0.00000000000E+00 -0.45593999997E+02  0.45594000000E+02  0.51100000000E-03 0. -1.
    9900012    2    1    2    0    0 -0.26447033789E+02 -0.30986120161E+02  0.14967906585E+02  0.47787268826E+02  0.19999989887E+02 0.  0.
         12    1    1    2    0    0  0.26447033789E+02  0.30986120161E+02 -0.14967906585E+02  0.43400731174E+02  0.00000000000E+00 0. -1.
         11    1    3    3    0    0  0.23677524597E+01 -0.39788813992E+01  0.64216895602E+00  0.46744122763E+01  0.51100000000E-03 0. -1.
        -11    1    3    3    0    0 -0.17329767988E+02 -0.20866539144E+02  0.64070859005E+01  0.27870846136E+02  0.51100000000E-03 0.  1.
         12    1    3    3    0    0 -0.11485018262E+02 -0.61406996178E+01  0.79186517288E+01  0.15242010414E+02  0.00000000000E+00 0. -1.
</event>
<event>
 7    1  0.5426550E-010  0.4778730E+02  0.7816164E-02  0.1312668E+00
        -11   -1    0    0    0    0  0.00000000000E+00  0.00000000000E+00  0.45593999997E+02  0.45594000000E+02  0.51100000000E-03 0.  1.
         11   -1    0    0    0    0 -0.00000000000E+00 -0.00000000000E+00 -0.45593999997E+02  0.45594000000E+02  0.51100000000E-03 0. -1.
    9900012    2    1    2    0    0  0.41469646464E+02 -0.11109936120E+02  0.63607281516E+01  0.47787295846E+02  0.20000113081E+02 0.  0.
         12    1    1    2    0    0 -0.41469646464E+02  0.11109936120E+02 -0.63607281516E+01  0.43400704154E+02  0.00000000000E+00 0. -1.
         11    1    3    3    0    0  0.29792631046E+02 -0.93987705235E+01  0.11045299802E+01  0.31259522369E+02  0.51100000000E-03 0.  1.
        -11    1    3    3    0    0  0.12806881710E+02  0.43113180820E+00  0.57677215772E+01  0.14052355896E+02  0.51100000000E-03 0. -1.
         12    1    3    3    0    0 -0.11298662923E+01 -0.21422974044E+01 -0.51152340574E+00  0.24754175813E+01  0.00000000000E+00 0. -1.
</event>
<event>
 7    1  0.5426550E-010  0.4778727E+02  0.7816164E-02  0.1312668E+00
        -11   -1    0    0    0    0  0.00000000000E+00  0.00000000000E+00  0.45593999997E+02  0.45594000000E+02  0.51100000000E-03 0.  1.
         11   -1    0    0    0    0 -0.00000000000E+00 -0.00000000000E+00 -0.45593999997E+02  0.45594000000E+02  0.51100000000E-03 0. -1.
    9900012    2    1    2    0    0  0.14649926375E+02  0.10088155326E+02  0.39588283984E+02  0.47787269021E+02  0.19999990776E+02 0.  0.
         12    1    1    2    0    0 -0.14649926375E+02 -0.10088155326E+02 -0.39588283984E+02  0.43400730979E+02  0.00000000000E+00 0. -1.
         11    1    3    3    0    0  0.14732956732E+02 -0.17967349571E+01  0.22086080197E+02  0.26609832944E+02  0.51100000000E-03 0. -1.
        -11    1    3    3    0    0 -0.36019728342E+00  0.47937427128E+01  0.76619165795E+01  0.90451466108E+01  0.51100000000E-03 0.  1.
         12    1    3    3    0    0  0.27716692596E+00  0.70911475707E+01  0.98402872071E+01  0.12132289466E+02  0.00000000000E+00 0. -1.
</event>
<event>
 7    1  0.5426550E-010  0.4778729E+02  0.7816164E-02  0.1312668E+00
        -11   -1    0    0    0    0  0.00000000000E+00  0.00000000000E+00  0.45593999997E+02  0.45594000000E+02  0.51100000000E-03 0.  1.
         11   -1    0    0    0    0 -0.00000000000E+00 -0.00000000000E+00 -0.45593999997E+02  0.45594000000E+02  0.51100000000E-03 0. -1.
    9900012    2    1    2    0    0  0.50592714134E+01 -0.42961783141E+02 -0.35086325471E+01  0.47787291017E+02  0.20000091060E+02 0.  0.
         12    1    1    2    0    0 -0.50592714134E+01  0.42961783141E+02  0.35086325471E+01  0.43400708983E+02  0.00000000000E+00 0. -1.
         11    1    3    3    0    0  0.34893857588E+01 -0.19404816221E+02 -0.92941801399E+01  0.21796891757E+02  0.51100000000E-03 0. -1.
        -11    1    3    3    0    0 -0.16256129015E+01 -0.21222661247E+02  0.56887133467E+01  0.22031918380E+02  0.51100000000E-03 0.  1.
        -12    1    3    3    0    0  0.31954985561E+01 -0.23343056734E+01  0.96834246120E-01  0.39584808791E+01  0.00000000000E+00 0.  1.
</event>
<event>
 7    1  0.5426550E-010  0.4778727E+02  0.7816164E-02  0.1312668E+00
        -11   -1    0    0    0    0  0.00000000000E+00  0.00000000000E+00  0.45593999997E+02  0.45594000000E+02  0.51100000000E-03 0. -1.
         11   -1    0    0    0    0 -0.00000000000E+00 -0.00000000000E+00 -0.45593999997E+02  0.45594000000E+02  0.51100000000E-03 0.  1.
    9900012    2    1    2    0    0  0.42495345890E+02  0.83157188408E+01 -0.29355920993E+01  0.47787270707E+02  0.19999998462E+02 0.  0.
         12    1    1    2    0    0 -0.42495345890E+02 -0.83157188408E+01  0.29355920993E+01  0.43400729293E+02  0.00000000000E+00 0. -1.
         11    1    3    3    0    0  0.26850565612E+02  0.10466377130E+02  0.35138122199E+01  0.29031789482E+02  0.51100000000E-03 0. -1.
        -11    1    3    3    0    0  0.12158512861E+02 -0.27831355527E+01 -0.13497978734E+01  0.12545805397E+02  0.51100000000E-03 0.  1.
         12    1    3    3    0    0  0.34862674167E+01  0.63247726361E+00 -0.50996064458E+01  0.62096758282E+01  0.00000000000E+00 0. -1.
</event>
<event>
 7    1  0.5426550E-010  0.4778727E+02  0.7816164E-02  0.1312668E+00
        -11   -1    0    0    0    0  0.00000000000E+00  0.00000000000E+00  0.45593999997E+02  0.45594000000E+02  0.51100000000E-03 0.  1.
         11   -1    0    0    0    0 -0.00000000000E+00 -0.00000000000E+00 -0.45593999997E+02  0.45594000000E+02  0.51100000000E-03 0. -1.
    9900012    2    1    2    0    0  0.11389496939E+02  0.22353288094E+02  0.35415156470E+02  0.47787269166E+02  0.19999991433E+02 0.  0.
         12    1    1    2    0    0 -0.11389496939E+02 -0.22353288094E+02 -0.35415156470E+02  0.43400730834E+02  0.00000000000E+00 0. -1.
         11    1    3    3    0    0  0.28276714208E+01 -0.15992297111E+01  0.14333936151E+01  0.35507575037E+01  0.51100000000E-03 0. -1.
        -11    1    3    3    0    0 -0.86439650644E+00  0.15879156343E+02  0.18567887535E+02  0.24447110980E+02  0.51100000000E-03 0.  1.
        -12    1    3    3    0    0  0.94262220250E+01  0.80733614616E+01  0.15413875321E+02  0.19789400682E+02  0.00000000000E+00 0.  1.
</event>
<event>
 7    1  0.5426550E-010  0.4778727E+02  0.7816164E-02  0.1312668E+00
        -11   -1    0    0    0    0  0.00000000000E+00  0.00000000000E+00  0.45593999997E+02  0.45594000000E+02  0.51100000000E-03 0.  1.
         11   -1    0    0    0    0 -0.00000000000E+00 -0.00000000000E+00 -0.45593999997E+02  0.45594000000E+02  0.51100000000E-03 0. -1.
    9900012    2    1    2    0    0  0.13881649268E+02  0.35423185264E+02 -0.20883509160E+02  0.47787271947E+02  0.20000004116E+02 0.  0.
         12    1    1    2    0    0 -0.13881649268E+02 -0.35423185264E+02  0.20883509160E+02  0.43400728053E+02  0.00000000000E+00 0. -1.
         11    1    3    3    0    0  0.19187597839E+01  0.19995014576E+02 -0.19005786006E+01  0.20176581630E+02  0.51100000000E-03 0. -1.
        -11    1    3    3    0    0  0.11548894401E+02  0.15125840929E+02 -0.19218425839E+02  0.27046550939E+02  0.51100000000E-03 0.  1.
         12    1    3    3    0    0  0.41399508243E+00  0.30232975974E+00  0.23549527913E+00  0.56413937852E+00  0.00000000000E+00 0. -1.
</event>
<event>
 7    1  0.7113295E-010  0.4778727E+02  0.7816164E-02  0.1312668E+00
        -11   -1    0    0    0    0  0.00000000000E+00  0.00000000000E+00  0.45593999997E+02  0.45594000000E+02  0.51100000000E-03 0.  1.
         11   -1    0    0    0    0 -0.00000000000E+00 -0.00000000000E+00 -0.45593999997E+02  0.45594000000E+02  0.51100000000E-03 0. -1.
    9900012    2    1    2    0    0 -0.32190032013E+02  0.10843790953E+02 -0.27015500458E+02  0.47787271570E+02  0.20000002398E+02 0.  0.
         12    1    1    2    0    0  0.32190032013E+02 -0.10843790953E+02  0.27015500458E+02  0.43400728430E+02  0.00000000000E+00 0. -1.
         11    1    3    3    0    0 -0.74723246841E+01 -0.17166523039E+01 -0.32667130818E+00  0.76739328718E+01  0.51100000000E-03 0. -1.
        -11    1    3    3    0    0 -0.22255583795E+02  0.64189580284E+01 -0.22439346244E+02  0.32249624685E+02  0.51100000000E-03 0.  1.
         12    1    3    3    0    0 -0.24621235337E+01  0.61414852290E+01 -0.42494829064E+01  0.78637140134E+01  0.00000000000E+00 0. -1.
</event>
<event>
 7    1  0.5426550E-010  0.4778727E+02  0.7816164E-02  0.1312668E+00
        -11   -1    0    0    0    0  0.00000000000E+00  0.00000000000E+00  0.45593999997E+02  0.45594000000E+02  0.51100000000E-03 0.  1.
         11   -1    0    0    0    0 -0.00000000000E+00 -0.00000000000E+00 -0.45593999997E+02  0.45594000000E+02  0.51100000000E-03 0. -1.
    9900012    2    1    2    0    0 -0.12498080478E+02 -0.59511825324E+01  0.41133984632E+02  0.47787270964E+02  0.19999999633E+02 0.  0.
         12    1    1    2    0    0  0.12498080478E+02  0.59511825324E+01 -0.41133984632E+02  0.43400729036E+02  0.00000000000E+00 0. -1.
         11    1    3    3    0    0 -0.50510293183E+00  0.13840673184E+01 -0.11464397984E+01  0.18668411251E+01  0.51100000000E-03 0. -1.
        -11    1    3    3    0    0 -0.12285552758E+02 -0.73773220710E+01  0.26411427979E+02  0.30048680764E+02  0.51100000000E-03 0.  1.
        -12    1    3    3    0    0  0.29257521142E+00  0.42072220167E-01  0.15868996451E+02  0.15871749075E+02  0.00000000000E+00 0.  1.
</event>
<event>
 7    1  0.5426550E-010  0.4778727E+02  0.7816164E-02  0.1312668E+00
        -11   -1    0    0    0    0  0.00000000000E+00  0.00000000000E+00  0.45593999997E+02  0.45594000000E+02  0.51100000000E-03 0.  1.
         11   -1    0    0    0    0 -0.00000000000E+00 -0.00000000000E+00 -0.45593999997E+02  0.45594000000E+02  0.51100000000E-03 0. -1.
    9900012    2    1    2    0    0  0.34780438286E+02 -0.67263009881E+01  0.25073920533E+02  0.47787268402E+02  0.19999987952E+02 0.  0.
         12    1    1    2    0    0 -0.34780438286E+02  0.67263009881E+01 -0.25073920533E+02  0.43400731598E+02  0.00000000000E+00 0. -1.
         11    1    3    3    0    0  0.45061867100E+01 -0.71793348301E+01  0.38522509285E+01  0.93106608114E+01  0.51100000000E-03 0. -1.
        -11    1    3    3    0    0  0.12761981299E+02  0.50628875177E+01  0.11579740958E+02  0.17960829536E+02  0.51100000000E-03 0.  1.
         12    1    3    3    0    0  0.17512270277E+02 -0.46098536757E+01  0.96419286462E+01  0.20515778055E+02  0.00000000000E+00 0. -1.
</event>
<event>
 7    1  0.5426550E-010  0.4778721E+02  0.7816164E-02  0.1312668E+00
        -11   -1    0    0    0    0  0.00000000000E+00  0.00000000000E+00  0.45593999997E+02  0.45594000000E+02  0.51100000000E-03 0.  1.
         11   -1    0    0    0    0 -0.00000000000E+00 -0.00000000000E+00 -0.45593999997E+02  0.45594000000E+02  0.51100000000E-03 0. -1.
    9900012    2    1    2    0    0  0.14850870058E+02  0.24375320788E+02  0.32694401693E+02  0.47787210756E+02  0.19999725117E+02 0.  0.
         12    1    1    2    0    0 -0.14850870058E+02 -0.24375320788E+02 -0.32694401693E+02  0.43400789244E+02  0.00000000000E+00 0. -1.
         11    1    3    3    0    0  0.16922310188E+01 -0.12407976336E+01  0.56391921798E+01  0.60169521595E+01  0.51100000000E-03 0. -1.
        -11    1    3    3    0    0  0.10438905526E+02  0.10777585962E+02  0.66948252341E+01  0.16430088038E+02  0.51100000000E-03 0.  1.
        -12    1    3    3    0    0  0.27197335130E+01  0.14838532459E+02  0.20360384279E+02  0.25340170558E+02  0.00000000000E+00 0.  1.
</event>
<event>
 7    1  0.5426550E-010  0.4778727E+02  0.7816164E-02  0.1312668E+00
        -11   -1    0    0    0    0  0.00000000000E+00  0.00000000000E+00  0.45593999997E+02  0.45594000000E+02  0.51100000000E-03 0.  1.
         11   -1    0    0    0    0 -0.00000000000E+00 -0.00000000000E+00 -0.45593999997E+02  0.45594000000E+02  0.51100000000E-03 0. -1.
    9900012    2    1    2    0    0 -0.39097563163E+01 -0.43150149945E+02 -0.25302488987E+01  0.47787265050E+02  0.19999972670E+02 0.  0.
         12    1    1    2    0    0  0.39097563163E+01  0.43150149945E+02  0.25302488987E+01  0.43400734950E+02  0.00000000000E+00 0. -1.
         11    1    3    3    0    0 -0.19103546066E+01 -0.17784688383E+01 -0.48114068195E+01  0.54737594006E+01  0.51100000000E-03 0. -1.
        -11    1    3    3    0    0 -0.52801619632E+01 -0.25659828697E+02  0.11394381584E+01  0.26222227951E+02  0.51100000000E-03 0.  1.
        -12    1    3    3    0    0  0.32807602536E+01 -0.15711852409E+02  0.11417197624E+01  0.16091277699E+02  0.00000000000E+00 0.  1.
</event>
<event>
 7    1  0.5426550E-010  0.4778727E+02  0.7816164E-02  0.1312668E+00
        -11   -1    0    0    0    0  0.00000000000E+00  0.00000000000E+00  0.45593999997E+02  0.45594000000E+02  0.51100000000E-03 0. -1.
         11   -1    0    0    0    0 -0.00000000000E+00 -0.00000000000E+00 -0.45593999997E+02  0.45594000000E+02  0.51100000000E-03 0.  1.
    9900012    2    1    2    0    0 -0.13086523580E+02 -0.22274801987E+02 -0.34874048622E+02  0.47787272238E+02  0.20000005443E+02 0.  0.
         12    1    1    2    0    0  0.13086523580E+02  0.22274801987E+02  0.34874048622E+02  0.43400727762E+02  0.00000000000E+00 0. -1.
         11    1    3    3    0    0  0.26491213472E+01 -0.46959058755E+01 -0.15062088637E+02  0.15997996445E+02  0.51100000000E-03 0. -1.
        -11    1    3    3    0    0 -0.16586341205E+02 -0.17074811862E+02 -0.19436238867E+02  0.30731470779E+02  0.51100000000E-03 0.  1.
        -12    1    3    3    0    0  0.85069627808E+00 -0.50408424946E+00 -0.37572111848E+00  0.10578050137E+01  0.00000000000E+00 0.  1.
</event>
<event>
 7    1  0.5426550E-010  0.4778727E+02  0.7816164E-02  0.1312668E+00
        -11   -1    0    0    0    0  0.00000000000E+00  0.00000000000E+00  0.45593999997E+02  0.45594000000E+02  0.51100000000E-03 0. -1.
         11   -1    0    0    0    0 -0.00000000000E+00 -0.00000000000E+00 -0.45593999997E+02  0.45594000000E+02  0.51100000000E-03 0.  1.
    9900012    2    1    2    0    0 -0.15489801759E+02  0.39104251780E+02 -0.10702644412E+02  0.47787273472E+02  0.20000011068E+02 0.  0.
         12    1    1    2    0    0  0.15489801759E+02 -0.39104251780E+02  0.10702644412E+02  0.43400726528E+02  0.00000000000E+00 0. -1.
         11    1    3    3    0    0  0.27913555326E+01  0.13342638425E+02  0.12778629139E+01  0.13691259977E+02  0.51100000000E-03 0. -1.
        -11    1    3    3    0    0 -0.99465387310E+01  0.15000379567E+02 -0.91606063224E+01  0.20195586853E+02  0.51100000000E-03 0.  1.
         12    1    3    3    0    0 -0.83346185602E+01  0.10761233787E+02 -0.28199010037E+01  0.13900426642E+02  0.00000000000E+00 0. -1.
</event>
<event>
 7    1  0.5426550E-010  0.4778727E+02  0.7816164E-02  0.1312668E+00
        -11   -1    0    0    0    0  0.00000000000E+00  0.00000000000E+00  0.45593999997E+02  0.45594000000E+02  0.51100000000E-03 0.  1.
         11   -1    0    0    0    0 -0.00000000000E+00 -0.00000000000E+00 -0.45593999997E+02  0.45594000000E+02  0.51100000000E-03 0. -1.
    9900012    2    1    2    0    0  0.14084804623E+02 -0.21501821268E+02  0.34970181540E+02  0.47787266872E+02  0.19999980975E+02 0.  0.
         12    1    1    2    0    0 -0.14084804623E+02  0.21501821268E+02 -0.34970181540E+02  0.43400733128E+02  0.00000000000E+00 0. -1.
         11    1    3    3    0    0 -0.18483806181E+01 -0.17533960892E+00  0.20202952181E+01  0.27438746176E+01  0.51100000000E-03 0. -1.
        -11    1    3    3    0    0  0.56482141049E+01 -0.12727520680E+02  0.26994098383E+02  0.30373894268E+02  0.51100000000E-03 0.  1.
        -12    1    3    3    0    0  0.10284971136E+02 -0.85989609796E+01  0.59557879396E+01  0.14669497986E+02  0.00000000000E+00 0.  1.
</event>
<event>
 7    1  0.5426550E-010  0.4778727E+02  0.7816164E-02  0.1312668E+00
        -11   -1    0    0    0    0  0.00000000000E+00  0.00000000000E+00  0.45593999997E+02  0.45594000000E+02  0.51100000000E-03 0.  1.
         11   -1    0    0    0    0 -0.00000000000E+00 -0.00000000000E+00 -0.45593999997E+02  0.45594000000E+02  0.51100000000E-03 0. -1.
    9900012    2    1    2    0    0  0.41256335749E+02  0.13199118611E+02  0.27057290707E+01  0.47787274875E+02  0.20000017466E+02 0.  0.
         12    1    1    2    0    0 -0.41256335749E+02 -0.13199118611E+02 -0.27057290707E+01  0.43400725125E+02  0.00000000000E+00 0. -1.
         11    1    3    3    0    0  0.12350710039E+01  0.15137852133E+01 -0.60360750149E+00  0.20448198780E+01  0.51100000000E-03 0. -1.
        -11    1    3    3    0    0 -0.16492640203E+01  0.29662700908E+00  0.18822409170E+01  0.25200973239E+01  0.51100000000E-03 0.  1.
        -12    1    3    3    0    0  0.41670528766E+02  0.11388706388E+02  0.14270956552E+01  0.43222357673E+02  0.00000000000E+00 0.  1.
</event>
<event>
 7    1  0.5426550E-010  0.4778726E+02  0.7816164E-02  0.1312668E+00
        -11   -1    0    0    0    0  0.00000000000E+00  0.00000000000E+00  0.45593999997E+02  0.45594000000E+02  0.51100000000E-03 0.  1.
         11   -1    0    0    0    0 -0.00000000000E+00 -0.00000000000E+00 -0.45593999997E+02  0.45594000000E+02  0.51100000000E-03 0. -1.
    9900012    2    1    2    0    0 -0.85658857226E+01  0.41867012197E+02  0.75764829496E+01  0.47787260347E+02  0.19999951228E+02 0.  0.
         12    1    1    2    0    0  0.85658857226E+01 -0.41867012197E+02 -0.75764829496E+01  0.43400739653E+02  0.00000000000E+00 0. -1.
         11    1    3    3    0    0 -0.61969975455E+01  0.12369178362E+02 -0.32917759811E+00  0.13838631077E+02  0.51100000000E-03 0. -1.
        -11    1    3    3    0    0 -0.15145636688E+01  0.14278687965E+00  0.40535216553E+01  0.43295876560E+01  0.51100000000E-03 0.  1.
        -12    1    3    3    0    0 -0.85432450824E+00  0.29355046955E+02  0.38521388924E+01  0.29619041614E+02  0.00000000000E+00 0.  1.
</event>
<event>
 7    1  0.5426550E-010  0.4778727E+02  0.7816164E-02  0.1312668E+00
        -11   -1    0    0    0    0  0.00000000000E+00  0.00000000000E+00  0.45593999997E+02  0.45594000000E+02  0.51100000000E-03 0.  1.
         11   -1    0    0    0    0 -0.00000000000E+00 -0.00000000000E+00 -0.45593999997E+02  0.45594000000E+02  0.51100000000E-03 0. -1.
    9900012    2    1    2    0    0  0.18867957772E+02  0.83089319379E+01  0.38191428110E+02  0.47787270035E+02  0.19999995399E+02 0.  0.
         12    1    1    2    0    0 -0.18867957772E+02 -0.83089319379E+01 -0.38191428110E+02  0.43400729965E+02  0.00000000000E+00 0. -1.
         11    1    3    3    0    0  0.30822573916E+01  0.30431812028E+01  0.13354525116E+01  0.45326257437E+01  0.51100000000E-03 0. -1.
        -11    1    3    3    0    0  0.16407326893E+02  0.86025509082E+01  0.34378824497E+02  0.39052629002E+02  0.51100000000E-03 0.  1.
        -12    1    3    3    0    0 -0.62162651300E+00 -0.33368001730E+01  0.24771511008E+01  0.42020152894E+01  0.00000000000E+00 0.  1.
</event>
<event>
 7    1  0.5426550E-010  0.4778726E+02  0.7816164E-02  0.1312668E+00
        -11   -1    0    0    0    0  0.00000000000E+00  0.00000000000E+00  0.45593999997E+02  0.45594000000E+02  0.51100000000E-03 0. -1.
         11   -1    0    0    0    0 -0.00000000000E+00 -0.00000000000E+00 -0.45593999997E+02  0.45594000000E+02  0.51100000000E-03 0.  1.
    9900012    2    1    2    0    0  0.40974510662E+02 -0.12270239520E+02 -0.73590311923E+01  0.47787255283E+02  0.19999928138E+02 0.  0.
         12    1    1    2    0    0 -0.40974510662E+02  0.12270239520E+02  0.73590311923E+01  0.43400744717E+02  0.00000000000E+00 0. -1.
         11    1    3    3    0    0  0.12656050970E+02 -0.42282383894E+01  0.58254885041E+01  0.14559874402E+02  0.51100000000E-03 0. -1.
        -11    1    3    3    0    0  0.28004604120E+02 -0.80382356810E+01 -0.14021279882E+02  0.32333687921E+02  0.51100000000E-03 0.  1.
        -12    1    3    3    0    0  0.31385557211E+00 -0.37654492167E-02  0.83676018558E+00  0.89369296009E+00  0.00000000000E+00 0.  1.
</event>
<event>
 7    1  0.5426550E-010  0.4778727E+02  0.7816164E-02  0.1312668E+00
        -11   -1    0    0    0    0  0.00000000000E+00  0.00000000000E+00  0.45593999997E+02  0.45594000000E+02  0.51100000000E-03 0.  1.
         11   -1    0    0    0    0 -0.00000000000E+00 -0.00000000000E+00 -0.45593999997E+02  0.45594000000E+02  0.51100000000E-03 0. -1.
    9900012    2    1    2    0    0  0.12683586336E+01 -0.26000080353E+02  0.34727661823E+02  0.47787269503E+02  0.19999992971E+02 0.  0.
         12    1    1    2    0    0 -0.12683586336E+01  0.26000080353E+02 -0.34727661823E+02  0.43400730497E+02  0.00000000000E+00 0. -1.
         11    1    3    3    0    0  0.85484693528E+00 -0.53503961342E+00 -0.24238948410E+01  0.26253184820E+01  0.51100000000E-03 0. -1.
        -11    1    3    3    0    0 -0.96882515470E+00 -0.17489343774E+02  0.23853511178E+02  0.29594015672E+02  0.51100000000E-03 0.  1.
         12    1    3    3    0    0  0.13823368531E+01 -0.79756969654E+01  0.13298045486E+02  0.15567935349E+02  0.00000000000E+00 0. -1.
</event>
<event>
 7    1  0.5426550E-010  0.4778727E+02  0.7816164E-02  0.1312668E+00
        -11   -1    0    0    0    0  0.00000000000E+00  0.00000000000E+00  0.45593999997E+02  0.45594000000E+02  0.51100000000E-03 0.  1.
         11   -1    0    0    0    0 -0.00000000000E+00 -0.00000000000E+00 -0.45593999997E+02  0.45594000000E+02  0.51100000000E-03 0. -1.
    9900012    2    1    2    0    0 -0.22631211542E+02  0.12477738079E+02  0.34867714084E+02  0.47787272255E+02  0.20000005518E+02 0.  0.
         12    1    1    2    0    0  0.22631211542E+02 -0.12477738079E+02 -0.34867714084E+02  0.43400727745E+02  0.00000000000E+00 0. -1.
         11    1    3    3    0    0 -0.56366136100E+00 -0.42263881764E+01  0.18909956651E+01  0.46643258906E+01  0.51100000000E-03 0. -1.
        -11    1    3    3    0    0 -0.19521079823E+02  0.14921712715E+02  0.27968662966E+02  0.37228700973E+02  0.51100000000E-03 0.  1.
         12    1    3    3    0    0 -0.25464703576E+01  0.17824135402E+01  0.50080554524E+01  0.58942453906E+01  0.00000000000E+00 0. -1.
</event>
<event>
 7    1  0.5426550E-010  0.4778725E+02  0.7816164E-02  0.1312668E+00
        -11   -1    0    0    0    0  0.00000000000E+00  0.00000000000E+00  0.45593999997E+02  0.45594000000E+02  0.51100000000E-03 0. -1.
         11   -1    0    0    0    0 -0.00000000000E+00 -0.00000000000E+00 -0.45593999997E+02  0.45594000000E+02  0.51100000000E-03 0.  1.
    9900012    2    1    2    0    0 -0.24821619426E+02 -0.21738088704E+02 -0.28195171448E+02  0.47787251338E+02  0.19999910152E+02 0.  0.
         12    1    1    2    0    0  0.24821619426E+02  0.21738088704E+02  0.28195171448E+02  0.43400748662E+02  0.00000000000E+00 0. -1.
         11    1    3    3    0    0  0.15111171989E+00  0.28339563973E-01  0.19892061377E+01  0.19951388929E+01  0.51100000000E-03 0. -1.
        -11    1    3    3    0    0 -0.30613086647E+01 -0.76675179605E+01 -0.56562626589E+01  0.10007784467E+02  0.51100000000E-03 0.  1.
         12    1    3    3    0    0 -0.21911422481E+02 -0.14098910308E+02 -0.24528114926E+02  0.35784327978E+02  0.00000000000E+00 0. -1.
</event>
<event>
 7    1  0.5426550E-010  0.4778727E+02  0.7816164E-02  0.1312668E+00
        -11   -1    0    0    0    0  0.00000000000E+00  0.00000000000E+00  0.45593999997E+02  0.45594000000E+02  0.51100000000E-03 0.  1.
         11   -1    0    0    0    0 -0.00000000000E+00 -0.00000000000E+00 -0.45593999997E+02  0.45594000000E+02  0.51100000000E-03 0. -1.
    9900012    2    1    2    0    0 -0.25360333823E+02 -0.73251313386E+01  0.34450241713E+02  0.47787271494E+02  0.20000002049E+02 0.  0.
         12    1    1    2    0    0  0.25360333823E+02  0.73251313386E+01 -0.34450241713E+02  0.43400728506E+02  0.00000000000E+00 0. -1.
         11    1    3    3    0    0 -0.13704612546E+02  0.13828325629E+01  0.49141784030E+01  0.14624560868E+02  0.51100000000E-03 0. -1.
        -11    1    3    3    0    0 -0.10721968091E+02 -0.87069863618E+01  0.25297229590E+02  0.28822248983E+02  0.51100000000E-03 0.  1.
         12    1    3    3    0    0 -0.93375318635E+00 -0.97753969942E-03  0.42388337206E+01  0.43404616435E+01  0.00000000000E+00 0. -1.
</event>
<event>
 7    1  0.5426550E-010  0.4778727E+02  0.7816164E-02  0.1312668E+00
        -11   -1    0    0    0    0  0.00000000000E+00  0.00000000000E+00  0.45593999997E+02  0.45594000000E+02  0.51100000000E-03 0.  1.
         11   -1    0    0    0    0 -0.00000000000E+00 -0.00000000000E+00 -0.45593999997E+02  0.45594000000E+02  0.51100000000E-03 0. -1.
    9900012    2    1    2    0    0  0.12667771669E+02 -0.11147161361E+02  0.39986139997E+02  0.47787273770E+02  0.20000012427E+02 0.  0.
         12    1    1    2    0    0 -0.12667771669E+02  0.11147161361E+02 -0.39986139997E+02  0.43400726230E+02  0.00000000000E+00 0. -1.
         11    1    3    3    0    0  0.15702468809E+02 -0.71394272025E+01  0.23200652353E+02  0.28910365223E+02  0.51100000000E-03 0. -1.
        -11    1    3    3    0    0 -0.64927182419E+00 -0.48914987226E+01  0.14940931653E+02  0.15734667222E+02  0.51100000000E-03 0.  1.
         12    1    3    3    0    0 -0.23854253155E+01  0.88376456460E+00  0.18445559904E+01  0.31422413248E+01  0.00000000000E+00 0. -1.
</event>
<event>
 7    1  0.5426550E-010  0.4778727E+02  0.7816164E-02  0.1312668E+00
        -11   -1    0    0    0    0  0.00000000000E+00  0.00000000000E+00  0.45593999997E+02  0.45594000000E+02  0.51100000000E-03 0.  1.
         11   -1    0    0    0    0 -0.00000000000E+00 -0.00000000000E+00 -0.45593999997E+02  0.45594000000E+02  0.51100000000E-03 0. -1.
    9900012    2    1    2    0    0  0.35273495462E+02  0.13632675388E+02  0.21296807237E+02  0.47787270526E+02  0.19999997636E+02 0.  0.
         12    1    1    2    0    0 -0.35273495462E+02 -0.13632675388E+02 -0.21296807237E+02  0.43400729474E+02  0.00000000000E+00 0. -1.
         11    1    3    3    0    0  0.41934024207E+01 -0.33537204222E+01  0.67539584861E+01  0.86283266063E+01  0.51100000000E-03 0. -1.
        -11    1    3    3    0    0  0.92562490926E+01  0.10976018791E+01  0.29170593152E+01  0.97668885761E+01  0.51100000000E-03 0.  1.
         12    1    3    3    0    0  0.21823843949E+02  0.15888793932E+02  0.11625789436E+02  0.29392055344E+02  0.00000000000E+00 0. -1.
</event>
<event>
 7    1  0.5426550E-010  0.4778727E+02  0.7816164E-02  0.1312668E+00
        -11   -1    0    0    0    0  0.00000000000E+00  0.00000000000E+00  0.45593999997E+02  0.45594000000E+02  0.51100000000E-03 0.  1.
         11   -1    0    0    0    0 -0.00000000000E+00 -0.00000000000E+00 -0.45593999997E+02  0.45594000000E+02  0.51100000000E-03 0. -1.
    9900012    2    1    2    0    0 -0.81444371356E+01 -0.23090925451E+02  0.35834347214E+02  0.47787272648E+02  0.20000007311E+02 0.  0.
         12    1    1    2    0    0  0.81444371356E+01  0.23090925451E+02 -0.35834347214E+02  0.43400727352E+02  0.00000000000E+00 0. -1.
         11    1    3    3    0    0 -0.28080712467E+01  0.39027515309E-01  0.12593341509E+01  0.30777768013E+01  0.51100000000E-03 0.  1.
        -11    1    3    3    0    0  0.54414125036E+01 -0.59297286784E+01  0.98924690849E+01  0.12752709402E+02  0.51100000000E-03 0. -1.
        -12    1    3    3    0    0 -0.10777778393E+02 -0.17200224288E+02  0.24682543978E+02  0.31956786445E+02  0.00000000000E+00 0.  1.
</event>
<event>
 7    1  0.5426550E-010  0.4778727E+02  0.7816164E-02  0.1312668E+00
        -11   -1    0    0    0    0  0.00000000000E+00  0.00000000000E+00  0.45593999997E+02  0.45594000000E+02  0.51100000000E-03 0. -1.
         11   -1    0    0    0    0 -0.00000000000E+00 -0.00000000000E+00 -0.45593999997E+02  0.45594000000E+02  0.51100000000E-03 0.  1.
    9900012    2    1    2    0    0 -0.15314696159E+02 -0.28182155012E+02 -0.29237807037E+02  0.47787272588E+02  0.20000007040E+02 0.  0.
         12    1    1    2    0    0  0.15314696159E+02  0.28182155012E+02  0.29237807037E+02  0.43400727412E+02  0.00000000000E+00 0. -1.
         11    1    3    3    0    0 -0.20156975696E+01 -0.16620088396E+02 -0.85686858751E+01  0.18807252667E+02  0.51100000000E-03 0. -1.
        -11    1    3    3    0    0 -0.52346363892E+01 -0.10941789077E+02 -0.11004750494E+02  0.16377689093E+02  0.51100000000E-03 0.  1.
         12    1    3    3    0    0 -0.80643622000E+01 -0.62027753891E+00 -0.96643706673E+01  0.12602330829E+02  0.00000000000E+00 0. -1.
</event>
<event>
 7    1  0.5426550E-010  0.4778727E+02  0.7816164E-02  0.1312668E+00
        -11   -1    0    0    0    0  0.00000000000E+00  0.00000000000E+00  0.45593999997E+02  0.45594000000E+02  0.51100000000E-03 0.  1.
         11   -1    0    0    0    0 -0.00000000000E+00 -0.00000000000E+00 -0.45593999997E+02  0.45594000000E+02  0.51100000000E-03 0. -1.
    9900012    2    1    2    0    0  0.26581132306E+02 -0.14129770058E+02  0.31263656040E+02  0.47787272062E+02  0.20000004640E+02 0.  0.
         12    1    1    2    0    0 -0.26581132306E+02  0.14129770058E+02 -0.31263656040E+02  0.43400727938E+02  0.00000000000E+00 0. -1.
         11    1    3    3    0    0  0.10129799049E+02 -0.21120225125E+01  0.44917294806E+00  0.10357375365E+02  0.51100000000E-03 0. -1.
        -11    1    3    3    0    0  0.13200383555E+02 -0.83668446443E+01  0.18729477367E+02  0.24393596250E+02  0.51100000000E-03 0.  1.
         12    1    3    3    0    0  0.32509497016E+01 -0.36509029011E+01  0.12085005725E+02  0.13036300446E+02  0.00000000000E+00 0. -1.
</event>
<event>
 7    1  0.5426550E-010  0.4778727E+02  0.7816164E-02  0.1312668E+00
        -11   -1    0    0    0    0  0.00000000000E+00  0.00000000000E+00  0.45593999997E+02  0.45594000000E+02  0.51100000000E-03 0.  1.
         11   -1    0    0    0    0 -0.00000000000E+00 -0.00000000000E+00 -0.45593999997E+02  0.45594000000E+02  0.51100000000E-03 0. -1.
    9900012    2    1    2    0    0 -0.74906151916E+01  0.35824840643E+02  0.23325835283E+02  0.47787272878E+02  0.20000008362E+02 0.  0.
         12    1    1    2    0    0  0.74906151916E+01 -0.35824840643E+02 -0.23325835283E+02  0.43400727122E+02  0.00000000000E+00 0. -1.
         11    1    3    3    0    0 -0.84955178080E+01  0.54152513605E+01  0.26326817209E+01  0.10412962279E+02  0.51100000000E-03 0. -1.
        -11    1    3    3    0    0  0.16196515127E+01  0.13672167307E+02  0.13028869825E+02  0.18955286309E+02  0.51100000000E-03 0.  1.
        -12    1    3    3    0    0 -0.61474889623E+00  0.16737421976E+02  0.76642837370E+01  0.18419024290E+02  0.00000000000E+00 0.  1.
</event>
<event>
 7    1  0.5426550E-010  0.4778727E+02  0.7816164E-02  0.1312668E+00
        -11   -1    0    0    0    0  0.00000000000E+00  0.00000000000E+00  0.45593999997E+02  0.45594000000E+02  0.51100000000E-03 0. -1.
         11   -1    0    0    0    0 -0.00000000000E+00 -0.00000000000E+00 -0.45593999997E+02  0.45594000000E+02  0.51100000000E-03 0.  1.
    9900012    2    1    2    0    0 -0.11580717886E+02 -0.27194050153E+02 -0.31780403001E+02  0.47787269530E+02  0.19999993094E+02 0.  0.
         12    1    1    2    0    0  0.11580717886E+02  0.27194050153E+02  0.31780403001E+02  0.43400730470E+02  0.00000000000E+00 0. -1.
         11    1    3    3    0    0  0.50790816027E+00 -0.30494728688E+01  0.39606958792E+00  0.31167494054E+01  0.51100000000E-03 0. -1.
        -11    1    3    3    0    0 -0.13159541261E+02 -0.11170620129E+02 -0.22938728619E+02  0.28707865668E+02  0.51100000000E-03 0.  1.
        -12    1    3    3    0    0  0.10709152153E+01 -0.12973957155E+02 -0.92377439697E+01  0.15962654457E+02  0.00000000000E+00 0.  1.
</event>
<event>
 7    1  0.5426550E-010  0.4778727E+02  0.7816164E-02  0.1312668E+00
        -11   -1    0    0    0    0  0.00000000000E+00  0.00000000000E+00  0.45593999997E+02  0.45594000000E+02  0.51100000000E-03 0.  1.
         11   -1    0    0    0    0 -0.00000000000E+00 -0.00000000000E+00 -0.45593999997E+02  0.45594000000E+02  0.51100000000E-03 0. -1.
    9900012    2    1    2    0    0  0.15244076380E+02 -0.24920703321E+02  0.32096723120E+02  0.47787274732E+02  0.20000016815E+02 0.  0.
         12    1    1    2    0    0 -0.15244076380E+02  0.24920703321E+02 -0.32096723120E+02  0.43400725268E+02  0.00000000000E+00 0. -1.
         11    1    3    3    0    0  0.38602368245E+01 -0.14730413888E+02  0.72844765398E+01  0.16880465645E+02  0.51100000000E-03 0. -1.
        -11    1    3    3    0    0  0.64163070794E+01 -0.22587821527E+01  0.18250478288E+02  0.19476936396E+02  0.51100000000E-03 0.  1.
        -12    1    3    3    0    0  0.49675324762E+01 -0.79315072805E+01  0.65617682919E+01  0.11429872692E+02  0.00000000000E+00 0.  1.
</event>
<event>
 7    1  0.5426550E-010  0.4778722E+02  0.7816164E-02  0.1312668E+00
        -11   -1    0    0    0    0  0.00000000000E+00  0.00000000000E+00  0.45593999997E+02  0.45594000000E+02  0.51100000000E-03 0.  1.
         11   -1    0    0    0    0 -0.00000000000E+00 -0.00000000000E+00 -0.45593999997E+02  0.45594000000E+02  0.51100000000E-03 0. -1.
    9900012    2    1    2    0    0  0.36730304643E+02  0.10531101472E+02  0.20581745185E+02  0.47787221064E+02  0.19999772120E+02 0.  0.
         12    1    1    2    0    0 -0.36730304643E+02 -0.10531101472E+02 -0.20581745185E+02  0.43400778936E+02  0.00000000000E+00 0. -1.
         11    1    3    3    0    0  0.18016989900E+01  0.22708009385E+01  0.31568812999E+01  0.42858553353E+01  0.51100000000E-03 0. -1.
        -11    1    3    3    0    0  0.48260708621E+01  0.69369381107E+00  0.10676752709E+02  0.11737342959E+02  0.51100000000E-03 0.  1.
        -12    1    3    3    0    0  0.30102534790E+02  0.75666067227E+01  0.67481111763E+01  0.31764022770E+02  0.00000000000E+00 0.  1.
</event>
<event>
 7    1  0.5426550E-010  0.4778732E+02  0.7816164E-02  0.1312668E+00
        -11   -1    0    0    0    0  0.00000000000E+00  0.00000000000E+00  0.45593999997E+02  0.45594000000E+02  0.51100000000E-03 0. -1.
         11   -1    0    0    0    0 -0.00000000000E+00 -0.00000000000E+00 -0.45593999997E+02  0.45594000000E+02  0.51100000000E-03 0.  1.
    9900012    2    1    2    0    0 -0.33538744333E+02  0.10287085402E+02 -0.25552844629E+02  0.47787316063E+02  0.20000205258E+02 0.  0.
         12    1    1    2    0    0  0.33538744333E+02 -0.10287085402E+02  0.25552844629E+02  0.43400683937E+02  0.00000000000E+00 0. -1.
         11    1    3    3    0    0 -0.34445347447E+01 -0.11756463978E+01 -0.35146376304E+01  0.50596088776E+01  0.51100000000E-03 0. -1.
        -11    1    3    3    0    0 -0.37420947227E+01 -0.10747473430E+01  0.24769620375E+01  0.46145092871E+01  0.51100000000E-03 0.  1.
        -12    1    3    3    0    0 -0.26352114866E+02  0.12537479143E+02 -0.24515169036E+02  0.38113197899E+02  0.00000000000E+00 0.  1.
</event>
<event>
 7    1  0.5426550E-010  0.4778727E+02  0.7816164E-02  0.1312668E+00
        -11   -1    0    0    0    0  0.00000000000E+00  0.00000000000E+00  0.45593999997E+02  0.45594000000E+02  0.51100000000E-03 0. -1.
         11   -1    0    0    0    0 -0.00000000000E+00 -0.00000000000E+00 -0.45593999997E+02  0.45594000000E+02  0.51100000000E-03 0.  1.
    9900012    2    1    2    0    0  0.41918816534E+02 -0.99041356790E+01 -0.53239295954E+01  0.47787270634E+02  0.19999998127E+02 0.  0.
         12    1    1    2    0    0 -0.41918816534E+02  0.99041356790E+01  0.53239295954E+01  0.43400729366E+02  0.00000000000E+00 0. -1.
         11    1    3    3    0    0  0.24247944102E+02 -0.99985051687E+01 -0.43321158874E+01  0.26583832062E+02  0.51100000000E-03 0.  1.
        -11    1    3    3    0    0  0.11611063063E+02  0.38941682396E+01 -0.47354765779E+01  0.13130349212E+02  0.51100000000E-03 0. -1.
        -12    1    3    3    0    0  0.60598093692E+01 -0.37997987499E+01  0.37436628700E+01  0.80730893601E+01  0.00000000000E+00 0.  1.
</event>
<event>
 7    1  0.5426550E-010  0.4778727E+02  0.7816164E-02  0.1312668E+00
        -11   -1    0    0    0    0  0.00000000000E+00  0.00000000000E+00  0.45593999997E+02  0.45594000000E+02  0.51100000000E-03 0. -1.
         11   -1    0    0    0    0 -0.00000000000E+00 -0.00000000000E+00 -0.45593999997E+02  0.45594000000E+02  0.51100000000E-03 0.  1.
    9900012    2    1    2    0    0  0.76528049289E+01  0.36979791882E+02 -0.21390485807E+02  0.47787270582E+02  0.19999997892E+02 0.  0.
         12    1    1    2    0    0 -0.76528049289E+01 -0.36979791882E+02  0.21390485807E+02  0.43400729418E+02  0.00000000000E+00 0. -1.
         11    1    3    3    0    0  0.19308395816E+01  0.12507788611E+02 -0.18595887379E+02  0.22493997980E+02  0.51100000000E-03 0. -1.
        -11    1    3    3    0    0  0.43960924024E+01  0.19375539897E+02 -0.20180922299E+01  0.19970224616E+02  0.51100000000E-03 0.  1.
         12    1    3    3    0    0  0.13258729449E+01  0.50964633746E+01 -0.77650619829E+00  0.53230479869E+01  0.00000000000E+00 0. -1.
</event>
<event>
 7    1  0.5426550E-010  0.4778727E+02  0.7816164E-02  0.1312668E+00
        -11   -1    0    0    0    0  0.00000000000E+00  0.00000000000E+00  0.45593999997E+02  0.45594000000E+02  0.51100000000E-03 0.  1.
         11   -1    0    0    0    0 -0.00000000000E+00 -0.00000000000E+00 -0.45593999997E+02  0.45594000000E+02  0.51100000000E-03 0. -1.
    9900012    2    1    2    0    0 -0.60104217020E+01  0.34984382630E+02  0.24971801990E+02  0.47787273144E+02  0.20000009573E+02 0.  0.
         12    1    1    2    0    0  0.60104217020E+01 -0.34984382630E+02 -0.24971801990E+02  0.43400726856E+02  0.00000000000E+00 0. -1.
         11    1    3    3    0    0  0.34552646283E+01  0.17768472541E+02  0.19564731903E+02  0.26654009169E+02  0.51100000000E-03 0. -1.
        -11    1    3    3    0    0 -0.63387499123E+01  0.58078294618E+01  0.24784462827E+01  0.89472526367E+01  0.51100000000E-03 0.  1.
         12    1    3    3    0    0 -0.31269364179E+01  0.11408080627E+02  0.29286238043E+01  0.12186011339E+02  0.00000000000E+00 0. -1.
</event>
<event>
 7    1  0.5426550E-010  0.4778726E+02  0.7816164E-02  0.1312668E+00
        -11   -1    0    0    0    0  0.00000000000E+00  0.00000000000E+00  0.45593999997E+02  0.45594000000E+02  0.51100000000E-03 0.  1.
         11   -1    0    0    0    0 -0.00000000000E+00 -0.00000000000E+00 -0.45593999997E+02  0.45594000000E+02  0.51100000000E-03 0. -1.
    9900012    2    1    2    0    0  0.27372559924E+02  0.44544039390E+01  0.33384507629E+02  0.47787261517E+02  0.19999956560E+02 0.  0.
         12    1    1    2    0    0 -0.27372559924E+02 -0.44544039390E+01 -0.33384507629E+02  0.43400738483E+02  0.00000000000E+00 0. -1.
         11    1    3    3    0    0  0.17323468609E+01  0.21702519299E+01  0.89485240072E-01  0.27783136891E+01  0.51100000000E-03 0. -1.
        -11    1    3    3    0    0  0.14222590583E+02 -0.19410613364E+01  0.68687182843E+01  0.15913173572E+02  0.51100000000E-03 0.  1.
        -12    1    3    3    0    0  0.11417622480E+02  0.42252133455E+01  0.26426304105E+02  0.29095774256E+02  0.00000000000E+00 0.  1.
</event>
<event>
 7    1  0.5426550E-010  0.4778727E+02  0.7816164E-02  0.1312668E+00
        -11   -1    0    0    0    0  0.00000000000E+00  0.00000000000E+00  0.45593999997E+02  0.45594000000E+02  0.51100000000E-03 0.  1.
         11   -1    0    0    0    0 -0.00000000000E+00 -0.00000000000E+00 -0.45593999997E+02  0.45594000000E+02  0.51100000000E-03 0. -1.
    9900012    2    1    2    0    0  0.26704127640E+02 -0.55960468299E+01  0.33751996842E+02  0.47787268854E+02  0.19999990015E+02 0.  0.
         12    1    1    2    0    0 -0.26704127640E+02  0.55960468299E+01 -0.33751996842E+02  0.43400731146E+02  0.00000000000E+00 0. -1.
         11    1    3    3    0    0  0.12360373597E+01 -0.26414021694E+01  0.40069683337E+01  0.49558641288E+01  0.51100000000E-03 0. -1.
        -11    1    3    3    0    0  0.54955057381E+01  0.10436513099E+01  0.18991579521E+02  0.19798229324E+02  0.51100000000E-03 0.  1.
        -12    1    3    3    0    0  0.19972584543E+02 -0.39982959705E+01  0.10753448987E+02  0.23033175402E+02  0.00000000000E+00 0.  1.
</event>
<event>
 7    1  0.5426550E-010  0.4778727E+02  0.7816164E-02  0.1312668E+00
        -11   -1    0    0    0    0  0.00000000000E+00  0.00000000000E+00  0.45593999997E+02  0.45594000000E+02  0.51100000000E-03 0.  1.
         11   -1    0    0    0    0 -0.00000000000E+00 -0.00000000000E+00 -0.45593999997E+02  0.45594000000E+02  0.51100000000E-03 0. -1.
    9900012    2    1    2    0    0  0.13068366772E+02  0.35462222448E+02 -0.21337094910E+02  0.47787273621E+02  0.20000011748E+02 0.  0.
         12    1    1    2    0    0 -0.13068366772E+02 -0.35462222448E+02  0.21337094910E+02  0.43400726379E+02  0.00000000000E+00 0. -1.
         11    1    3    3    0    0  0.55892654572E+01  0.36950843424E+01  0.87057687112E+00  0.67565850101E+01  0.51100000000E-03 0. -1.
        -11    1    3    3    0    0  0.40709602203E+01  0.30343437153E+02 -0.21073045385E+02  0.37166788097E+02  0.51100000000E-03 0.  1.
        -12    1    3    3    0    0  0.34081410949E+01  0.14237009525E+01 -0.11346263957E+01  0.38639005141E+01  0.00000000000E+00 0.  1.
</event>
<event>
 7    1  0.5426550E-010  0.4778727E+02  0.7816164E-02  0.1312668E+00
        -11   -1    0    0    0    0  0.00000000000E+00  0.00000000000E+00  0.45593999997E+02  0.45594000000E+02  0.51100000000E-03 0.  1.
         11   -1    0    0    0    0 -0.00000000000E+00 -0.00000000000E+00 -0.45593999997E+02  0.45594000000E+02  0.51100000000E-03 0. -1.
    9900012    2    1    2    0    0 -0.14439615615E+02 -0.26880963553E+02  0.30863160182E+02  0.47787270086E+02  0.19999995632E+02 0.  0.
         12    1    1    2    0    0  0.14439615615E+02  0.26880963553E+02 -0.30863160182E+02  0.43400729914E+02  0.00000000000E+00 0. -1.
         11    1    3    3    0    0  0.35914492641E+01 -0.13921658291E+01  0.85141168279E+01  0.93448819753E+01  0.51100000000E-03 0. -1.
        -11    1    3    3    0    0 -0.94001555710E+01 -0.14159378287E+02  0.11185359821E+02  0.20346085442E+02  0.51100000000E-03 0.  1.
         12    1    3    3    0    0 -0.86309093086E+01 -0.11329419437E+02  0.11163683532E+02  0.18096302669E+02  0.00000000000E+00 0. -1.
</event>
<event>
 7    1  0.5426550E-010  0.4778727E+02  0.7816164E-02  0.1312668E+00
        -11   -1    0    0    0    0  0.00000000000E+00  0.00000000000E+00  0.45593999997E+02  0.45594000000E+02  0.51100000000E-03 0.  1.
         11   -1    0    0    0    0 -0.00000000000E+00 -0.00000000000E+00 -0.45593999997E+02  0.45594000000E+02  0.51100000000E-03 0. -1.
    9900012    2    1    2    0    0 -0.16544288413E+02 -0.39172806524E+02  0.86833626736E+01  0.47787273769E+02  0.20000012422E+02 0.  0.
         12    1    1    2    0    0  0.16544288413E+02  0.39172806524E+02 -0.86833626736E+01  0.43400726231E+02  0.00000000000E+00 0. -1.
         11    1    3    3    0    0 -0.31420605274E+01 -0.23919921007E+02  0.62063318833E+01  0.24910915701E+02  0.51100000000E-03 0. -1.
        -11    1    3    3    0    0 -0.48773379416E+01 -0.12926350950E+02  0.24967194792E+01  0.14039678868E+02  0.51100000000E-03 0.  1.
         12    1    3    3    0    0 -0.85248899444E+01 -0.23265345667E+01 -0.19688688839E-01  0.88366792009E+01  0.00000000000E+00 0. -1.
</event>
<event>
 7    1  0.5426550E-010  0.4778727E+02  0.7816164E-02  0.1312668E+00
        -11   -1    0    0    0    0  0.00000000000E+00  0.00000000000E+00  0.45593999997E+02  0.45594000000E+02  0.51100000000E-03 0.  1.
         11   -1    0    0    0    0 -0.00000000000E+00 -0.00000000000E+00 -0.45593999997E+02  0.45594000000E+02  0.51100000000E-03 0. -1.
    9900012    2    1    2    0    0 -0.14934477077E+01 -0.46692973197E+01  0.43122967114E+02  0.47787274013E+02  0.20000013535E+02 0.  0.
         12    1    1    2    0    0  0.14934477077E+01  0.46692973197E+01 -0.43122967114E+02  0.43400725987E+02  0.00000000000E+00 0. -1.
         11    1    3    3    0    0  0.42292119401E+00 -0.32271891399E+01 -0.56568049271E+00  0.33035748459E+01  0.51100000000E-03 0. -1.
        -11    1    3    3    0    0  0.11304391121E+01  0.49177205442E+00  0.35660049895E+02  0.35681352148E+02  0.51100000000E-03 0.  1.
        -12    1    3    3    0    0 -0.30468080138E+01 -0.19338802342E+01  0.80285977110E+01  0.88023470188E+01  0.00000000000E+00 0.  1.
</event>
<event>
 7    1  0.5426550E-010  0.4778727E+02  0.7816164E-02  0.1312668E+00
        -11   -1    0    0    0    0  0.00000000000E+00  0.00000000000E+00  0.45593999997E+02  0.45594000000E+02  0.51100000000E-03 0.  1.
         11   -1    0    0    0    0 -0.00000000000E+00 -0.00000000000E+00 -0.45593999997E+02  0.45594000000E+02  0.51100000000E-03 0. -1.
    9900012    2    1    2    0    0  0.36803395581E+02  0.14536336143E+02  0.17827738350E+02  0.47787271326E+02  0.20000001285E+02 0.  0.
         12    1    1    2    0    0 -0.36803395581E+02 -0.14536336143E+02 -0.17827738350E+02  0.43400728674E+02  0.00000000000E+00 0. -1.
         11    1    3    3    0    0 -0.14477994256E+01  0.28854464523E+00  0.38488006687E+01  0.41222139728E+01  0.51100000000E-03 0. -1.
        -11    1    3    3    0    0  0.26249838534E+02  0.67581418915E+01  0.10714568838E+02  0.29146672032E+02  0.51100000000E-03 0.  1.
         12    1    3    3    0    0  0.12001356472E+02  0.74896496062E+01  0.32643688429E+01  0.14518385321E+02  0.00000000000E+00 0. -1.
</event>
<event>
 7    1  0.5426550E-010  0.4778727E+02  0.7816164E-02  0.1312668E+00
        -11   -1    0    0    0    0  0.00000000000E+00  0.00000000000E+00  0.45593999997E+02  0.45594000000E+02  0.51100000000E-03 0.  1.
         11   -1    0    0    0    0 -0.00000000000E+00 -0.00000000000E+00 -0.45593999997E+02  0.45594000000E+02  0.51100000000E-03 0. -1.
    9900012    2    1    2    0    0  0.55191934910E+01  0.13634603750E+02  0.40832086499E+02  0.47787271849E+02  0.20000003669E+02 0.  0.
         12    1    1    2    0    0 -0.55191934910E+01 -0.13634603750E+02 -0.40832086499E+02  0.43400728151E+02  0.00000000000E+00 0. -1.
         11    1    3    3    0    0  0.85182934710E+01 -0.60358966002E+00  0.96284364129E+01  0.12869826423E+02  0.51100000000E-03 0. -1.
        -11    1    3    3    0    0  0.29747882720E+00  0.10206678268E+02  0.23456165565E+02  0.25582347003E+02  0.51100000000E-03 0.  1.
         12    1    3    3    0    0 -0.32965788073E+01  0.40315151419E+01  0.77474845205E+01  0.93350984230E+01  0.00000000000E+00 0. -1.
</event>
<event>
 7    1  0.5426550E-010  0.4778727E+02  0.7816164E-02  0.1312668E+00
        -11   -1    0    0    0    0  0.00000000000E+00  0.00000000000E+00  0.45593999997E+02  0.45594000000E+02  0.51100000000E-03 0. -1.
         11   -1    0    0    0    0 -0.00000000000E+00 -0.00000000000E+00 -0.45593999997E+02  0.45594000000E+02  0.51100000000E-03 0.  1.
    9900012    2    1    2    0    0 -0.24125144644E+02  0.29464559455E+02 -0.20819240394E+02  0.47787266843E+02  0.19999980846E+02 0.  0.
         12    1    1    2    0    0  0.24125144644E+02 -0.29464559455E+02  0.20819240394E+02  0.43400733157E+02  0.00000000000E+00 0. -1.
         11    1    3    3    0    0  0.12277863362E+01  0.31834586818E+01  0.21766019489E+01  0.40471551454E+01  0.51100000000E-03 0. -1.
        -11    1    3    3    0    0 -0.84050102301E+01  0.10646587210E+02 -0.12345259678E+02  0.18341195516E+02  0.51100000000E-03 0.  1.
         12    1    3    3    0    0 -0.16947920750E+02  0.15634513563E+02 -0.10650582665E+02  0.25398916182E+02  0.00000000000E+00 0. -1.
</event>
<event>
 7    1  0.5426550E-010  0.4778727E+02  0.7816164E-02  0.1312668E+00
        -11   -1    0    0    0    0  0.00000000000E+00  0.00000000000E+00  0.45593999997E+02  0.45594000000E+02  0.51100000000E-03 0. -1.
         11   -1    0    0    0    0 -0.00000000000E+00 -0.00000000000E+00 -0.45593999997E+02  0.45594000000E+02  0.51100000000E-03 0.  1.
    9900012    2    1    2    0    0  0.30687863353E+02  0.30466028493E+02 -0.37012788048E+01  0.47787270581E+02  0.19999997889E+02 0.  0.
         12    1    1    2    0    0 -0.30687863353E+02 -0.30466028493E+02  0.37012788048E+01  0.43400729419E+02  0.00000000000E+00 0. -1.
         11    1    3    3    0    0  0.13730291467E+02  0.21899327431E+02 -0.55434706415E+01  0.26435421554E+02  0.51100000000E-03 0. -1.
        -11    1    3    3    0    0  0.11036312270E+02  0.92489182965E+01 -0.15684901308E+01  0.14484572473E+02  0.51100000000E-03 0.  1.
         12    1    3    3    0    0  0.59212596163E+01 -0.68221723488E+00  0.34106819675E+01  0.68672765550E+01  0.00000000000E+00 0. -1.
</event>
<event>
 7    1  0.5426550E-010  0.4778730E+02  0.7816164E-02  0.1312668E+00
        -11   -1    0    0    0    0  0.00000000000E+00  0.00000000000E+00  0.45593999997E+02  0.45594000000E+02  0.51100000000E-03 0. -1.
         11   -1    0    0    0    0 -0.00000000000E+00 -0.00000000000E+00 -0.45593999997E+02  0.45594000000E+02  0.51100000000E-03 0.  1.
    9900012    2    1    2    0    0 -0.12963039669E+02 -0.20294170307E+02 -0.36107163506E+02  0.47787297213E+02  0.20000119315E+02 0.  0.
         12    1    1    2    0    0  0.12963039669E+02  0.20294170307E+02  0.36107163506E+02  0.43400702787E+02  0.00000000000E+00 0. -1.
         11    1    3    3    0    0  0.88580507153E+00  0.45918385750E+00 -0.18174500435E+01  0.20733126541E+01  0.51100000000E-03 0. -1.
        -11    1    3    3    0    0 -0.75301144573E+01 -0.10489529506E+02 -0.30433054611E+02  0.33059093548E+02  0.51100000000E-03 0.  1.
        -12    1    3    3    0    0 -0.63187302836E+01 -0.10263824658E+02 -0.38566588517E+01  0.12654891011E+02  0.00000000000E+00 0.  1.
</event>
<event>
 7    1  0.5426550E-010  0.4778728E+02  0.7816164E-02  0.1312668E+00
        -11   -1    0    0    0    0  0.00000000000E+00  0.00000000000E+00  0.45593999997E+02  0.45594000000E+02  0.51100000000E-03 0. -1.
         11   -1    0    0    0    0 -0.00000000000E+00 -0.00000000000E+00 -0.45593999997E+02  0.45594000000E+02  0.51100000000E-03 0.  1.
    9900012    2    1    2    0    0 -0.12313497374E+02  0.39850558184E+02 -0.11997218737E+02  0.47787280391E+02  0.20000042615E+02 0.  0.
         12    1    1    2    0    0  0.12313497374E+02 -0.39850558184E+02  0.11997218737E+02  0.43400719609E+02  0.00000000000E+00 0. -1.
         11    1    3    3    0    0 -0.73059018900E+01  0.11433688451E+02 -0.19373150281E+01  0.13706152772E+02  0.51100000000E-03 0.  1.
        -11    1    3    3    0    0  0.12996610474E+01  0.12983795752E+02 -0.11437977302E+02  0.17352100622E+02  0.51100000000E-03 0. -1.
        -12    1    3    3    0    0 -0.63072565310E+01  0.15433073981E+02  0.13780735935E+01  0.16729026997E+02  0.00000000000E+00 0.  1.
</event>
<event>
 7    1  0.5426550E-010  0.4778727E+02  0.7816164E-02  0.1312668E+00
        -11   -1    0    0    0    0  0.00000000000E+00  0.00000000000E+00  0.45593999997E+02  0.45594000000E+02  0.51100000000E-03 0.  1.
         11   -1    0    0    0    0 -0.00000000000E+00 -0.00000000000E+00 -0.45593999997E+02  0.45594000000E+02  0.51100000000E-03 0. -1.
    9900012    2    1    2    0    0 -0.14395571980E+02 -0.39963951243E+02  0.89035713063E+01  0.47787268743E+02  0.19999989508E+02 0.  0.
         12    1    1    2    0    0  0.14395571980E+02  0.39963951243E+02 -0.89035713063E+01  0.43400731257E+02  0.00000000000E+00 0. -1.
         11    1    3    3    0    0  0.97422407620E+00 -0.72013741206E+00 -0.36785400486E+00  0.12661071333E+01  0.51100000000E-03 0. -1.
        -11    1    3    3    0    0 -0.12287068933E+01 -0.55869484255E+00 -0.32105214081E+01  0.34827156831E+01  0.51100000000E-03 0.  1.
        -12    1    3    3    0    0 -0.14141089163E+02 -0.38685118989E+02  0.12481946719E+02  0.43038445927E+02  0.00000000000E+00 0.  1.
</event>
<event>
 7    1  0.6541549E-010  0.4778727E+02  0.7816164E-02  0.1312668E+00
        -11   -1    0    0    0    0  0.00000000000E+00  0.00000000000E+00  0.45593999997E+02  0.45594000000E+02  0.51100000000E-03 0. -1.
         11   -1    0    0    0    0 -0.00000000000E+00 -0.00000000000E+00 -0.45593999997E+02  0.45594000000E+02  0.51100000000E-03 0.  1.
    9900012    2    1    2    0    0 -0.39100903017E+02  0.14944962135E+02  0.11462576293E+02  0.47787272296E+02  0.20000005707E+02 0.  0.
         12    1    1    2    0    0  0.39100903017E+02 -0.14944962135E+02 -0.11462576293E+02  0.43400727704E+02  0.00000000000E+00 0. -1.
         11    1    3    3    0    0 -0.22483492325E+01  0.52423621049E+01 -0.15551823564E+01  0.59123622295E+01  0.51100000000E-03 0. -1.
        -11    1    3    3    0    0 -0.14038051946E+02 -0.10189998302E+01  0.79408981798E+01  0.16160542294E+02  0.51100000000E-03 0.  1.
        -12    1    3    3    0    0 -0.22814501839E+02  0.10721599860E+02  0.50768604694E+01  0.25714367772E+02  0.00000000000E+00 0.  1.
</event>
<event>
 7    1  0.5450470E-010  0.4778727E+02  0.7816164E-02  0.1312668E+00
        -11   -1    0    0    0    0  0.00000000000E+00  0.00000000000E+00  0.45593999997E+02  0.45594000000E+02  0.51100000000E-03 0.  1.
         11   -1    0    0    0    0 -0.00000000000E+00 -0.00000000000E+00 -0.45593999997E+02  0.45594000000E+02  0.51100000000E-03 0. -1.
    9900012    2    1    2    0    0  0.22660164394E+02 -0.28317808848E+01  0.36906925723E+02  0.47787271900E+02  0.20000003899E+02 0.  0.
         12    1    1    2    0    0 -0.22660164394E+02  0.28317808848E+01 -0.36906925723E+02  0.43400728100E+02  0.00000000000E+00 0. -1.
         11    1    3    3    0    0  0.63906252271E+00 -0.80424279998E+00 -0.17679781752E+01  0.20447382420E+01  0.51100000000E-03 0. -1.
        -11    1    3    3    0    0  0.12622573107E+02 -0.55989213596E+01  0.27066333445E+02  0.30385254296E+02  0.51100000000E-03 0.  1.
        -12    1    3    3    0    0  0.93985287637E+01  0.35713832748E+01  0.11608570453E+02  0.15357279362E+02  0.00000000000E+00 0.  1.
</event>
<event>
 7    1  0.5426550E-010  0.4778727E+02  0.7816164E-02  0.1312668E+00
        -11   -1    0    0    0    0  0.00000000000E+00  0.00000000000E+00  0.45593999997E+02  0.45594000000E+02  0.51100000000E-03 0. -1.
         11   -1    0    0    0    0 -0.00000000000E+00 -0.00000000000E+00 -0.45593999997E+02  0.45594000000E+02  0.51100000000E-03 0.  1.
    9900012    2    1    2    0    0  0.43587369567E+01 -0.43013433774E+02 -0.38038722254E+01  0.47787268246E+02  0.19999987240E+02 0.  0.
         12    1    1    2    0    0 -0.43587369567E+01  0.43013433774E+02  0.38038722254E+01  0.43400731754E+02  0.00000000000E+00 0. -1.
         11    1    3    3    0    0  0.11838449276E+01 -0.29569002531E+02 -0.19561077985E+01  0.29657271578E+02  0.51100000000E-03 0. -1.
        -11    1    3    3    0    0  0.25634376641E+01 -0.20585639355E+01  0.41115094879E+01  0.52643526349E+01  0.51100000000E-03 0.  1.
         12    1    3    3    0    0  0.61145436499E+00 -0.11385867308E+02 -0.59592739148E+01  0.12865644033E+02  0.00000000000E+00 0. -1.
</event>
<event>
 7    1  0.5426550E-010  0.4778727E+02  0.7816164E-02  0.1312668E+00
        -11   -1    0    0    0    0  0.00000000000E+00  0.00000000000E+00  0.45593999997E+02  0.45594000000E+02  0.51100000000E-03 0. -1.
         11   -1    0    0    0    0 -0.00000000000E+00 -0.00000000000E+00 -0.45593999997E+02  0.45594000000E+02  0.51100000000E-03 0.  1.
    9900012    2    1    2    0    0  0.77069503663E+00 -0.24473289704E+02 -0.35834165418E+02  0.47787270847E+02  0.19999999101E+02 0.  0.
         12    1    1    2    0    0 -0.77069503663E+00  0.24473289704E+02  0.35834165418E+02  0.43400729153E+02  0.00000000000E+00 0. -1.
         11    1    3    3    0    0 -0.18750763878E+01 -0.17442413124E+02 -0.14276516627E+02  0.22617971047E+02  0.51100000000E-03 0. -1.
        -11    1    3    3    0    0 -0.16665716790E+01 -0.62692396859E+01 -0.54360358914E+01  0.84635284530E+01  0.51100000000E-03 0.  1.
         12    1    3    3    0    0  0.43123431034E+01 -0.76163689451E+00 -0.16121612900E+02  0.16705771347E+02  0.00000000000E+00 0. -1.
</event>
<event>
 7    1  0.5426550E-010  0.4778726E+02  0.7816164E-02  0.1312668E+00
        -11   -1    0    0    0    0  0.00000000000E+00  0.00000000000E+00  0.45593999997E+02  0.45594000000E+02  0.51100000000E-03 0.  1.
         11   -1    0    0    0    0 -0.00000000000E+00 -0.00000000000E+00 -0.45593999997E+02  0.45594000000E+02  0.51100000000E-03 0. -1.
    9900012    2    1    2    0    0  0.18026328407E+02 -0.36971392871E+02  0.13848895829E+02  0.47787258965E+02  0.19999944927E+02 0.  0.
         12    1    1    2    0    0 -0.18026328407E+02  0.36971392871E+02 -0.13848895829E+02  0.43400741035E+02  0.00000000000E+00 0. -1.
         11    1    3    3    0    0 -0.81657152957E+00 -0.91585034688E+01 -0.42181795506E+00  0.92045046308E+01  0.51100000000E-03 0. -1.
        -11    1    3    3    0    0  0.16803508622E+02 -0.26435481912E+02  0.16373998681E+02  0.35345444388E+02  0.51100000000E-03 0.  1.
        -12    1    3    3    0    0  0.20393913145E+01 -0.13774074902E+01 -0.21032848974E+01  0.32373099461E+01  0.00000000000E+00 0.  1.
</event>
<event>
 7    1  0.5426550E-010  0.4778727E+02  0.7816164E-02  0.1312668E+00
        -11   -1    0    0    0    0  0.00000000000E+00  0.00000000000E+00  0.45593999997E+02  0.45594000000E+02  0.51100000000E-03 0.  1.
         11   -1    0    0    0    0 -0.00000000000E+00 -0.00000000000E+00 -0.45593999997E+02  0.45594000000E+02  0.51100000000E-03 0. -1.
    9900012    2    1    2    0    0  0.36056978896E+02  0.41786183898E+01  0.23791945296E+02  0.47787271437E+02  0.20000001792E+02 0.  0.
         12    1    1    2    0    0 -0.36056978896E+02 -0.41786183898E+01 -0.23791945296E+02  0.43400728563E+02  0.00000000000E+00 0. -1.
         11    1    3    3    0    0  0.15082749854E+02  0.29928232932E+01  0.38455451405E+01  0.15850380188E+02  0.51100000000E-03 0. -1.
        -11    1    3    3    0    0  0.51868653810E+01  0.15222447283E+01  0.14096114323E+02  0.15097060667E+02  0.51100000000E-03 0.  1.
        -12    1    3    3    0    0  0.15787363662E+02 -0.33644963166E+00  0.58502858325E+01  0.16839830583E+02  0.00000000000E+00 0.  1.
</event>
<event>
 7    1  0.5426550E-010  0.4778727E+02  0.7816164E-02  0.1312668E+00
        -11   -1    0    0    0    0  0.00000000000E+00  0.00000000000E+00  0.45593999997E+02  0.45594000000E+02  0.51100000000E-03 0. -1.
         11   -1    0    0    0    0 -0.00000000000E+00 -0.00000000000E+00 -0.45593999997E+02  0.45594000000E+02  0.51100000000E-03 0.  1.
    9900012    2    1    2    0    0  0.40278872262E+02  0.51813786562E+01 -0.15309770067E+02  0.47787270801E+02  0.19999998891E+02 0.  0.
         12    1    1    2    0    0 -0.40278872262E+02 -0.51813786562E+01  0.15309770067E+02  0.43400729199E+02  0.00000000000E+00 0. -1.
         11    1    3    3    0    0  0.19248498106E+01  0.15092535221E+00 -0.67249625563E+01  0.69966382571E+01  0.51100000000E-03 0. -1.
        -11    1    3    3    0    0  0.29195660676E+02  0.58251953565E+00 -0.91278227091E+01  0.30594821114E+02  0.51100000000E-03 0.  1.
         12    1    3    3    0    0  0.91583617752E+01  0.44479337683E+01  0.54301519796E+00  0.10195811430E+02  0.00000000000E+00 0. -1.
</event>
<event>
 7    1  0.5426550E-010  0.4778727E+02  0.7816164E-02  0.1312668E+00
        -11   -1    0    0    0    0  0.00000000000E+00  0.00000000000E+00  0.45593999997E+02  0.45594000000E+02  0.51100000000E-03 0. -1.
         11   -1    0    0    0    0 -0.00000000000E+00 -0.00000000000E+00 -0.45593999997E+02  0.45594000000E+02  0.51100000000E-03 0.  1.
    9900012    2    1    2    0    0 -0.19229794729E+02 -0.27002958143E+02 -0.28012119249E+02  0.47787267533E+02  0.19999983990E+02 0.  0.
         12    1    1    2    0    0  0.19229794729E+02  0.27002958143E+02  0.28012119249E+02  0.43400732467E+02  0.00000000000E+00 0. -1.
         11    1    3    3    0    0 -0.89393684644E+01 -0.78287845994E+01 -0.10802197944E+01  0.11931850314E+02  0.51100000000E-03 0. -1.
        -11    1    3    3    0    0 -0.90153205356E+01 -0.19082405166E+02 -0.20946434440E+02  0.29734950938E+02  0.51100000000E-03 0.  1.
        -12    1    3    3    0    0 -0.12751057295E+01 -0.91768378263E-01 -0.59854650153E+01  0.61204662817E+01  0.00000000000E+00 0.  1.
</event>
<event>
 7    1  0.5426550E-010  0.4778728E+02  0.7816164E-02  0.1312668E+00
        -11   -1    0    0    0    0  0.00000000000E+00  0.00000000000E+00  0.45593999997E+02  0.45594000000E+02  0.51100000000E-03 0.  1.
         11   -1    0    0    0    0 -0.00000000000E+00 -0.00000000000E+00 -0.45593999997E+02  0.45594000000E+02  0.51100000000E-03 0. -1.
    9900012    2    1    2    0    0 -0.15929636844E+02  0.54498358052E+01  0.40002107986E+02  0.47787277845E+02  0.20000031006E+02 0.  0.
         12    1    1    2    0    0  0.15929636844E+02 -0.54498358052E+01 -0.40002107986E+02  0.43400722155E+02  0.00000000000E+00 0. -1.
         11    1    3    3    0    0  0.80162179497E+00 -0.16648433452E+01  0.71608047089E+00  0.19816842252E+01  0.51100000000E-03 0. -1.
        -11    1    3    3    0    0 -0.56293778337E+01  0.27010391618E+01  0.30085043579E+02  0.30726134718E+02  0.51100000000E-03 0.  1.
        -12    1    3    3    0    0 -0.11101880805E+02  0.44136399886E+01  0.92009839362E+01  0.15079458901E+02  0.00000000000E+00 0.  1.
</event>
<event>
 7    1  0.5426550E-010  0.4778727E+02  0.7816164E-02  0.1312668E+00
        -11   -1    0    0    0    0  0.00000000000E+00  0.00000000000E+00  0.45593999997E+02  0.45594000000E+02  0.51100000000E-03 0.  1.
         11   -1    0    0    0    0 -0.00000000000E+00 -0.00000000000E+00 -0.45593999997E+02  0.45594000000E+02  0.51100000000E-03 0. -1.
    9900012    2    1    2    0    0  0.42243437870E+02  0.13774733319E+01  0.98599111523E+01  0.47787270470E+02  0.19999997380E+02 0.  0.
         12    1    1    2    0    0 -0.42243437870E+02 -0.13774733319E+01 -0.98599111523E+01  0.43400729530E+02  0.00000000000E+00 0. -1.
         11    1    3    3    0    0  0.10138391743E+02  0.63182789465E+01  0.10823777397E+01  0.11994964686E+02  0.51100000000E-03 0. -1.
        -11    1    3    3    0    0 -0.11513768008E+00  0.54887631316E-01 -0.15772384696E+01  0.15823876859E+01  0.51100000000E-03 0.  1.
        -12    1    3    3    0    0  0.32220183806E+02 -0.49956932460E+01  0.10354771882E+02  0.34209918098E+02  0.00000000000E+00 0.  1.
</event>
<event>
 7    1  0.5426550E-010  0.4778727E+02  0.7816164E-02  0.1312668E+00
        -11   -1    0    0    0    0  0.00000000000E+00  0.00000000000E+00  0.45593999997E+02  0.45594000000E+02  0.51100000000E-03 0.  1.
         11   -1    0    0    0    0 -0.00000000000E+00 -0.00000000000E+00 -0.45593999997E+02  0.45594000000E+02  0.51100000000E-03 0. -1.
    9900012    2    1    2    0    0  0.40837057428E+02  0.95541690807E+01  0.11165827743E+02  0.47787272870E+02  0.20000008324E+02 0.  0.
         12    1    1    2    0    0 -0.40837057428E+02 -0.95541690807E+01 -0.11165827743E+02  0.43400727130E+02  0.00000000000E+00 0. -1.
         11    1    3    3    0    0  0.19323198563E+02  0.10692148286E+02 -0.62816461862E+00  0.22093044804E+02  0.51100000000E-03 0. -1.
        -11    1    3    3    0    0  0.22000294331E+02 -0.81728009717E+00  0.10752780612E+02  0.24501085456E+02  0.51100000000E-03 0.  1.
        -12    1    3    3    0    0 -0.48643546537E+00 -0.32069910772E+00  0.10412117493E+01  0.11931426095E+01  0.00000000000E+00 0.  1.
</event>
<event>
 7    1  0.5426550E-010  0.4778727E+02  0.7816164E-02  0.1312668E+00
        -11   -1    0    0    0    0  0.00000000000E+00  0.00000000000E+00  0.45593999997E+02  0.45594000000E+02  0.51100000000E-03 0.  1.
         11   -1    0    0    0    0 -0.00000000000E+00 -0.00000000000E+00 -0.45593999997E+02  0.45594000000E+02  0.51100000000E-03 0. -1.
    9900012    2    1    2    0    0 -0.25739543082E+02 -0.23265855917E-01  0.34944221353E+02  0.47787271603E+02  0.20000002547E+02 0.  0.
         12    1    1    2    0    0  0.25739543082E+02  0.23265855917E-01 -0.34944221353E+02  0.43400728397E+02  0.00000000000E+00 0. -1.
         11    1    3    3    0    0 -0.76630349875E+01 -0.74973325249E+01  0.12173677673E+02  0.16221298609E+02  0.51100000000E-03 0. -1.
        -11    1    3    3    0    0 -0.17470589904E+02  0.70385731169E+01  0.23764247259E+02  0.30323299147E+02  0.51100000000E-03 0.  1.
        -12    1    3    3    0    0 -0.60591819083E+00  0.43549355203E+00 -0.99370357883E+00  0.12426738472E+01  0.00000000000E+00 0.  1.
</event>
<event>
 7    1  0.5426550E-010  0.4778727E+02  0.7816164E-02  0.1312668E+00
        -11   -1    0    0    0    0  0.00000000000E+00  0.00000000000E+00  0.45593999997E+02  0.45594000000E+02  0.51100000000E-03 0. -1.
         11   -1    0    0    0    0 -0.00000000000E+00 -0.00000000000E+00 -0.45593999997E+02  0.45594000000E+02  0.51100000000E-03 0.  1.
    9900012    2    1    2    0    0  0.19967704039E+02 -0.34200158820E+02 -0.17755644843E+02  0.47787274295E+02  0.20000014821E+02 0.  0.
         12    1    1    2    0    0 -0.19967704039E+02  0.34200158820E+02  0.17755644843E+02  0.43400725705E+02  0.00000000000E+00 0. -1.
         11    1    3    3    0    0  0.19719930613E+02 -0.19204256635E+02 -0.13755995479E+02  0.30771846681E+02  0.51100000000E-03 0. -1.
        -11    1    3    3    0    0  0.32907233637E+01 -0.86078492039E+01 -0.37085847146E+01  0.99336563772E+01  0.51100000000E-03 0.  1.
         12    1    3    3    0    0 -0.30429499378E+01 -0.63880529813E+01 -0.29106464873E+00  0.70817712365E+01  0.00000000000E+00 0. -1.
</event>
<event>
 7    1  0.5426550E-010  0.4778727E+02  0.7816164E-02  0.1312668E+00
        -11   -1    0    0    0    0  0.00000000000E+00  0.00000000000E+00  0.45593999997E+02  0.45594000000E+02  0.51100000000E-03 0. -1.
         11   -1    0    0    0    0 -0.00000000000E+00 -0.00000000000E+00 -0.45593999997E+02  0.45594000000E+02  0.51100000000E-03 0.  1.
    9900012    2    1    2    0    0 -0.19906047727E+02 -0.24684443944E+02 -0.29631920770E+02  0.47787271464E+02  0.20000001912E+02 0.  0.
         12    1    1    2    0    0  0.19906047727E+02  0.24684443944E+02  0.29631920770E+02  0.43400728536E+02  0.00000000000E+00 0. -1.
         11    1    3    3    0    0  0.32908409934E+01 -0.53545807027E+01 -0.63732864819E+01  0.89509747954E+01  0.51100000000E-03 0. -1.
        -11    1    3    3    0    0 -0.12037416715E+02 -0.88475196622E+01 -0.69815329315E+01  0.16489991136E+02  0.51100000000E-03 0.  1.
        -12    1    3    3    0    0 -0.11159472006E+02 -0.10482343579E+02 -0.16277101357E+02  0.22346305532E+02  0.00000000000E+00 0.  1.
</event>
<event>
 7    1  0.5426550E-010  0.4778726E+02  0.7816164E-02  0.1312668E+00
        -11   -1    0    0    0    0  0.00000000000E+00  0.00000000000E+00  0.45593999997E+02  0.45594000000E+02  0.51100000000E-03 0. -1.
         11   -1    0    0    0    0 -0.00000000000E+00 -0.00000000000E+00 -0.45593999997E+02  0.45594000000E+02  0.51100000000E-03 0.  1.
    9900012    2    1    2    0    0  0.38242704748E+02  0.76373301553E+01 -0.19047062907E+02  0.47787264018E+02  0.19999967965E+02 0.  0.
         12    1    1    2    0    0 -0.38242704748E+02 -0.76373301553E+01  0.19047062907E+02  0.43400735982E+02  0.00000000000E+00 0. -1.
         11    1    3    3    0    0 -0.27830700286E+00 -0.48058019683E+00  0.45295888663E+00  0.71664784066E+00  0.51100000000E-03 0. -1.
        -11    1    3    3    0    0  0.15616222295E+02  0.95346723086E+01 -0.24043113565E+01  0.18454188905E+02  0.51100000000E-03 0.  1.
        -12    1    3    3    0    0  0.22904789456E+02 -0.14167619565E+01 -0.17095710437E+02  0.28616427273E+02  0.00000000000E+00 0.  1.
</event>
<event>
 7    1  0.5426550E-010  0.4778727E+02  0.7816164E-02  0.1312668E+00
        -11   -1    0    0    0    0  0.00000000000E+00  0.00000000000E+00  0.45593999997E+02  0.45594000000E+02  0.51100000000E-03 0.  1.
         11   -1    0    0    0    0 -0.00000000000E+00 -0.00000000000E+00 -0.45593999997E+02  0.45594000000E+02  0.51100000000E-03 0. -1.
    9900012    2    1    2    0    0 -0.14294844358E+02 -0.16220516377E+02  0.37632111494E+02  0.47787267952E+02  0.19999985901E+02 0.  0.
         12    1    1    2    0    0  0.14294844358E+02  0.16220516377E+02 -0.37632111494E+02  0.43400732048E+02  0.00000000000E+00 0. -1.
         11    1    3    3    0    0 -0.95018033366E+01 -0.12036197162E+02  0.12754578882E+02  0.19945766255E+02  0.51100000000E-03 0.  1.
        -11    1    3    3    0    0 -0.28167272868E+01  0.71378330827E+00  0.56286154729E+00  0.29597723902E+01  0.51100000000E-03 0. -1.
         12    1    3    3    0    0 -0.19763137343E+01 -0.48981025237E+01  0.24314671065E+02  0.24881729307E+02  0.00000000000E+00 0. -1.
</event>
<event>
 7    1  0.5426550E-010  0.4778727E+02  0.7816164E-02  0.1312668E+00
        -11   -1    0    0    0    0  0.00000000000E+00  0.00000000000E+00  0.45593999997E+02  0.45594000000E+02  0.51100000000E-03 0.  1.
         11   -1    0    0    0    0 -0.00000000000E+00 -0.00000000000E+00 -0.45593999997E+02  0.45594000000E+02  0.51100000000E-03 0. -1.
    9900012    2    1    2    0    0 -0.33452935401E+02  0.18843302019E+02  0.20234990001E+02  0.47787265694E+02  0.19999975606E+02 0.  0.
         12    1    1    2    0    0  0.33452935401E+02 -0.18843302019E+02 -0.20234990001E+02  0.43400734306E+02  0.00000000000E+00 0. -1.
         11    1    3    3    0    0 -0.23883086968E+02  0.98975242306E+01  0.16728679494E+02  0.30793043807E+02  0.51100000000E-03 0. -1.
        -11    1    3    3    0    0 -0.93726847611E+01  0.21882835219E+01  0.34777413113E+01  0.10233791540E+02  0.51100000000E-03 0.  1.
         12    1    3    3    0    0 -0.19716367189E+00  0.67574942666E+01  0.28569196392E-01  0.67604303469E+01  0.00000000000E+00 0. -1.
</event>
<event>
 7    1  0.5426550E-010  0.4778727E+02  0.7816164E-02  0.1312668E+00
        -11   -1    0    0    0    0  0.00000000000E+00  0.00000000000E+00  0.45593999997E+02  0.45594000000E+02  0.51100000000E-03 0.  1.
         11   -1    0    0    0    0 -0.00000000000E+00 -0.00000000000E+00 -0.45593999997E+02  0.45594000000E+02  0.51100000000E-03 0. -1.
    9900012    2    1    2    0    0  0.11844382004E+02 -0.21844194008E+01  0.41696068249E+02  0.47787272119E+02  0.20000004899E+02 0.  0.
         12    1    1    2    0    0 -0.11844382004E+02  0.21844194008E+01 -0.41696068249E+02  0.43400727881E+02  0.00000000000E+00 0. -1.
         11    1    3    3    0    0  0.94021510986E+00 -0.35613134497E+00 -0.51271583715E+00  0.11285884008E+01  0.51100000000E-03 0. -1.
        -11    1    3    3    0    0  0.57966047413E+00  0.49938497426E+01  0.37895569112E+01  0.62956559119E+01  0.51100000000E-03 0.  1.
        -12    1    3    3    0    0  0.10324506420E+02 -0.68221377984E+01  0.38419227175E+02  0.40363027806E+02  0.00000000000E+00 0.  1.
</event>
<event>
 7    1  0.5426550E-010  0.4778727E+02  0.7816164E-02  0.1312668E+00
        -11   -1    0    0    0    0  0.00000000000E+00  0.00000000000E+00  0.45593999997E+02  0.45594000000E+02  0.51100000000E-03 0. -1.
         11   -1    0    0    0    0 -0.00000000000E+00 -0.00000000000E+00 -0.45593999997E+02  0.45594000000E+02  0.51100000000E-03 0.  1.
    9900012    2    1    2    0    0  0.11866038402E+02  0.21238549646E+02 -0.35940845158E+02  0.47787271791E+02  0.20000003403E+02 0.  0.
         12    1    1    2    0    0 -0.11866038402E+02 -0.21238549646E+02  0.35940845158E+02  0.43400728209E+02  0.00000000000E+00 0. -1.
         11    1    3    3    0    0  0.10118750732E+02  0.58425183986E+01 -0.15809222484E+02  0.19658475358E+02  0.51100000000E-03 0. -1.
        -11    1    3    3    0    0 -0.25068523866E+01  0.74677869073E+01 -0.16762577566E+02  0.18521235302E+02  0.51100000000E-03 0.  1.
         12    1    3    3    0    0  0.42541400567E+01  0.79282443404E+01 -0.33690451079E+01  0.96075611308E+01  0.00000000000E+00 0. -1.
</event>
<event>
 7    1  0.5426550E-010  0.4778727E+02  0.7816164E-02  0.1312668E+00
        -11   -1    0    0    0    0  0.00000000000E+00  0.00000000000E+00  0.45593999997E+02  0.45594000000E+02  0.51100000000E-03 0.  1.
         11   -1    0    0    0    0 -0.00000000000E+00 -0.00000000000E+00 -0.45593999997E+02  0.45594000000E+02  0.51100000000E-03 0. -1.
    9900012    2    1    2    0    0  0.24103950231E+01 -0.32342604455E+02  0.28840411924E+02  0.47787269280E+02  0.19999991954E+02 0.  0.
         12    1    1    2    0    0 -0.24103950231E+01  0.32342604455E+02 -0.28840411924E+02  0.43400730720E+02  0.00000000000E+00 0. -1.
         11    1    3    3    0    0  0.55544402814E+01 -0.10273284009E+02  0.17320689364E+02  0.20890152021E+02  0.51100000000E-03 0. -1.
        -11    1    3    3    0    0  0.31038546576E+01 -0.45906649831E+01  0.41613848247E+01  0.69300247217E+01  0.51100000000E-03 0.  1.
         12    1    3    3    0    0 -0.62478999159E+01 -0.17478655463E+02  0.73583377359E+01  0.19967092537E+02  0.00000000000E+00 0. -1.
</event>
<event>
 7    1  0.5426550E-010  0.4778729E+02  0.7816164E-02  0.1312668E+00
        -11   -1    0    0    0    0  0.00000000000E+00  0.00000000000E+00  0.45593999997E+02  0.45594000000E+02  0.51100000000E-03 0.  1.
         11   -1    0    0    0    0 -0.00000000000E+00 -0.00000000000E+00 -0.45593999997E+02  0.45594000000E+02  0.51100000000E-03 0. -1.
    9900012    2    1    2    0    0  0.19640807521E+01 -0.14128338250E+02  0.40989679727E+02  0.47787292643E+02  0.20000098478E+02 0.  0.
         12    1    1    2    0    0 -0.19640807521E+01  0.14128338250E+02 -0.40989679727E+02  0.43400707357E+02  0.00000000000E+00 0. -1.
         11    1    3    3    0    0  0.44737604197E+01 -0.71619607478E+01  0.16519882514E+02  0.18553024890E+02  0.51100000000E-03 0. -1.
        -11    1    3    3    0    0 -0.21573673433E+01  0.33550513298E+01  0.19090611354E+01  0.44221169093E+01  0.51100000000E-03 0.  1.
        -12    1    3    3    0    0 -0.35231232433E+00 -0.10321428832E+02  0.22560736078E+02  0.24812150844E+02  0.00000000000E+00 0.  1.
</event>
<event>
 7    1  0.5426550E-010  0.4778727E+02  0.7816164E-02  0.1312668E+00
        -11   -1    0    0    0    0  0.00000000000E+00  0.00000000000E+00  0.45593999997E+02  0.45594000000E+02  0.51100000000E-03 0.  1.
         11   -1    0    0    0    0 -0.00000000000E+00 -0.00000000000E+00 -0.45593999997E+02  0.45594000000E+02  0.51100000000E-03 0. -1.
    9900012    2    1    2    0    0  0.21309127525E+02  0.16010863046E+02  0.34251955269E+02  0.47787273150E+02  0.20000009599E+02 0.  0.
         12    1    1    2    0    0 -0.21309127525E+02 -0.16010863046E+02 -0.34251955269E+02  0.43400726850E+02  0.00000000000E+00 0. -1.
         11    1    3    3    0    0  0.42834336450E+01 -0.14639417082E+01  0.66846606982E+01  0.80731417693E+01  0.51100000000E-03 0. -1.
        -11    1    3    3    0    0  0.86560083954E+01  0.87773558949E+01  0.35407073761E+01  0.12825952862E+02  0.51100000000E-03 0.  1.
        -12    1    3    3    0    0  0.83696854851E+01  0.86974488594E+01  0.24026587195E+02  0.26888178518E+02  0.00000000000E+00 0.  1.
</event>
<event>
 7    1  0.5426550E-010  0.4778727E+02  0.7816164E-02  0.1312668E+00
        -11   -1    0    0    0    0  0.00000000000E+00  0.00000000000E+00  0.45593999997E+02  0.45594000000E+02  0.51100000000E-03 0. -1.
         11   -1    0    0    0    0 -0.00000000000E+00 -0.00000000000E+00 -0.45593999997E+02  0.45594000000E+02  0.51100000000E-03 0.  1.
    9900012    2    1    2    0    0 -0.47366481318E+01 -0.71043252605E+01 -0.42552511869E+02  0.47787267986E+02  0.19999986056E+02 0.  0.
         12    1    1    2    0    0  0.47366481318E+01  0.71043252605E+01  0.42552511869E+02  0.43400732014E+02  0.00000000000E+00 0. -1.
         11    1    3    3    0    0 -0.71856472911E+01 -0.73204657401E+01 -0.15322371475E+02  0.18439029625E+02  0.51100000000E-03 0. -1.
        -11    1    3    3    0    0  0.49107123323E+00  0.14345917174E+01 -0.26986764615E+02  0.27029329792E+02  0.51100000000E-03 0.  1.
         12    1    3    3    0    0  0.19579279260E+01 -0.12184512378E+01 -0.24337577972E+00  0.23189085693E+01  0.00000000000E+00 0. -1.
</event>
<event>
 7    1  0.5426550E-010  0.4778727E+02  0.7816164E-02  0.1312668E+00
        -11   -1    0    0    0    0  0.00000000000E+00  0.00000000000E+00  0.45593999997E+02  0.45594000000E+02  0.51100000000E-03 0. -1.
         11   -1    0    0    0    0 -0.00000000000E+00 -0.00000000000E+00 -0.45593999997E+02  0.45594000000E+02  0.51100000000E-03 0.  1.
    9900012    2    1    2    0    0 -0.21205524344E+02 -0.30140004669E+02 -0.22924422887E+02  0.47787270642E+02  0.19999998163E+02 0.  0.
         12    1    1    2    0    0  0.21205524344E+02  0.30140004669E+02  0.22924422887E+02  0.43400729358E+02  0.00000000000E+00 0. -1.
         11    1    3    3    0    0  0.10983891554E+01 -0.36441353703E+01  0.19363726077E+01  0.42703302532E+01  0.51100000000E-03 0. -1.
        -11    1    3    3    0    0 -0.19629746311E+02 -0.23635400289E+02 -0.17975500086E+02  0.35596034760E+02  0.51100000000E-03 0.  1.
         12    1    3    3    0    0 -0.26741671886E+01 -0.28604690100E+01 -0.68852954086E+01  0.79209056283E+01  0.00000000000E+00 0. -1.
</event>
<event>
 7    1  0.5426550E-010  0.4778729E+02  0.7816164E-02  0.1312668E+00
        -11   -1    0    0    0    0  0.00000000000E+00  0.00000000000E+00  0.45593999997E+02  0.45594000000E+02  0.51100000000E-03 0.  1.
         11   -1    0    0    0    0 -0.00000000000E+00 -0.00000000000E+00 -0.45593999997E+02  0.45594000000E+02  0.51100000000E-03 0. -1.
    9900012    2    1    2    0    0  0.10811584029E+02 -0.31310056718E+02 -0.28043039316E+02  0.47787285087E+02  0.20000064025E+02 0.  0.
         12    1    1    2    0    0 -0.10811584029E+02  0.31310056718E+02  0.28043039316E+02  0.43400714913E+02  0.00000000000E+00 0. -1.
         11    1    3    3    0    0  0.93141157036E+00 -0.11020651987E+02 -0.11536544187E+02  0.15981681694E+02  0.51100000000E-03 0. -1.
        -11    1    3    3    0    0  0.79390179079E+01 -0.15465255889E+01 -0.30209625549E+01  0.86340003334E+01  0.51100000000E-03 0.  1.
        -12    1    3    3    0    0  0.19411545511E+01 -0.18742879143E+02 -0.13485532573E+02  0.23171603059E+02  0.00000000000E+00 0.  1.
</event>
<event>
 7    1  0.5426550E-010  0.4778727E+02  0.7816164E-02  0.1312668E+00
        -11   -1    0    0    0    0  0.00000000000E+00  0.00000000000E+00  0.45593999997E+02  0.45594000000E+02  0.51100000000E-03 0.  1.
         11   -1    0    0    0    0 -0.00000000000E+00 -0.00000000000E+00 -0.45593999997E+02  0.45594000000E+02  0.51100000000E-03 0. -1.
    9900012    2    1    2    0    0 -0.38578254164E+02 -0.84620580437E+01  0.17992635869E+02  0.47787273437E+02  0.20000010911E+02 0.  0.
         12    1    1    2    0    0  0.38578254164E+02  0.84620580437E+01 -0.17992635869E+02  0.43400726563E+02  0.00000000000E+00 0. -1.
         11    1    3    3    0    0 -0.22536525088E+02  0.97610981600E-01  0.18155942721E+02  0.28940330808E+02  0.51100000000E-03 0.  1.
        -11    1    3    3    0    0 -0.59251668598E+01 -0.43643323708E+01 -0.22555450486E+01  0.76969138677E+01  0.51100000000E-03 0. -1.
        -12    1    3    3    0    0 -0.10116562216E+02 -0.41953366545E+01  0.20922381966E+01  0.11150028762E+02  0.00000000000E+00 0.  1.
</event>
<event>
 7    1  0.5426550E-010  0.4778730E+02  0.7816164E-02  0.1312668E+00
        -11   -1    0    0    0    0  0.00000000000E+00  0.00000000000E+00  0.45593999997E+02  0.45594000000E+02  0.51100000000E-03 0.  1.
         11   -1    0    0    0    0 -0.00000000000E+00 -0.00000000000E+00 -0.45593999997E+02  0.45594000000E+02  0.51100000000E-03 0. -1.
    9900012    2    1    2    0    0  0.11117436414E+02  0.10820853265E+02  0.40533105362E+02  0.47787298530E+02  0.20000125317E+02 0.  0.
         12    1    1    2    0    0 -0.11117436414E+02 -0.10820853265E+02 -0.40533105362E+02  0.43400701470E+02  0.00000000000E+00 0. -1.
         11    1    3    3    0    0  0.64562628106E+01  0.49462420221E+01  0.50366262722E+01  0.95664122892E+01  0.51100000000E-03 0. -1.
        -11    1    3    3    0    0  0.41218092026E+01  0.79502372547E+01  0.34848252947E+02  0.35980499125E+02  0.51100000000E-03 0.  1.
        -12    1    3    3    0    0  0.53936440112E+00 -0.20756260119E+01  0.64822614219E+00  0.22403871161E+01  0.00000000000E+00 0.  1.
</event>
<event>
 7    1  0.5426550E-010  0.4778727E+02  0.7816164E-02  0.1312668E+00
        -11   -1    0    0    0    0  0.00000000000E+00  0.00000000000E+00  0.45593999997E+02  0.45594000000E+02  0.51100000000E-03 0.  1.
         11   -1    0    0    0    0 -0.00000000000E+00 -0.00000000000E+00 -0.45593999997E+02  0.45594000000E+02  0.51100000000E-03 0. -1.
    9900012    2    1    2    0    0 -0.41090657741E+02  0.13862137932E+02  0.17385601254E+01  0.47787267138E+02  0.19999982190E+02 0.  0.
         12    1    1    2    0    0  0.41090657741E+02 -0.13862137932E+02 -0.17385601254E+01  0.43400732862E+02  0.00000000000E+00 0. -1.
         11    1    3    3    0    0 -0.31665793611E+02  0.12157050550E+02  0.94177207040E+01  0.35202412227E+02  0.51100000000E-03 0. -1.
        -11    1    3    3    0    0 -0.57697158162E+01  0.23811605059E+01 -0.51030185706E+01  0.80622791286E+01  0.51100000000E-03 0.  1.
         12    1    3    3    0    0 -0.36551483139E+01 -0.67607312389E+00 -0.25761420081E+01  0.45225757828E+01  0.00000000000E+00 0. -1.
</event>
<event>
 7    1  0.5426550E-010  0.4778727E+02  0.7816164E-02  0.1312668E+00
        -11   -1    0    0    0    0  0.00000000000E+00  0.00000000000E+00  0.45593999997E+02  0.45594000000E+02  0.51100000000E-03 0.  1.
         11   -1    0    0    0    0 -0.00000000000E+00 -0.00000000000E+00 -0.45593999997E+02  0.45594000000E+02  0.51100000000E-03 0. -1.
    9900012    2    1    2    0    0  0.11634760033E+02  0.33892039890E+02  0.24486429557E+02  0.47787271419E+02  0.20000001708E+02 0.  0.
         12    1    1    2    0    0 -0.11634760033E+02 -0.33892039890E+02 -0.24486429557E+02  0.43400728581E+02  0.00000000000E+00 0. -1.
         11    1    3    3    0    0  0.80097075287E+01  0.80825266230E+01  0.15868722374E+02  0.19526878946E+02  0.51100000000E-03 0. -1.
        -11    1    3    3    0    0  0.12407337769E+01  0.14665056750E+02  0.14306962527E+01  0.14786825278E+02  0.51100000000E-03 0.  1.
        -12    1    3    3    0    0  0.23843187275E+01  0.11144456517E+02  0.71870109300E+01  0.13473567195E+02  0.00000000000E+00 0.  1.
</event>
<event>
 7    1  0.5426550E-010  0.4778727E+02  0.7816164E-02  0.1312668E+00
        -11   -1    0    0    0    0  0.00000000000E+00  0.00000000000E+00  0.45593999997E+02  0.45594000000E+02  0.51100000000E-03 0.  1.
         11   -1    0    0    0    0 -0.00000000000E+00 -0.00000000000E+00 -0.45593999997E+02  0.45594000000E+02  0.51100000000E-03 0. -1.
    9900012    2    1    2    0    0 -0.15615114097E+02 -0.32211474274E+02  0.24540018218E+02  0.47787270083E+02  0.19999995616E+02 0.  0.
         12    1    1    2    0    0  0.15615114097E+02  0.32211474274E+02 -0.24540018218E+02  0.43400729917E+02  0.00000000000E+00 0. -1.
         11    1    3    3    0    0 -0.26323517535E+01  0.17619379058E+01  0.27178815805E+01  0.41737970104E+01  0.51100000000E-03 0. -1.
        -11    1    3    3    0    0 -0.10133529905E+02 -0.17794865002E+02  0.74646383259E+01  0.21796019691E+02  0.51100000000E-03 0.  1.
         12    1    3    3    0    0 -0.28492324385E+01 -0.16178547178E+02  0.14357498312E+02  0.21817453381E+02  0.00000000000E+00 0. -1.
</event>
<event>
 7    1  0.5426550E-010  0.4778727E+02  0.7816164E-02  0.1312668E+00
        -11   -1    0    0    0    0  0.00000000000E+00  0.00000000000E+00  0.45593999997E+02  0.45594000000E+02  0.51100000000E-03 0.  1.
         11   -1    0    0    0    0 -0.00000000000E+00 -0.00000000000E+00 -0.45593999997E+02  0.45594000000E+02  0.51100000000E-03 0. -1.
    9900012    2    1    2    0    0 -0.37885419059E+01  0.91906812978E+01  0.42246914785E+02  0.47787268654E+02  0.19999989102E+02 0.  0.
         12    1    1    2    0    0  0.37885419059E+01 -0.91906812978E+01 -0.42246914785E+02  0.43400731346E+02  0.00000000000E+00 0. -1.
         11    1    3    3    0    0  0.59142392203E+01 -0.85728810382E+00  0.22441428068E+02  0.23223498066E+02  0.51100000000E-03 0. -1.
        -11    1    3    3    0    0 -0.71331495386E+01  0.75006611392E+01  0.17308865891E+02  0.20167760871E+02  0.51100000000E-03 0.  1.
        -12    1    3    3    0    0 -0.25696315875E+01  0.25473082625E+01  0.24966208267E+01  0.43960097170E+01  0.00000000000E+00 0.  1.
</event>
<event>
 7    1  0.5426550E-010  0.4778727E+02  0.7816164E-02  0.1312668E+00
        -11   -1    0    0    0    0  0.00000000000E+00  0.00000000000E+00  0.45593999997E+02  0.45594000000E+02  0.51100000000E-03 0. -1.
         11   -1    0    0    0    0 -0.00000000000E+00 -0.00000000000E+00 -0.45593999997E+02  0.45594000000E+02  0.51100000000E-03 0.  1.
    9900012    2    1    2    0    0  0.42841073078E+02 -0.57350164263E+01  0.39211479525E+01  0.47787270085E+02  0.19999995627E+02 0.  0.
         12    1    1    2    0    0 -0.42841073078E+02  0.57350164263E+01 -0.39211479525E+01  0.43400729915E+02  0.00000000000E+00 0. -1.
         11    1    3    3    0    0  0.31783915549E+02  0.30564759391E+01  0.82948793031E+01  0.32990367620E+02  0.51100000000E-03 0. -1.
        -11    1    3    3    0    0  0.43752239231E+01 -0.35362673618E+01 -0.20032577484E+01  0.59716675309E+01  0.51100000000E-03 0.  1.
         12    1    3    3    0    0  0.66819336051E+01 -0.52552250037E+01 -0.23704736022E+01  0.88252349340E+01  0.00000000000E+00 0. -1.
</event>
<event>
 7    1  0.5426550E-010  0.4778726E+02  0.7816164E-02  0.1312668E+00
        -11   -1    0    0    0    0  0.00000000000E+00  0.00000000000E+00  0.45593999997E+02  0.45594000000E+02  0.51100000000E-03 0.  1.
         11   -1    0    0    0    0 -0.00000000000E+00 -0.00000000000E+00 -0.45593999997E+02  0.45594000000E+02  0.51100000000E-03 0. -1.
    9900012    2    1    2    0    0 -0.27999079478E+02 -0.95905513004E-01  0.33161218456E+02  0.47787262000E+02  0.19999958764E+02 0.  0.
         12    1    1    2    0    0  0.27999079478E+02  0.95905513004E-01 -0.33161218456E+02  0.43400738000E+02  0.00000000000E+00 0. -1.
         11    1    3    3    0    0 -0.13672380073E+02  0.49855173338E+01  0.56317726638E+01  0.15604685948E+02  0.51100000000E-03 0. -1.
        -11    1    3    3    0    0 -0.11831656598E+02 -0.11737464110E+01  0.21595156283E+02  0.24651907708E+02  0.51100000000E-03 0.  1.
         12    1    3    3    0    0 -0.24950428066E+01 -0.39076764359E+01  0.59342895092E+01  0.75306683444E+01  0.00000000000E+00 0. -1.
</event>
<event>
 7    1  0.5426550E-010  0.4778728E+02  0.7816164E-02  0.1312668E+00
        -11   -1    0    0    0    0  0.00000000000E+00  0.00000000000E+00  0.45593999997E+02  0.45594000000E+02  0.51100000000E-03 0. -1.
         11   -1    0    0    0    0 -0.00000000000E+00 -0.00000000000E+00 -0.45593999997E+02  0.45594000000E+02  0.51100000000E-03 0.  1.
    9900012    2    1    2    0    0 -0.33699102283E+02 -0.26880013613E+02 -0.50455813153E+01  0.47787279760E+02  0.20000039738E+02 0.  0.
         12    1    1    2    0    0  0.33699102283E+02  0.26880013613E+02  0.50455813153E+01  0.43400720240E+02  0.00000000000E+00 0. -1.
         11    1    3    3    0    0 -0.10520030307E+02 -0.12808991160E+02  0.58423813007E+01  0.17574831769E+02  0.51100000000E-03 0. -1.
        -11    1    3    3    0    0 -0.61339850569E+01 -0.28226825870E+01  0.60362394506E+00  0.67792087881E+01  0.51100000000E-03 0.  1.
         12    1    3    3    0    0 -0.17045086919E+02 -0.11248339866E+02 -0.11491586561E+02  0.23433239203E+02  0.00000000000E+00 0. -1.
</event>
<event>
 7    1  0.5426550E-010  0.4778727E+02  0.7816164E-02  0.1312668E+00
        -11   -1    0    0    0    0  0.00000000000E+00  0.00000000000E+00  0.45593999997E+02  0.45594000000E+02  0.51100000000E-03 0.  1.
         11   -1    0    0    0    0 -0.00000000000E+00 -0.00000000000E+00 -0.45593999997E+02  0.45594000000E+02  0.51100000000E-03 0. -1.
    9900012    2    1    2    0    0 -0.22767972386E+02 -0.26938256164E+02  0.25289784444E+02  0.47787269489E+02  0.19999992907E+02 0.  0.
         12    1    1    2    0    0  0.22767972386E+02  0.26938256164E+02 -0.25289784444E+02  0.43400730511E+02  0.00000000000E+00 0. -1.
         11    1    3    3    0    0 -0.99492987414E+01 -0.55349733493E+01  0.62039907797E+01  0.12965877420E+02  0.51100000000E-03 0. -1.
        -11    1    3    3    0    0 -0.11780905724E+02 -0.19831447303E+02  0.93246972003E+01  0.24880233519E+02  0.51100000000E-03 0.  1.
        -12    1    3    3    0    0 -0.10377679206E+01 -0.15718355111E+01  0.97610964636E+01  0.99411585493E+01  0.00000000000E+00 0.  1.
</event>
<event>
 7    1  0.5426550E-010  0.4778727E+02  0.7816164E-02  0.1312668E+00
        -11   -1    0    0    0    0  0.00000000000E+00  0.00000000000E+00  0.45593999997E+02  0.45594000000E+02  0.51100000000E-03 0.  1.
         11   -1    0    0    0    0 -0.00000000000E+00 -0.00000000000E+00 -0.45593999997E+02  0.45594000000E+02  0.51100000000E-03 0. -1.
    9900012    2    1    2    0    0  0.21353180140E+02  0.37043916214E+02 -0.74439985617E+01  0.47787272528E+02  0.20000006762E+02 0.  0.
         12    1    1    2    0    0 -0.21353180140E+02 -0.37043916214E+02  0.74439985617E+01  0.43400727472E+02  0.00000000000E+00 0. -1.
         11    1    3    3    0    0  0.64815745744E+01  0.24257625628E+02 -0.10991502910E+02  0.27409055923E+02  0.51100000000E-03 0. -1.
        -11    1    3    3    0    0  0.56243529012E+01  0.60740352923E+01  0.34042628394E+01  0.89507684603E+01  0.51100000000E-03 0.  1.
         12    1    3    3    0    0  0.92472526648E+01  0.67122552931E+01  0.14324150942E+00  0.11427448145E+02  0.00000000000E+00 0. -1.
</event>
<event>
 7    1  0.5426550E-010  0.4778727E+02  0.7816164E-02  0.1312668E+00
        -11   -1    0    0    0    0  0.00000000000E+00  0.00000000000E+00  0.45593999997E+02  0.45594000000E+02  0.51100000000E-03 0.  1.
         11   -1    0    0    0    0 -0.00000000000E+00 -0.00000000000E+00 -0.45593999997E+02  0.45594000000E+02  0.51100000000E-03 0. -1.
    9900012    2    1    2    0    0  0.33706883866E+02 -0.25896220835E+02 -0.87666897443E+01  0.47787272788E+02  0.20000007948E+02 0.  0.
         12    1    1    2    0    0 -0.33706883866E+02  0.25896220835E+02  0.87666897443E+01  0.43400727212E+02  0.00000000000E+00 0. -1.
         11    1    3    3    0    0  0.99248153442E+01 -0.10856028532E+02 -0.71650626842E+01  0.16361339757E+02  0.51100000000E-03 0.  1.
        -11    1    3    3    0    0  0.21640938687E+02 -0.66096008497E+01 -0.20189990132E+01  0.22717689317E+02  0.51100000000E-03 0. -1.
        -12    1    3    3    0    0  0.21411298347E+01 -0.84305914539E+01  0.41737195308E+00  0.87082437138E+01  0.00000000000E+00 0.  1.
</event>
<event>
 7    1  0.5426550E-010  0.4778727E+02  0.7816164E-02  0.1312668E+00
        -11   -1    0    0    0    0  0.00000000000E+00  0.00000000000E+00  0.45593999997E+02  0.45594000000E+02  0.51100000000E-03 0.  1.
         11   -1    0    0    0    0 -0.00000000000E+00 -0.00000000000E+00 -0.45593999997E+02  0.45594000000E+02  0.51100000000E-03 0. -1.
    9900012    2    1    2    0    0  0.20290801281E+02 -0.37380502553E+01  0.38182895446E+02  0.47787272575E+02  0.20000006979E+02 0.  0.
         12    1    1    2    0    0 -0.20290801281E+02  0.37380502553E+01 -0.38182895446E+02  0.43400727425E+02  0.00000000000E+00 0. -1.
         11    1    3    3    0    0  0.20042942850E+01  0.58568864216E+01  0.11075380334E+02  0.12687961378E+02  0.51100000000E-03 0. -1.
        -11    1    3    3    0    0  0.15925986475E+02 -0.61580068996E+01  0.25372986176E+02  0.30583435418E+02  0.51100000000E-03 0.  1.
        -12    1    3    3    0    0  0.23605205207E+01 -0.34369297773E+01  0.17345289366E+01  0.45158757794E+01  0.00000000000E+00 0.  1.
</event>
<event>
 7    1  0.5426550E-010  0.4778727E+02  0.7816164E-02  0.1312668E+00
        -11   -1    0    0    0    0  0.00000000000E+00  0.00000000000E+00  0.45593999997E+02  0.45594000000E+02  0.51100000000E-03 0.  1.
         11   -1    0    0    0    0 -0.00000000000E+00 -0.00000000000E+00 -0.45593999997E+02  0.45594000000E+02  0.51100000000E-03 0. -1.
    9900012    2    1    2    0    0 -0.53668904326E+01  0.36470422123E+02 -0.22906943310E+02  0.47787271267E+02  0.20000001015E+02 0.  0.
         12    1    1    2    0    0  0.53668904326E+01 -0.36470422123E+02  0.22906943310E+02  0.43400728733E+02  0.00000000000E+00 0. -1.
         11    1    3    3    0    0  0.12835885817E+01  0.31227306985E+02 -0.14813066149E+02  0.34586402388E+02  0.51100000000E-03 0. -1.
        -11    1    3    3    0    0 -0.72119334458E+01  0.56186826957E+01 -0.58410150411E+01  0.10848918667E+02  0.51100000000E-03 0.  1.
         12    1    3    3    0    0  0.56145443150E+00 -0.37556755724E+00 -0.22528621204E+01  0.23519502125E+01  0.00000000000E+00 0. -1.
</event>
<event>
 7    1  0.5426550E-010  0.4778728E+02  0.7816164E-02  0.1312668E+00
        -11   -1    0    0    0    0  0.00000000000E+00  0.00000000000E+00  0.45593999997E+02  0.45594000000E+02  0.51100000000E-03 0.  1.
         11   -1    0    0    0    0 -0.00000000000E+00 -0.00000000000E+00 -0.45593999997E+02  0.45594000000E+02  0.51100000000E-03 0. -1.
    9900012    2    1    2    0    0 -0.16745192377E+02  0.47097498457E+01  0.39762280077E+02  0.47787284242E+02  0.20000060174E+02 0.  0.
         12    1    1    2    0    0  0.16745192377E+02 -0.47097498457E+01 -0.39762280077E+02  0.43400715758E+02  0.00000000000E+00 0. -1.
         11    1    3    3    0    0 -0.16086785635E+01 -0.37357263127E+01  0.11832190397E+02  0.12511763571E+02  0.51100000000E-03 0. -1.
        -11    1    3    3    0    0 -0.63028212003E+01  0.97877702447E+01  0.20832061484E+02  0.23864215624E+02  0.51100000000E-03 0.  1.
        -12    1    3    3    0    0 -0.88336926127E+01 -0.13422940863E+01  0.70980281962E+01  0.11411305046E+02  0.00000000000E+00 0.  1.
</event>
<event>
 7    1  0.5426550E-010  0.4778727E+02  0.7816164E-02  0.1312668E+00
        -11   -1    0    0    0    0  0.00000000000E+00  0.00000000000E+00  0.45593999997E+02  0.45594000000E+02  0.51100000000E-03 0. -1.
         11   -1    0    0    0    0 -0.00000000000E+00 -0.00000000000E+00 -0.45593999997E+02  0.45594000000E+02  0.51100000000E-03 0.  1.
    9900012    2    1    2    0    0 -0.34073485790E+02  0.54413350303E+01 -0.26325135352E+02  0.47787270604E+02  0.19999997991E+02 0.  0.
         12    1    1    2    0    0  0.34073485790E+02 -0.54413350303E+01  0.26325135352E+02  0.43400729396E+02  0.00000000000E+00 0. -1.
         11    1    3    3    0    0  0.12290059252E+01  0.96234641753E+00  0.16701315435E+01  0.22860240211E+01  0.51100000000E-03 0. -1.
        -11    1    3    3    0    0 -0.17325649370E+02 -0.64848327903E-01 -0.13306236981E+02  0.21845783901E+02  0.51100000000E-03 0.  1.
        -12    1    3    3    0    0 -0.17976842345E+02  0.45438369407E+01 -0.14689029915E+02  0.23655462682E+02  0.00000000000E+00 0.  1.
</event>
<event>
 7    1  0.5426550E-010  0.4778730E+02  0.7816164E-02  0.1312668E+00
        -11   -1    0    0    0    0  0.00000000000E+00  0.00000000000E+00  0.45593999997E+02  0.45594000000E+02  0.51100000000E-03 0.  1.
         11   -1    0    0    0    0 -0.00000000000E+00 -0.00000000000E+00 -0.45593999997E+02  0.45594000000E+02  0.51100000000E-03 0. -1.
    9900012    2    1    2    0    0 -0.83367764417E+01  0.41925538195E+02  0.75078908671E+01  0.47787297015E+02  0.20000118408E+02 0.  0.
         12    1    1    2    0    0  0.83367764417E+01 -0.41925538195E+02 -0.75078908671E+01  0.43400702985E+02  0.00000000000E+00 0. -1.
         11    1    3    3    0    0 -0.40151132282E+01  0.18265095467E+01 -0.27393377473E-01  0.44111248019E+01  0.51100000000E-03 0. -1.
        -11    1    3    3    0    0 -0.39876868678E+01  0.37613876518E+02  0.10727900028E+02  0.39316576562E+02  0.51100000000E-03 0.  1.
        -12    1    3    3    0    0 -0.33397634568E+00  0.24851521301E+01 -0.31926157836E+01  0.40595956512E+01  0.00000000000E+00 0.  1.
</event>
<event>
 7    1  0.5426550E-010  0.4778728E+02  0.7816164E-02  0.1312668E+00
        -11   -1    0    0    0    0  0.00000000000E+00  0.00000000000E+00  0.45593999997E+02  0.45594000000E+02  0.51100000000E-03 0.  1.
         11   -1    0    0    0    0 -0.00000000000E+00 -0.00000000000E+00 -0.45593999997E+02  0.45594000000E+02  0.51100000000E-03 0. -1.
    9900012    2    1    2    0    0  0.35383073481E+02  0.21563770178E+02  0.12909872055E+02  0.47787275700E+02  0.20000021229E+02 0.  0.
         12    1    1    2    0    0 -0.35383073481E+02 -0.21563770178E+02 -0.12909872055E+02  0.43400724300E+02  0.00000000000E+00 0. -1.
         11    1    3    3    0    0  0.27746804322E+01  0.60723640564E+01 -0.28089749258E+01  0.72431206761E+01  0.51100000000E-03 0. -1.
        -11    1    3    3    0    0  0.31564173846E+02  0.15849331024E+02  0.16698403671E+02  0.39068338203E+02  0.51100000000E-03 0.  1.
        -12    1    3    3    0    0  0.10442192034E+01 -0.35792490292E+00 -0.97955669081E+00  0.14758168218E+01  0.00000000000E+00 0.  1.
</event>
<event>
 7    1  0.5426550E-010  0.4778727E+02  0.7816164E-02  0.1312668E+00
        -11   -1    0    0    0    0  0.00000000000E+00  0.00000000000E+00  0.45593999997E+02  0.45594000000E+02  0.51100000000E-03 0. -1.
         11   -1    0    0    0    0 -0.00000000000E+00 -0.00000000000E+00 -0.45593999997E+02  0.45594000000E+02  0.51100000000E-03 0.  1.
    9900012    2    1    2    0    0 -0.19251624815E+01 -0.42501395455E+02  0.85760225129E+01  0.47787273873E+02  0.20000012898E+02 0.  0.
         12    1    1    2    0    0  0.19251624815E+01  0.42501395455E+02 -0.85760225129E+01  0.43400726127E+02  0.00000000000E+00 0. -1.
         11    1    3    3    0    0 -0.19120240385E+01 -0.44382342121E+01  0.41929897793E+01  0.63980405122E+01  0.51100000000E-03 0. -1.
        -11    1    3    3    0    0  0.67233449752E+01 -0.99679239708E+01  0.33405410203E+01  0.12478865754E+02  0.51100000000E-03 0.  1.
        -12    1    3    3    0    0 -0.67364834183E+01 -0.28095237272E+02  0.10424917133E+01  0.28910367607E+02  0.00000000000E+00 0.  1.
</event>
<event>
 7    1  0.5426550E-010  0.4778727E+02  0.7816164E-02  0.1312668E+00
        -11   -1    0    0    0    0  0.00000000000E+00  0.00000000000E+00  0.45593999997E+02  0.45594000000E+02  0.51100000000E-03 0. -1.
         11   -1    0    0    0    0 -0.00000000000E+00 -0.00000000000E+00 -0.45593999997E+02  0.45594000000E+02  0.51100000000E-03 0.  1.
    9900012    2    1    2    0    0  0.32546299955E+02  0.15816814564E+02 -0.23962259070E+02  0.47787272777E+02  0.20000007900E+02 0.  0.
         12    1    1    2    0    0 -0.32546299955E+02 -0.15816814564E+02  0.23962259070E+02  0.43400727223E+02  0.00000000000E+00 0. -1.
         11    1    3    3    0    0  0.39696520605E+01 -0.46555051135E+01 -0.45790383316E+01  0.76419537846E+01  0.51100000000E-03 0. -1.
        -11    1    3    3    0    0  0.18739006492E+02  0.13598532468E+02 -0.12943615751E+02  0.26525603453E+02  0.51100000000E-03 0.  1.
         12    1    3    3    0    0  0.98376414025E+01  0.68737872097E+01 -0.64396049877E+01  0.13619715539E+02  0.00000000000E+00 0. -1.
</event>
<event>
 7    1  0.5426550E-010  0.4778727E+02  0.7816164E-02  0.1312668E+00
        -11   -1    0    0    0    0  0.00000000000E+00  0.00000000000E+00  0.45593999997E+02  0.45594000000E+02  0.51100000000E-03 0. -1.
         11   -1    0    0    0    0 -0.00000000000E+00 -0.00000000000E+00 -0.45593999997E+02  0.45594000000E+02  0.51100000000E-03 0.  1.
    9900012    2    1    2    0    0 -0.36186855742E+02  0.12422547819E+02 -0.20489382599E+02  0.47787273945E+02  0.20000013226E+02 0.  0.
         12    1    1    2    0    0  0.36186855742E+02 -0.12422547819E+02  0.20489382599E+02  0.43400726055E+02  0.00000000000E+00 0. -1.
         11    1    3    3    0    0 -0.14463182643E+01  0.42675587545E+01 -0.45691395728E+01  0.64172370177E+01  0.51100000000E-03 0. -1.
        -11    1    3    3    0    0 -0.16055081786E+02 -0.29214833844E+01 -0.50636075845E+01  0.17086276316E+02  0.51100000000E-03 0.  1.
        -12    1    3    3    0    0 -0.18685455691E+02  0.11076472449E+02 -0.10856635442E+02  0.24283760611E+02  0.00000000000E+00 0.  1.
</event>
<event>
 7    1  0.5426550E-010  0.4778728E+02  0.7816164E-02  0.1312668E+00
        -11   -1    0    0    0    0  0.00000000000E+00  0.00000000000E+00  0.45593999997E+02  0.45594000000E+02  0.51100000000E-03 0.  1.
         11   -1    0    0    0    0 -0.00000000000E+00 -0.00000000000E+00 -0.45593999997E+02  0.45594000000E+02  0.51100000000E-03 0. -1.
    9900012    2    1    2    0    0  0.83620316743E+01 -0.16477520496E+02  0.39270730942E+02  0.47787279221E+02  0.20000037279E+02 0.  0.
         12    1    1    2    0    0 -0.83620316743E+01  0.16477520496E+02 -0.39270730942E+02  0.43400720779E+02  0.00000000000E+00 0. -1.
         11    1    3    3    0    0  0.75383288311E+01 -0.17305078026E+02  0.17656426205E+02  0.25846499060E+02  0.51100000000E-03 0. -1.
        -11    1    3    3    0    0 -0.31395490938E+00  0.18902438157E+01  0.75009447790E+01  0.77418190503E+01  0.51100000000E-03 0.  1.
         12    1    3    3    0    0  0.11376577526E+01 -0.10626862854E+01  0.14113359958E+02  0.14198961110E+02  0.00000000000E+00 0. -1.
</event>
<event>
 7    1  0.5426550E-010  0.4778727E+02  0.7816164E-02  0.1312668E+00
        -11   -1    0    0    0    0  0.00000000000E+00  0.00000000000E+00  0.45593999997E+02  0.45594000000E+02  0.51100000000E-03 0. -1.
         11   -1    0    0    0    0 -0.00000000000E+00 -0.00000000000E+00 -0.45593999997E+02  0.45594000000E+02  0.51100000000E-03 0.  1.
    9900012    2    1    2    0    0 -0.38886950461E+02 -0.18321818465E+02 -0.59782581602E+01  0.47787268225E+02  0.19999987143E+02 0.  0.
         12    1    1    2    0    0  0.38886950461E+02  0.18321818465E+02  0.59782581602E+01  0.43400731775E+02  0.00000000000E+00 0. -1.
         11    1    3    3    0    0 -0.10662503966E+02  0.26741351405E+01 -0.60562601046E+01  0.12550628522E+02  0.51100000000E-03 0. -1.
        -11    1    3    3    0    0 -0.18156160636E+02 -0.12325801406E+02  0.33358862623E+00  0.21947273884E+02  0.51100000000E-03 0.  1.
         12    1    3    3    0    0 -0.10068285860E+02 -0.86701521993E+01 -0.25558668184E+00  0.13289365819E+02  0.00000000000E+00 0. -1.
</event>
<event>
 7    1  0.5426550E-010  0.4778727E+02  0.7816164E-02  0.1312668E+00
        -11   -1    0    0    0    0  0.00000000000E+00  0.00000000000E+00  0.45593999997E+02  0.45594000000E+02  0.51100000000E-03 0.  1.
         11   -1    0    0    0    0 -0.00000000000E+00 -0.00000000000E+00 -0.45593999997E+02  0.45594000000E+02  0.51100000000E-03 0. -1.
    9900012    2    1    2    0    0  0.24688224588E+02 -0.33047887744E+02  0.13488955394E+02  0.47787271489E+02  0.20000002026E+02 0.  0.
         12    1    1    2    0    0 -0.24688224588E+02  0.33047887744E+02 -0.13488955394E+02  0.43400728511E+02  0.00000000000E+00 0. -1.
         11    1    3    3    0    0  0.90274760941E+01 -0.65770937342E+01 -0.45859891219E+01  0.12074136951E+02  0.51100000000E-03 0. -1.
        -11    1    3    3    0    0  0.13570015431E+02 -0.22238791258E+02  0.14731287241E+02  0.29928581313E+02  0.51100000000E-03 0.  1.
         12    1    3    3    0    0  0.20907330634E+01 -0.42320027525E+01  0.33436572744E+01  0.57845532246E+01  0.00000000000E+00 0. -1.
</event>
<event>
 7    1  0.5426550E-010  0.4778727E+02  0.7816164E-02  0.1312668E+00
        -11   -1    0    0    0    0  0.00000000000E+00  0.00000000000E+00  0.45593999997E+02  0.45594000000E+02  0.51100000000E-03 0.  1.
         11   -1    0    0    0    0 -0.00000000000E+00 -0.00000000000E+00 -0.45593999997E+02  0.45594000000E+02  0.51100000000E-03 0. -1.
    9900012    2    1    2    0    0 -0.13829085319E+02 -0.13155251786E+00  0.41138332863E+02  0.47787270311E+02  0.19999996656E+02 0.  0.
         12    1    1    2    0    0  0.13829085319E+02  0.13155251786E+00 -0.41138332863E+02  0.43400729689E+02  0.00000000000E+00 0. -1.
         11    1    3    3    0    0 -0.54630210463E+01 -0.26512757898E+01  0.22928650826E+01  0.64908468488E+01  0.51100000000E-03 0. -1.
        -11    1    3    3    0    0 -0.68199333831E+01  0.65516960714E+01  0.22883943179E+02  0.24761079711E+02  0.51100000000E-03 0.  1.
        -12    1    3    3    0    0 -0.15461308891E+01 -0.40319727994E+01  0.15961524601E+02  0.16535343751E+02  0.00000000000E+00 0.  1.
</event>
<event>
 7    1  0.5426550E-010  0.4778727E+02  0.7816164E-02  0.1312668E+00
        -11   -1    0    0    0    0  0.00000000000E+00  0.00000000000E+00  0.45593999997E+02  0.45594000000E+02  0.51100000000E-03 0.  1.
         11   -1    0    0    0    0 -0.00000000000E+00 -0.00000000000E+00 -0.45593999997E+02  0.45594000000E+02  0.51100000000E-03 0. -1.
    9900012    2    1    2    0    0 -0.25491918730E+02 -0.10705523944E+02  0.33454103965E+02  0.47787271486E+02  0.20000002013E+02 0.  0.
         12    1    1    2    0    0  0.25491918730E+02  0.10705523944E+02 -0.33454103965E+02  0.43400728514E+02  0.00000000000E+00 0. -1.
         11    1    3    3    0    0 -0.16406595263E+02 -0.19770907851E+01  0.14311755778E+02  0.21861189579E+02  0.51100000000E-03 0. -1.
        -11    1    3    3    0    0 -0.58566654586E+01 -0.56179846407E+01  0.19796492191E+02  0.21395405699E+02  0.51100000000E-03 0.  1.
         12    1    3    3    0    0 -0.32286580082E+01 -0.31104485186E+01 -0.65414400392E+00  0.45306762077E+01  0.00000000000E+00 0. -1.
</event>
<event>
 7    1  0.5426550E-010  0.4778727E+02  0.7816164E-02  0.1312668E+00
        -11   -1    0    0    0    0  0.00000000000E+00  0.00000000000E+00  0.45593999997E+02  0.45594000000E+02  0.51100000000E-03 0. -1.
         11   -1    0    0    0    0 -0.00000000000E+00 -0.00000000000E+00 -0.45593999997E+02  0.45594000000E+02  0.51100000000E-03 0.  1.
    9900012    2    1    2    0    0 -0.55010804129E+01  0.36001954470E+02  0.23605522003E+02  0.47787270970E+02  0.19999999658E+02 0.  0.
         12    1    1    2    0    0  0.55010804129E+01 -0.36001954470E+02 -0.23605522003E+02  0.43400729030E+02  0.00000000000E+00 0. -1.
         11    1    3    3    0    0 -0.31520220899E+01  0.11070446904E+02 -0.17601032512E+01  0.11644226106E+02  0.51100000000E-03 0. -1.
        -11    1    3    3    0    0 -0.28616931380E+01  0.24219862604E+02  0.25465623103E+02  0.35260303352E+02  0.51100000000E-03 0.  1.
        -12    1    3    3    0    0  0.51263481496E+00  0.71164496225E+00 -0.99997849139E-01  0.88274151122E+00  0.00000000000E+00 0.  1.
</event>
<event>
 7    1  0.5426550E-010  0.4778727E+02  0.7816164E-02  0.1312668E+00
        -11   -1    0    0    0    0  0.00000000000E+00  0.00000000000E+00  0.45593999997E+02  0.45594000000E+02  0.51100000000E-03 0.  1.
         11   -1    0    0    0    0 -0.00000000000E+00 -0.00000000000E+00 -0.45593999997E+02  0.45594000000E+02  0.51100000000E-03 0. -1.
    9900012    2    1    2    0    0  0.12364228170E+02  0.28153280328E+02  0.30629099785E+02  0.47787273219E+02  0.20000009914E+02 0.  0.
         12    1    1    2    0    0 -0.12364228170E+02 -0.28153280328E+02 -0.30629099785E+02  0.43400726781E+02  0.00000000000E+00 0. -1.
         11    1    3    3    0    0  0.42307592527E+01  0.95949371365E+01  0.47770130511E+01  0.11523107066E+02  0.51100000000E-03 0. -1.
        -11    1    3    3    0    0  0.31460222033E+00  0.62539857250E+01 -0.35840036723E+00  0.62721418264E+01  0.51100000000E-03 0.  1.
        -12    1    3    3    0    0  0.78188666974E+01  0.12304357467E+02  0.26210487101E+02  0.29992024326E+02  0.00000000000E+00 0.  1.
</event>
<event>
 7    1  0.5426550E-010  0.4778727E+02  0.7816164E-02  0.1312668E+00
        -11   -1    0    0    0    0  0.00000000000E+00  0.00000000000E+00  0.45593999997E+02  0.45594000000E+02  0.51100000000E-03 0. -1.
         11   -1    0    0    0    0 -0.00000000000E+00 -0.00000000000E+00 -0.45593999997E+02  0.45594000000E+02  0.51100000000E-03 0.  1.
    9900012    2    1    2    0    0  0.54103423304E+01 -0.42749171546E+02 -0.51826362310E+01  0.47787272007E+02  0.20000004388E+02 0.  0.
         12    1    1    2    0    0 -0.54103423304E+01  0.42749171546E+02  0.51826362310E+01  0.43400727993E+02  0.00000000000E+00 0. -1.
         11    1    3    3    0    0 -0.36593664895E+01 -0.51512866904E+01 -0.22383287639E+00  0.63227224428E+01  0.51100000000E-03 0. -1.
        -11    1    3    3    0    0  0.91244140300E+01 -0.36729348355E+02 -0.76717101962E+01  0.38615477462E+02  0.51100000000E-03 0.  1.
        -12    1    3    3    0    0 -0.54705210073E-01 -0.86853650076E+00  0.27129068416E+01  0.28490721023E+01  0.00000000000E+00 0.  1.
</event>
<event>
 7    1  0.5426550E-010  0.4778727E+02  0.7816164E-02  0.1312668E+00
        -11   -1    0    0    0    0  0.00000000000E+00  0.00000000000E+00  0.45593999997E+02  0.45594000000E+02  0.51100000000E-03 0. -1.
         11   -1    0    0    0    0 -0.00000000000E+00 -0.00000000000E+00 -0.45593999997E+02  0.45594000000E+02  0.51100000000E-03 0.  1.
    9900012    2    1    2    0    0  0.14665753417E+02  0.31172719060E+02 -0.26396974837E+02  0.47787273999E+02  0.20000013470E+02 0.  0.
         12    1    1    2    0    0 -0.14665753417E+02 -0.31172719060E+02  0.26396974837E+02  0.43400726001E+02  0.00000000000E+00 0. -1.
         11    1    3    3    0    0 -0.62141011653E+00 -0.13846303783E+01 -0.38421427692E+01  0.41310305176E+01  0.51100000000E-03 0. -1.
        -11    1    3    3    0    0  0.20950863504E+01  0.13844845690E+02 -0.12018510157E+02  0.18453013999E+02  0.51100000000E-03 0.  1.
         12    1    3    3    0    0  0.13192077183E+02  0.18712503748E+02 -0.10536321912E+02  0.25203229482E+02  0.00000000000E+00 0. -1.
</event>
<event>
 7    1  0.5426550E-010  0.4778727E+02  0.7816164E-02  0.1312668E+00
        -11   -1    0    0    0    0  0.00000000000E+00  0.00000000000E+00  0.45593999997E+02  0.45594000000E+02  0.51100000000E-03 0.  1.
         11   -1    0    0    0    0 -0.00000000000E+00 -0.00000000000E+00 -0.45593999997E+02  0.45594000000E+02  0.51100000000E-03 0. -1.
    9900012    2    1    2    0    0 -0.26828755205E+02 -0.18015902193E+02  0.28970130206E+02  0.47787270953E+02  0.19999999585E+02 0.  0.
         12    1    1    2    0    0  0.26828755205E+02  0.18015902193E+02 -0.28970130206E+02  0.43400729047E+02  0.00000000000E+00 0. -1.
         11    1    3    3    0    0 -0.12049150067E+02  0.28146318948E+01  0.10742486330E+02  0.16386127757E+02  0.51100000000E-03 0. -1.
        -11    1    3    3    0    0 -0.84301238732E+01 -0.11064880539E+02  0.10367822283E+02  0.17349072281E+02  0.51100000000E-03 0.  1.
         12    1    3    3    0    0 -0.63494812649E+01 -0.97656535486E+01  0.78598215925E+01  0.14052070916E+02  0.00000000000E+00 0. -1.
</event>
<event>
 7    1  0.5426550E-010  0.4778727E+02  0.7816164E-02  0.1312668E+00
        -11   -1    0    0    0    0  0.00000000000E+00  0.00000000000E+00  0.45593999997E+02  0.45594000000E+02  0.51100000000E-03 0.  1.
         11   -1    0    0    0    0 -0.00000000000E+00 -0.00000000000E+00 -0.45593999997E+02  0.45594000000E+02  0.51100000000E-03 0. -1.
    9900012    2    1    2    0    0 -0.10475018136E+02 -0.87456526746E+01  0.41199645663E+02  0.47787271338E+02  0.20000001340E+02 0.  0.
         12    1    1    2    0    0  0.10475018136E+02  0.87456526746E+01 -0.41199645663E+02  0.43400728662E+02  0.00000000000E+00 0. -1.
         11    1    3    3    0    0  0.30215338794E+01 -0.16394956608E+01  0.95066010614E-01  0.34389897955E+01  0.51100000000E-03 0. -1.
        -11    1    3    3    0    0 -0.10218560400E+02 -0.49669376402E+01  0.21101945868E+02  0.23966258904E+02  0.51100000000E-03 0.  1.
         12    1    3    3    0    0 -0.32779916150E+01 -0.21392193735E+01  0.20002633784E+02  0.20382022639E+02  0.00000000000E+00 0. -1.
</event>
<event>
 7    1  0.5426550E-010  0.4778728E+02  0.7816164E-02  0.1312668E+00
        -11   -1    0    0    0    0  0.00000000000E+00  0.00000000000E+00  0.45593999997E+02  0.45594000000E+02  0.51100000000E-03 0.  1.
         11   -1    0    0    0    0 -0.00000000000E+00 -0.00000000000E+00 -0.45593999997E+02  0.45594000000E+02  0.51100000000E-03 0. -1.
    9900012    2    1    2    0    0 -0.12835690791E+02  0.28462045721E+02  0.30145968490E+02  0.47787280871E+02  0.20000044804E+02 0.  0.
         12    1    1    2    0    0  0.12835690791E+02 -0.28462045721E+02 -0.30145968490E+02  0.43400719129E+02  0.00000000000E+00 0. -1.
         11    1    3    3    0    0 -0.92541946011E+00  0.22202402426E+02  0.18382420749E+02  0.28839494924E+02  0.51100000000E-03 0. -1.
        -11    1    3    3    0    0 -0.68585943645E+01  0.18736451334E+01  0.25326511179E+01  0.75475283828E+01  0.51100000000E-03 0.  1.
         12    1    3    3    0    0 -0.50516769667E+01  0.43859981616E+01  0.92308966235E+01  0.11400257564E+02  0.00000000000E+00 0. -1.
</event>
<event>
 7    1  0.5426550E-010  0.4778726E+02  0.7816164E-02  0.1312668E+00
        -11   -1    0    0    0    0  0.00000000000E+00  0.00000000000E+00  0.45593999997E+02  0.45594000000E+02  0.51100000000E-03 0. -1.
         11   -1    0    0    0    0 -0.00000000000E+00 -0.00000000000E+00 -0.45593999997E+02  0.45594000000E+02  0.51100000000E-03 0.  1.
    9900012    2    1    2    0    0 -0.81990978472E+01  0.23775440242E+02 -0.35371277882E+02  0.47787261950E+02  0.19999958537E+02 0.  0.
         12    1    1    2    0    0  0.81990978472E+01 -0.23775440242E+02  0.35371277882E+02  0.43400738050E+02  0.00000000000E+00 0. -1.
         11    1    3    3    0    0 -0.72638872328E+01  0.85476553361E+01 -0.71491814363E+01  0.13301776759E+02  0.51100000000E-03 0. -1.
        -11    1    3    3    0    0  0.10415295834E+01  0.17044604843E+02 -0.23430341982E+02  0.28992831248E+02  0.51100000000E-03 0.  1.
        -12    1    3    3    0    0 -0.19767401978E+01 -0.18168199373E+01 -0.47917544644E+01  0.54926539433E+01  0.00000000000E+00 0.  1.
</event>
<event>
 7    1  0.5426550E-010  0.4778727E+02  0.7816164E-02  0.1312668E+00
        -11   -1    0    0    0    0  0.00000000000E+00  0.00000000000E+00  0.45593999997E+02  0.45594000000E+02  0.51100000000E-03 0.  1.
         11   -1    0    0    0    0 -0.00000000000E+00 -0.00000000000E+00 -0.45593999997E+02  0.45594000000E+02  0.51100000000E-03 0. -1.
    9900012    2    1    2    0    0 -0.14899072469E+02  0.39925797131E+02  0.82201973557E+01  0.47787270956E+02  0.19999999597E+02 0.  0.
         12    1    1    2    0    0  0.14899072469E+02 -0.39925797131E+02 -0.82201973557E+01  0.43400729044E+02  0.00000000000E+00 0. -1.
         11    1    3    3    0    0  0.44136605858E+00  0.14734217218E+01 -0.28624211644E+01  0.32494969998E+01  0.51100000000E-03 0. -1.
        -11    1    3    3    0    0 -0.13255201006E+02  0.38387228792E+02  0.90137000012E+01  0.41599597065E+02  0.51100000000E-03 0.  1.
         12    1    3    3    0    0 -0.20852375222E+01  0.65146617170E-01  0.20689185189E+01  0.29381768911E+01  0.00000000000E+00 0. -1.
</event>
<event>
 7    1  0.5426550E-010  0.4778727E+02  0.7816164E-02  0.1312668E+00
        -11   -1    0    0    0    0  0.00000000000E+00  0.00000000000E+00  0.45593999997E+02  0.45594000000E+02  0.51100000000E-03 0.  1.
         11   -1    0    0    0    0 -0.00000000000E+00 -0.00000000000E+00 -0.45593999997E+02  0.45594000000E+02  0.51100000000E-03 0. -1.
    9900012    2    1    2    0    0  0.33028781888E+02 -0.15421510328E+02  0.23556317503E+02  0.47787268346E+02  0.19999987699E+02 0.  0.
         12    1    1    2    0    0 -0.33028781888E+02  0.15421510328E+02 -0.23556317503E+02  0.43400731654E+02  0.00000000000E+00 0. -1.
         11    1    3    3    0    0  0.11323249885E+02  0.21742369947E+01  0.26153610778E+01  0.11823003353E+02  0.51100000000E-03 0. -1.
        -11    1    3    3    0    0  0.32376777187E+01 -0.68320839608E+00  0.58661963210E+01  0.67351013549E+01  0.51100000000E-03 0.  1.
         12    1    3    3    0    0  0.18467854284E+02 -0.16912538926E+02  0.15074760104E+02  0.29229163638E+02  0.00000000000E+00 0. -1.
</event>
<event>
 7    1  0.5426550E-010  0.4778727E+02  0.7816164E-02  0.1312668E+00
        -11   -1    0    0    0    0  0.00000000000E+00  0.00000000000E+00  0.45593999997E+02  0.45594000000E+02  0.51100000000E-03 0.  1.
         11   -1    0    0    0    0 -0.00000000000E+00 -0.00000000000E+00 -0.45593999997E+02  0.45594000000E+02  0.51100000000E-03 0. -1.
    9900012    2    1    2    0    0  0.41338086995E+02 -0.12658799823E+02  0.38131983185E+01  0.47787272692E+02  0.20000007514E+02 0.  0.
         12    1    1    2    0    0 -0.41338086995E+02  0.12658799823E+02 -0.38131983185E+01  0.43400727308E+02  0.00000000000E+00 0. -1.
         11    1    3    3    0    0  0.26945738780E+02 -0.12638962493E+02 -0.29169984961E+01  0.29905268629E+02  0.51100000000E-03 0.  1.
        -11    1    3    3    0    0  0.13761444006E+01 -0.27330369292E+01  0.19342303666E+00  0.30660523479E+01  0.51100000000E-03 0. -1.
         12    1    3    3    0    0  0.13016203815E+02  0.27131995987E+01  0.65367737780E+01  0.14815951716E+02  0.00000000000E+00 0. -1.
</event>
<event>
 7    1  0.5426550E-010  0.4778727E+02  0.7816164E-02  0.1312668E+00
        -11   -1    0    0    0    0  0.00000000000E+00  0.00000000000E+00  0.45593999997E+02  0.45594000000E+02  0.51100000000E-03 0. -1.
         11   -1    0    0    0    0 -0.00000000000E+00 -0.00000000000E+00 -0.45593999997E+02  0.45594000000E+02  0.51100000000E-03 0.  1.
    9900012    2    1    2    0    0 -0.25985684851E+02 -0.20515212343E+02 -0.28062318521E+02  0.47787268722E+02  0.19999989413E+02 0.  0.
         12    1    1    2    0    0  0.25985684851E+02  0.20515212343E+02  0.28062318521E+02  0.43400731278E+02  0.00000000000E+00 0. -1.
         11    1    3    3    0    0 -0.89066759407E+01 -0.23499864468E+01  0.22148417507E+00  0.92141395753E+01  0.51100000000E-03 0. -1.
        -11    1    3    3    0    0 -0.89791569447E+01 -0.40638044088E+01 -0.89912619010E+01  0.13341010327E+02  0.51100000000E-03 0.  1.
         12    1    3    3    0    0 -0.80998519655E+01 -0.14101421488E+02 -0.19292540795E+02  0.25232118820E+02  0.00000000000E+00 0. -1.
</event>
<event>
 7    1  0.5426550E-010  0.4778727E+02  0.7816164E-02  0.1312668E+00
        -11   -1    0    0    0    0  0.00000000000E+00  0.00000000000E+00  0.45593999997E+02  0.45594000000E+02  0.51100000000E-03 0. -1.
         11   -1    0    0    0    0 -0.00000000000E+00 -0.00000000000E+00 -0.45593999997E+02  0.45594000000E+02  0.51100000000E-03 0.  1.
    9900012    2    1    2    0    0  0.17031265570E+02  0.20884885161E+02 -0.34020300796E+02  0.47787270728E+02  0.19999998558E+02 0.  0.
         12    1    1    2    0    0 -0.17031265570E+02 -0.20884885161E+02  0.34020300796E+02  0.43400729272E+02  0.00000000000E+00 0. -1.
         11    1    3    3    0    0  0.14729466561E+00  0.93598372512E+01 -0.48152897936E+01  0.10526882974E+02  0.51100000000E-03 0. -1.
        -11    1    3    3    0    0  0.17103992093E+02  0.12026601914E+02 -0.23205350766E+02  0.31235780822E+02  0.51100000000E-03 0.  1.
        -12    1    3    3    0    0 -0.22002118861E+00 -0.50155400467E+00 -0.59996602363E+01  0.60246069327E+01  0.00000000000E+00 0.  1.
</event>
<event>
 7    1  0.5426550E-010  0.4778727E+02  0.7816164E-02  0.1312668E+00
        -11   -1    0    0    0    0  0.00000000000E+00  0.00000000000E+00  0.45593999997E+02  0.45594000000E+02  0.51100000000E-03 0.  1.
         11   -1    0    0    0    0 -0.00000000000E+00 -0.00000000000E+00 -0.45593999997E+02  0.45594000000E+02  0.51100000000E-03 0. -1.
    9900012    2    1    2    0    0 -0.12446298836E+02  0.38725302727E+02  0.15134852417E+02  0.47787272083E+02  0.20000004736E+02 0.  0.
         12    1    1    2    0    0  0.12446298836E+02 -0.38725302727E+02 -0.15134852417E+02  0.43400727917E+02  0.00000000000E+00 0. -1.
         11    1    3    3    0    0 -0.81963220526E+01  0.20069899006E+02  0.16185039680E+02  0.27054316680E+02  0.51100000000E-03 0. -1.
        -11    1    3    3    0    0 -0.29293354699E+01  0.12898815781E+02  0.30105378834E+01  0.13565536976E+02  0.51100000000E-03 0.  1.
         12    1    3    3    0    0 -0.13206413137E+01  0.57565879403E+01 -0.40607251464E+01  0.71674184271E+01  0.00000000000E+00 0. -1.
</event>
<event>
 7    1  0.5426550E-010  0.4778728E+02  0.7816164E-02  0.1312668E+00
        -11   -1    0    0    0    0  0.00000000000E+00  0.00000000000E+00  0.45593999997E+02  0.45594000000E+02  0.51100000000E-03 0.  1.
         11   -1    0    0    0    0 -0.00000000000E+00 -0.00000000000E+00 -0.45593999997E+02  0.45594000000E+02  0.51100000000E-03 0. -1.
    9900012    2    1    2    0    0  0.40392468561E+02 -0.93170785490E+01  0.12855477029E+02  0.47787276978E+02  0.20000027053E+02 0.  0.
         12    1    1    2    0    0 -0.40392468561E+02  0.93170785490E+01 -0.12855477029E+02  0.43400723022E+02  0.00000000000E+00 0. -1.
         11    1    3    3    0    0  0.44161089207E+01 -0.36926891837E-01 -0.38655327445E+01  0.58690480706E+01  0.51100000000E-03 0. -1.
        -11    1    3    3    0    0  0.16464786421E+02 -0.47791774002E+01  0.13083902105E+02  0.21566599711E+02  0.51100000000E-03 0.  1.
         12    1    3    3    0    0  0.19511573220E+02 -0.45009742569E+01  0.36371076686E+01  0.20351629197E+02  0.00000000000E+00 0. -1.
</event>
<event>
 7    1  0.5426550E-010  0.4778726E+02  0.7816164E-02  0.1312668E+00
        -11   -1    0    0    0    0  0.00000000000E+00  0.00000000000E+00  0.45593999997E+02  0.45594000000E+02  0.51100000000E-03 0.  1.
         11   -1    0    0    0    0 -0.00000000000E+00 -0.00000000000E+00 -0.45593999997E+02  0.45594000000E+02  0.51100000000E-03 0. -1.
    9900012    2    1    2    0    0  0.18174961218E+02 -0.15154507145E+02  0.36381803257E+02  0.47787263712E+02  0.19999966570E+02 0.  0.
         12    1    1    2    0    0 -0.18174961218E+02  0.15154507145E+02 -0.36381803257E+02  0.43400736288E+02  0.00000000000E+00 0. -1.
         11    1    3    3    0    0  0.48401292057E+01 -0.26492487154E+01 -0.10947076927E+01  0.56252781867E+01  0.51100000000E-03 0. -1.
        -11    1    3    3    0    0  0.43729726695E+01 -0.82257244417E+01  0.19933571964E+02  0.22003016249E+02  0.51100000000E-03 0.  1.
         12    1    3    3    0    0  0.89618593432E+01 -0.42795339876E+01  0.17542938985E+02  0.20158969276E+02  0.00000000000E+00 0. -1.
</event>
<event>
 7    1  0.5426550E-010  0.4778727E+02  0.7816164E-02  0.1312668E+00
        -11   -1    0    0    0    0  0.00000000000E+00  0.00000000000E+00  0.45593999997E+02  0.45594000000E+02  0.51100000000E-03 0.  1.
         11   -1    0    0    0    0 -0.00000000000E+00 -0.00000000000E+00 -0.45593999997E+02  0.45594000000E+02  0.51100000000E-03 0. -1.
    9900012    2    1    2    0    0 -0.88073155343E+01 -0.39282203866E+02  0.16216124986E+02  0.47787273542E+02  0.20000011388E+02 0.  0.
         12    1    1    2    0    0  0.88073155343E+01  0.39282203866E+02 -0.16216124986E+02  0.43400726458E+02  0.00000000000E+00 0. -1.
         11    1    3    3    0    0  0.98522533182E+00 -0.61600487323E+01 -0.31961331157E+01  0.70094319665E+01  0.51100000000E-03 0. -1.
        -11    1    3    3    0    0 -0.48164083625E+01 -0.27909834883E+02  0.13130735445E+02  0.31218149950E+02  0.51100000000E-03 0.  1.
         12    1    3    3    0    0 -0.49761325036E+01 -0.52123202510E+01  0.62815226570E+01  0.95596916260E+01  0.00000000000E+00 0. -1.
</event>
<event>
 7    1  0.5426550E-010  0.4778727E+02  0.7816164E-02  0.1312668E+00
        -11   -1    0    0    0    0  0.00000000000E+00  0.00000000000E+00  0.45593999997E+02  0.45594000000E+02  0.51100000000E-03 0. -1.
         11   -1    0    0    0    0 -0.00000000000E+00 -0.00000000000E+00 -0.45593999997E+02  0.45594000000E+02  0.51100000000E-03 0.  1.
    9900012    2    1    2    0    0  0.76476132245E+01 -0.30867333718E+02  0.29535491194E+02  0.47787268221E+02  0.19999987128E+02 0.  0.
         12    1    1    2    0    0 -0.76476132245E+01  0.30867333718E+02 -0.29535491194E+02  0.43400731779E+02  0.00000000000E+00 0. -1.
         11    1    3    3    0    0  0.39387928292E+01 -0.21056140004E+02  0.10692678006E+02  0.23941772783E+02  0.51100000000E-03 0. -1.
        -11    1    3    3    0    0  0.63613591481E+01 -0.50211062794E+01  0.66633519576E+01  0.10491837687E+02  0.51100000000E-03 0.  1.
         12    1    3    3    0    0 -0.26525387528E+01 -0.47900874343E+01  0.12179461230E+02  0.13353657751E+02  0.00000000000E+00 0. -1.
</event>
<event>
 7    1  0.5426550E-010  0.4778727E+02  0.7816164E-02  0.1312668E+00
        -11   -1    0    0    0    0  0.00000000000E+00  0.00000000000E+00  0.45593999997E+02  0.45594000000E+02  0.51100000000E-03 0.  1.
         11   -1    0    0    0    0 -0.00000000000E+00 -0.00000000000E+00 -0.45593999997E+02  0.45594000000E+02  0.51100000000E-03 0. -1.
    9900012    2    1    2    0    0 -0.38436335488E+02  0.30839551330E+01  0.19918847828E+02  0.47787272313E+02  0.20000005783E+02 0.  0.
         12    1    1    2    0    0  0.38436335488E+02 -0.30839551330E+01 -0.19918847828E+02  0.43400727687E+02  0.00000000000E+00 0. -1.
         11    1    3    3    0    0 -0.90300386731E+01 -0.11273149741E+01  0.12173360520E+02  0.15198787587E+02  0.51100000000E-03 0. -1.
        -11    1    3    3    0    0 -0.28307394476E+02  0.13153606036E+01  0.80948832251E+01  0.29471441943E+02  0.51100000000E-03 0.  1.
         12    1    3    3    0    0 -0.10989023386E+01  0.28959095035E+01 -0.34939591754E+00  0.31170427827E+01  0.00000000000E+00 0. -1.
</event>
<event>
 7    1  0.5426550E-010  0.4778732E+02  0.7816164E-02  0.1312668E+00
        -11   -1    0    0    0    0  0.00000000000E+00  0.00000000000E+00  0.45593999997E+02  0.45594000000E+02  0.51100000000E-03 0.  1.
         11   -1    0    0    0    0 -0.00000000000E+00 -0.00000000000E+00 -0.45593999997E+02  0.45594000000E+02  0.51100000000E-03 0. -1.
    9900012    2    1    2    0    0 -0.26035712425E+02 -0.33323966056E+02  0.97608588857E+01  0.47787315658E+02  0.20000203410E+02 0.  0.
         12    1    1    2    0    0  0.26035712425E+02  0.33323966056E+02 -0.97608588857E+01  0.43400684342E+02  0.00000000000E+00 0. -1.
         11    1    3    3    0    0  0.39051332619E+00  0.15721638337E+01  0.17278692281E+01  0.23684873038E+01  0.51100000000E-03 0. -1.
        -11    1    3    3    0    0 -0.20018034593E+02 -0.31639233542E+02  0.76938933955E+01  0.38222490813E+02  0.51100000000E-03 0.  1.
        -12    1    3    3    0    0 -0.64081911578E+01 -0.32568963477E+01  0.33909626214E+00  0.71963375414E+01  0.00000000000E+00 0.  1.
</event>
<event>
 7    1  0.5426550E-010  0.4778727E+02  0.7816164E-02  0.1312668E+00
        -11   -1    0    0    0    0  0.00000000000E+00  0.00000000000E+00  0.45593999997E+02  0.45594000000E+02  0.51100000000E-03 0.  1.
         11   -1    0    0    0    0 -0.00000000000E+00 -0.00000000000E+00 -0.45593999997E+02  0.45594000000E+02  0.51100000000E-03 0. -1.
    9900012    2    1    2    0    0  0.56551581352E+01 -0.15189020725E+02  0.40260848090E+02  0.47787273589E+02  0.20000011600E+02 0.  0.
         12    1    1    2    0    0 -0.56551581352E+01  0.15189020725E+02 -0.40260848090E+02  0.43400726411E+02  0.00000000000E+00 0. -1.
         11    1    3    3    0    0  0.94337158915E+01 -0.93354252962E+01  0.28699372786E+02  0.31619600876E+02  0.51100000000E-03 0. -1.
        -11    1    3    3    0    0  0.16951028720E+01 -0.55665785222E+01  0.58236079794E+01  0.82325318310E+01  0.51100000000E-03 0.  1.
         12    1    3    3    0    0 -0.54736606283E+01 -0.28701690668E+00  0.57378673247E+01  0.79351408819E+01  0.00000000000E+00 0. -1.
</event>
<event>
 7    1  0.5426550E-010  0.4778727E+02  0.7816164E-02  0.1312668E+00
        -11   -1    0    0    0    0  0.00000000000E+00  0.00000000000E+00  0.45593999997E+02  0.45594000000E+02  0.51100000000E-03 0. -1.
         11   -1    0    0    0    0 -0.00000000000E+00 -0.00000000000E+00 -0.45593999997E+02  0.45594000000E+02  0.51100000000E-03 0.  1.
    9900012    2    1    2    0    0  0.28176142077E+02 -0.32391711036E+02 -0.63643956737E+01  0.47787268918E+02  0.19999990306E+02 0.  0.
         12    1    1    2    0    0 -0.28176142077E+02  0.32391711036E+02  0.63643956737E+01  0.43400731082E+02  0.00000000000E+00 0. -1.
         11    1    3    3    0    0  0.87404831382E+01 -0.10494899494E+02 -0.98482819783E+01  0.16838278388E+02  0.51100000000E-03 0. -1.
        -11    1    3    3    0    0  0.13931306806E+02 -0.90356107062E+01  0.34491352314E+01  0.16959366270E+02  0.51100000000E-03 0.  1.
         12    1    3    3    0    0  0.55043521322E+01 -0.12861200835E+02  0.34751073127E-01  0.13989624261E+02  0.00000000000E+00 0. -1.
</event>
<event>
 7    1  0.5426550E-010  0.4778733E+02  0.7816164E-02  0.1312667E+00
        -11   -1    0    0    0    0  0.00000000000E+00  0.00000000000E+00  0.45593999997E+02  0.45594000000E+02  0.51100000000E-03 0.  1.
         11   -1    0    0    0    0 -0.00000000000E+00 -0.00000000000E+00 -0.45593999997E+02  0.45594000000E+02  0.51100000000E-03 0. -1.
    9900012    2    1    2    0    0  0.18421949779E+02 -0.41072282711E+01  0.39081715321E+02  0.47787331455E+02  0.20000275433E+02 0.  0.
         12    1    1    2    0    0 -0.18421949779E+02  0.41072282711E+01 -0.39081715321E+02  0.43400668545E+02  0.00000000000E+00 0. -1.
         11    1    3    3    0    0  0.85976670888E+01  0.35889825725E+01  0.22831972699E+02  0.24659676657E+02  0.51100000000E-03 0. -1.
        -11    1    3    3    0    0 -0.16072631822E+01 -0.35051422558E+01  0.18698868734E+01  0.42855331466E+01  0.51100000000E-03 0.  1.
         12    1    3    3    0    0  0.11431545873E+02 -0.41910685878E+01  0.14379855749E+02  0.18842121651E+02  0.00000000000E+00 0. -1.
</event>
<event>
 7    1  0.5426550E-010  0.4778727E+02  0.7816164E-02  0.1312668E+00
        -11   -1    0    0    0    0  0.00000000000E+00  0.00000000000E+00  0.45593999997E+02  0.45594000000E+02  0.51100000000E-03 0.  1.
         11   -1    0    0    0    0 -0.00000000000E+00 -0.00000000000E+00 -0.45593999997E+02  0.45594000000E+02  0.51100000000E-03 0. -1.
    9900012    2    1    2    0    0  0.18002790542E+01  0.36706635046E+02  0.23086910696E+02  0.47787268364E+02  0.19999987779E+02 0.  0.
         12    1    1    2    0    0 -0.18002790542E+01 -0.36706635046E+02 -0.23086910696E+02  0.43400731636E+02  0.00000000000E+00 0. -1.
         11    1    3    3    0    0  0.25129848319E+01  0.69897786843E+01 -0.26527751820E+01  0.78872882063E+01  0.51100000000E-03 0. -1.
        -11    1    3    3    0    0  0.23318715109E+01  0.43405391849E+01  0.43189957065E+01  0.65522232359E+01  0.51100000000E-03 0.  1.
         12    1    3    3    0    0 -0.30445772886E+01  0.25376317177E+02  0.21420690171E+02  0.33347756922E+02  0.00000000000E+00 0. -1.
</event>
<event>
 7    1  0.5426550E-010  0.4778727E+02  0.7816164E-02  0.1312668E+00
        -11   -1    0    0    0    0  0.00000000000E+00  0.00000000000E+00  0.45593999997E+02  0.45594000000E+02  0.51100000000E-03 0.  1.
         11   -1    0    0    0    0 -0.00000000000E+00 -0.00000000000E+00 -0.45593999997E+02  0.45594000000E+02  0.51100000000E-03 0. -1.
    9900012    2    1    2    0    0  0.72190805134E+01  0.40458848690E+02  0.13949557465E+02  0.47787265971E+02  0.19999976868E+02 0.  0.
         12    1    1    2    0    0 -0.72190805134E+01 -0.40458848690E+02 -0.13949557465E+02  0.43400734029E+02  0.00000000000E+00 0. -1.
         11    1    3    3    0    0 -0.77712286868E+00  0.42267093294E+01 -0.17404512518E+01  0.46366111039E+01  0.51100000000E-03 0. -1.
        -11    1    3    3    0    0  0.95051681605E+01  0.32810259859E+02  0.87422284893E+01  0.35260288328E+02  0.51100000000E-03 0.  1.
        -12    1    3    3    0    0 -0.15089647784E+01  0.34218795017E+01  0.69477802276E+01  0.78903665388E+01  0.00000000000E+00 0.  1.
</event>
<event>
 7    1  0.5426550E-010  0.4778726E+02  0.7816164E-02  0.1312668E+00
        -11   -1    0    0    0    0  0.00000000000E+00  0.00000000000E+00  0.45593999997E+02  0.45594000000E+02  0.51100000000E-03 0. -1.
         11   -1    0    0    0    0 -0.00000000000E+00 -0.00000000000E+00 -0.45593999997E+02  0.45594000000E+02  0.51100000000E-03 0.  1.
    9900012    2    1    2    0    0 -0.15007535361E+02 -0.32750543545E+02 -0.24203301086E+02  0.47787262637E+02  0.19999961669E+02 0.  0.
         12    1    1    2    0    0  0.15007535361E+02  0.32750543545E+02  0.24203301086E+02  0.43400737363E+02  0.00000000000E+00 0. -1.
         11    1    3    3    0    0  0.14929969673E+01 -0.64646818077E+01 -0.21335822338E+01  0.69694565232E+01  0.51100000000E-03 0. -1.
        -11    1    3    3    0    0 -0.57433304437E+01 -0.20112574125E+02 -0.18467705462E+02  0.27902645534E+02  0.51100000000E-03 0.  1.
        -12    1    3    3    0    0 -0.10757201885E+02 -0.61732876122E+01 -0.36020133907E+01  0.12915160580E+02  0.00000000000E+00 0.  1.
</event>
<event>
 7    1  0.5426550E-010  0.4778727E+02  0.7816164E-02  0.1312668E+00
        -11   -1    0    0    0    0  0.00000000000E+00  0.00000000000E+00  0.45593999997E+02  0.45594000000E+02  0.51100000000E-03 0.  1.
         11   -1    0    0    0    0 -0.00000000000E+00 -0.00000000000E+00 -0.45593999997E+02  0.45594000000E+02  0.51100000000E-03 0. -1.
    9900012    2    1    2    0    0 -0.14195629461E+02  0.20583783139E+02  0.35474145270E+02  0.47787274122E+02  0.20000014033E+02 0.  0.
         12    1    1    2    0    0  0.14195629461E+02 -0.20583783139E+02 -0.35474145270E+02  0.43400725878E+02  0.00000000000E+00 0. -1.
         11    1    3    3    0    0 -0.81200509407E+01  0.91408795124E+01  0.51136509133E+01  0.13252936711E+02  0.51100000000E-03 0. -1.
        -11    1    3    3    0    0 -0.12018128907E+01  0.22217222974E+01  0.18780990633E+02  0.18950092707E+02  0.51100000000E-03 0.  1.
        -12    1    3    3    0    0 -0.48737656300E+01  0.92211813292E+01  0.11579503723E+02  0.15584244704E+02  0.00000000000E+00 0.  1.
</event>
<event>
 7    1  0.5426550E-010  0.4778727E+02  0.7816164E-02  0.1312668E+00
        -11   -1    0    0    0    0  0.00000000000E+00  0.00000000000E+00  0.45593999997E+02  0.45594000000E+02  0.51100000000E-03 0. -1.
         11   -1    0    0    0    0 -0.00000000000E+00 -0.00000000000E+00 -0.45593999997E+02  0.45594000000E+02  0.51100000000E-03 0.  1.
    9900012    2    1    2    0    0 -0.22232479247E+02  0.27187971445E+02  0.25498126758E+02  0.47787269673E+02  0.19999993748E+02 0.  0.
         12    1    1    2    0    0  0.22232479247E+02 -0.27187971445E+02 -0.25498126758E+02  0.43400730327E+02  0.00000000000E+00 0. -1.
         11    1    3    3    0    0 -0.59406675108E+01  0.69500238728E-01  0.67752414296E+01  0.90111185459E+01  0.51100000000E-03 0. -1.
        -11    1    3    3    0    0 -0.13990576146E+02  0.19705071908E+02  0.78358989311E+01  0.25405263079E+02  0.51100000000E-03 0.  1.
        -12    1    3    3    0    0 -0.23012355903E+01  0.74133992980E+01  0.10886986397E+02  0.13370888049E+02  0.00000000000E+00 0.  1.
</event>
<event>
 7    1  0.5426550E-010  0.4778726E+02  0.7816164E-02  0.1312668E+00
        -11   -1    0    0    0    0  0.00000000000E+00  0.00000000000E+00  0.45593999997E+02  0.45594000000E+02  0.51100000000E-03 0.  1.
         11   -1    0    0    0    0 -0.00000000000E+00 -0.00000000000E+00 -0.45593999997E+02  0.45594000000E+02  0.51100000000E-03 0. -1.
    9900012    2    1    2    0    0  0.76452502150E+01  0.40340959477E+02  0.14063475290E+02  0.47787260379E+02  0.19999951372E+02 0.  0.
         12    1    1    2    0    0 -0.76452502150E+01 -0.40340959477E+02 -0.14063475290E+02  0.43400739621E+02  0.00000000000E+00 0. -1.
         11    1    3    3    0    0  0.50276272896E-01  0.99320395047E+01  0.11421034283E+02  0.15135651978E+02  0.51100000000E-03 0. -1.
        -11    1    3    3    0    0  0.28365412922E+01  0.15264535326E+02 -0.29833012348E+01  0.15809873236E+02  0.51100000000E-03 0.  1.
        -12    1    3    3    0    0  0.47584326500E+01  0.15144384646E+02  0.56257422417E+01  0.16841735165E+02  0.00000000000E+00 0.  1.
</event>
<event>
 7    1  0.5426550E-010  0.4778727E+02  0.7816164E-02  0.1312668E+00
        -11   -1    0    0    0    0  0.00000000000E+00  0.00000000000E+00  0.45593999997E+02  0.45594000000E+02  0.51100000000E-03 0.  1.
         11   -1    0    0    0    0 -0.00000000000E+00 -0.00000000000E+00 -0.45593999997E+02  0.45594000000E+02  0.51100000000E-03 0. -1.
    9900012    2    1    2    0    0  0.84816198192E+01  0.40184746969E+02  0.14031100532E+02  0.47787267911E+02  0.19999985712E+02 0.  0.
         12    1    1    2    0    0 -0.84816198192E+01 -0.40184746969E+02 -0.14031100532E+02  0.43400732089E+02  0.00000000000E+00 0. -1.
         11    1    3    3    0    0 -0.30255457691E+01  0.19016449019E+02  0.10950421266E+02  0.22151545920E+02  0.51100000000E-03 0. -1.
        -11    1    3    3    0    0  0.10239951755E+02  0.20777405915E+02  0.46031770199E+01  0.23616656144E+02  0.51100000000E-03 0.  1.
         12    1    3    3    0    0  0.12672138331E+01  0.39089203562E+00 -0.15224977537E+01  0.20190658465E+01  0.00000000000E+00 0. -1.
</event>
<event>
 7    1  0.5426550E-010  0.4778727E+02  0.7816164E-02  0.1312668E+00
        -11   -1    0    0    0    0  0.00000000000E+00  0.00000000000E+00  0.45593999997E+02  0.45594000000E+02  0.51100000000E-03 0.  1.
         11   -1    0    0    0    0 -0.00000000000E+00 -0.00000000000E+00 -0.45593999997E+02  0.45594000000E+02  0.51100000000E-03 0. -1.
    9900012    2    1    2    0    0  0.33166871914E+02 -0.13878621716E+02  0.24309785477E+02  0.47787271858E+02  0.20000003711E+02 0.  0.
         12    1    1    2    0    0 -0.33166871914E+02  0.13878621716E+02 -0.24309785477E+02  0.43400728142E+02  0.00000000000E+00 0. -1.
         11    1    3    3    0    0  0.38208690827E+01 -0.51398125925E+01  0.42191289955E+01  0.76692740057E+01  0.51100000000E-03 0. -1.
        -11    1    3    3    0    0  0.10885360822E+02 -0.56677728121E+01  0.17278683925E+02  0.21193575615E+02  0.51100000000E-03 0.  1.
        -12    1    3    3    0    0  0.18460642008E+02 -0.30710363115E+01  0.28119725566E+01  0.18924422238E+02  0.00000000000E+00 0.  1.
</event>
<event>
 7    1  0.5426550E-010  0.4778727E+02  0.7816164E-02  0.1312668E+00
        -11   -1    0    0    0    0  0.00000000000E+00  0.00000000000E+00  0.45593999997E+02  0.45594000000E+02  0.51100000000E-03 0.  1.
         11   -1    0    0    0    0 -0.00000000000E+00 -0.00000000000E+00 -0.45593999997E+02  0.45594000000E+02  0.51100000000E-03 0. -1.
    9900012    2    1    2    0    0  0.13159935756E+02  0.15820445782E+02  0.38211945432E+02  0.47787272039E+02  0.20000004537E+02 0.  0.
         12    1    1    2    0    0 -0.13159935756E+02 -0.15820445782E+02 -0.38211945432E+02  0.43400727961E+02  0.00000000000E+00 0. -1.
         11    1    3    3    0    0  0.15274406013E+01  0.10996479096E+01 -0.46846077792E+00  0.19395247039E+01  0.51100000000E-03 0. -1.
        -11    1    3    3    0    0  0.70470992255E+01 -0.19516584307E+01  0.10905559340E+02  0.13130186705E+02  0.51100000000E-03 0.  1.
        -12    1    3    3    0    0  0.45853959291E+01  0.16672456303E+02  0.27774846870E+02  0.32717560631E+02  0.00000000000E+00 0.  1.
</event>
<event>
 7    1  0.5426550E-010  0.4778727E+02  0.7816164E-02  0.1312668E+00
        -11   -1    0    0    0    0  0.00000000000E+00  0.00000000000E+00  0.45593999997E+02  0.45594000000E+02  0.51100000000E-03 0. -1.
         11   -1    0    0    0    0 -0.00000000000E+00 -0.00000000000E+00 -0.45593999997E+02  0.45594000000E+02  0.51100000000E-03 0.  1.
    9900012    2    1    2    0    0 -0.32408473171E+02  0.12299777778E+02 -0.26115693039E+02  0.47787273168E+02  0.20000009682E+02 0.  0.
         12    1    1    2    0    0  0.32408473171E+02 -0.12299777778E+02  0.26115693039E+02  0.43400726832E+02  0.00000000000E+00 0. -1.
         11    1    3    3    0    0 -0.27234930295E+02  0.39072608364E+01 -0.17336478629E+02  0.32520172308E+02  0.51100000000E-03 0.  1.
        -11    1    3    3    0    0 -0.29182949496E+01  0.26011853493E+01  0.66095572566E+00  0.39647791070E+01  0.51100000000E-03 0. -1.
         12    1    3    3    0    0 -0.22552479259E+01  0.57913315923E+01 -0.94401701360E+01  0.11302321753E+02  0.00000000000E+00 0. -1.
</event>
<event>
 7    1  0.5426550E-010  0.4778727E+02  0.7816164E-02  0.1312668E+00
        -11   -1    0    0    0    0  0.00000000000E+00  0.00000000000E+00  0.45593999997E+02  0.45594000000E+02  0.51100000000E-03 0.  1.
         11   -1    0    0    0    0 -0.00000000000E+00 -0.00000000000E+00 -0.45593999997E+02  0.45594000000E+02  0.51100000000E-03 0. -1.
    9900012    2    1    2    0    0  0.38132379318E+02  0.18305191400E+02  0.97193034486E+01  0.47787271387E+02  0.20000001562E+02 0.  0.
         12    1    1    2    0    0 -0.38132379318E+02 -0.18305191400E+02 -0.97193034486E+01  0.43400728613E+02  0.00000000000E+00 0. -1.
         11    1    3    3    0    0  0.12572177492E+02  0.53926668835E+01 -0.26275041749E+00  0.13682453765E+02  0.51100000000E-03 0. -1.
        -11    1    3    3    0    0  0.87691213007E+01  0.13061532743E+02  0.35823802594E+01  0.16134886878E+02  0.51100000000E-03 0.  1.
        -12    1    3    3    0    0  0.16791080525E+02 -0.14900822685E+00  0.63996736067E+01  0.17969930744E+02  0.00000000000E+00 0.  1.
</event>
<event>
 7    1  0.5426550E-010  0.4778727E+02  0.7816164E-02  0.1312668E+00
        -11   -1    0    0    0    0  0.00000000000E+00  0.00000000000E+00  0.45593999997E+02  0.45594000000E+02  0.51100000000E-03 0. -1.
         11   -1    0    0    0    0 -0.00000000000E+00 -0.00000000000E+00 -0.45593999997E+02  0.45594000000E+02  0.51100000000E-03 0.  1.
    9900012    2    1    2    0    0 -0.37618986855E+02  0.19773028789E+02 -0.88012609453E+01  0.47787273811E+02  0.20000012615E+02 0.  0.
         12    1    1    2    0    0  0.37618986855E+02 -0.19773028789E+02  0.88012609453E+01  0.43400726189E+02  0.00000000000E+00 0. -1.
         11    1    3    3    0    0 -0.26057400212E+02  0.15558463024E+02  0.12569720303E+01  0.30374888583E+02  0.51100000000E-03 0. -1.
        -11    1    3    3    0    0 -0.84025953513E+01  0.41802532876E+01 -0.32931358112E+01  0.99459976834E+01  0.51100000000E-03 0.  1.
         12    1    3    3    0    0 -0.31589912921E+01  0.34312477404E-01 -0.67650971644E+01  0.74663875451E+01  0.00000000000E+00 0. -1.
</event>
<event>
 7    1  0.5426550E-010  0.4778727E+02  0.7816164E-02  0.1312668E+00
        -11   -1    0    0    0    0  0.00000000000E+00  0.00000000000E+00  0.45593999997E+02  0.45594000000E+02  0.51100000000E-03 0. -1.
         11   -1    0    0    0    0 -0.00000000000E+00 -0.00000000000E+00 -0.45593999997E+02  0.45594000000E+02  0.51100000000E-03 0.  1.
    9900012    2    1    2    0    0  0.16871906472E+02  0.21983669369E+02 -0.33401802776E+02  0.47787269872E+02  0.19999994656E+02 0.  0.
         12    1    1    2    0    0 -0.16871906472E+02 -0.21983669369E+02  0.33401802776E+02  0.43400730128E+02  0.00000000000E+00 0. -1.
         11    1    3    3    0    0 -0.30657439489E+01  0.90433101831E-01 -0.63821327834E+01  0.70808603455E+01  0.51100000000E-03 0. -1.
        -11    1    3    3    0    0  0.19686685347E+02  0.18491680509E+02 -0.23444874147E+02  0.35765485486E+02  0.51100000000E-03 0.  1.
        -12    1    3    3    0    0  0.25096507370E+00  0.34015557575E+01 -0.35747958457E+01  0.49409240409E+01  0.00000000000E+00 0.  1.
</event>
<event>
 7    1  0.5426550E-010  0.4778725E+02  0.7816164E-02  0.1312668E+00
        -11   -1    0    0    0    0  0.00000000000E+00  0.00000000000E+00  0.45593999997E+02  0.45594000000E+02  0.51100000000E-03 0.  1.
         11   -1    0    0    0    0 -0.00000000000E+00 -0.00000000000E+00 -0.45593999997E+02  0.45594000000E+02  0.51100000000E-03 0. -1.
    9900012    2    1    2    0    0  0.14303310411E+02 -0.12206351435E+02  0.39115791848E+02  0.47787252587E+02  0.19999915846E+02 0.  0.
         12    1    1    2    0    0 -0.14303310411E+02  0.12206351435E+02 -0.39115791848E+02  0.43400747413E+02  0.00000000000E+00 0. -1.
         11    1    3    3    0    0  0.82273045845E+01 -0.48553705386E+01  0.76655347654E+01  0.12248411623E+02  0.51100000000E-03 0. -1.
        -11    1    3    3    0    0 -0.35617064816E+01  0.71781063507E+00  0.43660537935E+01  0.56800907702E+01  0.51100000000E-03 0.  1.
        -12    1    3    3    0    0  0.96377123081E+01 -0.80687915313E+01  0.27084203289E+02  0.29858750194E+02  0.00000000000E+00 0.  1.
</event>
<event>
 7    1  0.5426550E-010  0.4778727E+02  0.7816164E-02  0.1312668E+00
        -11   -1    0    0    0    0  0.00000000000E+00  0.00000000000E+00  0.45593999997E+02  0.45594000000E+02  0.51100000000E-03 0.  1.
         11   -1    0    0    0    0 -0.00000000000E+00 -0.00000000000E+00 -0.45593999997E+02  0.45594000000E+02  0.51100000000E-03 0. -1.
    9900012    2    1    2    0    0 -0.84679304681E+01  0.64342180041E+01  0.42077526177E+02  0.47787271701E+02  0.20000002992E+02 0.  0.
         12    1    1    2    0    0  0.84679304681E+01 -0.64342180041E+01 -0.42077526177E+02  0.43400728299E+02  0.00000000000E+00 0. -1.
         11    1    3    3    0    0 -0.10307751436E+02  0.56531920907E+01  0.33303345891E+02  0.35317434339E+02  0.51100000000E-03 0. -1.
        -11    1    3    3    0    0  0.16011107205E+01  0.42126053806E+01  0.75988553884E+01  0.88347157909E+01  0.51100000000E-03 0.  1.
         12    1    3    3    0    0  0.23871024691E+00 -0.34315794671E+01  0.11753248977E+01  0.36351215711E+01  0.00000000000E+00 0. -1.
</event>
<event>
 7    1  0.5426550E-010  0.4778727E+02  0.7816164E-02  0.1312668E+00
        -11   -1    0    0    0    0  0.00000000000E+00  0.00000000000E+00  0.45593999997E+02  0.45594000000E+02  0.51100000000E-03 0.  1.
         11   -1    0    0    0    0 -0.00000000000E+00 -0.00000000000E+00 -0.45593999997E+02  0.45594000000E+02  0.51100000000E-03 0. -1.
    9900012    2    1    2    0    0 -0.11278315699E+02 -0.26579264665E+02  0.32403176662E+02  0.47787267599E+02  0.19999984290E+02 0.  0.
         12    1    1    2    0    0  0.11278315699E+02  0.26579264665E+02 -0.32403176662E+02  0.43400732401E+02  0.00000000000E+00 0. -1.
         11    1    3    3    0    0  0.22068674290E+01  0.12502263005E+01  0.66580413599E+01  0.71248048860E+01  0.51100000000E-03 0. -1.
        -11    1    3    3    0    0 -0.61109529155E+01 -0.18371469721E+02  0.14150456633E+02  0.23981035600E+02  0.51100000000E-03 0.  1.
         12    1    3    3    0    0 -0.73742302128E+01 -0.94580212449E+01  0.11594678669E+02  0.16681427113E+02  0.00000000000E+00 0. -1.
</event>
<event>
 7    1  0.5426550E-010  0.4778727E+02  0.7816164E-02  0.1312668E+00
        -11   -1    0    0    0    0  0.00000000000E+00  0.00000000000E+00  0.45593999997E+02  0.45594000000E+02  0.51100000000E-03 0. -1.
         11   -1    0    0    0    0 -0.00000000000E+00 -0.00000000000E+00 -0.45593999997E+02  0.45594000000E+02  0.51100000000E-03 0.  1.
    9900012    2    1    2    0    0 -0.42965247791E+02  0.46087305905E+01 -0.40460225861E+01  0.47787271732E+02  0.20000003134E+02 0.  0.
         12    1    1    2    0    0  0.42965247791E+02 -0.46087305905E+01  0.40460225861E+01  0.43400728268E+02  0.00000000000E+00 0. -1.
         11    1    3    3    0    0 -0.59651144833E+01 -0.50907357440E+01  0.56891699329E+00  0.78626870738E+01  0.51100000000E-03 0. -1.
        -11    1    3    3    0    0 -0.26666711629E+02  0.11644637986E+02 -0.42157387318E+01  0.29402101222E+02  0.51100000000E-03 0.  1.
        -12    1    3    3    0    0 -0.10333421679E+02 -0.19451716519E+01 -0.39920084757E+00  0.10522483436E+02  0.00000000000E+00 0.  1.
</event>
<event>
 7    1  0.5426550E-010  0.4778728E+02  0.7816164E-02  0.1312668E+00
        -11   -1    0    0    0    0  0.00000000000E+00  0.00000000000E+00  0.45593999997E+02  0.45594000000E+02  0.51100000000E-03 0.  1.
         11   -1    0    0    0    0 -0.00000000000E+00 -0.00000000000E+00 -0.45593999997E+02  0.45594000000E+02  0.51100000000E-03 0. -1.
    9900012    2    1    2    0    0 -0.26671301029E+02 -0.13656795369E+02  0.31396759054E+02  0.47787276072E+02  0.20000022923E+02 0.  0.
         12    1    1    2    0    0  0.26671301029E+02  0.13656795369E+02 -0.31396759054E+02  0.43400723928E+02  0.00000000000E+00 0. -1.
         11    1    3    3    0    0 -0.58020738170E+01  0.30802468798E+01  0.99671223101E+01  0.11937148270E+02  0.51100000000E-03 0. -1.
        -11    1    3    3    0    0 -0.17324006718E+02 -0.98119728004E+01  0.19425609165E+02  0.27816367676E+02  0.51100000000E-03 0.  1.
         12    1    3    3    0    0 -0.35452204941E+01 -0.69250694484E+01  0.20040275788E+01  0.80337601254E+01  0.00000000000E+00 0. -1.
</event>
<event>
 7    1  0.5426550E-010  0.4778727E+02  0.7816164E-02  0.1312668E+00
        -11   -1    0    0    0    0  0.00000000000E+00  0.00000000000E+00  0.45593999997E+02  0.45594000000E+02  0.51100000000E-03 0.  1.
         11   -1    0    0    0    0 -0.00000000000E+00 -0.00000000000E+00 -0.45593999997E+02  0.45594000000E+02  0.51100000000E-03 0. -1.
    9900012    2    1    2    0    0  0.27851863330E+02  0.20779237440E+02  0.26002317059E+02  0.47787268532E+02  0.19999988543E+02 0.  0.
         12    1    1    2    0    0 -0.27851863330E+02 -0.20779237440E+02 -0.26002317059E+02  0.43400731468E+02  0.00000000000E+00 0. -1.
         11    1    3    3    0    0  0.10804149770E+02  0.68255005051E-01  0.66483608449E+01  0.12686016443E+02  0.51100000000E-03 0. -1.
        -11    1    3    3    0    0  0.10775046524E+02  0.19823394694E+02  0.17332405530E+02  0.28451377586E+02  0.51100000000E-03 0.  1.
        -12    1    3    3    0    0  0.62726670364E+01  0.88758774087E+00  0.20215506838E+01  0.66498745036E+01  0.00000000000E+00 0.  1.
</event>
<event>
 7    1  0.5426550E-010  0.4778727E+02  0.7816164E-02  0.1312668E+00
        -11   -1    0    0    0    0  0.00000000000E+00  0.00000000000E+00  0.45593999997E+02  0.45594000000E+02  0.51100000000E-03 0. -1.
         11   -1    0    0    0    0 -0.00000000000E+00 -0.00000000000E+00 -0.45593999997E+02  0.45594000000E+02  0.51100000000E-03 0.  1.
    9900012    2    1    2    0    0  0.42144510340E+02  0.10348899345E+02  0.60318612112E+00  0.47787270710E+02  0.19999998474E+02 0.  0.
         12    1    1    2    0    0 -0.42144510340E+02 -0.10348899345E+02 -0.60318612112E+00  0.43400729290E+02  0.00000000000E+00 0. -1.
         11    1    3    3    0    0 -0.80486257156E+00  0.31463374284E+01 -0.15852405550E+01  0.36138941394E+01  0.51100000000E-03 0. -1.
        -11    1    3    3    0    0  0.28121519161E+02  0.23089048100E+01 -0.10118254092E+01  0.28234281862E+02  0.51100000000E-03 0.  1.
         12    1    3    3    0    0  0.14827853750E+02  0.48936571065E+01  0.32002520853E+01  0.15939094708E+02  0.00000000000E+00 0. -1.
</event>
<event>
 7    1  0.5426550E-010  0.4778727E+02  0.7816164E-02  0.1312668E+00
        -11   -1    0    0    0    0  0.00000000000E+00  0.00000000000E+00  0.45593999997E+02  0.45594000000E+02  0.51100000000E-03 0.  1.
         11   -1    0    0    0    0 -0.00000000000E+00 -0.00000000000E+00 -0.45593999997E+02  0.45594000000E+02  0.51100000000E-03 0. -1.
    9900012    2    1    2    0    0  0.71751448976E+01  0.26173947216E+02  0.33868348176E+02  0.47787271604E+02  0.20000002550E+02 0.  0.
         12    1    1    2    0    0 -0.71751448976E+01 -0.26173947216E+02 -0.33868348176E+02  0.43400728396E+02  0.00000000000E+00 0. -1.
         11    1    3    3    0    0 -0.43478544478E+01  0.92926866107E+01  0.18734384873E+02  0.21359659163E+02  0.51100000000E-03 0. -1.
        -11    1    3    3    0    0  0.44337851842E+01  0.47889580033E+01  0.11481786364E+01  0.66265288243E+01  0.51100000000E-03 0.  1.
         12    1    3    3    0    0  0.70892141612E+01  0.12092302602E+02  0.13985784666E+02  0.19801083616E+02  0.00000000000E+00 0. -1.
</event>
<event>
 7    1  0.5426550E-010  0.4778727E+02  0.7816164E-02  0.1312668E+00
        -11   -1    0    0    0    0  0.00000000000E+00  0.00000000000E+00  0.45593999997E+02  0.45594000000E+02  0.51100000000E-03 0.  1.
         11   -1    0    0    0    0 -0.00000000000E+00 -0.00000000000E+00 -0.45593999997E+02  0.45594000000E+02  0.51100000000E-03 0. -1.
    9900012    2    1    2    0    0 -0.33964745925E+02 -0.26667851927E+02 -0.43411143657E+01  0.47787267678E+02  0.19999984651E+02 0.  0.
         12    1    1    2    0    0  0.33964745925E+02  0.26667851927E+02  0.43411143657E+01  0.43400732322E+02  0.00000000000E+00 0. -1.
         11    1    3    3    0    0 -0.34027377654E+02 -0.22366865449E+02 -0.24205198453E+01  0.40792131797E+02  0.51100000000E-03 0.  1.
        -11    1    3    3    0    0  0.11127743169E+01 -0.44959623644E+00  0.13702837574E+01  0.18215601261E+01  0.51100000000E-03 0. -1.
         12    1    3    3    0    0 -0.10501425883E+01 -0.38513902414E+01 -0.32908782778E+01  0.51735757544E+01  0.00000000000E+00 0. -1.
</event>
<event>
 7    1  0.5426550E-010  0.4778728E+02  0.7816164E-02  0.1312668E+00
        -11   -1    0    0    0    0  0.00000000000E+00  0.00000000000E+00  0.45593999997E+02  0.45594000000E+02  0.51100000000E-03 0.  1.
         11   -1    0    0    0    0 -0.00000000000E+00 -0.00000000000E+00 -0.45593999997E+02  0.45594000000E+02  0.51100000000E-03 0. -1.
    9900012    2    1    2    0    0 -0.24881530879E+02  0.33117159736E+02  0.12953210457E+02  0.47787279856E+02  0.20000040175E+02 0.  0.
         12    1    1    2    0    0  0.24881530879E+02 -0.33117159736E+02 -0.12953210457E+02  0.43400720144E+02  0.00000000000E+00 0. -1.
         11    1    3    3    0    0 -0.63222469114E+01  0.12715033429E+00  0.13787927329E+01  0.64720972550E+01  0.51100000000E-03 0. -1.
        -11    1    3    3    0    0 -0.16573003526E+02  0.33505487454E+02  0.99062684028E+01  0.38670612736E+02  0.51100000000E-03 0.  1.
        -12    1    3    3    0    0 -0.19862804416E+01 -0.51547805219E+00  0.16681493212E+01  0.26445698654E+01  0.00000000000E+00 0.  1.
</event>
<event>
 7    1  0.5426550E-010  0.4778726E+02  0.7816164E-02  0.1312668E+00
        -11   -1    0    0    0    0  0.00000000000E+00  0.00000000000E+00  0.45593999997E+02  0.45594000000E+02  0.51100000000E-03 0. -1.
         11   -1    0    0    0    0 -0.00000000000E+00 -0.00000000000E+00 -0.45593999997E+02  0.45594000000E+02  0.51100000000E-03 0.  1.
    9900012    2    1    2    0    0  0.40598033353E+02 -0.22573108390E+01  0.15176569848E+02  0.47787262257E+02  0.19999959932E+02 0.  0.
         12    1    1    2    0    0 -0.40598033353E+02  0.22573108390E+01 -0.15176569848E+02  0.43400737743E+02  0.00000000000E+00 0. -1.
         11    1    3    3    0    0  0.39937680501E+01  0.36400352406E+01  0.52060330791E+01  0.75035205385E+01  0.51100000000E-03 0. -1.
        -11    1    3    3    0    0  0.33369719673E+02 -0.68206722086E+01  0.52116644890E+01  0.34456076496E+02  0.51100000000E-03 0.  1.
        -12    1    3    3    0    0  0.32345456290E+01  0.92332612899E+00  0.47588722800E+01  0.58276652224E+01  0.00000000000E+00 0.  1.
</event>
<event>
 7    1  0.5426550E-010  0.4778723E+02  0.7816164E-02  0.1312668E+00
        -11   -1    0    0    0    0  0.00000000000E+00  0.00000000000E+00  0.45593999997E+02  0.45594000000E+02  0.51100000000E-03 0. -1.
         11   -1    0    0    0    0 -0.00000000000E+00 -0.00000000000E+00 -0.45593999997E+02  0.45594000000E+02  0.51100000000E-03 0.  1.
    9900012    2    1    2    0    0  0.41991723815E+02 -0.95943080658E+01 -0.53170435226E+01  0.47787233093E+02  0.19999826965E+02 0.  0.
         12    1    1    2    0    0 -0.41991723815E+02  0.95943080658E+01  0.53170435226E+01  0.43400766907E+02  0.00000000000E+00 0. -1.
         11    1    3    3    0    0 -0.20551657447E+01  0.39893878947E+00  0.65571539953E+00  0.21938143363E+01  0.51100000000E-03 0. -1.
        -11    1    3    3    0    0  0.19103185755E+02 -0.35573175362E+01 -0.30011305480E+01  0.19661968337E+02  0.51100000000E-03 0.  1.
         12    1    3    3    0    0  0.24943703805E+02 -0.64359293190E+01 -0.29716283741E+01  0.25931450420E+02  0.00000000000E+00 0. -1.
</event>
<event>
 7    1  0.5426550E-010  0.4778727E+02  0.7816164E-02  0.1312668E+00
        -11   -1    0    0    0    0  0.00000000000E+00  0.00000000000E+00  0.45593999997E+02  0.45594000000E+02  0.51100000000E-03 0.  1.
         11   -1    0    0    0    0 -0.00000000000E+00 -0.00000000000E+00 -0.45593999997E+02  0.45594000000E+02  0.51100000000E-03 0. -1.
    9900012    2    1    2    0    0  0.36299125257E+02 -0.74673551038E+01  0.22588388965E+02  0.47787271864E+02  0.20000003738E+02 0.  0.
         12    1    1    2    0    0 -0.36299125257E+02  0.74673551038E+01 -0.22588388965E+02  0.43400728136E+02  0.00000000000E+00 0. -1.
         11    1    3    3    0    0  0.14854156950E+02  0.50634645697E+01  0.34307460108E+01  0.16064080135E+02  0.51100000000E-03 0. -1.
        -11    1    3    3    0    0  0.12706206881E+02 -0.47212983818E+01  0.98192941675E+01  0.16737887858E+02  0.51100000000E-03 0.  1.
         12    1    3    3    0    0  0.87387614257E+01 -0.78095212917E+01  0.93383487866E+01  0.14985303872E+02  0.00000000000E+00 0. -1.
</event>
<event>
 7    1  0.5426550E-010  0.4778727E+02  0.7816164E-02  0.1312668E+00
        -11   -1    0    0    0    0  0.00000000000E+00  0.00000000000E+00  0.45593999997E+02  0.45594000000E+02  0.51100000000E-03 0.  1.
         11   -1    0    0    0    0 -0.00000000000E+00 -0.00000000000E+00 -0.45593999997E+02  0.45594000000E+02  0.51100000000E-03 0. -1.
    9900012    2    1    2    0    0 -0.80395264222E+01 -0.79024993867E+01  0.41911092043E+02  0.47787272842E+02  0.20000008194E+02 0.  0.
         12    1    1    2    0    0  0.80395264222E+01  0.79024993867E+01 -0.41911092043E+02  0.43400727158E+02  0.00000000000E+00 0. -1.
         11    1    3    3    0    0 -0.69057406838E+01  0.91858705911E+00  0.38832300162E+01  0.79757464978E+01  0.51100000000E-03 0. -1.
        -11    1    3    3    0    0 -0.25493272289E+01 -0.86492743549E+01  0.36921677516E+02  0.38006832110E+02  0.51100000000E-03 0.  1.
         12    1    3    3    0    0  0.14155414904E+01 -0.17181209090E+00  0.11061845106E+01  0.18046942337E+01  0.00000000000E+00 0. -1.
</event>
<event>
 7    1  0.5426550E-010  0.4778726E+02  0.7816164E-02  0.1312668E+00
        -11   -1    0    0    0    0  0.00000000000E+00  0.00000000000E+00  0.45593999997E+02  0.45594000000E+02  0.51100000000E-03 0.  1.
         11   -1    0    0    0    0 -0.00000000000E+00 -0.00000000000E+00 -0.45593999997E+02  0.45594000000E+02  0.51100000000E-03 0. -1.
    9900012    2    1    2    0    0 -0.36255973931E+02  0.13582933052E+02  0.19612055268E+02  0.47787257750E+02  0.19999939386E+02 0.  0.
         12    1    1    2    0    0  0.36255973931E+02 -0.13582933052E+02 -0.19612055268E+02  0.43400742250E+02  0.00000000000E+00 0. -1.
         11    1    3    3    0    0 -0.15598414514E+02  0.13840299970E+02  0.14452632318E+02  0.25372091357E+02  0.51100000000E-03 0. -1.
        -11    1    3    3    0    0 -0.19838389855E+02  0.14788589149E+01  0.46866266944E+01  0.20438033314E+02  0.51100000000E-03 0.  1.
        -12    1    3    3    0    0 -0.81916956245E+00 -0.17362258329E+01  0.47279625481E+00  0.19771330793E+01  0.00000000000E+00 0.  1.
</event>
<event>
 7    1  0.5426550E-010  0.4778727E+02  0.7816164E-02  0.1312668E+00
        -11   -1    0    0    0    0  0.00000000000E+00  0.00000000000E+00  0.45593999997E+02  0.45594000000E+02  0.51100000000E-03 0.  1.
         11   -1    0    0    0    0 -0.00000000000E+00 -0.00000000000E+00 -0.45593999997E+02  0.45594000000E+02  0.51100000000E-03 0. -1.
    9900012    2    1    2    0    0  0.42159227712E+02  0.94624561466E+01 -0.40847112126E+01  0.47787269323E+02  0.19999992154E+02 0.  0.
         12    1    1    2    0    0 -0.42159227712E+02 -0.94624561466E+01  0.40847112126E+01  0.43400730677E+02  0.00000000000E+00 0. -1.
         11    1    3    3    0    0  0.18461639738E+01  0.55404272780E+01 -0.21916664479E+01  0.62376323971E+01  0.51100000000E-03 0. -1.
        -11    1    3    3    0    0  0.32690441905E+02  0.83623554904E+00 -0.42962496610E+01  0.32982147341E+02  0.51100000000E-03 0.  1.
         12    1    3    3    0    0  0.76226218331E+01  0.30857933196E+01  0.24032048963E+01  0.85674895853E+01  0.00000000000E+00 0. -1.
</event>
<event>
 7    1  0.5426550E-010  0.4778727E+02  0.7816164E-02  0.1312668E+00
        -11   -1    0    0    0    0  0.00000000000E+00  0.00000000000E+00  0.45593999997E+02  0.45594000000E+02  0.51100000000E-03 0.  1.
         11   -1    0    0    0    0 -0.00000000000E+00 -0.00000000000E+00 -0.45593999997E+02  0.45594000000E+02  0.51100000000E-03 0. -1.
    9900012    2    1    2    0    0  0.10442733201E+02  0.28523075929E+02  0.31000105679E+02  0.47787273171E+02  0.20000009697E+02 0.  0.
         12    1    1    2    0    0 -0.10442733201E+02 -0.28523075929E+02 -0.31000105679E+02  0.43400726829E+02  0.00000000000E+00 0. -1.
         11    1    3    3    0    0  0.88308697828E+01  0.19325015200E+02  0.17688590674E+02  0.27646459338E+02  0.51100000000E-03 0. -1.
        -11    1    3    3    0    0 -0.30476816621E+01  0.53929440054E+00  0.87884606353E+01  0.93175234136E+01  0.51100000000E-03 0.  1.
         12    1    3    3    0    0  0.46595450803E+01  0.86587663283E+01  0.45230543695E+01  0.10823290420E+02  0.00000000000E+00 0. -1.
</event>
<event>
 7    1  0.5426550E-010  0.4778727E+02  0.7816164E-02  0.1312668E+00
        -11   -1    0    0    0    0  0.00000000000E+00  0.00000000000E+00  0.45593999997E+02  0.45594000000E+02  0.51100000000E-03 0. -1.
         11   -1    0    0    0    0 -0.00000000000E+00 -0.00000000000E+00 -0.45593999997E+02  0.45594000000E+02  0.51100000000E-03 0.  1.
    9900012    2    1    2    0    0  0.47112877929E+01  0.37348970000E+02 -0.21598182034E+02  0.47787271205E+02  0.20000000733E+02 0.  0.
         12    1    1    2    0    0 -0.47112877929E+01 -0.37348970000E+02  0.21598182034E+02  0.43400728795E+02  0.00000000000E+00 0. -1.
         11    1    3    3    0    0 -0.52405438685E+01  0.74581973036E+01 -0.11439913768E+01  0.91867689417E+01  0.51100000000E-03 0. -1.
        -11    1    3    3    0    0  0.46256827733E+01  0.14143240950E+02 -0.44666732225E+01  0.15536388758E+02  0.51100000000E-03 0.  1.
         12    1    3    3    0    0  0.53261488881E+01  0.15747531746E+02 -0.15987517434E+02  0.23064113506E+02  0.00000000000E+00 0. -1.
</event>
<event>
 7    1  0.5426550E-010  0.4778727E+02  0.7816164E-02  0.1312668E+00
        -11   -1    0    0    0    0  0.00000000000E+00  0.00000000000E+00  0.45593999997E+02  0.45594000000E+02  0.51100000000E-03 0.  1.
         11   -1    0    0    0    0 -0.00000000000E+00 -0.00000000000E+00 -0.45593999997E+02  0.45594000000E+02  0.51100000000E-03 0. -1.
    9900012    2    1    2    0    0  0.34336234125E+02 -0.38438955268E+01  0.26265390117E+02  0.47787271611E+02  0.20000002582E+02 0.  0.
         12    1    1    2    0    0 -0.34336234125E+02  0.38438955268E+01 -0.26265390117E+02  0.43400728389E+02  0.00000000000E+00 0. -1.
         11    1    3    3    0    0  0.23308183948E+02 -0.96588531744E+01  0.23557673065E+02  0.34518528997E+02  0.51100000000E-03 0. -1.
        -11    1    3    3    0    0  0.33686712137E+01  0.19668684725E+00  0.15017519839E+01  0.36934930275E+01  0.51100000000E-03 0.  1.
         12    1    3    3    0    0  0.76593789640E+01  0.56182708003E+01  0.12059650674E+01  0.95752495865E+01  0.00000000000E+00 0. -1.
</event>
<event>
 7    1  0.5426550E-010  0.4778727E+02  0.7816164E-02  0.1312668E+00
        -11   -1    0    0    0    0  0.00000000000E+00  0.00000000000E+00  0.45593999997E+02  0.45594000000E+02  0.51100000000E-03 0. -1.
         11   -1    0    0    0    0 -0.00000000000E+00 -0.00000000000E+00 -0.45593999997E+02  0.45594000000E+02  0.51100000000E-03 0.  1.
    9900012    2    1    2    0    0  0.25643756405E+02 -0.95110872472E+01 -0.33698075549E+02  0.47787270526E+02  0.19999997634E+02 0.  0.
         12    1    1    2    0    0 -0.25643756405E+02  0.95110872472E+01  0.33698075549E+02  0.43400729474E+02  0.00000000000E+00 0. -1.
         11    1    3    3    0    0  0.23490926395E+01 -0.21647284488E+01 -0.51515977046E+01  0.60616206296E+01  0.51100000000E-03 0. -1.
        -11    1    3    3    0    0  0.93662628016E+00 -0.77500524168E+01 -0.99150414916E+01  0.12619375155E+02  0.51100000000E-03 0.  1.
        -12    1    3    3    0    0  0.22358037485E+02  0.40369361839E+00 -0.18631436353E+02  0.29106274741E+02  0.00000000000E+00 0.  1.
</event>
<event>
 7    1  0.5426550E-010  0.4778726E+02  0.7816164E-02  0.1312668E+00
        -11   -1    0    0    0    0  0.00000000000E+00  0.00000000000E+00  0.45593999997E+02  0.45594000000E+02  0.51100000000E-03 0.  1.
         11   -1    0    0    0    0 -0.00000000000E+00 -0.00000000000E+00 -0.45593999997E+02  0.45594000000E+02  0.51100000000E-03 0. -1.
    9900012    2    1    2    0    0 -0.13999793181E+02 -0.19029941169E+02  0.36407294208E+02  0.47787263352E+02  0.19999964929E+02 0.  0.
         12    1    1    2    0    0  0.13999793181E+02  0.19029941169E+02 -0.36407294208E+02  0.43400736648E+02  0.00000000000E+00 0. -1.
         11    1    3    3    0    0  0.71335996815E+00 -0.62535363597E+01  0.12772537759E+02  0.14239147464E+02  0.51100000000E-03 0. -1.
        -11    1    3    3    0    0 -0.65928255291E+01  0.42320654782E+00  0.19374930728E+01  0.68846446464E+01  0.51100000000E-03 0.  1.
        -12    1    3    3    0    0 -0.81203276196E+01 -0.13199611357E+02  0.21697263377E+02  0.26663471242E+02  0.00000000000E+00 0.  1.
</event>
<event>
 7    1  0.5426550E-010  0.4778723E+02  0.7816164E-02  0.1312668E+00
        -11   -1    0    0    0    0  0.00000000000E+00  0.00000000000E+00  0.45593999997E+02  0.45594000000E+02  0.51100000000E-03 0. -1.
         11   -1    0    0    0    0 -0.00000000000E+00 -0.00000000000E+00 -0.45593999997E+02  0.45594000000E+02  0.51100000000E-03 0.  1.
    9900012    2    1    2    0    0  0.14056566304E+02 -0.21866494257E+02 -0.34754797685E+02  0.47787232846E+02  0.19999825839E+02 0.  0.
         12    1    1    2    0    0 -0.14056566304E+02  0.21866494257E+02  0.34754797685E+02  0.43400767154E+02  0.00000000000E+00 0. -1.
         11    1    3    3    0    0  0.15540473271E+02 -0.69941762137E+01 -0.20776822217E+02  0.26871939864E+02  0.51100000000E-03 0. -1.
        -11    1    3    3    0    0 -0.86652989142E+00 -0.13141807958E+02 -0.13789169885E+02  0.19068277238E+02  0.51100000000E-03 0.  1.
         12    1    3    3    0    0 -0.61737707488E+00 -0.17305100858E+01 -0.18880558362E+00  0.18470157439E+01  0.00000000000E+00 0. -1.
</event>
<event>
 7    1  0.5426550E-010  0.4778727E+02  0.7816164E-02  0.1312668E+00
        -11   -1    0    0    0    0  0.00000000000E+00  0.00000000000E+00  0.45593999997E+02  0.45594000000E+02  0.51100000000E-03 0.  1.
         11   -1    0    0    0    0 -0.00000000000E+00 -0.00000000000E+00 -0.45593999997E+02  0.45594000000E+02  0.51100000000E-03 0. -1.
    9900012    2    1    2    0    0 -0.16151237293E+02 -0.20085947788E+02  0.34918695262E+02  0.47787273699E+02  0.20000012104E+02 0.  0.
         12    1    1    2    0    0  0.16151237293E+02  0.20085947788E+02 -0.34918695262E+02  0.43400726301E+02  0.00000000000E+00 0. -1.
         11    1    3    3    0    0 -0.99448681445E+01 -0.94175503814E+01  0.83564852343E+01  0.16044360484E+02  0.51100000000E-03 0.  1.
        -11    1    3    3    0    0 -0.78562041134E+01 -0.49004997526E+01  0.80043677584E+01  0.12239474840E+02  0.51100000000E-03 0. -1.
         12    1    3    3    0    0  0.16498349653E+01 -0.57678976541E+01  0.18557842269E+02  0.19503438375E+02  0.00000000000E+00 0. -1.
</event>
<event>
 7    1  0.5426550E-010  0.4778729E+02  0.7816164E-02  0.1312668E+00
        -11   -1    0    0    0    0  0.00000000000E+00  0.00000000000E+00  0.45593999997E+02  0.45594000000E+02  0.51100000000E-03 0. -1.
         11   -1    0    0    0    0 -0.00000000000E+00 -0.00000000000E+00 -0.45593999997E+02  0.45594000000E+02  0.51100000000E-03 0.  1.
    9900012    2    1    2    0    0 -0.29919303357E+02  0.44675392259E+01 -0.31120705808E+02  0.47787286295E+02  0.20000069534E+02 0.  0.
         12    1    1    2    0    0  0.29919303357E+02 -0.44675392259E+01  0.31120705808E+02  0.43400713705E+02  0.00000000000E+00 0. -1.
         11    1    3    3    0    0 -0.12447265556E+02  0.11198485773E+02 -0.15570112315E+02  0.22864140071E+02  0.51100000000E-03 0. -1.
        -11    1    3    3    0    0 -0.17572053890E+02 -0.66565747310E+01 -0.15860268345E+02  0.24589330558E+02  0.51100000000E-03 0.  1.
        -12    1    3    3    0    0  0.10001608998E+00 -0.74371816065E-01  0.30967485127E+00  0.33381566589E+00  0.00000000000E+00 0.  1.
</event>
<event>
 7    1  0.5426550E-010  0.4778727E+02  0.7816164E-02  0.1312668E+00
        -11   -1    0    0    0    0  0.00000000000E+00  0.00000000000E+00  0.45593999997E+02  0.45594000000E+02  0.51100000000E-03 0.  1.
         11   -1    0    0    0    0 -0.00000000000E+00 -0.00000000000E+00 -0.45593999997E+02  0.45594000000E+02  0.51100000000E-03 0. -1.
    9900012    2    1    2    0    0 -0.14704659320E+02 -0.22250064570E+02  0.34239324321E+02  0.47787266031E+02  0.19999977142E+02 0.  0.
         12    1    1    2    0    0  0.14704659320E+02  0.22250064570E+02 -0.34239324321E+02  0.43400733969E+02  0.00000000000E+00 0. -1.
         11    1    3    3    0    0 -0.69896363810E+01 -0.26237682411E+01  0.59155491640E+01  0.95253818136E+01  0.51100000000E-03 0. -1.
        -11    1    3    3    0    0 -0.17593390526E+01 -0.16679482852E+02  0.26516682271E+02  0.31375704949E+02  0.51100000000E-03 0.  1.
        -12    1    3    3    0    0 -0.59556838861E+01 -0.29468134775E+01  0.18070928856E+01  0.68861792686E+01  0.00000000000E+00 0.  1.
</event>
<event>
 7    1  0.5426550E-010  0.4778727E+02  0.7816164E-02  0.1312668E+00
        -11   -1    0    0    0    0  0.00000000000E+00  0.00000000000E+00  0.45593999997E+02  0.45594000000E+02  0.51100000000E-03 0. -1.
         11   -1    0    0    0    0 -0.00000000000E+00 -0.00000000000E+00 -0.45593999997E+02  0.45594000000E+02  0.51100000000E-03 0.  1.
    9900012    2    1    2    0    0 -0.31650701269E+00  0.37081977796E+02 -0.22548836257E+02  0.47787271083E+02  0.20000000177E+02 0.  0.
         12    1    1    2    0    0  0.31650701269E+00 -0.37081977796E+02  0.22548836257E+02  0.43400728917E+02  0.00000000000E+00 0. -1.
         11    1    3    3    0    0  0.33169473804E+01  0.25022534733E+02 -0.82978239183E+01  0.26570345621E+02  0.51100000000E-03 0. -1.
        -11    1    3    3    0    0  0.13790882498E+01  0.86084460966E+01 -0.11764826147E+02  0.14643031214E+02  0.51100000000E-03 0.  1.
         12    1    3    3    0    0 -0.50125426429E+01  0.34509969668E+01 -0.24861861922E+01  0.65738942488E+01  0.00000000000E+00 0. -1.
</event>
<event>
 7    1  0.5426550E-010  0.4778730E+02  0.7816164E-02  0.1312668E+00
        -11   -1    0    0    0    0  0.00000000000E+00  0.00000000000E+00  0.45593999997E+02  0.45594000000E+02  0.51100000000E-03 0. -1.
         11   -1    0    0    0    0 -0.00000000000E+00 -0.00000000000E+00 -0.45593999997E+02  0.45594000000E+02  0.51100000000E-03 0.  1.
    9900012    2    1    2    0    0  0.12964631655E+02 -0.39058096339E+02 -0.13784215890E+02  0.47787295267E+02  0.20000110441E+02 0.  0.
         12    1    1    2    0    0 -0.12964631655E+02  0.39058096339E+02  0.13784215890E+02  0.43400704733E+02  0.00000000000E+00 0. -1.
         11    1    3    3    0    0  0.96111248166E+01 -0.20017334387E+02 -0.26215584513E+01  0.22359337316E+02  0.51100000000E-03 0. -1.
        -11    1    3    3    0    0 -0.40831688214E+01 -0.33148026108E+01 -0.12484818893E+01  0.54054501442E+01  0.51100000000E-03 0.  1.
        -12    1    3    3    0    0  0.74366756600E+01 -0.15725959341E+02 -0.99141755493E+01  0.20022507807E+02  0.00000000000E+00 0.  1.
</event>
<event>
 7    1  0.5426550E-010  0.4778727E+02  0.7816164E-02  0.1312668E+00
        -11   -1    0    0    0    0  0.00000000000E+00  0.00000000000E+00  0.45593999997E+02  0.45594000000E+02  0.51100000000E-03 0.  1.
         11   -1    0    0    0    0 -0.00000000000E+00 -0.00000000000E+00 -0.45593999997E+02  0.45594000000E+02  0.51100000000E-03 0. -1.
    9900012    2    1    2    0    0 -0.38209899982E+02 -0.20197567302E+02 -0.39604391153E+01  0.47787271210E+02  0.20000000755E+02 0.  0.
         12    1    1    2    0    0  0.38209899982E+02  0.20197567302E+02  0.39604391153E+01  0.43400728790E+02  0.00000000000E+00 0. -1.
         11    1    3    3    0    0 -0.86087302874E+01 -0.11610320880E+02  0.47573718292E+01  0.15216516522E+02  0.51100000000E-03 0. -1.
        -11    1    3    3    0    0 -0.28945984398E+02 -0.75025147222E+01 -0.75348684127E+01  0.30837185056E+02  0.51100000000E-03 0.  1.
         12    1    3    3    0    0 -0.65518529582E+00 -0.10847316999E+01 -0.11829425318E+01  0.17335696312E+01  0.00000000000E+00 0. -1.
</event>
<event>
 7    1  0.5426550E-010  0.4778727E+02  0.7816164E-02  0.1312668E+00
        -11   -1    0    0    0    0  0.00000000000E+00  0.00000000000E+00  0.45593999997E+02  0.45594000000E+02  0.51100000000E-03 0.  1.
         11   -1    0    0    0    0 -0.00000000000E+00 -0.00000000000E+00 -0.45593999997E+02  0.45594000000E+02  0.51100000000E-03 0. -1.
    9900012    2    1    2    0    0  0.34495572879E+02  0.13870200076E+02  0.22389644332E+02  0.47787272221E+02  0.20000005364E+02 0.  0.
         12    1    1    2    0    0 -0.34495572879E+02 -0.13870200076E+02 -0.22389644332E+02  0.43400727779E+02  0.00000000000E+00 0. -1.
         11    1    3    3    0    0  0.38461532049E+01 -0.17384896578E+01  0.61317776525E+01  0.74440538826E+01  0.51100000000E-03 0. -1.
        -11    1    3    3    0    0  0.26811935324E+02  0.96249126053E+01  0.82977752185E+01  0.29671061530E+02  0.51100000000E-03 0.  1.
        -12    1    3    3    0    0  0.38374843504E+01  0.59837771287E+01  0.79600914616E+01  0.10672156808E+02  0.00000000000E+00 0.  1.
</event>
<event>
 7    1  0.5426550E-010  0.4778725E+02  0.7816164E-02  0.1312668E+00
        -11   -1    0    0    0    0  0.00000000000E+00  0.00000000000E+00  0.45593999997E+02  0.45594000000E+02  0.51100000000E-03 0.  1.
         11   -1    0    0    0    0 -0.00000000000E+00 -0.00000000000E+00 -0.45593999997E+02  0.45594000000E+02  0.51100000000E-03 0. -1.
    9900012    2    1    2    0    0 -0.34834577565E+01 -0.14813141277E+02  0.40645558776E+02  0.47787250230E+02  0.19999905097E+02 0.  0.
         12    1    1    2    0    0  0.34834577565E+01  0.14813141277E+02 -0.40645558776E+02  0.43400749770E+02  0.00000000000E+00 0. -1.
         11    1    3    3    0    0  0.14090039821E+01 -0.54636857951E+01  0.19556871029E+01  0.59717557715E+01  0.51100000000E-03 0. -1.
        -11    1    3    3    0    0  0.10936322876E+01 -0.64741449442E+01  0.30850324990E+02  0.31541292563E+02  0.51100000000E-03 0.  1.
         12    1    3    3    0    0 -0.59860940262E+01 -0.28753105382E+01  0.78395466831E+01  0.10274201895E+02  0.00000000000E+00 0. -1.
</event>
<event>
 7    1  0.5426550E-010  0.4778728E+02  0.7816164E-02  0.1312668E+00
        -11   -1    0    0    0    0  0.00000000000E+00  0.00000000000E+00  0.45593999997E+02  0.45594000000E+02  0.51100000000E-03 0.  1.
         11   -1    0    0    0    0 -0.00000000000E+00 -0.00000000000E+00 -0.45593999997E+02  0.45594000000E+02  0.51100000000E-03 0. -1.
    9900012    2    1    2    0    0  0.82212270570E+01  0.20550303236E+02  0.37332546731E+02  0.47787279006E+02  0.20000036300E+02 0.  0.
         12    1    1    2    0    0 -0.82212270570E+01 -0.20550303236E+02 -0.37332546731E+02  0.43400720994E+02  0.00000000000E+00 0. -1.
         11    1    3    3    0    0 -0.15310062142E+01  0.28874753177E+01 -0.94654596657E+00  0.34025642193E+01  0.51100000000E-03 0. -1.
        -11    1    3    3    0    0  0.10818465425E+02  0.10430551797E+02  0.23459089369E+02  0.27859728628E+02  0.51100000000E-03 0.  1.
         12    1    3    3    0    0 -0.10662321539E+01  0.72322761211E+01  0.14820003328E+02  0.16524986159E+02  0.00000000000E+00 0. -1.
</event>
<event>
 7    1  0.5426550E-010  0.4778726E+02  0.7816164E-02  0.1312668E+00
        -11   -1    0    0    0    0  0.00000000000E+00  0.00000000000E+00  0.45593999997E+02  0.45594000000E+02  0.51100000000E-03 0.  1.
         11   -1    0    0    0    0 -0.00000000000E+00 -0.00000000000E+00 -0.45593999997E+02  0.45594000000E+02  0.51100000000E-03 0. -1.
    9900012    2    1    2    0    0 -0.23539696620E+02 -0.27154702738E+02  0.24333697949E+02  0.47787262062E+02  0.19999959044E+02 0.  0.
         12    1    1    2    0    0  0.23539696620E+02  0.27154702738E+02 -0.24333697949E+02  0.43400737938E+02  0.00000000000E+00 0. -1.
         11    1    3    3    0    0  0.30225279094E+00 -0.39967424605E+01 -0.34686487352E+00  0.40231359095E+01  0.51100000000E-03 0. -1.
        -11    1    3    3    0    0 -0.21739039595E+02 -0.16407448051E+02  0.24588404152E+02  0.36693048566E+02  0.51100000000E-03 0.  1.
        -12    1    3    3    0    0 -0.21029098160E+01 -0.67505122264E+01  0.92158670561E-01  0.70710775864E+01  0.00000000000E+00 0.  1.
</event>
<event>
 7    1  0.5426550E-010  0.4778726E+02  0.7816164E-02  0.1312668E+00
        -11   -1    0    0    0    0  0.00000000000E+00  0.00000000000E+00  0.45593999997E+02  0.45594000000E+02  0.51100000000E-03 0. -1.
         11   -1    0    0    0    0 -0.00000000000E+00 -0.00000000000E+00 -0.45593999997E+02  0.45594000000E+02  0.51100000000E-03 0.  1.
    9900012    2    1    2    0    0 -0.30475736046E+01 -0.21882957267E+02 -0.37356027154E+02  0.47787259357E+02  0.19999946711E+02 0.  0.
         12    1    1    2    0    0  0.30475736046E+01  0.21882957267E+02  0.37356027154E+02  0.43400740643E+02  0.00000000000E+00 0. -1.
         11    1    3    3    0    0 -0.91819086363E+01 -0.46759877396E+01 -0.20267433904E+02  0.22736340621E+02  0.51100000000E-03 0. -1.
        -11    1    3    3    0    0  0.38848109557E+01 -0.10589000018E+02 -0.96544871118E+01  0.14846811078E+02  0.51100000000E-03 0.  1.
         12    1    3    3    0    0  0.22495240760E+01 -0.66179695100E+01 -0.74341061388E+01  0.10204107658E+02  0.00000000000E+00 0. -1.
</event>
<event>
 7    1  0.5426550E-010  0.4778727E+02  0.7816164E-02  0.1312668E+00
        -11   -1    0    0    0    0  0.00000000000E+00  0.00000000000E+00  0.45593999997E+02  0.45594000000E+02  0.51100000000E-03 0.  1.
         11   -1    0    0    0    0 -0.00000000000E+00 -0.00000000000E+00 -0.45593999997E+02  0.45594000000E+02  0.51100000000E-03 0. -1.
    9900012    2    1    2    0    0 -0.11576511803E+02 -0.37259351237E+02  0.19009170868E+02  0.47787268933E+02  0.19999990371E+02 0.  0.
         12    1    1    2    0    0  0.11576511803E+02  0.37259351237E+02 -0.19009170868E+02  0.43400731067E+02  0.00000000000E+00 0. -1.
         11    1    3    3    0    0  0.24008394823E+01  0.79895734749E+00  0.15655987444E+01  0.29754768950E+01  0.51100000000E-03 0. -1.
        -11    1    3    3    0    0 -0.97455204874E+01 -0.33707118917E+02  0.16049364315E+02  0.38584026882E+02  0.51100000000E-03 0.  1.
        -12    1    3    3    0    0 -0.42318307978E+01 -0.43511896668E+01  0.13942078088E+01  0.62277651555E+01  0.00000000000E+00 0.  1.
</event>
<event>
 7    1  0.5426550E-010  0.4778727E+02  0.7816164E-02  0.1312668E+00
        -11   -1    0    0    0    0  0.00000000000E+00  0.00000000000E+00  0.45593999997E+02  0.45594000000E+02  0.51100000000E-03 0.  1.
         11   -1    0    0    0    0 -0.00000000000E+00 -0.00000000000E+00 -0.45593999997E+02  0.45594000000E+02  0.51100000000E-03 0. -1.
    9900012    2    1    2    0    0 -0.25270181243E+02 -0.29443878642E+02  0.19444784007E+02  0.47787266427E+02  0.19999978948E+02 0.  0.
         12    1    1    2    0    0  0.25270181243E+02  0.29443878642E+02 -0.19444784007E+02  0.43400733573E+02  0.00000000000E+00 0. -1.
         11    1    3    3    0    0 -0.36542894048E+01 -0.43607039126E+01 -0.30774881262E+01  0.64684235402E+01  0.51100000000E-03 0. -1.
        -11    1    3    3    0    0 -0.15117527057E+02 -0.13741643447E+02  0.18710777675E+02  0.27703169320E+02  0.51100000000E-03 0.  1.
        -12    1    3    3    0    0 -0.64983647816E+01 -0.11341531283E+02  0.38114944590E+01  0.13615673567E+02  0.00000000000E+00 0.  1.
</event>
<event>
 7    1  0.5426550E-010  0.4778727E+02  0.7816164E-02  0.1312668E+00
        -11   -1    0    0    0    0  0.00000000000E+00  0.00000000000E+00  0.45593999997E+02  0.45594000000E+02  0.51100000000E-03 0.  1.
         11   -1    0    0    0    0 -0.00000000000E+00 -0.00000000000E+00 -0.45593999997E+02  0.45594000000E+02  0.51100000000E-03 0. -1.
    9900012    2    1    2    0    0  0.21686088042E+02 -0.23778978243E+02  0.29118673314E+02  0.47787270094E+02  0.19999995664E+02 0.  0.
         12    1    1    2    0    0 -0.21686088042E+02  0.23778978243E+02 -0.29118673314E+02  0.43400729906E+02  0.00000000000E+00 0. -1.
         11    1    3    3    0    0  0.14418296350E+01  0.19230737468E+01 -0.18527896305E+00  0.24106874304E+01  0.51100000000E-03 0. -1.
        -11    1    3    3    0    0 -0.38938215361E+00 -0.60427998194E+01  0.39364342425E+01  0.72223654661E+01  0.51100000000E-03 0.  1.
         12    1    3    3    0    0  0.20633640560E+02 -0.19659252170E+02  0.25367518035E+02  0.38154217197E+02  0.00000000000E+00 0. -1.
</event>
<event>
 7    1  0.5426550E-010  0.4778726E+02  0.7816164E-02  0.1312668E+00
        -11   -1    0    0    0    0  0.00000000000E+00  0.00000000000E+00  0.45593999997E+02  0.45594000000E+02  0.51100000000E-03 0. -1.
         11   -1    0    0    0    0 -0.00000000000E+00 -0.00000000000E+00 -0.45593999997E+02  0.45594000000E+02  0.51100000000E-03 0.  1.
    9900012    2    1    2    0    0 -0.73498356284E+01 -0.26111616223E+02 -0.33879014055E+02  0.47787260618E+02  0.19999952464E+02 0.  0.
         12    1    1    2    0    0  0.73498356284E+01  0.26111616223E+02  0.33879014055E+02  0.43400739382E+02  0.00000000000E+00 0. -1.
         11    1    3    3    0    0 -0.25083782556E+01  0.21772745564E+01 -0.12742783217E+01  0.35575653852E+01  0.51100000000E-03 0. -1.
        -11    1    3    3    0    0 -0.33787822739E+01 -0.13278549605E+02 -0.21524516125E+02  0.25515502032E+02  0.51100000000E-03 0.  1.
         12    1    3    3    0    0 -0.14626750989E+01 -0.15010341174E+02 -0.11080219608E+02  0.18714193201E+02  0.00000000000E+00 0. -1.
</event>
<event>
 7    1  0.5426550E-010  0.4778727E+02  0.7816164E-02  0.1312668E+00
        -11   -1    0    0    0    0  0.00000000000E+00  0.00000000000E+00  0.45593999997E+02  0.45594000000E+02  0.51100000000E-03 0.  1.
         11   -1    0    0    0    0 -0.00000000000E+00 -0.00000000000E+00 -0.45593999997E+02  0.45594000000E+02  0.51100000000E-03 0. -1.
    9900012    2    1    2    0    0  0.19605838404E+02 -0.36825445536E+02  0.11963329314E+02  0.47787267440E+02  0.19999983565E+02 0.  0.
         12    1    1    2    0    0 -0.19605838404E+02  0.36825445536E+02 -0.11963329314E+02  0.43400732560E+02  0.00000000000E+00 0. -1.
         11    1    3    3    0    0  0.14937811984E+02 -0.21313589870E+02  0.12638995016E+02  0.28933571078E+02  0.51100000000E-03 0. -1.
        -11    1    3    3    0    0  0.56734159568E+01 -0.14741408028E+02 -0.31200096139E+01  0.16100658977E+02  0.51100000000E-03 0.  1.
        -12    1    3    3    0    0 -0.10053895364E+01 -0.77044763836E+00  0.24443439117E+01  0.27530373848E+01  0.00000000000E+00 0.  1.
</event>
<event>
 7    1  0.5426550E-010  0.4778727E+02  0.7816164E-02  0.1312668E+00
        -11   -1    0    0    0    0  0.00000000000E+00  0.00000000000E+00  0.45593999997E+02  0.45594000000E+02  0.51100000000E-03 0.  1.
         11   -1    0    0    0    0 -0.00000000000E+00 -0.00000000000E+00 -0.45593999997E+02  0.45594000000E+02  0.51100000000E-03 0. -1.
    9900012    2    1    2    0    0  0.48647450476E+01 -0.31207719792E+02  0.29766353503E+02  0.47787270514E+02  0.19999997583E+02 0.  0.
         12    1    1    2    0    0 -0.48647450476E+01  0.31207719792E+02 -0.29766353503E+02  0.43400729486E+02  0.00000000000E+00 0. -1.
         11    1    3    3    0    0  0.29543885286E+01  0.22689480192E+00 -0.36045513371E+00  0.29849323265E+01  0.51100000000E-03 0. -1.
        -11    1    3    3    0    0  0.61705952640E+01 -0.19906216138E+02  0.19857208806E+02  0.28786149945E+02  0.51100000000E-03 0.  1.
         12    1    3    3    0    0 -0.42602387450E+01 -0.11528398456E+02  0.10269599831E+02  0.16016188242E+02  0.00000000000E+00 0. -1.
</event>
<event>
 7    1  0.5426550E-010  0.4778727E+02  0.7816164E-02  0.1312668E+00
        -11   -1    0    0    0    0  0.00000000000E+00  0.00000000000E+00  0.45593999997E+02  0.45594000000E+02  0.51100000000E-03 0.  1.
         11   -1    0    0    0    0 -0.00000000000E+00 -0.00000000000E+00 -0.45593999997E+02  0.45594000000E+02  0.51100000000E-03 0. -1.
    9900012    2    1    2    0    0 -0.35078441788E+02  0.23383671456E+02 -0.10311651199E+02  0.47787270519E+02  0.19999997603E+02 0.  0.
         12    1    1    2    0    0  0.35078441788E+02 -0.23383671456E+02  0.10311651199E+02  0.43400729481E+02  0.00000000000E+00 0. -1.
         11    1    3    3    0    0 -0.23433604900E+01  0.53432702219E+01  0.10331178234E+01  0.59253023340E+01  0.51100000000E-03 0. -1.
        -11    1    3    3    0    0 -0.81190827765E+01  0.10102786981E+02 -0.92298745625E+01  0.15911517671E+02  0.51100000000E-03 0.  1.
        -12    1    3    3    0    0 -0.24615998522E+02  0.79376142532E+01 -0.21148944599E+01  0.25950450513E+02  0.00000000000E+00 0.  1.
</event>
<event>
 7    1  0.5426550E-010  0.4778727E+02  0.7816164E-02  0.1312668E+00
        -11   -1    0    0    0    0  0.00000000000E+00  0.00000000000E+00  0.45593999997E+02  0.45594000000E+02  0.51100000000E-03 0.  1.
         11   -1    0    0    0    0 -0.00000000000E+00 -0.00000000000E+00 -0.45593999997E+02  0.45594000000E+02  0.51100000000E-03 0. -1.
    9900012    2    1    2    0    0  0.10183556187E+02  0.42153984634E+02 -0.17205245451E+01  0.47787269110E+02  0.19999991178E+02 0.  0.
         12    1    1    2    0    0 -0.10183556187E+02 -0.42153984634E+02  0.17205245451E+01  0.43400730890E+02  0.00000000000E+00 0. -1.
         11    1    3    3    0    0 -0.44942221542E+01  0.28357783411E+01 -0.86138067915E-01  0.53147993000E+01  0.51100000000E-03 0. -1.
        -11    1    3    3    0    0  0.11505902167E+02  0.33675645202E+02  0.69315232187E+00  0.35593754014E+02  0.51100000000E-03 0.  1.
        -12    1    3    3    0    0  0.31718761747E+01  0.56425610911E+01 -0.23275387990E+01  0.68787157955E+01  0.00000000000E+00 0.  1.
</event>
<event>
 7    1  0.5426550E-010  0.4778727E+02  0.7816164E-02  0.1312668E+00
        -11   -1    0    0    0    0  0.00000000000E+00  0.00000000000E+00  0.45593999997E+02  0.45594000000E+02  0.51100000000E-03 0. -1.
         11   -1    0    0    0    0 -0.00000000000E+00 -0.00000000000E+00 -0.45593999997E+02  0.45594000000E+02  0.51100000000E-03 0.  1.
    9900012    2    1    2    0    0  0.31097025506E+02  0.30195120154E+02  0.22030659130E+01  0.47787265262E+02  0.19999973635E+02 0.  0.
         12    1    1    2    0    0 -0.31097025506E+02 -0.30195120154E+02 -0.22030659130E+01  0.43400734738E+02  0.00000000000E+00 0. -1.
         11    1    3    3    0    0  0.85012365272E+01  0.10295981851E+02  0.69027298939E+01  0.15030833144E+02  0.51100000000E-03 0.  1.
        -11    1    3    3    0    0  0.23513570484E+02  0.20517365412E+02 -0.50122805301E+01  0.31606537880E+02  0.51100000000E-03 0. -1.
         12    1    3    3    0    0 -0.91778150612E+00 -0.61822710893E+00  0.31261654922E+00  0.11498942378E+01  0.00000000000E+00 0. -1.
</event>
<event>
 7    1  0.5426550E-010  0.4778727E+02  0.7816164E-02  0.1312668E+00
        -11   -1    0    0    0    0  0.00000000000E+00  0.00000000000E+00  0.45593999997E+02  0.45594000000E+02  0.51100000000E-03 0. -1.
         11   -1    0    0    0    0 -0.00000000000E+00 -0.00000000000E+00 -0.45593999997E+02  0.45594000000E+02  0.51100000000E-03 0.  1.
    9900012    2    1    2    0    0  0.17059451577E+02 -0.19309929035E+02 -0.34924558162E+02  0.47787274081E+02  0.20000013844E+02 0.  0.
         12    1    1    2    0    0 -0.17059451577E+02  0.19309929035E+02  0.34924558162E+02  0.43400725919E+02  0.00000000000E+00 0. -1.
         11    1    3    3    0    0  0.49390883936E+01  0.35652616378E+01 -0.69506454156E+01  0.92421402641E+01  0.51100000000E-03 0. -1.
        -11    1    3    3    0    0  0.78947736404E+01 -0.19507649790E+02 -0.23343348027E+02  0.31429090800E+02  0.51100000000E-03 0.  1.
        -12    1    3    3    0    0  0.42255895435E+01 -0.33675408828E+01 -0.46305647201E+01  0.71160430166E+01  0.00000000000E+00 0.  1.
</event>
<event>
 7    1  0.5426550E-010  0.4778727E+02  0.7816164E-02  0.1312668E+00
        -11   -1    0    0    0    0  0.00000000000E+00  0.00000000000E+00  0.45593999997E+02  0.45594000000E+02  0.51100000000E-03 0.  1.
         11   -1    0    0    0    0 -0.00000000000E+00 -0.00000000000E+00 -0.45593999997E+02  0.45594000000E+02  0.51100000000E-03 0. -1.
    9900012    2    1    2    0    0 -0.59521680119E+01 -0.42397862474E+02  0.71144889177E+01  0.47787274212E+02  0.20000014442E+02 0.  0.
         12    1    1    2    0    0  0.59521680119E+01  0.42397862474E+02 -0.71144889177E+01  0.43400725788E+02  0.00000000000E+00 0. -1.
         11    1    3    3    0    0  0.74875684193E+00 -0.53428523932E+01 -0.69874479720E+00  0.54401243604E+01  0.51100000000E-03 0. -1.
        -11    1    3    3    0    0 -0.76141215570E+01 -0.33103975375E+02  0.12458406088E+02  0.36180933034E+02  0.51100000000E-03 0.  1.
        -12    1    3    3    0    0  0.91319670323E+00 -0.39510347052E+01 -0.46451723730E+01  0.61662168171E+01  0.00000000000E+00 0.  1.
</event>
<event>
 7    1  0.5426550E-010  0.4778727E+02  0.7816164E-02  0.1312668E+00
        -11   -1    0    0    0    0  0.00000000000E+00  0.00000000000E+00  0.45593999997E+02  0.45594000000E+02  0.51100000000E-03 0.  1.
         11   -1    0    0    0    0 -0.00000000000E+00 -0.00000000000E+00 -0.45593999997E+02  0.45594000000E+02  0.51100000000E-03 0. -1.
    9900012    2    1    2    0    0 -0.34117900252E+02  0.24154586630E+02  0.11668242909E+02  0.47787273446E+02  0.20000010948E+02 0.  0.
         12    1    1    2    0    0  0.34117900252E+02 -0.24154586630E+02 -0.11668242909E+02  0.43400726554E+02  0.00000000000E+00 0. -1.
         11    1    3    3    0    0 -0.66764168752E+01  0.89147224678E+01 -0.36936341401E+00  0.11143753791E+02  0.51100000000E-03 0. -1.
        -11    1    3    3    0    0 -0.21416100169E+02  0.99210880265E+01  0.15126054437E+02  0.28033459601E+02  0.51100000000E-03 0.  1.
        -12    1    3    3    0    0 -0.60253832073E+01  0.53187761356E+01 -0.30884481137E+01  0.86100600536E+01  0.00000000000E+00 0.  1.
</event>
<event>
 7    1  0.5426550E-010  0.4778727E+02  0.7816164E-02  0.1312668E+00
        -11   -1    0    0    0    0  0.00000000000E+00  0.00000000000E+00  0.45593999997E+02  0.45594000000E+02  0.51100000000E-03 0.  1.
         11   -1    0    0    0    0 -0.00000000000E+00 -0.00000000000E+00 -0.45593999997E+02  0.45594000000E+02  0.51100000000E-03 0. -1.
    9900012    2    1    2    0    0  0.22494201244E+02 -0.71848973274E+01  0.36414439129E+02  0.47787271708E+02  0.20000003026E+02 0.  0.
         12    1    1    2    0    0 -0.22494201244E+02  0.71848973274E+01 -0.36414439129E+02  0.43400728292E+02  0.00000000000E+00 0. -1.
         11    1    3    3    0    0  0.19975979669E+02  0.17145348205E+00  0.20824260627E+02  0.28856870776E+02  0.51100000000E-03 0. -1.
        -11    1    3    3    0    0  0.44401987380E+01 -0.75504938762E+01  0.12046736232E+02  0.14894602268E+02  0.51100000000E-03 0.  1.
         12    1    3    3    0    0 -0.19219771628E+01  0.19414306673E+00  0.35434422692E+01  0.40357986645E+01  0.00000000000E+00 0. -1.
</event>
<event>
 7    1  0.5426550E-010  0.4778726E+02  0.7816164E-02  0.1312668E+00
        -11   -1    0    0    0    0  0.00000000000E+00  0.00000000000E+00  0.45593999997E+02  0.45594000000E+02  0.51100000000E-03 0. -1.
         11   -1    0    0    0    0 -0.00000000000E+00 -0.00000000000E+00 -0.45593999997E+02  0.45594000000E+02  0.51100000000E-03 0.  1.
    9900012    2    1    2    0    0 -0.18838529491E+02 -0.29622788052E+02 -0.25519096432E+02  0.47787262126E+02  0.19999959335E+02 0.  0.
         12    1    1    2    0    0  0.18838529491E+02  0.29622788052E+02  0.25519096432E+02  0.43400737874E+02  0.00000000000E+00 0. -1.
         11    1    3    3    0    0 -0.23713260295E+00  0.14046252628E+01 -0.49113766731E+01  0.51137877436E+01  0.51100000000E-03 0. -1.
        -11    1    3    3    0    0 -0.14625880649E+02 -0.16845383059E+02 -0.96041170758E+01  0.24288317773E+02  0.51100000000E-03 0.  1.
        -12    1    3    3    0    0 -0.39755162391E+01 -0.14182030255E+02 -0.11003602683E+02  0.18385156609E+02  0.00000000000E+00 0.  1.
</event>
<event>
 7    1  0.5426550E-010  0.4778727E+02  0.7816164E-02  0.1312668E+00
        -11   -1    0    0    0    0  0.00000000000E+00  0.00000000000E+00  0.45593999997E+02  0.45594000000E+02  0.51100000000E-03 0. -1.
         11   -1    0    0    0    0 -0.00000000000E+00 -0.00000000000E+00 -0.45593999997E+02  0.45594000000E+02  0.51100000000E-03 0.  1.
    9900012    2    1    2    0    0 -0.33903542925E+02  0.26211417093E+02 -0.68654860965E+01  0.47787268345E+02  0.19999987691E+02 0.  0.
         12    1    1    2    0    0  0.33903542925E+02 -0.26211417093E+02  0.68654860965E+01  0.43400731655E+02  0.00000000000E+00 0. -1.
         11    1    3    3    0    0 -0.18469860116E+02  0.52318636461E+01 -0.49361791585E+01  0.19821049288E+02  0.51100000000E-03 0. -1.
        -11    1    3    3    0    0 -0.15602214370E+02  0.16491675913E+02  0.78965006725E+00  0.22716250024E+02  0.51100000000E-03 0.  1.
         12    1    3    3    0    0  0.16853156180E+00  0.44878775341E+01 -0.27189570053E+01  0.52499690328E+01  0.00000000000E+00 0. -1.
</event>
<event>
 7    1  0.5426550E-010  0.4778727E+02  0.7816164E-02  0.1312668E+00
        -11   -1    0    0    0    0  0.00000000000E+00  0.00000000000E+00  0.45593999997E+02  0.45594000000E+02  0.51100000000E-03 0.  1.
         11   -1    0    0    0    0 -0.00000000000E+00 -0.00000000000E+00 -0.45593999997E+02  0.45594000000E+02  0.51100000000E-03 0. -1.
    9900012    2    1    2    0    0  0.43311171145E+02 -0.25504208742E+01  0.11229988431E+01  0.47787270525E+02  0.19999997630E+02 0.  0.
         12    1    1    2    0    0 -0.43311171145E+02  0.25504208742E+01 -0.11229988431E+01  0.43400729475E+02  0.00000000000E+00 0. -1.
         11    1    3    3    0    0  0.23651392431E+02  0.45690939480E+01 -0.47441431498E+01  0.24551412952E+02  0.51100000000E-03 0. -1.
        -11    1    3    3    0    0  0.71976159211E+01 -0.90324595638E+00  0.58345380253E+01  0.93093158951E+01  0.51100000000E-03 0.  1.
        -12    1    3    3    0    0  0.12462162793E+02 -0.62162688658E+01  0.32603967547E-01  0.13926541678E+02  0.00000000000E+00 0.  1.
</event>
<event>
 7    1  0.5426550E-010  0.4778727E+02  0.7816164E-02  0.1312668E+00
        -11   -1    0    0    0    0  0.00000000000E+00  0.00000000000E+00  0.45593999997E+02  0.45594000000E+02  0.51100000000E-03 0.  1.
         11   -1    0    0    0    0 -0.00000000000E+00 -0.00000000000E+00 -0.45593999997E+02  0.45594000000E+02  0.51100000000E-03 0. -1.
    9900012    2    1    2    0    0  0.38403043104E+02  0.20213422373E+02  0.49706402710E+00  0.47787271477E+02  0.20000001973E+02 0.  0.
         12    1    1    2    0    0 -0.38403043104E+02 -0.20213422373E+02 -0.49706402710E+00  0.43400728523E+02  0.00000000000E+00 0. -1.
         11    1    3    3    0    0  0.16323926381E+02  0.11902871931E+02  0.24952737512E+01  0.20356210945E+02  0.51100000000E-03 0.  1.
        -11    1    3    3    0    0  0.35651769613E+01 -0.17781971107E+01  0.38607918866E+01  0.55478091156E+01  0.51100000000E-03 0. -1.
        -12    1    3    3    0    0  0.18513939762E+02  0.10088747552E+02 -0.58590016107E+01  0.21883251416E+02  0.00000000000E+00 0.  1.
</event>
<event>
 7    1  0.5426550E-010  0.4778727E+02  0.7816164E-02  0.1312668E+00
        -11   -1    0    0    0    0  0.00000000000E+00  0.00000000000E+00  0.45593999997E+02  0.45594000000E+02  0.51100000000E-03 0.  1.
         11   -1    0    0    0    0 -0.00000000000E+00 -0.00000000000E+00 -0.45593999997E+02  0.45594000000E+02  0.51100000000E-03 0. -1.
    9900012    2    1    2    0    0  0.70657025597E+01  0.42492850446E+02  0.52968550746E+01  0.47787272295E+02  0.20000005701E+02 0.  0.
         12    1    1    2    0    0 -0.70657025597E+01 -0.42492850446E+02 -0.52968550746E+01  0.43400727705E+02  0.00000000000E+00 0. -1.
         11    1    3    3    0    0 -0.10280896820E+01 -0.14881714056E+01 -0.57505686592E+00  0.18979760764E+01  0.51100000000E-03 0. -1.
        -11    1    3    3    0    0  0.58092746618E+01  0.25852144733E+02 -0.60319569472E+00  0.26503677192E+02  0.51100000000E-03 0.  1.
         12    1    3    3    0    0  0.22845175799E+01  0.18128877119E+02  0.64751076352E+01  0.19385619027E+02  0.00000000000E+00 0. -1.
</event>
<event>
 7    1  0.5426550E-010  0.4778728E+02  0.7816164E-02  0.1312668E+00
        -11   -1    0    0    0    0  0.00000000000E+00  0.00000000000E+00  0.45593999997E+02  0.45594000000E+02  0.51100000000E-03 0.  1.
         11   -1    0    0    0    0 -0.00000000000E+00 -0.00000000000E+00 -0.45593999997E+02  0.45594000000E+02  0.51100000000E-03 0. -1.
    9900012    2    1    2    0    0 -0.18199990524E+02  0.26398948199E+02  0.29248554792E+02  0.47787284815E+02  0.20000062785E+02 0.  0.
         12    1    1    2    0    0  0.18199990524E+02 -0.26398948199E+02 -0.29248554792E+02  0.43400715185E+02  0.00000000000E+00 0. -1.
         11    1    3    3    0    0  0.37200336251E+01  0.41443603701E+01  0.32606394272E+01  0.64533822748E+01  0.51100000000E-03 0. -1.
        -11    1    3    3    0    0 -0.22285466465E+02  0.20802355235E+02  0.23768161797E+02  0.38656248063E+02  0.51100000000E-03 0.  1.
        -12    1    3    3    0    0  0.36544231510E+00  0.14522325946E+01  0.22197535683E+01  0.26776544771E+01  0.00000000000E+00 0.  1.
</event>
<event>
 7    1  0.5426550E-010  0.4778728E+02  0.7816164E-02  0.1312668E+00
        -11   -1    0    0    0    0  0.00000000000E+00  0.00000000000E+00  0.45593999997E+02  0.45594000000E+02  0.51100000000E-03 0.  1.
         11   -1    0    0    0    0 -0.00000000000E+00 -0.00000000000E+00 -0.45593999997E+02  0.45594000000E+02  0.51100000000E-03 0. -1.
    9900012    2    1    2    0    0 -0.31780388493E+02 -0.24799278160E+02  0.16081824869E+02  0.47787281330E+02  0.20000046895E+02 0.  0.
         12    1    1    2    0    0  0.31780388493E+02  0.24799278160E+02 -0.16081824869E+02  0.43400718670E+02  0.00000000000E+00 0. -1.
         11    1    3    3    0    0 -0.19379127689E+02 -0.67885419604E+01  0.10868565472E+01  0.20562493754E+02  0.51100000000E-03 0. -1.
        -11    1    3    3    0    0 -0.80096863198E+01 -0.14812877275E+02  0.88530186611E+01  0.19025045277E+02  0.51100000000E-03 0.  1.
        -12    1    3    3    0    0 -0.43915744833E+01 -0.31978589241E+01  0.61419496608E+01  0.81997422994E+01  0.00000000000E+00 0.  1.
</event>
<event>
 7    1  0.5426550E-010  0.4778727E+02  0.7816164E-02  0.1312668E+00
        -11   -1    0    0    0    0  0.00000000000E+00  0.00000000000E+00  0.45593999997E+02  0.45594000000E+02  0.51100000000E-03 0.  1.
         11   -1    0    0    0    0 -0.00000000000E+00 -0.00000000000E+00 -0.45593999997E+02  0.45594000000E+02  0.51100000000E-03 0. -1.
    9900012    2    1    2    0    0  0.78011354345E+01  0.16560254387E+02  0.39351283660E+02  0.47787271146E+02  0.20000000461E+02 0.  0.
         12    1    1    2    0    0 -0.78011354345E+01 -0.16560254387E+02 -0.39351283660E+02  0.43400728854E+02  0.00000000000E+00 0. -1.
         11    1    3    3    0    0 -0.10764820063E+01  0.81785517170E+00 -0.91059976776E+00  0.16299977883E+01  0.51100000000E-03 0. -1.
        -11    1    3    3    0    0  0.13850221897E+01  0.13475046974E+02  0.32134977126E+02  0.34873369963E+02  0.51100000000E-03 0.  1.
        -12    1    3    3    0    0  0.74925952511E+01  0.22673522412E+01  0.81269063013E+01  0.11283903394E+02  0.00000000000E+00 0.  1.
</event>
<event>
 7    1  0.5426550E-010  0.4778729E+02  0.7816164E-02  0.1312668E+00
        -11   -1    0    0    0    0  0.00000000000E+00  0.00000000000E+00  0.45593999997E+02  0.45594000000E+02  0.51100000000E-03 0. -1.
         11   -1    0    0    0    0 -0.00000000000E+00 -0.00000000000E+00 -0.45593999997E+02  0.45594000000E+02  0.51100000000E-03 0.  1.
    9900012    2    1    2    0    0 -0.25411940990E+01  0.25350539502E+02 -0.35135657922E+02  0.47787285973E+02  0.20000068064E+02 0.  0.
         12    1    1    2    0    0  0.25411940990E+01 -0.25350539502E+02  0.35135657922E+02  0.43400714027E+02  0.00000000000E+00 0. -1.
         11    1    3    3    0    0 -0.24459358816E+01  0.21719158992E+02 -0.25000879815E+02  0.33207656669E+02  0.51100000000E-03 0. -1.
        -11    1    3    3    0    0 -0.21929289307E+01  0.65368979496E+01 -0.65171791195E+01  0.94875495274E+01  0.51100000000E-03 0.  1.
         12    1    3    3    0    0  0.20976707132E+01 -0.29055174400E+01 -0.36175989869E+01  0.50920797760E+01  0.00000000000E+00 0. -1.
</event>
<event>
 7    1  0.5426550E-010  0.4778727E+02  0.7816164E-02  0.1312668E+00
        -11   -1    0    0    0    0  0.00000000000E+00  0.00000000000E+00  0.45593999997E+02  0.45594000000E+02  0.51100000000E-03 0.  1.
         11   -1    0    0    0    0 -0.00000000000E+00 -0.00000000000E+00 -0.45593999997E+02  0.45594000000E+02  0.51100000000E-03 0. -1.
    9900012    2    1    2    0    0  0.42088276298E+02  0.64227688229E+01  0.84230725109E+01  0.47787272914E+02  0.20000008525E+02 0.  0.
         12    1    1    2    0    0 -0.42088276298E+02 -0.64227688229E+01 -0.84230725109E+01  0.43400727086E+02  0.00000000000E+00 0. -1.
         11    1    3    3    0    0  0.12910427043E+02  0.43732009929E+01 -0.48170233870E+01  0.14457099568E+02  0.51100000000E-03 0. -1.
        -11    1    3    3    0    0  0.27447527346E+02  0.38132422997E+01  0.13538447301E+02  0.30841483911E+02  0.51100000000E-03 0.  1.
         12    1    3    3    0    0  0.17303219084E+01 -0.17636744697E+01 -0.29835140343E+00  0.24886894346E+01  0.00000000000E+00 0. -1.
</event>
<event>
 7    1  0.5426550E-010  0.4778727E+02  0.7816164E-02  0.1312668E+00
        -11   -1    0    0    0    0  0.00000000000E+00  0.00000000000E+00  0.45593999997E+02  0.45594000000E+02  0.51100000000E-03 0. -1.
         11   -1    0    0    0    0 -0.00000000000E+00 -0.00000000000E+00 -0.45593999997E+02  0.45594000000E+02  0.51100000000E-03 0.  1.
    9900012    2    1    2    0    0 -0.30674311369E+02 -0.30348100290E+02 -0.46586075806E+01  0.47787271967E+02  0.20000004207E+02 0.  0.
         12    1    1    2    0    0  0.30674311369E+02  0.30348100290E+02  0.46586075806E+01  0.43400728033E+02  0.00000000000E+00 0. -1.
         11    1    3    3    0    0 -0.11839937154E+02 -0.99235670589E+01  0.61160142738E+01  0.16615261835E+02  0.51100000000E-03 0. -1.
        -11    1    3    3    0    0 -0.12167615454E+02 -0.17677392996E+02 -0.52629044726E+01  0.22096136602E+02  0.51100000000E-03 0.  1.
         12    1    3    3    0    0 -0.66667587611E+01 -0.27471402353E+01 -0.55117173818E+01  0.90758735308E+01  0.00000000000E+00 0. -1.
</event>
<event>
 7    1  0.5426550E-010  0.4778727E+02  0.7816164E-02  0.1312668E+00
        -11   -1    0    0    0    0  0.00000000000E+00  0.00000000000E+00  0.45593999997E+02  0.45594000000E+02  0.51100000000E-03 0. -1.
         11   -1    0    0    0    0 -0.00000000000E+00 -0.00000000000E+00 -0.45593999997E+02  0.45594000000E+02  0.51100000000E-03 0.  1.
    9900012    2    1    2    0    0 -0.20525276598E+02 -0.33210713912E+02 -0.18957452255E+02  0.47787268509E+02  0.19999988440E+02 0.  0.
         12    1    1    2    0    0  0.20525276598E+02  0.33210713912E+02  0.18957452255E+02  0.43400731491E+02  0.00000000000E+00 0. -1.
         11    1    3    3    0    0 -0.12012014776E+02 -0.12500781676E+02  0.68688881119E+00  0.17350212045E+02  0.51100000000E-03 0. -1.
        -11    1    3    3    0    0 -0.25875498559E+01 -0.71827653793E+01 -0.30458923081E+01  0.82197927568E+01  0.51100000000E-03 0.  1.
         12    1    3    3    0    0 -0.59257119655E+01 -0.13527166856E+02 -0.16598448758E+02  0.22217263707E+02  0.00000000000E+00 0. -1.
</event>
<event>
 7    1  0.5426550E-010  0.4778728E+02  0.7816164E-02  0.1312668E+00
        -11   -1    0    0    0    0  0.00000000000E+00  0.00000000000E+00  0.45593999997E+02  0.45594000000E+02  0.51100000000E-03 0.  1.
         11   -1    0    0    0    0 -0.00000000000E+00 -0.00000000000E+00 -0.45593999997E+02  0.45594000000E+02  0.51100000000E-03 0. -1.
    9900012    2    1    2    0    0  0.22985516307E+02 -0.29911951947E+02  0.21460740224E+02  0.47787283414E+02  0.20000056400E+02 0.  0.
         12    1    1    2    0    0 -0.22985516307E+02  0.29911951947E+02 -0.21460740224E+02  0.43400716586E+02  0.00000000000E+00 0. -1.
         11    1    3    3    0    0  0.14957337210E+02 -0.20695992443E+02  0.63308343381E+01  0.26308278228E+02  0.51100000000E-03 0. -1.
        -11    1    3    3    0    0  0.11934099208E+01 -0.78969272681E+01  0.10173197956E+02  0.12933663226E+02  0.51100000000E-03 0.  1.
        -12    1    3    3    0    0  0.68347691767E+01 -0.13190322355E+01  0.49567079295E+01  0.85453419613E+01  0.00000000000E+00 0.  1.
</event>
<event>
 7    1  0.5426550E-010  0.4778727E+02  0.7816164E-02  0.1312668E+00
        -11   -1    0    0    0    0  0.00000000000E+00  0.00000000000E+00  0.45593999997E+02  0.45594000000E+02  0.51100000000E-03 0.  1.
         11   -1    0    0    0    0 -0.00000000000E+00 -0.00000000000E+00 -0.45593999997E+02  0.45594000000E+02  0.51100000000E-03 0. -1.
    9900012    2    1    2    0    0  0.20313762583E+02 -0.25776443920E+02  0.28399806296E+02  0.47787274095E+02  0.20000013909E+02 0.  0.
         12    1    1    2    0    0 -0.20313762583E+02  0.25776443920E+02 -0.28399806296E+02  0.43400725905E+02  0.00000000000E+00 0. -1.
         11    1    3    3    0    0  0.21420859884E+00 -0.55278334109E+01  0.26876380443E+00  0.55385071803E+01  0.51100000000E-03 0. -1.
        -11    1    3    3    0    0  0.94131455455E+01 -0.45688754330E+01  0.17789628611E+02  0.20638624425E+02  0.51100000000E-03 0.  1.
         12    1    3    3    0    0  0.10686408439E+02 -0.15679735076E+02  0.10341413881E+02  0.21610142490E+02  0.00000000000E+00 0. -1.
</event>
<event>
 7    1  0.5426550E-010  0.4778730E+02  0.7816164E-02  0.1312668E+00
        -11   -1    0    0    0    0  0.00000000000E+00  0.00000000000E+00  0.45593999997E+02  0.45594000000E+02  0.51100000000E-03 0.  1.
         11   -1    0    0    0    0 -0.00000000000E+00 -0.00000000000E+00 -0.45593999997E+02  0.45594000000E+02  0.51100000000E-03 0. -1.
    9900012    2    1    2    0    0  0.82059339295E+01  0.27765553913E+02  0.32331993510E+02  0.47787295627E+02  0.20000112079E+02 0.  0.
         12    1    1    2    0    0 -0.82059339295E+01 -0.27765553913E+02 -0.32331993510E+02  0.43400704373E+02  0.00000000000E+00 0. -1.
         11    1    3    3    0    0 -0.52435522565E+01  0.10672494284E+02  0.12073867894E+02  0.16946246213E+02  0.51100000000E-03 0. -1.
        -11    1    3    3    0    0  0.36804901303E+01  0.90910645261E+01  0.12970117475E+02  0.16260916622E+02  0.51100000000E-03 0.  1.
         12    1    3    3    0    0  0.97689960557E+01  0.80019951031E+01  0.72880081414E+01  0.14580132792E+02  0.00000000000E+00 0. -1.
</event>
<event>
 7    1  0.5426550E-010  0.4778727E+02  0.7816164E-02  0.1312668E+00
        -11   -1    0    0    0    0  0.00000000000E+00  0.00000000000E+00  0.45593999997E+02  0.45594000000E+02  0.51100000000E-03 0.  1.
         11   -1    0    0    0    0 -0.00000000000E+00 -0.00000000000E+00 -0.45593999997E+02  0.45594000000E+02  0.51100000000E-03 0. -1.
    9900012    2    1    2    0    0 -0.24274671665E+02  0.23220845059E+02  0.27480104404E+02  0.47787268811E+02  0.19999989818E+02 0.  0.
         12    1    1    2    0    0  0.24274671665E+02 -0.23220845059E+02 -0.27480104404E+02  0.43400731189E+02  0.00000000000E+00 0. -1.
         11    1    3    3    0    0 -0.36272508473E+00 -0.58496046335E+00 -0.39365371819E+00  0.79291345161E+00  0.51100000000E-03 0. -1.
        -11    1    3    3    0    0  0.23341524490E+01  0.20069432087E+01  0.23743070015E+00  0.30874685904E+01  0.51100000000E-03 0.  1.
        -12    1    3    3    0    0 -0.26246099029E+02  0.21798862313E+02  0.27636327422E+02  0.43906886769E+02  0.00000000000E+00 0.  1.
</event>
<event>
 7    1  0.5426550E-010  0.4778727E+02  0.7816164E-02  0.1312668E+00
        -11   -1    0    0    0    0  0.00000000000E+00  0.00000000000E+00  0.45593999997E+02  0.45594000000E+02  0.51100000000E-03 0. -1.
         11   -1    0    0    0    0 -0.00000000000E+00 -0.00000000000E+00 -0.45593999997E+02  0.45594000000E+02  0.51100000000E-03 0.  1.
    9900012    2    1    2    0    0 -0.81396849898E+01 -0.16290229320E+02 -0.39395402686E+02  0.47787265031E+02  0.19999972583E+02 0.  0.
         12    1    1    2    0    0  0.81396849898E+01  0.16290229320E+02  0.39395402686E+02  0.43400734969E+02  0.00000000000E+00 0. -1.
         11    1    3    3    0    0  0.38788304884E+01 -0.11498951171E+02 -0.14465173211E+02  0.18881537021E+02  0.51100000000E-03 0. -1.
        -11    1    3    3    0    0 -0.75576264741E+01 -0.63701359379E+01 -0.16272394385E+02  0.19039095805E+02  0.51100000000E-03 0.  1.
         12    1    3    3    0    0 -0.44608890041E+01  0.15788577887E+01 -0.86578350909E+01  0.98666322058E+01  0.00000000000E+00 0. -1.
</event>
<event>
 7    1  0.1013302E-009  0.4778727E+02  0.7816164E-02  0.1312668E+00
        -11   -1    0    0    0    0  0.00000000000E+00  0.00000000000E+00  0.45593999997E+02  0.45594000000E+02  0.51100000000E-03 0.  1.
         11   -1    0    0    0    0 -0.00000000000E+00 -0.00000000000E+00 -0.45593999997E+02  0.45594000000E+02  0.51100000000E-03 0. -1.
    9900012    2    1    2    0    0 -0.11523546227E+02  0.40970716464E+02  0.84988994537E+01  0.47787274002E+02  0.20000013486E+02 0.  0.
         12    1    1    2    0    0  0.11523546227E+02 -0.40970716464E+02 -0.84988994537E+01  0.43400725998E+02  0.00000000000E+00 0. -1.
         11    1    3    3    0    0  0.14835951321E+01  0.16382849201E+00  0.79268348043E+00  0.16900419083E+01  0.51100000000E-03 0. -1.
        -11    1    3    3    0    0 -0.33733647883E+01  0.29288111965E+02  0.94988985302E+01  0.30974217763E+02  0.51100000000E-03 0.  1.
        -12    1    3    3    0    0 -0.96337765712E+01  0.11518776007E+02 -0.17926825569E+01  0.15123014331E+02  0.00000000000E+00 0.  1.
</event>
<event>
 7    1  0.5426550E-010  0.4778727E+02  0.7816164E-02  0.1312668E+00
        -11   -1    0    0    0    0  0.00000000000E+00  0.00000000000E+00  0.45593999997E+02  0.45594000000E+02  0.51100000000E-03 0. -1.
         11   -1    0    0    0    0 -0.00000000000E+00 -0.00000000000E+00 -0.45593999997E+02  0.45594000000E+02  0.51100000000E-03 0.  1.
    9900012    2    1    2    0    0 -0.19800992233E+02 -0.38475242525E+02  0.33465955654E+01  0.47787270944E+02  0.19999999541E+02 0.  0.
         12    1    1    2    0    0  0.19800992233E+02  0.38475242525E+02 -0.33465955654E+01  0.43400729056E+02  0.00000000000E+00 0. -1.
         11    1    3    3    0    0  0.54727607722E+00 -0.76107732875E+01  0.82438457143E+00  0.76748284229E+01  0.51100000000E-03 0. -1.
        -11    1    3    3    0    0 -0.17878028355E+02 -0.14008006239E+02 -0.92316036597E+00  0.22731044014E+02  0.51100000000E-03 0.  1.
        -12    1    3    3    0    0 -0.24702399556E+01 -0.16856462998E+02  0.34453713600E+01  0.17381398507E+02  0.00000000000E+00 0.  1.
</event>
<event>
 7    1  0.5426550E-010  0.4778727E+02  0.7816164E-02  0.1312668E+00
        -11   -1    0    0    0    0  0.00000000000E+00  0.00000000000E+00  0.45593999997E+02  0.45594000000E+02  0.51100000000E-03 0.  1.
         11   -1    0    0    0    0 -0.00000000000E+00 -0.00000000000E+00 -0.45593999997E+02  0.45594000000E+02  0.51100000000E-03 0. -1.
    9900012    2    1    2    0    0 -0.21046297912E+02  0.49028250795E+01  0.37638265944E+02  0.47787269443E+02  0.19999992700E+02 0.  0.
         12    1    1    2    0    0  0.21046297912E+02 -0.49028250795E+01 -0.37638265944E+02  0.43400730557E+02  0.00000000000E+00 0. -1.
         11    1    3    3    0    0 -0.48473497446E+01  0.59541035457E+01  0.41436779269E+01  0.87245753824E+01  0.51100000000E-03 0. -1.
        -11    1    3    3    0    0 -0.12566009719E+02 -0.60289018586E+01  0.23171090418E+02  0.27039816739E+02  0.51100000000E-03 0.  1.
        -12    1    3    3    0    0 -0.36329384486E+01  0.49776233924E+01  0.10323497599E+02  0.12022877322E+02  0.00000000000E+00 0.  1.
</event>
<event>
 7    1  0.5426550E-010  0.4778727E+02  0.7816164E-02  0.1312668E+00
        -11   -1    0    0    0    0  0.00000000000E+00  0.00000000000E+00  0.45593999997E+02  0.45594000000E+02  0.51100000000E-03 0.  1.
         11   -1    0    0    0    0 -0.00000000000E+00 -0.00000000000E+00 -0.45593999997E+02  0.45594000000E+02  0.51100000000E-03 0. -1.
    9900012    2    1    2    0    0 -0.17870990264E+00  0.40976276879E+02 -0.14301608830E+02  0.47787271674E+02  0.20000002871E+02 0.  0.
         12    1    1    2    0    0  0.17870990264E+00 -0.40976276879E+02  0.14301608830E+02  0.43400728326E+02  0.00000000000E+00 0. -1.
         11    1    3    3    0    0 -0.28311514780E+01 -0.10620626176E+01 -0.18188454779E+01  0.35286817409E+01  0.51100000000E-03 0. -1.
        -11    1    3    3    0    0  0.11580966995E+01  0.29532187758E+02 -0.62619613639E+01  0.30210982476E+02  0.51100000000E-03 0.  1.
         12    1    3    3    0    0  0.14943448759E+01  0.12506151738E+02 -0.62208019887E+01  0.14047607458E+02  0.00000000000E+00 0. -1.
</event>
<event>
 7    1  0.5426550E-010  0.4778727E+02  0.7816164E-02  0.1312668E+00
        -11   -1    0    0    0    0  0.00000000000E+00  0.00000000000E+00  0.45593999997E+02  0.45594000000E+02  0.51100000000E-03 0. -1.
         11   -1    0    0    0    0 -0.00000000000E+00 -0.00000000000E+00 -0.45593999997E+02  0.45594000000E+02  0.51100000000E-03 0.  1.
    9900012    2    1    2    0    0 -0.10262541964E+02 -0.27421528781E+01 -0.42080683007E+02  0.47787273597E+02  0.20000011640E+02 0.  0.
         12    1    1    2    0    0  0.10262541964E+02  0.27421528781E+01  0.42080683007E+02  0.43400726403E+02  0.00000000000E+00 0. -1.
         11    1    3    3    0    0  0.16976484907E+01 -0.49770142771E+01 -0.44878274958E+01  0.69132682145E+01  0.51100000000E-03 0. -1.
        -11    1    3    3    0    0 -0.12817293544E+02  0.44723990409E+01 -0.33241079074E+02  0.35906193132E+02  0.51100000000E-03 0.  1.
        -12    1    3    3    0    0  0.85710308857E+00 -0.22375376420E+01 -0.43517764368E+01  0.49678122508E+01  0.00000000000E+00 0.  1.
</event>
<event>
 7    1  0.5426550E-010  0.4778728E+02  0.7816164E-02  0.1312668E+00
        -11   -1    0    0    0    0  0.00000000000E+00  0.00000000000E+00  0.45593999997E+02  0.45594000000E+02  0.51100000000E-03 0.  1.
         11   -1    0    0    0    0 -0.00000000000E+00 -0.00000000000E+00 -0.45593999997E+02  0.45594000000E+02  0.51100000000E-03 0. -1.
    9900012    2    1    2    0    0  0.30901184229E+02  0.73644997499E+01  0.29572009238E+02  0.47787276807E+02  0.20000026273E+02 0.  0.
         12    1    1    2    0    0 -0.30901184229E+02 -0.73644997499E+01 -0.29572009238E+02  0.43400723193E+02  0.00000000000E+00 0. -1.
         11    1    3    3    0    0  0.12751810852E+02 -0.10886720937E+01  0.49812706780E+01  0.13733424364E+02  0.51100000000E-03 0. -1.
        -11    1    3    3    0    0  0.58278622361E+01  0.75401438952E+00  0.16297106161E+02  0.17324208075E+02  0.51100000000E-03 0.  1.
        -12    1    3    3    0    0  0.12321511141E+02  0.76991574541E+01  0.82936323987E+01  0.16729644368E+02  0.00000000000E+00 0.  1.
</event>
<event>
 7    1  0.5426550E-010  0.4778727E+02  0.7816164E-02  0.1312668E+00
        -11   -1    0    0    0    0  0.00000000000E+00  0.00000000000E+00  0.45593999997E+02  0.45594000000E+02  0.51100000000E-03 0. -1.
         11   -1    0    0    0    0 -0.00000000000E+00 -0.00000000000E+00 -0.45593999997E+02  0.45594000000E+02  0.51100000000E-03 0.  1.
    9900012    2    1    2    0    0 -0.15576136327E+02  0.73621741974E+01 -0.39834730115E+02  0.47787270108E+02  0.19999995732E+02 0.  0.
         12    1    1    2    0    0  0.15576136327E+02 -0.73621741974E+01  0.39834730115E+02  0.43400729892E+02  0.00000000000E+00 0. -1.
         11    1    3    3    0    0 -0.13028896136E+02  0.55543955090E+00 -0.19159300599E+02  0.23176269055E+02  0.51100000000E-03 0.  1.
        -11    1    3    3    0    0  0.13384739105E+01  0.38451359860E+00 -0.15336773067E+02  0.15399869204E+02  0.51100000000E-03 0. -1.
        -12    1    3    3    0    0 -0.38857141016E+01  0.64222210480E+01 -0.53386564484E+01  0.92111318491E+01  0.00000000000E+00 0.  1.
</event>
<event>
 7    1  0.5426550E-010  0.4778727E+02  0.7816164E-02  0.1312668E+00
        -11   -1    0    0    0    0  0.00000000000E+00  0.00000000000E+00  0.45593999997E+02  0.45594000000E+02  0.51100000000E-03 0.  1.
         11   -1    0    0    0    0 -0.00000000000E+00 -0.00000000000E+00 -0.45593999997E+02  0.45594000000E+02  0.51100000000E-03 0. -1.
    9900012    2    1    2    0    0 -0.30331813835E+02  0.24303490796E+02 -0.19311772509E+02  0.47787272439E+02  0.20000006356E+02 0.  0.
         12    1    1    2    0    0  0.30331813835E+02 -0.24303490796E+02  0.19311772509E+02  0.43400727561E+02  0.00000000000E+00 0. -1.
         11    1    3    3    0    0 -0.10254200387E+02  0.17620375645E+02 -0.82119695174E+01  0.21978687565E+02  0.51100000000E-03 0. -1.
        -11    1    3    3    0    0 -0.18827830433E+02  0.39474887049E+01 -0.64862313645E+01  0.20301257682E+02  0.51100000000E-03 0.  1.
         12    1    3    3    0    0 -0.12497830149E+01  0.27356264462E+01 -0.46135716272E+01  0.55073271917E+01  0.00000000000E+00 0. -1.
</event>
<event>
 7    1  0.5426550E-010  0.4778727E+02  0.7816164E-02  0.1312668E+00
        -11   -1    0    0    0    0  0.00000000000E+00  0.00000000000E+00  0.45593999997E+02  0.45594000000E+02  0.51100000000E-03 0.  1.
         11   -1    0    0    0    0 -0.00000000000E+00 -0.00000000000E+00 -0.45593999997E+02  0.45594000000E+02  0.51100000000E-03 0. -1.
    9900012    2    1    2    0    0 -0.13877493490E+02  0.56629926120E+01  0.40730442425E+02  0.47787271308E+02  0.20000001202E+02 0.  0.
         12    1    1    2    0    0  0.13877493490E+02 -0.56629926120E+01 -0.40730442425E+02  0.43400728692E+02  0.00000000000E+00 0. -1.
         11    1    3    3    0    0 -0.84761675039E+00  0.40851949905E+01  0.57714948864E-01  0.41726015317E+01  0.51100000000E-03 0. -1.
        -11    1    3    3    0    0 -0.12421178308E+02  0.79225863252E+00  0.40759143933E+02  0.42617146299E+02  0.51100000000E-03 0.  1.
        -12    1    3    3    0    0 -0.60869843148E+00  0.78553898895E+00 -0.86416456763E-01  0.99752347724E+00  0.00000000000E+00 0.  1.
</event>
<event>
 7    1  0.5426550E-010  0.4778727E+02  0.7816164E-02  0.1312668E+00
        -11   -1    0    0    0    0  0.00000000000E+00  0.00000000000E+00  0.45593999997E+02  0.45594000000E+02  0.51100000000E-03 0.  1.
         11   -1    0    0    0    0 -0.00000000000E+00 -0.00000000000E+00 -0.45593999997E+02  0.45594000000E+02  0.51100000000E-03 0. -1.
    9900012    2    1    2    0    0 -0.87641990889E+01 -0.17305502719E+02  0.38824371436E+02  0.47787269276E+02  0.19999991936E+02 0.  0.
         12    1    1    2    0    0  0.87641990889E+01  0.17305502719E+02 -0.38824371436E+02  0.43400730724E+02  0.00000000000E+00 0. -1.
         11    1    3    3    0    0 -0.33854156333E+01 -0.10501535496E+02  0.71425677528E+01  0.13143803147E+02  0.51100000000E-03 0. -1.
        -11    1    3    3    0    0 -0.80561140714E+01 -0.16897289648E+01  0.19305046320E+02  0.20986685579E+02  0.51100000000E-03 0.  1.
        -12    1    3    3    0    0  0.26773306158E+01 -0.51142382578E+01  0.12376757363E+02  0.13656780551E+02  0.00000000000E+00 0.  1.
</event>
<event>
 7    1  0.5426550E-010  0.4778727E+02  0.7816164E-02  0.1312668E+00
        -11   -1    0    0    0    0  0.00000000000E+00  0.00000000000E+00  0.45593999997E+02  0.45594000000E+02  0.51100000000E-03 0. -1.
         11   -1    0    0    0    0 -0.00000000000E+00 -0.00000000000E+00 -0.45593999997E+02  0.45594000000E+02  0.51100000000E-03 0.  1.
    9900012    2    1    2    0    0  0.23214388793E+02  0.13422520487E+02 -0.34125525269E+02  0.47787269843E+02  0.19999994522E+02 0.  0.
         12    1    1    2    0    0 -0.23214388793E+02 -0.13422520487E+02  0.34125525269E+02  0.43400730157E+02  0.00000000000E+00 0. -1.
         11    1    3    3    0    0  0.88155190294E+00  0.56279374365E+01 -0.31261079492E+01  0.64979508091E+01  0.51100000000E-03 0. -1.
        -11    1    3    3    0    0  0.18210585809E+02 -0.23776754299E+00 -0.19756795642E+02  0.26870298532E+02  0.51100000000E-03 0.  1.
        -12    1    3    3    0    0  0.41222510811E+01  0.80323505935E+01 -0.11242621678E+02  0.14419020502E+02  0.00000000000E+00 0.  1.
</event>
<event>
 7    1  0.5426550E-010  0.4778726E+02  0.7816164E-02  0.1312668E+00
        -11   -1    0    0    0    0  0.00000000000E+00  0.00000000000E+00  0.45593999997E+02  0.45594000000E+02  0.51100000000E-03 0.  1.
         11   -1    0    0    0    0 -0.00000000000E+00 -0.00000000000E+00 -0.45593999997E+02  0.45594000000E+02  0.51100000000E-03 0. -1.
    9900012    2    1    2    0    0 -0.77570135612E+01 -0.38680610983E+02  0.18090412992E+02  0.47787263052E+02  0.19999963560E+02 0.  0.
         12    1    1    2    0    0  0.77570135612E+01  0.38680610983E+02 -0.18090412992E+02  0.43400736948E+02  0.00000000000E+00 0. -1.
         11    1    3    3    0    0  0.18179894671E+01 -0.16449634096E+02 -0.29189175109E+00  0.16552363838E+02  0.51100000000E-03 0. -1.
        -11    1    3    3    0    0 -0.87917749692E+01 -0.22425950866E+02  0.18559620918E+02  0.30408520323E+02  0.51100000000E-03 0.  1.
        -12    1    3    3    0    0 -0.78322805902E+00  0.19497397931E+00 -0.17731617482E+00  0.82637889064E+00  0.00000000000E+00 0.  1.
</event>
<event>
 7    1  0.5426550E-010  0.4778727E+02  0.7816164E-02  0.1312668E+00
        -11   -1    0    0    0    0  0.00000000000E+00  0.00000000000E+00  0.45593999997E+02  0.45594000000E+02  0.51100000000E-03 0. -1.
         11   -1    0    0    0    0 -0.00000000000E+00 -0.00000000000E+00 -0.45593999997E+02  0.45594000000E+02  0.51100000000E-03 0.  1.
    9900012    2    1    2    0    0  0.16182451302E+00 -0.34791745754E+02 -0.25944779119E+02  0.47787270475E+02  0.19999997404E+02 0.  0.
         12    1    1    2    0    0 -0.16182451302E+00  0.34791745754E+02  0.25944779119E+02  0.43400729525E+02  0.00000000000E+00 0. -1.
         11    1    3    3    0    0  0.31805709738E+01  0.11961005032E+01 -0.19442668826E+00  0.34035995845E+01  0.51100000000E-03 0. -1.
        -11    1    3    3    0    0 -0.23899171719E+01 -0.18892356255E+02 -0.13623171946E+02  0.23414176114E+02  0.51100000000E-03 0.  1.
        -12    1    3    3    0    0 -0.62882928889E+00 -0.17095490002E+02 -0.12127180485E+02  0.20969494777E+02  0.00000000000E+00 0.  1.
</event>
<event>
 7    1  0.5426550E-010  0.4778727E+02  0.7816164E-02  0.1312668E+00
        -11   -1    0    0    0    0  0.00000000000E+00  0.00000000000E+00  0.45593999997E+02  0.45594000000E+02  0.51100000000E-03 0. -1.
         11   -1    0    0    0    0 -0.00000000000E+00 -0.00000000000E+00 -0.45593999997E+02  0.45594000000E+02  0.51100000000E-03 0.  1.
    9900012    2    1    2    0    0 -0.28224716458E+02 -0.29918164233E+02 -0.13852503646E+02  0.47787273883E+02  0.20000012940E+02 0.  0.
         12    1    1    2    0    0  0.28224716458E+02  0.29918164233E+02  0.13852503646E+02  0.43400726117E+02  0.00000000000E+00 0. -1.
         11    1    3    3    0    0 -0.48459275630E+01 -0.14432538305E+02  0.24584419523E-01  0.15224381121E+02  0.51100000000E-03 0. -1.
        -11    1    3    3    0    0 -0.80221644291E+01 -0.92250842190E+01 -0.25734362382E+01  0.12493193159E+02  0.51100000000E-03 0.  1.
         12    1    3    3    0    0 -0.15356624466E+02 -0.62605417097E+01 -0.11303651828E+02  0.20069699603E+02  0.00000000000E+00 0. -1.
</event>
<event>
 7    1  0.5426550E-010  0.4778727E+02  0.7816164E-02  0.1312668E+00
        -11   -1    0    0    0    0  0.00000000000E+00  0.00000000000E+00  0.45593999997E+02  0.45594000000E+02  0.51100000000E-03 0. -1.
         11   -1    0    0    0    0 -0.00000000000E+00 -0.00000000000E+00 -0.45593999997E+02  0.45594000000E+02  0.51100000000E-03 0.  1.
    9900012    2    1    2    0    0  0.37024924514E+02  0.22625293112E+02  0.93498766116E+00  0.47787272752E+02  0.20000007787E+02 0.  0.
         12    1    1    2    0    0 -0.37024924514E+02 -0.22625293112E+02 -0.93498766116E+00  0.43400727248E+02  0.00000000000E+00 0. -1.
         11    1    3    3    0    0  0.15313698685E+01  0.81020898907E+01  0.37848837657E+01  0.90727228357E+01  0.51100000000E-03 0. -1.
        -11    1    3    3    0    0  0.23791006082E+02  0.80045126082E+01 -0.44919706005E+00  0.25105496824E+02  0.51100000000E-03 0.  1.
         12    1    3    3    0    0  0.11702548563E+02  0.65186906132E+01 -0.24006990445E+01  0.13609053093E+02  0.00000000000E+00 0. -1.
</event>
<event>
 7    1  0.5426550E-010  0.4778727E+02  0.7816164E-02  0.1312668E+00
        -11   -1    0    0    0    0  0.00000000000E+00  0.00000000000E+00  0.45593999997E+02  0.45594000000E+02  0.51100000000E-03 0.  1.
         11   -1    0    0    0    0 -0.00000000000E+00 -0.00000000000E+00 -0.45593999997E+02  0.45594000000E+02  0.51100000000E-03 0. -1.
    9900012    2    1    2    0    0 -0.61608746639E+01  0.42292453686E+02  0.75508354397E+01  0.47787272688E+02  0.20000007494E+02 0.  0.
         12    1    1    2    0    0  0.61608746639E+01 -0.42292453686E+02 -0.75508354397E+01  0.43400727312E+02  0.00000000000E+00 0. -1.
         11    1    3    3    0    0 -0.10446991226E+02  0.19013790520E+02  0.28947224407E+01  0.21887057223E+02  0.51100000000E-03 0. -1.
        -11    1    3    3    0    0  0.16399124620E+01  0.11771629967E+02  0.70972827784E+01  0.13843121327E+02  0.51100000000E-03 0.  1.
         12    1    3    3    0    0  0.26462041000E+01  0.11507033198E+02 -0.24411697795E+01  0.12057094138E+02  0.00000000000E+00 0. -1.
</event>
<event>
 7    1  0.5426550E-010  0.4778727E+02  0.7816164E-02  0.1312668E+00
        -11   -1    0    0    0    0  0.00000000000E+00  0.00000000000E+00  0.45593999997E+02  0.45594000000E+02  0.51100000000E-03 0.  1.
         11   -1    0    0    0    0 -0.00000000000E+00 -0.00000000000E+00 -0.45593999997E+02  0.45594000000E+02  0.51100000000E-03 0. -1.
    9900012    2    1    2    0    0 -0.26007677921E+02 -0.24730862178E+02  0.24405084328E+02  0.47787274246E+02  0.20000014598E+02 0.  0.
         12    1    1    2    0    0  0.26007677921E+02  0.24730862178E+02 -0.24405084328E+02  0.43400725754E+02  0.00000000000E+00 0. -1.
         11    1    3    3    0    0 -0.91572489151E+01 -0.14181339642E+02  0.14913453206E+02  0.22525023607E+02  0.51100000000E-03 0. -1.
        -11    1    3    3    0    0 -0.17379260449E+02 -0.54456416320E+01  0.65940617706E+01  0.19369443912E+02  0.51100000000E-03 0.  1.
        -12    1    3    3    0    0  0.52883144356E+00 -0.51038809039E+01  0.28975693522E+01  0.58928067275E+01  0.00000000000E+00 0.  1.
</event>
<event>
 7    1  0.5426550E-010  0.4778727E+02  0.7816164E-02  0.1312668E+00
        -11   -1    0    0    0    0  0.00000000000E+00  0.00000000000E+00  0.45593999997E+02  0.45594000000E+02  0.51100000000E-03 0.  1.
         11   -1    0    0    0    0 -0.00000000000E+00 -0.00000000000E+00 -0.45593999997E+02  0.45594000000E+02  0.51100000000E-03 0. -1.
    9900012    2    1    2    0    0 -0.22945786403E+02  0.51326968178E+01  0.36479715229E+02  0.47787270589E+02  0.19999997922E+02 0.  0.
         12    1    1    2    0    0  0.22945786403E+02 -0.51326968178E+01 -0.36479715229E+02  0.43400729411E+02  0.00000000000E+00 0. -1.
         11    1    3    3    0    0 -0.92194462876E+00 -0.34779625611E+01  0.75016713132E+01  0.83199325855E+01  0.51100000000E-03 0. -1.
        -11    1    3    3    0    0 -0.21440290842E+02  0.51012992187E+01  0.28260683441E+02  0.35838185695E+02  0.51100000000E-03 0.  1.
        -12    1    3    3    0    0 -0.58355093243E+00  0.35093601602E+01  0.71736047472E+00  0.36291523081E+01  0.00000000000E+00 0.  1.
</event>
<event>
 7    1  0.5426550E-010  0.4778726E+02  0.7816164E-02  0.1312668E+00
        -11   -1    0    0    0    0  0.00000000000E+00  0.00000000000E+00  0.45593999997E+02  0.45594000000E+02  0.51100000000E-03 0.  1.
         11   -1    0    0    0    0 -0.00000000000E+00 -0.00000000000E+00 -0.45593999997E+02  0.45594000000E+02  0.51100000000E-03 0. -1.
    9900012    2    1    2    0    0  0.22520994938E+02 -0.74040359047E+01  0.36353938712E+02  0.47787264747E+02  0.19999971286E+02 0.  0.
         12    1    1    2    0    0 -0.22520994938E+02  0.74040359047E+01 -0.36353938712E+02  0.43400735253E+02  0.00000000000E+00 0. -1.
         11    1    3    3    0    0 -0.89993356596E+00  0.67076293729E+00 -0.18575307669E+01  0.21703050828E+01  0.51100000000E-03 0. -1.
        -11    1    3    3    0    0  0.20818648858E+02 -0.80270844357E+01  0.34297916672E+02  0.40916956303E+02  0.51100000000E-03 0.  1.
         12    1    3    3    0    0  0.26022796458E+01 -0.47714406260E-01  0.39135528066E+01  0.47000033607E+01  0.00000000000E+00 0. -1.
</event>
<event>
 7    1  0.5426550E-010  0.4778726E+02  0.7816164E-02  0.1312668E+00
        -11   -1    0    0    0    0  0.00000000000E+00  0.00000000000E+00  0.45593999997E+02  0.45594000000E+02  0.51100000000E-03 0. -1.
         11   -1    0    0    0    0 -0.00000000000E+00 -0.00000000000E+00 -0.45593999997E+02  0.45594000000E+02  0.51100000000E-03 0.  1.
    9900012    2    1    2    0    0 -0.22951928064E+02  0.36626355723E+02  0.39170237064E+01  0.47787262562E+02  0.19999961324E+02 0.  0.
         12    1    1    2    0    0  0.22951928064E+02 -0.36626355723E+02 -0.39170237064E+01  0.43400737438E+02  0.00000000000E+00 0. -1.
         11    1    3    3    0    0 -0.94245425598E+01  0.13069753949E+02 -0.62384277733E+01  0.17278844061E+02  0.51100000000E-03 0. -1.
        -11    1    3    3    0    0 -0.11041842930E+02  0.18421265831E+02  0.35303128687E+01  0.21765303566E+02  0.51100000000E-03 0.  1.
         12    1    3    3    0    0 -0.24855425742E+01  0.51353359435E+01  0.66251386110E+01  0.87431149344E+01  0.00000000000E+00 0. -1.
</event>
<event>
 7    1  0.5426550E-010  0.4778727E+02  0.7816164E-02  0.1312668E+00
        -11   -1    0    0    0    0  0.00000000000E+00  0.00000000000E+00  0.45593999997E+02  0.45594000000E+02  0.51100000000E-03 0. -1.
         11   -1    0    0    0    0 -0.00000000000E+00 -0.00000000000E+00 -0.45593999997E+02  0.45594000000E+02  0.51100000000E-03 0.  1.
    9900012    2    1    2    0    0 -0.41645121067E+02 -0.10698039781E+02 -0.59041695898E+01  0.47787269794E+02  0.19999994298E+02 0.  0.
         12    1    1    2    0    0  0.41645121067E+02  0.10698039781E+02  0.59041695898E+01  0.43400730206E+02  0.00000000000E+00 0. -1.
         11    1    3    3    0    0 -0.28989364351E+01 -0.11950614584E+01  0.46291220142E+01  0.55911336263E+01  0.51100000000E-03 0. -1.
        -11    1    3    3    0    0 -0.27347036402E+02 -0.10217232685E+02 -0.54644363821E+01  0.29700375569E+02  0.51100000000E-03 0.  1.
         12    1    3    3    0    0 -0.11399148231E+02  0.71425436275E+00 -0.50688552218E+01  0.12495760599E+02  0.00000000000E+00 0. -1.
</event>
<event>
 7    1  0.5426550E-010  0.4778727E+02  0.7816164E-02  0.1312668E+00
        -11   -1    0    0    0    0  0.00000000000E+00  0.00000000000E+00  0.45593999997E+02  0.45594000000E+02  0.51100000000E-03 0.  1.
         11   -1    0    0    0    0 -0.00000000000E+00 -0.00000000000E+00 -0.45593999997E+02  0.45594000000E+02  0.51100000000E-03 0. -1.
    9900012    2    1    2    0    0  0.16615838108E+02 -0.28095826582E+02  0.28603524581E+02  0.47787272289E+02  0.20000005676E+02 0.  0.
         12    1    1    2    0    0 -0.16615838108E+02  0.28095826582E+02 -0.28603524581E+02  0.43400727711E+02  0.00000000000E+00 0. -1.
         11    1    3    3    0    0  0.63562539367E+00  0.13510707872E+01  0.16627009126E+01  0.22347229133E+01  0.51100000000E-03 0. -1.
        -11    1    3    3    0    0  0.13454771501E+02 -0.30882066055E+02  0.23626108001E+02  0.41145180271E+02  0.51100000000E-03 0.  1.
        -12    1    3    3    0    0  0.25254412129E+01  0.14351686855E+01  0.33147156669E+01  0.44073691051E+01  0.00000000000E+00 0.  1.
</event>
<event>
 7    1  0.5426550E-010  0.4778727E+02  0.7816164E-02  0.1312668E+00
        -11   -1    0    0    0    0  0.00000000000E+00  0.00000000000E+00  0.45593999997E+02  0.45594000000E+02  0.51100000000E-03 0.  1.
         11   -1    0    0    0    0 -0.00000000000E+00 -0.00000000000E+00 -0.45593999997E+02  0.45594000000E+02  0.51100000000E-03 0. -1.
    9900012    2    1    2    0    0  0.22249423586E+02 -0.21593062193E+02  0.30369820763E+02  0.47787271919E+02  0.20000003985E+02 0.  0.
         12    1    1    2    0    0 -0.22249423586E+02  0.21593062193E+02 -0.30369820763E+02  0.43400728081E+02  0.00000000000E+00 0. -1.
         11    1    3    3    0    0 -0.10691881864E+01 -0.52770157381E+01  0.22884334252E+01  0.58503834302E+01  0.51100000000E-03 0. -1.
        -11    1    3    3    0    0  0.20827433744E+02 -0.10266278396E+02  0.16003909555E+02  0.28201127456E+02  0.51100000000E-03 0.  1.
        -12    1    3    3    0    0  0.24911780283E+01 -0.60497680590E+01  0.12077477783E+02  0.13735761032E+02  0.00000000000E+00 0.  1.
</event>
<event>
 7    1  0.5426550E-010  0.4778727E+02  0.7816164E-02  0.1312668E+00
        -11   -1    0    0    0    0  0.00000000000E+00  0.00000000000E+00  0.45593999997E+02  0.45594000000E+02  0.51100000000E-03 0.  1.
         11   -1    0    0    0    0 -0.00000000000E+00 -0.00000000000E+00 -0.45593999997E+02  0.45594000000E+02  0.51100000000E-03 0. -1.
    9900012    2    1    2    0    0  0.23822422176E+02 -0.42263792556E+00  0.36275843873E+02  0.47787271091E+02  0.20000000213E+02 0.  0.
         12    1    1    2    0    0 -0.23822422176E+02  0.42263792556E+00 -0.36275843873E+02  0.43400728909E+02  0.00000000000E+00 0. -1.
         11    1    3    3    0    0  0.15312522464E+02 -0.80052941611E+01  0.26744088531E+02  0.31840294446E+02  0.51100000000E-03 0. -1.
        -11    1    3    3    0    0  0.14643477545E+01 -0.92152312128E+00  0.10699540730E+01  0.20342864077E+01  0.51100000000E-03 0.  1.
         12    1    3    3    0    0  0.70455519577E+01  0.85041793568E+01  0.84618012685E+01  0.13912690237E+02  0.00000000000E+00 0. -1.
</event>
<event>
 7    1  0.5426550E-010  0.4778727E+02  0.7816164E-02  0.1312668E+00
        -11   -1    0    0    0    0  0.00000000000E+00  0.00000000000E+00  0.45593999997E+02  0.45594000000E+02  0.51100000000E-03 0. -1.
         11   -1    0    0    0    0 -0.00000000000E+00 -0.00000000000E+00 -0.45593999997E+02  0.45594000000E+02  0.51100000000E-03 0.  1.
    9900012    2    1    2    0    0 -0.13854490141E+02 -0.39660083200E+02 -0.10897426349E+02  0.47787274228E+02  0.20000014515E+02 0.  0.
         12    1    1    2    0    0  0.13854490141E+02  0.39660083200E+02  0.10897426349E+02  0.43400725772E+02  0.00000000000E+00 0. -1.
         11    1    3    3    0    0 -0.81985298525E+01 -0.63552713032E+01  0.13786473501E+00  0.10374216695E+02  0.51100000000E-03 0. -1.
        -11    1    3    3    0    0 -0.55161385394E+01 -0.28724801995E+02 -0.13494748635E+02  0.32212579453E+02  0.51100000000E-03 0.  1.
        -12    1    3    3    0    0 -0.13982174946E+00 -0.45800099020E+01  0.24594575506E+01  0.52004780807E+01  0.00000000000E+00 0.  1.
</event>
<event>
 7    1  0.5426550E-010  0.4778728E+02  0.7816164E-02  0.1312668E+00
        -11   -1    0    0    0    0  0.00000000000E+00  0.00000000000E+00  0.45593999997E+02  0.45594000000E+02  0.51100000000E-03 0.  1.
         11   -1    0    0    0    0 -0.00000000000E+00 -0.00000000000E+00 -0.45593999997E+02  0.45594000000E+02  0.51100000000E-03 0. -1.
    9900012    2    1    2    0    0 -0.21260652404E+02 -0.33314336615E+02  0.17937739996E+02  0.47787275571E+02  0.20000020641E+02 0.  0.
         12    1    1    2    0    0  0.21260652404E+02  0.33314336615E+02 -0.17937739996E+02  0.43400724429E+02  0.00000000000E+00 0. -1.
         11    1    3    3    0    0 -0.56316939568E+00 -0.51775480423E+01 -0.94042909883E+00  0.52923124104E+01  0.51100000000E-03 0. -1.
        -11    1    3    3    0    0  0.23225984914E+01 -0.45619303932E+01  0.27017492179E+01  0.57883608874E+01  0.51100000000E-03 0.  1.
        -12    1    3    3    0    0 -0.23020081499E+02 -0.23574858180E+02  0.16176419877E+02  0.36706602274E+02  0.00000000000E+00 0.  1.
</event>
<event>
 7    1  0.5426550E-010  0.4778728E+02  0.7816164E-02  0.1312668E+00
        -11   -1    0    0    0    0  0.00000000000E+00  0.00000000000E+00  0.45593999997E+02  0.45594000000E+02  0.51100000000E-03 0. -1.
         11   -1    0    0    0    0 -0.00000000000E+00 -0.00000000000E+00 -0.45593999997E+02  0.45594000000E+02  0.51100000000E-03 0.  1.
    9900012    2    1    2    0    0 -0.35174531557E+02 -0.25786311190E+01 -0.25292793903E+02  0.47787280742E+02  0.20000044213E+02 0.  0.
         12    1    1    2    0    0  0.35174531557E+02  0.25786311190E+01  0.25292793903E+02  0.43400719258E+02  0.00000000000E+00 0. -1.
         11    1    3    3    0    0 -0.66318389764E+01  0.92851306366E-01 -0.15217892211E+02  0.16600426295E+02  0.51100000000E-03 0. -1.
        -11    1    3    3    0    0 -0.22794989627E+02 -0.57957172370E+00 -0.10399143621E+02  0.25061716697E+02  0.51100000000E-03 0.  1.
         12    1    3    3    0    0 -0.57477029537E+01 -0.20919107016E+01  0.32424192828E+00  0.61251377499E+01  0.00000000000E+00 0. -1.
</event>
<event>
 7    1  0.5426550E-010  0.4778728E+02  0.7816164E-02  0.1312668E+00
        -11   -1    0    0    0    0  0.00000000000E+00  0.00000000000E+00  0.45593999997E+02  0.45594000000E+02  0.51100000000E-03 0. -1.
         11   -1    0    0    0    0 -0.00000000000E+00 -0.00000000000E+00 -0.45593999997E+02  0.45594000000E+02  0.51100000000E-03 0.  1.
    9900012    2    1    2    0    0  0.16928416225E+02 -0.38641545415E+02 -0.10192255189E+02  0.47787281414E+02  0.20000047278E+02 0.  0.
         12    1    1    2    0    0 -0.16928416225E+02  0.38641545415E+02  0.10192255189E+02  0.43400718586E+02  0.00000000000E+00 0. -1.
         11    1    3    3    0    0  0.12537097589E-01 -0.19924498989E+02 -0.29529983972E+00  0.19926691131E+02  0.51100000000E-03 0. -1.
        -11    1    3    3    0    0  0.12441830444E+02 -0.11472572580E+02 -0.36841851212E+01  0.17320285409E+02  0.51100000000E-03 0.  1.
         12    1    3    3    0    0  0.44740486836E+01 -0.72444738463E+01 -0.62127702278E+01  0.10540304874E+02  0.00000000000E+00 0. -1.
</event>
<event>
 7    1  0.5426550E-010  0.4778727E+02  0.7816164E-02  0.1312668E+00
        -11   -1    0    0    0    0  0.00000000000E+00  0.00000000000E+00  0.45593999997E+02  0.45594000000E+02  0.51100000000E-03 0. -1.
         11   -1    0    0    0    0 -0.00000000000E+00 -0.00000000000E+00 -0.45593999997E+02  0.45594000000E+02  0.51100000000E-03 0.  1.
    9900012    2    1    2    0    0 -0.34165315724E+02  0.24607384187E+02  0.10527651204E+02  0.47787267346E+02  0.19999983138E+02 0.  0.
         12    1    1    2    0    0  0.34165315724E+02 -0.24607384187E+02 -0.10527651204E+02  0.43400732654E+02  0.00000000000E+00 0. -1.
         11    1    3    3    0    0 -0.34103437769E+01  0.27583968970E+00 -0.21262669763E+01  0.40283425533E+01  0.51100000000E-03 0. -1.
        -11    1    3    3    0    0 -0.24026241879E+02  0.21015812527E+02  0.15809212307E+02  0.35621003201E+02  0.51100000000E-03 0.  1.
        -12    1    3    3    0    0 -0.67287300671E+01  0.33157319705E+01 -0.31552941262E+01  0.81379215921E+01  0.00000000000E+00 0.  1.
</event>
<event>
 7    1  0.5426550E-010  0.4778727E+02  0.7816164E-02  0.1312668E+00
        -11   -1    0    0    0    0  0.00000000000E+00  0.00000000000E+00  0.45593999997E+02  0.45594000000E+02  0.51100000000E-03 0.  1.
         11   -1    0    0    0    0 -0.00000000000E+00 -0.00000000000E+00 -0.45593999997E+02  0.45594000000E+02  0.51100000000E-03 0. -1.
    9900012    2    1    2    0    0  0.20988696147E+02  0.10131577080E+02  0.36612143867E+02  0.47787270760E+02  0.19999998702E+02 0.  0.
         12    1    1    2    0    0 -0.20988696147E+02 -0.10131577080E+02 -0.36612143867E+02  0.43400729240E+02  0.00000000000E+00 0. -1.
         11    1    3    3    0    0  0.11350375726E+02  0.27474998002E+00  0.83887547005E+01  0.14116576155E+02  0.51100000000E-03 0. -1.
        -11    1    3    3    0    0  0.14630860706E+01  0.13675019947E+01  0.17874153423E+02  0.17985995758E+02  0.51100000000E-03 0.  1.
        -12    1    3    3    0    0  0.81752343507E+01  0.84893251050E+01  0.10349235743E+02  0.15684698846E+02  0.00000000000E+00 0.  1.
</event>
<event>
 7    1  0.5426550E-010  0.4778727E+02  0.7816164E-02  0.1312668E+00
        -11   -1    0    0    0    0  0.00000000000E+00  0.00000000000E+00  0.45593999997E+02  0.45594000000E+02  0.51100000000E-03 0.  1.
         11   -1    0    0    0    0 -0.00000000000E+00 -0.00000000000E+00 -0.45593999997E+02  0.45594000000E+02  0.51100000000E-03 0. -1.
    9900012    2    1    2    0    0  0.24108456355E+02  0.36070148344E+02 -0.11619086876E+01  0.47787270730E+02  0.19999998566E+02 0.  0.
         12    1    1    2    0    0 -0.24108456355E+02 -0.36070148344E+02  0.11619086876E+01  0.43400729270E+02  0.00000000000E+00 0. -1.
         11    1    3    3    0    0  0.40822854241E+01  0.10671598370E+02 -0.68423936867E+01  0.13317898396E+02  0.51100000000E-03 0. -1.
        -11    1    3    3    0    0  0.20319480686E+02  0.24615496534E+02  0.34709134812E+01  0.32106871626E+02  0.51100000000E-03 0.  1.
         12    1    3    3    0    0 -0.29330975527E+00  0.78305343981E+00  0.22095715179E+01  0.23625007079E+01  0.00000000000E+00 0. -1.
</event>
<event>
 7    1  0.5426550E-010  0.4778727E+02  0.7816164E-02  0.1312668E+00
        -11   -1    0    0    0    0  0.00000000000E+00  0.00000000000E+00  0.45593999997E+02  0.45594000000E+02  0.51100000000E-03 0.  1.
         11   -1    0    0    0    0 -0.00000000000E+00 -0.00000000000E+00 -0.45593999997E+02  0.45594000000E+02  0.51100000000E-03 0. -1.
    9900012    2    1    2    0    0  0.26714495862E+01  0.32623845308E+01  0.43195410050E+02  0.47787271376E+02  0.20000001512E+02 0.  0.
         12    1    1    2    0    0 -0.26714495862E+01 -0.32623845308E+01 -0.43195410050E+02  0.43400728624E+02  0.00000000000E+00 0. -1.
         11    1    3    3    0    0  0.97459382054E+01  0.33452422820E+01  0.17922117332E+02  0.20673080258E+02  0.51100000000E-03 0. -1.
        -11    1    3    3    0    0 -0.47295498863E+01  0.31879337778E+01  0.12950764128E+02  0.14151107931E+02  0.51100000000E-03 0.  1.
        -12    1    3    3    0    0 -0.23449387329E+01 -0.32707915290E+01  0.12322528589E+02  0.12963083187E+02  0.00000000000E+00 0.  1.
</event>
<event>
 7    1  0.5426550E-010  0.4778725E+02  0.7816164E-02  0.1312668E+00
        -11   -1    0    0    0    0  0.00000000000E+00  0.00000000000E+00  0.45593999997E+02  0.45594000000E+02  0.51100000000E-03 0. -1.
         11   -1    0    0    0    0 -0.00000000000E+00 -0.00000000000E+00 -0.45593999997E+02  0.45594000000E+02  0.51100000000E-03 0.  1.
    9900012    2    1    2    0    0  0.38740715785E+02 -0.19560112233E+02 -0.42886057129E+00  0.47787251487E+02  0.19999910830E+02 0.  0.
         12    1    1    2    0    0 -0.38740715785E+02  0.19560112233E+02  0.42886057129E+00  0.43400748513E+02  0.00000000000E+00 0. -1.
         11    1    3    3    0    0 -0.15961781490E+00 -0.18163781580E+01 -0.14837575912E+00  0.18294051182E+01  0.51100000000E-03 0. -1.
        -11    1    3    3    0    0 -0.41169635091E+00  0.81387605602E+00 -0.22637281776E+01  0.24405642059E+01  0.51100000000E-03 0.  1.
        -12    1    3    3    0    0  0.39312029951E+02 -0.18557610131E+02  0.19832433654E+01  0.43517282163E+02  0.00000000000E+00 0.  1.
</event>
<event>
 7    1  0.5426550E-010  0.4778727E+02  0.7816164E-02  0.1312668E+00
        -11   -1    0    0    0    0  0.00000000000E+00  0.00000000000E+00  0.45593999997E+02  0.45594000000E+02  0.51100000000E-03 0.  1.
         11   -1    0    0    0    0 -0.00000000000E+00 -0.00000000000E+00 -0.45593999997E+02  0.45594000000E+02  0.51100000000E-03 0. -1.
    9900012    2    1    2    0    0  0.10590898451E+02  0.15170118780E+02  0.39259694489E+02  0.47787271375E+02  0.20000001507E+02 0.  0.
         12    1    1    2    0    0 -0.10590898451E+02 -0.15170118780E+02 -0.39259694489E+02  0.43400728625E+02  0.00000000000E+00 0. -1.
         11    1    3    3    0    0 -0.39347943436E+01  0.41530535694E+01  0.18455034600E+01  0.60113512423E+01  0.51100000000E-03 0. -1.
        -11    1    3    3    0    0  0.11875523879E+02  0.98414105041E+01  0.33719905881E+02  0.37079825795E+02  0.51100000000E-03 0.  1.
         12    1    3    3    0    0  0.26501689152E+01  0.11756547068E+01  0.36942851481E+01  0.46960943373E+01  0.00000000000E+00 0. -1.
</event>
<event>
 7    1  0.5426550E-010  0.4778727E+02  0.7816164E-02  0.1312668E+00
        -11   -1    0    0    0    0  0.00000000000E+00  0.00000000000E+00  0.45593999997E+02  0.45594000000E+02  0.51100000000E-03 0.  1.
         11   -1    0    0    0    0 -0.00000000000E+00 -0.00000000000E+00 -0.45593999997E+02  0.45594000000E+02  0.51100000000E-03 0. -1.
    9900012    2    1    2    0    0  0.25582010775E+02  0.32947679110E+02  0.11984762606E+02  0.47787269951E+02  0.19999995016E+02 0.  0.
         12    1    1    2    0    0 -0.25582010775E+02 -0.32947679110E+02 -0.11984762606E+02  0.43400730049E+02  0.00000000000E+00 0. -1.
         11    1    3    3    0    0 -0.17728039674E+01 -0.60284397045E+00 -0.62963104399E+00  0.19755227845E+01  0.51100000000E-03 0. -1.
        -11    1    3    3    0    0  0.12699508694E+02  0.20001850279E+02  0.38089940905E+01  0.23997082571E+02  0.51100000000E-03 0.  1.
         12    1    3    3    0    0  0.14655306048E+02  0.13548672801E+02  0.88053995596E+01  0.21814664596E+02  0.00000000000E+00 0. -1.
</event>
<event>
 7    1  0.5426550E-010  0.4778727E+02  0.7816164E-02  0.1312668E+00
        -11   -1    0    0    0    0  0.00000000000E+00  0.00000000000E+00  0.45593999997E+02  0.45594000000E+02  0.51100000000E-03 0. -1.
         11   -1    0    0    0    0 -0.00000000000E+00 -0.00000000000E+00 -0.45593999997E+02  0.45594000000E+02  0.51100000000E-03 0.  1.
    9900012    2    1    2    0    0 -0.61424742181E+01 -0.40332561876E+02 -0.14804656273E+02  0.47787269772E+02  0.19999994198E+02 0.  0.
         12    1    1    2    0    0  0.61424742181E+01  0.40332561876E+02  0.14804656273E+02  0.43400730228E+02  0.00000000000E+00 0. -1.
         11    1    3    3    0    0  0.51657461319E+01 -0.32056822975E+01 -0.37397611407E-01  0.60796982601E+01  0.51100000000E-03 0. -1.
        -11    1    3    3    0    0 -0.86286610894E+01 -0.32705977595E+02 -0.13144508207E+02  0.36289293998E+02  0.51100000000E-03 0.  1.
         12    1    3    3    0    0 -0.26795592605E+01 -0.44209019837E+01 -0.16227504546E+01  0.54182775139E+01  0.00000000000E+00 0. -1.
</event>
<event>
 7    1  0.5426550E-010  0.4778727E+02  0.7816164E-02  0.1312668E+00
        -11   -1    0    0    0    0  0.00000000000E+00  0.00000000000E+00  0.45593999997E+02  0.45594000000E+02  0.51100000000E-03 0.  1.
         11   -1    0    0    0    0 -0.00000000000E+00 -0.00000000000E+00 -0.45593999997E+02  0.45594000000E+02  0.51100000000E-03 0. -1.
    9900012    2    1    2    0    0  0.19737063519E+02  0.29370671933E+02  0.25128374849E+02  0.47787271104E+02  0.20000000272E+02 0.  0.
         12    1    1    2    0    0 -0.19737063519E+02 -0.29370671933E+02 -0.25128374849E+02  0.43400728896E+02  0.00000000000E+00 0. -1.
         11    1    3    3    0    0  0.13718526043E+02  0.10991141776E+02  0.28063750141E+01  0.17801092531E+02  0.51100000000E-03 0. -1.
        -11    1    3    3    0    0  0.50614256723E+01  0.18379633739E+02  0.21332786973E+02  0.28609732024E+02  0.51100000000E-03 0.  1.
        -12    1    3    3    0    0  0.95711180331E+00 -0.10358141051E-03  0.98921286220E+00  0.13764465487E+01  0.00000000000E+00 0.  1.
</event>
<event>
 7    1  0.5426550E-010  0.4778727E+02  0.7816164E-02  0.1312668E+00
        -11   -1    0    0    0    0  0.00000000000E+00  0.00000000000E+00  0.45593999997E+02  0.45594000000E+02  0.51100000000E-03 0.  1.
         11   -1    0    0    0    0 -0.00000000000E+00 -0.00000000000E+00 -0.45593999997E+02  0.45594000000E+02  0.51100000000E-03 0. -1.
    9900012    2    1    2    0    0 -0.17374165787E+02  0.20467150066E+02  0.34100694551E+02  0.47787271464E+02  0.20000001911E+02 0.  0.
         12    1    1    2    0    0  0.17374165787E+02 -0.20467150066E+02 -0.34100694551E+02  0.43400728536E+02  0.00000000000E+00 0. -1.
         11    1    3    3    0    0 -0.11229649830E+02  0.41407859237E+01  0.37021019789E+01  0.12528236216E+02  0.51100000000E-03 0. -1.
        -11    1    3    3    0    0 -0.53500570258E+01  0.10497950358E+02  0.17685760384E+02  0.21251263316E+02  0.51100000000E-03 0.  1.
         12    1    3    3    0    0 -0.79445893128E+00  0.58284137842E+01  0.12712832188E+02  0.14007771931E+02  0.00000000000E+00 0. -1.
</event>
<event>
 7    1  0.5426550E-010  0.4778727E+02  0.7816164E-02  0.1312668E+00
        -11   -1    0    0    0    0  0.00000000000E+00  0.00000000000E+00  0.45593999997E+02  0.45594000000E+02  0.51100000000E-03 0.  1.
         11   -1    0    0    0    0 -0.00000000000E+00 -0.00000000000E+00 -0.45593999997E+02  0.45594000000E+02  0.51100000000E-03 0. -1.
    9900012    2    1    2    0    0  0.84348134928E+01 -0.36914764245E+02  0.21207957901E+02  0.47787269865E+02  0.19999994623E+02 0.  0.
         12    1    1    2    0    0 -0.84348134928E+01  0.36914764245E+02 -0.21207957901E+02  0.43400730135E+02  0.00000000000E+00 0. -1.
         11    1    3    3    0    0  0.80979018129E+00  0.68171856515E+00  0.49729465149E+01  0.50843581346E+01  0.51100000000E-03 0. -1.
        -11    1    3    3    0    0  0.89203007075E+01 -0.20915246426E+02  0.10129329278E+02  0.24892219862E+02  0.51100000000E-03 0.  1.
         12    1    3    3    0    0 -0.12952773960E+01 -0.16681236384E+02  0.61056821076E+01  0.17810691868E+02  0.00000000000E+00 0. -1.
</event>
<event>
 7    1  0.5426550E-010  0.4778727E+02  0.7816164E-02  0.1312668E+00
        -11   -1    0    0    0    0  0.00000000000E+00  0.00000000000E+00  0.45593999997E+02  0.45594000000E+02  0.51100000000E-03 0.  1.
         11   -1    0    0    0    0 -0.00000000000E+00 -0.00000000000E+00 -0.45593999997E+02  0.45594000000E+02  0.51100000000E-03 0. -1.
    9900012    2    1    2    0    0  0.27276958664E+02 -0.23914021598E+02  0.23826674736E+02  0.47787270376E+02  0.19999996950E+02 0.  0.
         12    1    1    2    0    0 -0.27276958664E+02  0.23914021598E+02 -0.23826674736E+02  0.43400729624E+02  0.00000000000E+00 0. -1.
         11    1    3    3    0    0  0.15275675635E+02 -0.10014448532E+02  0.48441438901E+01  0.18897120834E+02  0.51100000000E-03 0. -1.
        -11    1    3    3    0    0  0.69696576395E+01 -0.56945709238E+01  0.16742023833E+02  0.19007883309E+02  0.51100000000E-03 0.  1.
        -12    1    3    3    0    0  0.50316253897E+01 -0.82050021426E+01  0.22405070127E+01  0.98822662328E+01  0.00000000000E+00 0.  1.
</event>
<event>
 7    1  0.5426550E-010  0.4778727E+02  0.7816164E-02  0.1312668E+00
        -11   -1    0    0    0    0  0.00000000000E+00  0.00000000000E+00  0.45593999997E+02  0.45594000000E+02  0.51100000000E-03 0.  1.
         11   -1    0    0    0    0 -0.00000000000E+00 -0.00000000000E+00 -0.45593999997E+02  0.45594000000E+02  0.51100000000E-03 0. -1.
    9900012    2    1    2    0    0 -0.22271231482E+02 -0.23897289343E+02  0.28575079034E+02  0.47787270381E+02  0.19999996975E+02 0.  0.
         12    1    1    2    0    0  0.22271231482E+02  0.23897289343E+02 -0.28575079034E+02  0.43400729619E+02  0.00000000000E+00 0. -1.
         11    1    3    3    0    0 -0.31180790915E+01 -0.78182078867E+01  0.12328871511E+02  0.14928089790E+02  0.51100000000E-03 0. -1.
        -11    1    3    3    0    0 -0.17134480330E+02 -0.18623394637E+02  0.14154634412E+02  0.28996119043E+02  0.51100000000E-03 0.  1.
        -12    1    3    3    0    0 -0.20186720601E+01  0.25443131799E+01  0.20915731110E+01  0.38630615478E+01  0.00000000000E+00 0.  1.
</event>
<event>
 7    1  0.5426550E-010  0.4778727E+02  0.7816164E-02  0.1312668E+00
        -11   -1    0    0    0    0  0.00000000000E+00  0.00000000000E+00  0.45593999997E+02  0.45594000000E+02  0.51100000000E-03 0. -1.
         11   -1    0    0    0    0 -0.00000000000E+00 -0.00000000000E+00 -0.45593999997E+02  0.45594000000E+02  0.51100000000E-03 0.  1.
    9900012    2    1    2    0    0 -0.70732670147E+01  0.89297986154E+00 -0.42811148426E+02  0.47787274789E+02  0.20000017074E+02 0.  0.
         12    1    1    2    0    0  0.70732670147E+01 -0.89297986154E+00  0.42811148426E+02  0.43400725211E+02  0.00000000000E+00 0. -1.
         11    1    3    3    0    0 -0.15356889859E+01  0.77957015553E+01 -0.20788831052E+02  0.22255489214E+02  0.51100000000E-03 0. -1.
        -11    1    3    3    0    0 -0.30493479801E+01 -0.61402104624E+01 -0.21876150165E+02  0.22925240543E+02  0.51100000000E-03 0.  1.
         12    1    3    3    0    0 -0.24882300486E+01 -0.76251123131E+00 -0.14616720847E+00  0.26065450323E+01  0.00000000000E+00 0. -1.
</event>
<event>
 7    1  0.5426550E-010  0.4778725E+02  0.7816164E-02  0.1312668E+00
        -11   -1    0    0    0    0  0.00000000000E+00  0.00000000000E+00  0.45593999997E+02  0.45594000000E+02  0.51100000000E-03 0.  1.
         11   -1    0    0    0    0 -0.00000000000E+00 -0.00000000000E+00 -0.45593999997E+02  0.45594000000E+02  0.51100000000E-03 0. -1.
    9900012    2    1    2    0    0 -0.30847733230E+02  0.29892996165E+02  0.62008831537E+01  0.47787253267E+02  0.19999918943E+02 0.  0.
         12    1    1    2    0    0  0.30847733230E+02 -0.29892996165E+02 -0.62008831537E+01  0.43400746733E+02  0.00000000000E+00 0. -1.
         11    1    3    3    0    0 -0.14159640860E+01  0.16166289142E+01 -0.47745236199E+00  0.22014550548E+01  0.51100000000E-03 0. -1.
        -11    1    3    3    0    0 -0.41601583354E+01 -0.16235069867E+01 -0.28450007733E+01  0.52949713855E+01  0.51100000000E-03 0.  1.
        -12    1    3    3    0    0 -0.25271610808E+02  0.29899874238E+02  0.95233362890E+01  0.40290826826E+02  0.00000000000E+00 0.  1.
</event>
<event>
 7    1  0.5426550E-010  0.4778729E+02  0.7816164E-02  0.1312668E+00
        -11   -1    0    0    0    0  0.00000000000E+00  0.00000000000E+00  0.45593999997E+02  0.45594000000E+02  0.51100000000E-03 0.  1.
         11   -1    0    0    0    0 -0.00000000000E+00 -0.00000000000E+00 -0.45593999997E+02  0.45594000000E+02  0.51100000000E-03 0. -1.
    9900012    2    1    2    0    0 -0.24246327975E+02 -0.33812092791E+02 -0.12348276868E+02  0.47787285941E+02  0.20000067921E+02 0.  0.
         12    1    1    2    0    0  0.24246327975E+02  0.33812092791E+02  0.12348276868E+02  0.43400714059E+02  0.00000000000E+00 0. -1.
         11    1    3    3    0    0 -0.73276354910E+01 -0.87151315356E+01  0.31820797170E+01  0.11822579717E+02  0.51100000000E-03 0. -1.
        -11    1    3    3    0    0 -0.12550287682E+02 -0.25101559683E+02 -0.13198289143E+02  0.31012785363E+02  0.51100000000E-03 0.  1.
        -12    1    3    3    0    0 -0.43684048024E+01  0.45984279883E-02 -0.23320674421E+01  0.49519208614E+01  0.00000000000E+00 0.  1.
</event>
<event>
 7    1  0.5426550E-010  0.4778728E+02  0.7816164E-02  0.1312668E+00
        -11   -1    0    0    0    0  0.00000000000E+00  0.00000000000E+00  0.45593999997E+02  0.45594000000E+02  0.51100000000E-03 0. -1.
         11   -1    0    0    0    0 -0.00000000000E+00 -0.00000000000E+00 -0.45593999997E+02  0.45594000000E+02  0.51100000000E-03 0.  1.
    9900012    2    1    2    0    0 -0.70210970664E+01 -0.72413907920E+01 -0.42212422656E+02  0.47787283749E+02  0.20000057926E+02 0.  0.
         12    1    1    2    0    0  0.70210970664E+01  0.72413907920E+01  0.42212422656E+02  0.43400716251E+02  0.00000000000E+00 0. -1.
         11    1    3    3    0    0  0.54852100535E+00 -0.59654666844E+01 -0.27594992651E+02  0.28237763504E+02  0.51100000000E-03 0.  1.
        -11    1    3    3    0    0 -0.10241232955E+02 -0.99590846652E+00 -0.11818727448E+02  0.15670258609E+02  0.51100000000E-03 0. -1.
        -12    1    3    3    0    0  0.26716148829E+01 -0.28001564110E+00 -0.27987025567E+01  0.38792616363E+01  0.00000000000E+00 0.  1.
</event>
<event>
 7    1  0.5426550E-010  0.4778727E+02  0.7816164E-02  0.1312668E+00
        -11   -1    0    0    0    0  0.00000000000E+00  0.00000000000E+00  0.45593999997E+02  0.45594000000E+02  0.51100000000E-03 0.  1.
         11   -1    0    0    0    0 -0.00000000000E+00 -0.00000000000E+00 -0.45593999997E+02  0.45594000000E+02  0.51100000000E-03 0. -1.
    9900012    2    1    2    0    0  0.42699476822E+01  0.41760605490E+02  0.11020115208E+02  0.47787267710E+02  0.19999984796E+02 0.  0.
         12    1    1    2    0    0 -0.42699476822E+01 -0.41760605490E+02 -0.11020115208E+02  0.43400732290E+02  0.00000000000E+00 0. -1.
         11    1    3    3    0    0  0.22794911992E+01  0.10453988321E+02 -0.56454770383E+01  0.12097659410E+02  0.51100000000E-03 0. -1.
        -11    1    3    3    0    0  0.68507302113E+00  0.27151109010E+02  0.13693520597E+02  0.30416517751E+02  0.51100000000E-03 0.  1.
         12    1    3    3    0    0  0.13053834618E+01  0.41555081598E+01  0.29720716493E+01  0.52730905489E+01  0.00000000000E+00 0. -1.
</event>
<event>
 7    1  0.5426550E-010  0.4778727E+02  0.7816164E-02  0.1312668E+00
        -11   -1    0    0    0    0  0.00000000000E+00  0.00000000000E+00  0.45593999997E+02  0.45594000000E+02  0.51100000000E-03 0.  1.
         11   -1    0    0    0    0 -0.00000000000E+00 -0.00000000000E+00 -0.45593999997E+02  0.45594000000E+02  0.51100000000E-03 0. -1.
    9900012    2    1    2    0    0  0.15294832504E+02  0.36104652879E+02  0.18604979577E+02  0.47787272749E+02  0.20000007772E+02 0.  0.
         12    1    1    2    0    0 -0.15294832504E+02 -0.36104652879E+02 -0.18604979577E+02  0.43400727251E+02  0.00000000000E+00 0. -1.
         11    1    3    3    0    0  0.78065569523E+01  0.30416010300E+02  0.13736194907E+02  0.34274758421E+02  0.51100000000E-03 0. -1.
        -11    1    3    3    0    0  0.59740924004E+00  0.51976079744E+01  0.32107116172E+00  0.52416708603E+01  0.51100000000E-03 0.  1.
         12    1    3    3    0    0  0.68908663121E+01  0.49103460452E+00  0.45477135085E+01  0.82708434678E+01  0.00000000000E+00 0. -1.
</event>
<event>
 7    1  0.5426550E-010  0.4778727E+02  0.7816164E-02  0.1312668E+00
        -11   -1    0    0    0    0  0.00000000000E+00  0.00000000000E+00  0.45593999997E+02  0.45594000000E+02  0.51100000000E-03 0.  1.
         11   -1    0    0    0    0 -0.00000000000E+00 -0.00000000000E+00 -0.45593999997E+02  0.45594000000E+02  0.51100000000E-03 0. -1.
    9900012    2    1    2    0    0  0.55655970171E+01 -0.91065183862E+01  0.42068023018E+02  0.47787272956E+02  0.20000008717E+02 0.  0.
         12    1    1    2    0    0 -0.55655970171E+01  0.91065183862E+01 -0.42068023018E+02  0.43400727044E+02  0.00000000000E+00 0. -1.
         11    1    3    3    0    0 -0.17105260630E+01 -0.10474327269E+01  0.20358754989E+01  0.28579370248E+01  0.51100000000E-03 0. -1.
        -11    1    3    3    0    0 -0.10015103158E+00 -0.11990570656E+02  0.22052092216E+02  0.25101366223E+02  0.51100000000E-03 0.  1.
        -12    1    3    3    0    0  0.73762741116E+01  0.39314849972E+01  0.17980055303E+02  0.19827969708E+02  0.00000000000E+00 0.  1.
</event>
<event>
 7    1  0.5426550E-010  0.4778727E+02  0.7816164E-02  0.1312668E+00
        -11   -1    0    0    0    0  0.00000000000E+00  0.00000000000E+00  0.45593999997E+02  0.45594000000E+02  0.51100000000E-03 0.  1.
         11   -1    0    0    0    0 -0.00000000000E+00 -0.00000000000E+00 -0.45593999997E+02  0.45594000000E+02  0.51100000000E-03 0. -1.
    9900012    2    1    2    0    0 -0.27251822773E+02 -0.32410029121E+01  0.33622276734E+02  0.47787269164E+02  0.19999991427E+02 0.  0.
         12    1    1    2    0    0  0.27251822773E+02  0.32410029121E+01 -0.33622276734E+02  0.43400730836E+02  0.00000000000E+00 0. -1.
         11    1    3    3    0    0  0.33672895447E+00 -0.22596519733E+01 -0.15370361643E+00  0.22897682179E+01  0.51100000000E-03 0. -1.
        -11    1    3    3    0    0 -0.18816054157E+02 -0.47944360229E+01  0.28747954215E+02  0.34691142711E+02  0.51100000000E-03 0.  1.
        -12    1    3    3    0    0 -0.87724975708E+01  0.38130850840E+01  0.50280261355E+01  0.10806358235E+02  0.00000000000E+00 0.  1.
</event>
<event>
 7    1  0.5426550E-010  0.4778728E+02  0.7816164E-02  0.1312668E+00
        -11   -1    0    0    0    0  0.00000000000E+00  0.00000000000E+00  0.45593999997E+02  0.45594000000E+02  0.51100000000E-03 0.  1.
         11   -1    0    0    0    0 -0.00000000000E+00 -0.00000000000E+00 -0.45593999997E+02  0.45594000000E+02  0.51100000000E-03 0. -1.
    9900012    2    1    2    0    0 -0.91648375031E+01  0.38744918424E+02  0.17275986295E+02  0.47787278202E+02  0.20000032632E+02 0.  0.
         12    1    1    2    0    0  0.91648375031E+01 -0.38744918424E+02 -0.17275986295E+02  0.43400721798E+02  0.00000000000E+00 0. -1.
         11    1    3    3    0    0 -0.77451708433E+01  0.15394729156E+02  0.72629725414E+01  0.18701233317E+02  0.51100000000E-03 0. -1.
        -11    1    3    3    0    0  0.34926484573E+01  0.46430887649E+00  0.30637106423E+01  0.46691004637E+01  0.51100000000E-03 0.  1.
        -12    1    3    3    0    0 -0.49123151170E+01  0.22885880392E+02  0.69493031114E+01  0.24416944421E+02  0.00000000000E+00 0.  1.
</event>
<event>
 7    1  0.5426550E-010  0.4778727E+02  0.7816164E-02  0.1312668E+00
        -11   -1    0    0    0    0  0.00000000000E+00  0.00000000000E+00  0.45593999997E+02  0.45594000000E+02  0.51100000000E-03 0.  1.
         11   -1    0    0    0    0 -0.00000000000E+00 -0.00000000000E+00 -0.45593999997E+02  0.45594000000E+02  0.51100000000E-03 0. -1.
    9900012    2    1    2    0    0  0.55030509197E+01  0.30972619673E+02  0.29900439832E+02  0.47787273728E+02  0.20000012233E+02 0.  0.
         12    1    1    2    0    0 -0.55030509197E+01 -0.30972619673E+02 -0.29900439832E+02  0.43400726272E+02  0.00000000000E+00 0. -1.
         11    1    3    3    0    0 -0.30320922286E+01  0.28626513030E+01 -0.52283241826E+00  0.42025837010E+01  0.51100000000E-03 0. -1.
        -11    1    3    3    0    0  0.85151816890E+01  0.17105200767E+02  0.13490177982E+02  0.23389765171E+02  0.51100000000E-03 0.  1.
         12    1    3    3    0    0  0.19961459176E-01  0.11004767603E+02  0.16933094268E+02  0.20194924856E+02  0.00000000000E+00 0. -1.
</event>
<event>
 7    1  0.5426550E-010  0.4778727E+02  0.7816164E-02  0.1312668E+00
        -11   -1    0    0    0    0  0.00000000000E+00  0.00000000000E+00  0.45593999997E+02  0.45594000000E+02  0.51100000000E-03 0. -1.
         11   -1    0    0    0    0 -0.00000000000E+00 -0.00000000000E+00 -0.45593999997E+02  0.45594000000E+02  0.51100000000E-03 0.  1.
    9900012    2    1    2    0    0 -0.30174820788E+02  0.31185166051E+02 -0.76757054686E+00  0.47787267797E+02  0.19999985191E+02 0.  0.
         12    1    1    2    0    0  0.30174820788E+02 -0.31185166051E+02  0.76757054686E+00  0.43400732203E+02  0.00000000000E+00 0. -1.
         11    1    3    3    0    0 -0.49689720746E+01  0.48996181027E+01  0.61087870209E+01  0.92743851634E+01  0.51100000000E-03 0. -1.
        -11    1    3    3    0    0 -0.16897748536E+02  0.19885822015E+02 -0.93813743004E+01  0.27730669066E+02  0.51100000000E-03 0.  1.
        -12    1    3    3    0    0 -0.83081001774E+01  0.63997259334E+01  0.25050167326E+01  0.10782213567E+02  0.00000000000E+00 0.  1.
</event>
<event>
 7    1  0.5426550E-010  0.4778727E+02  0.7816164E-02  0.1312668E+00
        -11   -1    0    0    0    0  0.00000000000E+00  0.00000000000E+00  0.45593999997E+02  0.45594000000E+02  0.51100000000E-03 0.  1.
         11   -1    0    0    0    0 -0.00000000000E+00 -0.00000000000E+00 -0.45593999997E+02  0.45594000000E+02  0.51100000000E-03 0. -1.
    9900012    2    1    2    0    0 -0.17679156307E+02 -0.14548381834E+02  0.36870246560E+02  0.47787273473E+02  0.20000011073E+02 0.  0.
         12    1    1    2    0    0  0.17679156307E+02  0.14548381834E+02 -0.36870246560E+02  0.43400726527E+02  0.00000000000E+00 0. -1.
         11    1    3    3    0    0 -0.55230932179E+01  0.20666631659E+01  0.65190272758E+01  0.87905274141E+01  0.51100000000E-03 0. -1.
        -11    1    3    3    0    0 -0.74963200918E+01 -0.18094845236E+02  0.23824845873E+02  0.30842203555E+02  0.51100000000E-03 0.  1.
        -12    1    3    3    0    0 -0.46597429973E+01  0.14798002365E+01  0.65263734111E+01  0.81545425035E+01  0.00000000000E+00 0.  1.
</event>
<event>
 7    1  0.5426550E-010  0.4778726E+02  0.7816164E-02  0.1312668E+00
        -11   -1    0    0    0    0  0.00000000000E+00  0.00000000000E+00  0.45593999997E+02  0.45594000000E+02  0.51100000000E-03 0. -1.
         11   -1    0    0    0    0 -0.00000000000E+00 -0.00000000000E+00 -0.45593999997E+02  0.45594000000E+02  0.51100000000E-03 0.  1.
    9900012    2    1    2    0    0 -0.37515381208E+02 -0.89506068469E+01 -0.19902430123E+02  0.47787263659E+02  0.19999966328E+02 0.  0.
         12    1    1    2    0    0  0.37515381208E+02  0.89506068469E+01  0.19902430123E+02  0.43400736341E+02  0.00000000000E+00 0. -1.
         11    1    3    3    0    0 -0.10013078193E+02 -0.42640294076E+01  0.24801476306E+01  0.11162204721E+02  0.51100000000E-03 0. -1.
        -11    1    3    3    0    0 -0.16499529900E+02  0.60213089290E+00 -0.15309680849E+02  0.22516291358E+02  0.51100000000E-03 0.  1.
        -12    1    3    3    0    0 -0.11002773115E+02 -0.52887083322E+01 -0.70728969041E+01  0.14108767581E+02  0.00000000000E+00 0.  1.
</event>
<event>
 7    1  0.5426550E-010  0.4778727E+02  0.7816164E-02  0.1312668E+00
        -11   -1    0    0    0    0  0.00000000000E+00  0.00000000000E+00  0.45593999997E+02  0.45594000000E+02  0.51100000000E-03 0.  1.
         11   -1    0    0    0    0 -0.00000000000E+00 -0.00000000000E+00 -0.45593999997E+02  0.45594000000E+02  0.51100000000E-03 0. -1.
    9900012    2    1    2    0    0  0.10101568491E+02  0.39418164825E+02  0.15092719548E+02  0.47787267431E+02  0.19999983525E+02 0.  0.
         12    1    1    2    0    0 -0.10101568491E+02 -0.39418164825E+02 -0.15092719548E+02  0.43400732569E+02  0.00000000000E+00 0. -1.
         11    1    3    3    0    0  0.13210083421E+02  0.18474014103E+02  0.83182945191E+01  0.24186556701E+02  0.51100000000E-03 0. -1.
        -11    1    3    3    0    0  0.65168692632E+00  0.27557994361E+01 -0.15716243966E+01  0.32386926200E+01  0.51100000000E-03 0.  1.
         12    1    3    3    0    0 -0.37602018566E+01  0.18188351286E+02  0.83460494253E+01  0.20362018110E+02  0.00000000000E+00 0. -1.
</event>
<event>
 7    1  0.5426550E-010  0.4778727E+02  0.7816164E-02  0.1312668E+00
        -11   -1    0    0    0    0  0.00000000000E+00  0.00000000000E+00  0.45593999997E+02  0.45594000000E+02  0.51100000000E-03 0.  1.
         11   -1    0    0    0    0 -0.00000000000E+00 -0.00000000000E+00 -0.45593999997E+02  0.45594000000E+02  0.51100000000E-03 0. -1.
    9900012    2    1    2    0    0  0.33852018906E+02 -0.11766788554E+02  0.24478701421E+02  0.47787270511E+02  0.19999997567E+02 0.  0.
         12    1    1    2    0    0 -0.33852018906E+02  0.11766788554E+02 -0.24478701421E+02  0.43400729489E+02  0.00000000000E+00 0. -1.
         11    1    3    3    0    0  0.16024023831E+02 -0.11936086224E+01  0.48978121333E+01  0.16798291735E+02  0.51100000000E-03 0. -1.
        -11    1    3    3    0    0  0.16257831242E+02 -0.13167398806E+02  0.17824000751E+02  0.27484404142E+02  0.51100000000E-03 0.  1.
        -12    1    3    3    0    0  0.15701638338E+01  0.25942188741E+01  0.17568885372E+01  0.35045746338E+01  0.00000000000E+00 0.  1.
</event>
<event>
 7    1  0.5426550E-010  0.4778727E+02  0.7816164E-02  0.1312668E+00
        -11   -1    0    0    0    0  0.00000000000E+00  0.00000000000E+00  0.45593999997E+02  0.45594000000E+02  0.51100000000E-03 0. -1.
         11   -1    0    0    0    0 -0.00000000000E+00 -0.00000000000E+00 -0.45593999997E+02  0.45594000000E+02  0.51100000000E-03 0.  1.
    9900012    2    1    2    0    0  0.11963328113E+02  0.33356041491E+02 -0.25057465679E+02  0.47787270631E+02  0.19999998113E+02 0.  0.
         12    1    1    2    0    0 -0.11963328113E+02 -0.33356041491E+02  0.25057465679E+02  0.43400729369E+02  0.00000000000E+00 0. -1.
         11    1    3    3    0    0  0.29271005889E+01  0.70116478067E+01  0.29088130269E+01  0.81358660454E+01  0.51100000000E-03 0. -1.
        -11    1    3    3    0    0  0.93484598868E+01  0.24227096146E+02 -0.25760643447E+02  0.36578089630E+02  0.51100000000E-03 0.  1.
         12    1    3    3    0    0 -0.31223236261E+00  0.21172975390E+01 -0.22056352595E+01  0.30733149554E+01  0.00000000000E+00 0. -1.
</event>
<event>
 7    1  0.5426550E-010  0.4778727E+02  0.7816164E-02  0.1312668E+00
        -11   -1    0    0    0    0  0.00000000000E+00  0.00000000000E+00  0.45593999997E+02  0.45594000000E+02  0.51100000000E-03 0.  1.
         11   -1    0    0    0    0 -0.00000000000E+00 -0.00000000000E+00 -0.45593999997E+02  0.45594000000E+02  0.51100000000E-03 0. -1.
    9900012    2    1    2    0    0 -0.11213781116E+01  0.30065008522E+02  0.31280362026E+02  0.47787271034E+02  0.19999999954E+02 0.  0.
         12    1    1    2    0    0  0.11213781116E+01 -0.30065008522E+02 -0.31280362026E+02  0.43400728966E+02  0.00000000000E+00 0. -1.
         11    1    3    3    0    0  0.89592250045E+01  0.15230060258E+02  0.17331842552E+02  0.24751064920E+02  0.51100000000E-03 0.  1.
        -11    1    3    3    0    0 -0.75962935409E+01  0.89462955224E+01  0.10630502353E+02  0.15835007410E+02  0.51100000000E-03 0. -1.
        -12    1    3    3    0    0 -0.24843095753E+01  0.58886527412E+01  0.33180171204E+01  0.72011987046E+01  0.00000000000E+00 0.  1.
</event>
<event>
 7    1  0.5426550E-010  0.4778727E+02  0.7816164E-02  0.1312668E+00
        -11   -1    0    0    0    0  0.00000000000E+00  0.00000000000E+00  0.45593999997E+02  0.45594000000E+02  0.51100000000E-03 0. -1.
         11   -1    0    0    0    0 -0.00000000000E+00 -0.00000000000E+00 -0.45593999997E+02  0.45594000000E+02  0.51100000000E-03 0.  1.
    9900012    2    1    2    0    0 -0.30342480353E+02 -0.87771427210E+01 -0.29764384556E+02  0.47787274933E+02  0.20000017729E+02 0.  0.
         12    1    1    2    0    0  0.30342480353E+02  0.87771427210E+01  0.29764384556E+02  0.43400725067E+02  0.00000000000E+00 0. -1.
         11    1    3    3    0    0 -0.24458319659E+01  0.18147544276E+00  0.23128400138E+01  0.33710912970E+01  0.51100000000E-03 0. -1.
        -11    1    3    3    0    0 -0.24793337277E+02 -0.46249940996E+01 -0.28147768512E+02  0.37794139972E+02  0.51100000000E-03 0.  1.
         12    1    3    3    0    0 -0.31033111104E+01 -0.43336240641E+01 -0.39294560581E+01  0.66220436641E+01  0.00000000000E+00 0. -1.
</event>
<event>
 7    1  0.5426550E-010  0.4778728E+02  0.7816164E-02  0.1312668E+00
        -11   -1    0    0    0    0  0.00000000000E+00  0.00000000000E+00  0.45593999997E+02  0.45594000000E+02  0.51100000000E-03 0.  1.
         11   -1    0    0    0    0 -0.00000000000E+00 -0.00000000000E+00 -0.45593999997E+02  0.45594000000E+02  0.51100000000E-03 0. -1.
    9900012    2    1    2    0    0  0.20135732412E+02 -0.37280850514E+02  0.93975107456E+01  0.47787277160E+02  0.20000027882E+02 0.  0.
         12    1    1    2    0    0 -0.20135732412E+02  0.37280850514E+02 -0.93975107456E+01  0.43400722840E+02  0.00000000000E+00 0. -1.
         11    1    3    3    0    0  0.12652120468E+02 -0.58754629963E+01  0.17994352312E+01  0.14065389621E+02  0.51100000000E-03 0. -1.
        -11    1    3    3    0    0  0.91688853956E+00 -0.14706728166E+02  0.51647872762E+01  0.15614210381E+02  0.51100000000E-03 0.  1.
        -12    1    3    3    0    0  0.65667234039E+01 -0.16698659352E+02  0.24332882382E+01  0.18107677158E+02  0.00000000000E+00 0.  1.
</event>
<event>
 7    1  0.5426550E-010  0.4778727E+02  0.7816164E-02  0.1312668E+00
        -11   -1    0    0    0    0  0.00000000000E+00  0.00000000000E+00  0.45593999997E+02  0.45594000000E+02  0.51100000000E-03 0.  1.
         11   -1    0    0    0    0 -0.00000000000E+00 -0.00000000000E+00 -0.45593999997E+02  0.45594000000E+02  0.51100000000E-03 0. -1.
    9900012    2    1    2    0    0 -0.18450673328E+02  0.31865795966E+02  0.22973188421E+02  0.47787266307E+02  0.19999978401E+02 0.  0.
         12    1    1    2    0    0  0.18450673328E+02 -0.31865795966E+02 -0.22973188421E+02  0.43400733693E+02  0.00000000000E+00 0. -1.
         11    1    3    3    0    0 -0.10110870590E+02  0.25090034818E+02  0.10693745092E+02  0.29087724827E+02  0.51100000000E-03 0. -1.
        -11    1    3    3    0    0 -0.66933494966E+01  0.87837953786E+01  0.11598463360E+02  0.16015003631E+02  0.51100000000E-03 0.  1.
         12    1    3    3    0    0 -0.16464532411E+01 -0.20080342300E+01  0.68097997008E+00  0.26845378492E+01  0.00000000000E+00 0. -1.
</event>
<event>
 7    1  0.5426550E-010  0.4778728E+02  0.7816164E-02  0.1312668E+00
        -11   -1    0    0    0    0  0.00000000000E+00  0.00000000000E+00  0.45593999997E+02  0.45594000000E+02  0.51100000000E-03 0.  1.
         11   -1    0    0    0    0 -0.00000000000E+00 -0.00000000000E+00 -0.45593999997E+02  0.45594000000E+02  0.51100000000E-03 0. -1.
    9900012    2    1    2    0    0 -0.94196861068E+01 -0.65854609983E+01  0.41851211655E+02  0.47787277657E+02  0.20000030150E+02 0.  0.
         12    1    1    2    0    0  0.94196861068E+01  0.65854609983E+01 -0.41851211655E+02  0.43400722343E+02  0.00000000000E+00 0. -1.
         11    1    3    3    0    0  0.12125147830E+00 -0.86192214052E+01  0.10108028107E+02  0.13284498938E+02  0.51100000000E-03 0. -1.
        -11    1    3    3    0    0 -0.22665066504E+01  0.32688391126E+01  0.21580347113E+02  0.21943877126E+02  0.51100000000E-03 0.  1.
         12    1    3    3    0    0 -0.72744309347E+01 -0.12350787057E+01  0.10162836435E+02  0.12558901593E+02  0.00000000000E+00 0. -1.
</event>
<event>
 7    1  0.6105015E-010  0.4778728E+02  0.7816164E-02  0.1312668E+00
        -11   -1    0    0    0    0  0.00000000000E+00  0.00000000000E+00  0.45593999997E+02  0.45594000000E+02  0.51100000000E-03 0. -1.
         11   -1    0    0    0    0 -0.00000000000E+00 -0.00000000000E+00 -0.45593999997E+02  0.45594000000E+02  0.51100000000E-03 0.  1.
    9900012    2    1    2    0    0 -0.85498917931E+01 -0.18306961877E+02 -0.38410634743E+02  0.47787281524E+02  0.20000047782E+02 0.  0.
         12    1    1    2    0    0  0.85498917931E+01  0.18306961877E+02  0.38410634743E+02  0.43400718476E+02  0.00000000000E+00 0. -1.
         11    1    3    3    0    0  0.51053691684E+01 -0.23819611983E+01 -0.71043054067E+01  0.90669558877E+01  0.51100000000E-03 0. -1.
        -11    1    3    3    0    0 -0.10334012775E+02 -0.58909722090E+01 -0.13318981050E+02  0.17857509067E+02  0.51100000000E-03 0.  1.
        -12    1    3    3    0    0 -0.33212481860E+01 -0.10034028470E+02 -0.17987348286E+02  0.20862816570E+02  0.00000000000E+00 0.  1.
</event>
<event>
 7    1  0.5426550E-010  0.4778727E+02  0.7816164E-02  0.1312668E+00
        -11   -1    0    0    0    0  0.00000000000E+00  0.00000000000E+00  0.45593999997E+02  0.45594000000E+02  0.51100000000E-03 0. -1.
         11   -1    0    0    0    0 -0.00000000000E+00 -0.00000000000E+00 -0.45593999997E+02  0.45594000000E+02  0.51100000000E-03 0.  1.
    9900012    2    1    2    0    0 -0.37985886406E+02  0.16329742099E+02 -0.13192248676E+02  0.47787268805E+02  0.19999989792E+02 0.  0.
         12    1    1    2    0    0  0.37985886406E+02 -0.16329742099E+02  0.13192248676E+02  0.43400731195E+02  0.00000000000E+00 0. -1.
         11    1    3    3    0    0 -0.16832344120E+02  0.55156636476E+00 -0.21742442219E+01  0.16981147553E+02  0.51100000000E-03 0. -1.
        -11    1    3    3    0    0 -0.16841625467E+02  0.13342262197E+02 -0.13387937043E+02  0.25315867898E+02  0.51100000000E-03 0.  1.
        -12    1    3    3    0    0 -0.43119168190E+01  0.24359135372E+01  0.23699325889E+01  0.54902533540E+01  0.00000000000E+00 0.  1.
</event>
<event>
 7    1  0.5426550E-010  0.4778724E+02  0.7816164E-02  0.1312668E+00
        -11   -1    0    0    0    0  0.00000000000E+00  0.00000000000E+00  0.45593999997E+02  0.45594000000E+02  0.51100000000E-03 0. -1.
         11   -1    0    0    0    0 -0.00000000000E+00 -0.00000000000E+00 -0.45593999997E+02  0.45594000000E+02  0.51100000000E-03 0.  1.
    9900012    2    1    2    0    0  0.37412144553E+02  0.55781950086E+01  0.21280070819E+02  0.47787236946E+02  0.19999844529E+02 0.  0.
         12    1    1    2    0    0 -0.37412144553E+02 -0.55781950086E+01 -0.21280070819E+02  0.43400763054E+02  0.00000000000E+00 0. -1.
         11    1    3    3    0    0  0.25729940788E+02 -0.37789288236E+01  0.13937347747E+02  0.29505250693E+02  0.51100000000E-03 0. -1.
        -11    1    3    3    0    0  0.53362914628E+01  0.13626072599E+00  0.10480186098E+01  0.54399372082E+01  0.51100000000E-03 0.  1.
         12    1    3    3    0    0  0.63459123028E+01  0.92208631062E+01  0.62947044627E+01  0.12842049044E+02  0.00000000000E+00 0. -1.
</event>
<event>
 7    1  0.5426550E-010  0.4778727E+02  0.7816164E-02  0.1312668E+00
        -11   -1    0    0    0    0  0.00000000000E+00  0.00000000000E+00  0.45593999997E+02  0.45594000000E+02  0.51100000000E-03 0.  1.
         11   -1    0    0    0    0 -0.00000000000E+00 -0.00000000000E+00 -0.45593999997E+02  0.45594000000E+02  0.51100000000E-03 0. -1.
    9900012    2    1    2    0    0 -0.58992411491E+01  0.42930677509E+02  0.24040619736E+01  0.47787266924E+02  0.19999981214E+02 0.  0.
         12    1    1    2    0    0  0.58992411491E+01 -0.42930677509E+02 -0.24040619736E+01  0.43400733076E+02  0.00000000000E+00 0. -1.
         11    1    3    3    0    0  0.52247505602E+01  0.15711707982E+02  0.44233360428E+01  0.17138310539E+02  0.51100000000E-03 0. -1.
        -11    1    3    3    0    0 -0.45719099491E-01  0.79276311479E+01 -0.27494220132E+01  0.83909920463E+01  0.51100000000E-03 0.  1.
         12    1    3    3    0    0 -0.11078272610E+02  0.19291338379E+02  0.73014794403E+00  0.22257964339E+02  0.00000000000E+00 0. -1.
</event>
<event>
 7    1  0.5426550E-010  0.4778733E+02  0.7816164E-02  0.1312667E+00
        -11   -1    0    0    0    0  0.00000000000E+00  0.00000000000E+00  0.45593999997E+02  0.45594000000E+02  0.51100000000E-03 0.  1.
         11   -1    0    0    0    0 -0.00000000000E+00 -0.00000000000E+00 -0.45593999997E+02  0.45594000000E+02  0.51100000000E-03 0. -1.
    9900012    2    1    2    0    0  0.17174357254E+02 -0.29186613919E+01  0.39750984969E+02  0.47787332523E+02  0.20000280303E+02 0.  0.
         12    1    1    2    0    0 -0.17174357254E+02  0.29186613919E+01 -0.39750984969E+02  0.43400667477E+02  0.00000000000E+00 0. -1.
         11    1    3    3    0    0  0.54410869645E+00 -0.81585965572E+01  0.11594634164E+02  0.14187822022E+02  0.51100000000E-03 0. -1.
        -11    1    3    3    0    0  0.16357772572E+02  0.37218713390E+01  0.25372886920E+02  0.30417304954E+02  0.51100000000E-03 0.  1.
         12    1    3    3    0    0  0.27247598634E+00  0.15180638263E+01  0.27834638850E+01  0.31822055470E+01  0.00000000000E+00 0. -1.
</event>
<event>
 7    1  0.5426550E-010  0.4778727E+02  0.7816164E-02  0.1312668E+00
        -11   -1    0    0    0    0  0.00000000000E+00  0.00000000000E+00  0.45593999997E+02  0.45594000000E+02  0.51100000000E-03 0.  1.
         11   -1    0    0    0    0 -0.00000000000E+00 -0.00000000000E+00 -0.45593999997E+02  0.45594000000E+02  0.51100000000E-03 0. -1.
    9900012    2    1    2    0    0  0.23722884557E+02  0.22661182795E+02  0.28413357294E+02  0.47787270397E+02  0.19999997048E+02 0.  0.
         12    1    1    2    0    0 -0.23722884557E+02 -0.22661182795E+02 -0.28413357294E+02  0.43400729603E+02  0.00000000000E+00 0. -1.
         11    1    3    3    0    0  0.65153487833E+00  0.42703615950E+01 -0.23326224784E+01  0.49093394401E+01  0.51100000000E-03 0. -1.
        -11    1    3    3    0    0  0.17478600509E+02  0.13377431360E+02  0.19818215415E+02  0.29617879871E+02  0.51100000000E-03 0.  1.
         12    1    3    3    0    0  0.55927491701E+01  0.50133898400E+01  0.10927764357E+02  0.13260051086E+02  0.00000000000E+00 0. -1.
</event>
<event>
 7    1  0.5426550E-010  0.4778727E+02  0.7816164E-02  0.1312668E+00
        -11   -1    0    0    0    0  0.00000000000E+00  0.00000000000E+00  0.45593999997E+02  0.45594000000E+02  0.51100000000E-03 0.  1.
         11   -1    0    0    0    0 -0.00000000000E+00 -0.00000000000E+00 -0.45593999997E+02  0.45594000000E+02  0.51100000000E-03 0. -1.
    9900012    2    1    2    0    0 -0.19530035602E+02  0.20122534597E+02  0.33125290670E+02  0.47787267620E+02  0.19999984384E+02 0.  0.
         12    1    1    2    0    0  0.19530035602E+02 -0.20122534597E+02 -0.33125290670E+02  0.43400732380E+02  0.00000000000E+00 0. -1.
         11    1    3    3    0    0  0.10835725519E+01  0.98312851644E+01  0.74412196754E+01  0.12377400696E+02  0.51100000000E-03 0. -1.
        -11    1    3    3    0    0 -0.18644150669E+02  0.90825118889E+01  0.25793054270E+02  0.33096495664E+02  0.51100000000E-03 0.  1.
         12    1    3    3    0    0 -0.19694574851E+01  0.12087375433E+01 -0.10898327556E+00  0.23133712604E+01  0.00000000000E+00 0. -1.
</event>
<event>
 7    1  0.5426550E-010  0.4778727E+02  0.7816164E-02  0.1312668E+00
        -11   -1    0    0    0    0  0.00000000000E+00  0.00000000000E+00  0.45593999997E+02  0.45594000000E+02  0.51100000000E-03 0.  1.
         11   -1    0    0    0    0 -0.00000000000E+00 -0.00000000000E+00 -0.45593999997E+02  0.45594000000E+02  0.51100000000E-03 0. -1.
    9900012    2    1    2    0    0  0.34223084769E+02 -0.16557233681E+02  0.20934704143E+02  0.47787270100E+02  0.19999995696E+02 0.  0.
         12    1    1    2    0    0 -0.34223084769E+02  0.16557233681E+02 -0.20934704143E+02  0.43400729900E+02  0.00000000000E+00 0. -1.
         11    1    3    3    0    0  0.11614221467E+02 -0.15604347145E+02  0.56839631814E+01  0.20265567542E+02  0.51100000000E-03 0. -1.
        -11    1    3    3    0    0  0.19518866882E+02 -0.11790673673E+00  0.11771306112E+02  0.22793940295E+02  0.51100000000E-03 0.  1.
         12    1    3    3    0    0  0.30899964198E+01 -0.83497979959E+00  0.34794348494E+01  0.47277622626E+01  0.00000000000E+00 0. -1.
</event>
<event>
 7    1  0.5426550E-010  0.4778728E+02  0.7816164E-02  0.1312668E+00
        -11   -1    0    0    0    0  0.00000000000E+00  0.00000000000E+00  0.45593999997E+02  0.45594000000E+02  0.51100000000E-03 0. -1.
         11   -1    0    0    0    0 -0.00000000000E+00 -0.00000000000E+00 -0.45593999997E+02  0.45594000000E+02  0.51100000000E-03 0.  1.
    9900012    2    1    2    0    0  0.24040809436E+02 -0.76308105440E+01 -0.35319016600E+02  0.47787277408E+02  0.20000029014E+02 0.  0.
         12    1    1    2    0    0 -0.24040809436E+02  0.76308105440E+01  0.35319016600E+02  0.43400722592E+02  0.00000000000E+00 0. -1.
         11    1    3    3    0    0  0.12400883960E+02 -0.80086483691E+01 -0.27603626528E+02  0.31303044092E+02  0.51100000000E-03 0. -1.
        -11    1    3    3    0    0  0.11620219754E+02  0.23027916838E+01 -0.83090539826E+01  0.14469717862E+02  0.51100000000E-03 0.  1.
         12    1    3    3    0    0  0.19705722958E-01 -0.19249538587E+01  0.59366391068E+00  0.20145154535E+01  0.00000000000E+00 0. -1.
</event>
<event>
 7    1  0.5426550E-010  0.4778728E+02  0.7816164E-02  0.1312668E+00
        -11   -1    0    0    0    0  0.00000000000E+00  0.00000000000E+00  0.45593999997E+02  0.45594000000E+02  0.51100000000E-03 0.  1.
         11   -1    0    0    0    0 -0.00000000000E+00 -0.00000000000E+00 -0.45593999997E+02  0.45594000000E+02  0.51100000000E-03 0. -1.
    9900012    2    1    2    0    0 -0.13604122910E+02 -0.16725712042E+01  0.41179519755E+02  0.47787279939E+02  0.20000040554E+02 0.  0.
         12    1    1    2    0    0  0.13604122910E+02  0.16725712042E+01 -0.41179519755E+02  0.43400720061E+02  0.00000000000E+00 0. -1.
         11    1    3    3    0    0 -0.44778887355E+01  0.88383428539E+01  0.16279012724E+02  0.19057125898E+02  0.51100000000E-03 0. -1.
        -11    1    3    3    0    0 -0.52750168250E+01 -0.83273312899E+01  0.18224065097E+02  0.20719237386E+02  0.51100000000E-03 0.  1.
         12    1    3    3    0    0 -0.38512173494E+01 -0.21835827682E+01  0.66764419332E+01  0.80109166557E+01  0.00000000000E+00 0. -1.
</event>
<event>
 7    1  0.5426550E-010  0.4778725E+02  0.7816164E-02  0.1312668E+00
        -11   -1    0    0    0    0  0.00000000000E+00  0.00000000000E+00  0.45593999997E+02  0.45594000000E+02  0.51100000000E-03 0. -1.
         11   -1    0    0    0    0 -0.00000000000E+00 -0.00000000000E+00 -0.45593999997E+02  0.45594000000E+02  0.51100000000E-03 0.  1.
    9900012    2    1    2    0    0 -0.75011633269E+01  0.33359633085E+02  0.26729996781E+02  0.47787247717E+02  0.19999893641E+02 0.  0.
         12    1    1    2    0    0  0.75011633269E+01 -0.33359633085E+02 -0.26729996781E+02  0.43400752283E+02  0.00000000000E+00 0. -1.
         11    1    3    3    0    0 -0.73211713243E+01  0.65614050678E+01  0.68459493331E+01  0.11979925232E+02  0.51100000000E-03 0. -1.
        -11    1    3    3    0    0 -0.44850334902E+00  0.25271320976E+02  0.21775383295E+02  0.33361776586E+02  0.51100000000E-03 0.  1.
         12    1    3    3    0    0  0.26851134647E+00  0.15269070417E+01 -0.18913358474E+01  0.24455458991E+01  0.00000000000E+00 0. -1.
</event>
<event>
 7    1  0.5426550E-010  0.4778727E+02  0.7816164E-02  0.1312668E+00
        -11   -1    0    0    0    0  0.00000000000E+00  0.00000000000E+00  0.45593999997E+02  0.45594000000E+02  0.51100000000E-03 0.  1.
         11   -1    0    0    0    0 -0.00000000000E+00 -0.00000000000E+00 -0.45593999997E+02  0.45594000000E+02  0.51100000000E-03 0. -1.
    9900012    2    1    2    0    0 -0.26782801117E+02  0.20597067089E+02  0.27240882361E+02  0.47787270972E+02  0.19999999669E+02 0.  0.
         12    1    1    2    0    0  0.26782801117E+02 -0.20597067089E+02 -0.27240882361E+02  0.43400729028E+02  0.00000000000E+00 0. -1.
         11    1    3    3    0    0 -0.83241705033E+01 -0.16623872799E+01  0.43741915096E+01  0.95492878090E+01  0.51100000000E-03 0. -1.
        -11    1    3    3    0    0 -0.17392322587E+02  0.14047087346E+02  0.16259813458E+02  0.27644078603E+02  0.51100000000E-03 0.  1.
         12    1    3    3    0    0 -0.10663080276E+01  0.82123670227E+01  0.66068773931E+01  0.10593904559E+02  0.00000000000E+00 0. -1.
</event>
<event>
 7    1  0.5426550E-010  0.4778727E+02  0.7816164E-02  0.1312668E+00
        -11   -1    0    0    0    0  0.00000000000E+00  0.00000000000E+00  0.45593999997E+02  0.45594000000E+02  0.51100000000E-03 0. -1.
         11   -1    0    0    0    0 -0.00000000000E+00 -0.00000000000E+00 -0.45593999997E+02  0.45594000000E+02  0.51100000000E-03 0.  1.
    9900012    2    1    2    0    0 -0.22584601507E+02 -0.14888939111E+02 -0.33939334767E+02  0.47787272155E+02  0.20000005062E+02 0.  0.
         12    1    1    2    0    0  0.22584601507E+02  0.14888939111E+02  0.33939334767E+02  0.43400727845E+02  0.00000000000E+00 0. -1.
         11    1    3    3    0    0 -0.58353886366E+01 -0.45337891697E+01 -0.22173081884E+02  0.23372046665E+02  0.51100000000E-03 0. -1.
        -11    1    3    3    0    0 -0.12909970204E+02 -0.40165009823E+01 -0.99450730624E+01  0.16784042698E+02  0.51100000000E-03 0.  1.
         12    1    3    3    0    0 -0.38392426661E+01 -0.63386489585E+01 -0.18211798205E+01  0.76311827921E+01  0.00000000000E+00 0. -1.
</event>
<event>
 7    1  0.5426550E-010  0.4778727E+02  0.7816164E-02  0.1312668E+00
        -11   -1    0    0    0    0  0.00000000000E+00  0.00000000000E+00  0.45593999997E+02  0.45594000000E+02  0.51100000000E-03 0.  1.
         11   -1    0    0    0    0 -0.00000000000E+00 -0.00000000000E+00 -0.45593999997E+02  0.45594000000E+02  0.51100000000E-03 0. -1.
    9900012    2    1    2    0    0  0.14121949012E+01  0.17574384955E+02  0.39658162216E+02  0.47787272686E+02  0.20000007486E+02 0.  0.
         12    1    1    2    0    0 -0.14121949012E+01 -0.17574384955E+02 -0.39658162216E+02  0.43400727314E+02  0.00000000000E+00 0. -1.
         11    1    3    3    0    0  0.10357634744E+01 -0.35970725717E+01  0.25614764233E+01  0.45357357495E+01  0.51100000000E-03 0. -1.
        -11    1    3    3    0    0  0.23957918432E+01  0.19395014579E+02  0.32270544569E+02  0.37726574932E+02  0.51100000000E-03 0.  1.
        -12    1    3    3    0    0 -0.20193604164E+01  0.17764429469E+01  0.48261412245E+01  0.55249620047E+01  0.00000000000E+00 0.  1.
</event>
<event>
 7    1  0.5426550E-010  0.4778727E+02  0.7816164E-02  0.1312668E+00
        -11   -1    0    0    0    0  0.00000000000E+00  0.00000000000E+00  0.45593999997E+02  0.45594000000E+02  0.51100000000E-03 0.  1.
         11   -1    0    0    0    0 -0.00000000000E+00 -0.00000000000E+00 -0.45593999997E+02  0.45594000000E+02  0.51100000000E-03 0. -1.
    9900012    2    1    2    0    0  0.40235812725E+02 -0.15668641237E+02  0.43813341085E+01  0.47787273826E+02  0.20000012681E+02 0.  0.
         12    1    1    2    0    0 -0.40235812725E+02  0.15668641237E+02 -0.43813341085E+01  0.43400726174E+02  0.00000000000E+00 0. -1.
         11    1    3    3    0    0  0.13487475925E+02 -0.76246300120E+01 -0.64019973151E+01  0.16764025755E+02  0.51100000000E-03 0. -1.
        -11    1    3    3    0    0  0.26509413740E+02 -0.90833328074E+01  0.10392682153E+02  0.29887519039E+02  0.51100000000E-03 0.  1.
         12    1    3    3    0    0  0.23892306108E+00  0.10393215822E+01  0.39064927016E+00  0.11357290314E+01  0.00000000000E+00 0. -1.
</event>
<event>
 7    1  0.5426550E-010  0.4778727E+02  0.7816164E-02  0.1312668E+00
        -11   -1    0    0    0    0  0.00000000000E+00  0.00000000000E+00  0.45593999997E+02  0.45594000000E+02  0.51100000000E-03 0.  1.
         11   -1    0    0    0    0 -0.00000000000E+00 -0.00000000000E+00 -0.45593999997E+02  0.45594000000E+02  0.51100000000E-03 0. -1.
    9900012    2    1    2    0    0  0.10363582354E+02 -0.20477891557E+02  0.36835789669E+02  0.47787270946E+02  0.19999999552E+02 0.  0.
         12    1    1    2    0    0 -0.10363582354E+02  0.20477891557E+02 -0.36835789669E+02  0.43400729054E+02  0.00000000000E+00 0. -1.
         11    1    3    3    0    0 -0.27234082206E+01  0.95768896743E+00  0.33939561019E+01  0.44556771401E+01  0.51100000000E-03 0. -1.
        -11    1    3    3    0    0  0.13069386741E+02 -0.12279240153E+02  0.25716263228E+02  0.31351472105E+02  0.51100000000E-03 0.  1.
         12    1    3    3    0    0  0.17603834392E-01 -0.91563403718E+01  0.77255703396E+01  0.11980121701E+02  0.00000000000E+00 0. -1.
</event>
<event>
 7    1  0.5426550E-010  0.4778727E+02  0.7816164E-02  0.1312668E+00
        -11   -1    0    0    0    0  0.00000000000E+00  0.00000000000E+00  0.45593999997E+02  0.45594000000E+02  0.51100000000E-03 0.  1.
         11   -1    0    0    0    0 -0.00000000000E+00 -0.00000000000E+00 -0.45593999997E+02  0.45594000000E+02  0.51100000000E-03 0. -1.
    9900012    2    1    2    0    0 -0.40428432629E+02 -0.12746885271E+02  0.93103319939E+01  0.47787268085E+02  0.19999986505E+02 0.  0.
         12    1    1    2    0    0  0.40428432629E+02  0.12746885271E+02 -0.93103319939E+01  0.43400731915E+02  0.00000000000E+00 0. -1.
         11    1    3    3    0    0 -0.14944793336E+02 -0.11650766561E+02  0.42383103455E+01  0.19417787829E+02  0.51100000000E-03 0. -1.
        -11    1    3    3    0    0 -0.26069968219E+02  0.16215522910E-01  0.34199639139E+01  0.26293338687E+02  0.51100000000E-03 0.  1.
         12    1    3    3    0    0  0.58632892592E+00 -0.11123342335E+01  0.16520577346E+01  0.20761415691E+01  0.00000000000E+00 0. -1.
</event>
<event>
 7    1  0.5426550E-010  0.4778726E+02  0.7816164E-02  0.1312668E+00
        -11   -1    0    0    0    0  0.00000000000E+00  0.00000000000E+00  0.45593999997E+02  0.45594000000E+02  0.51100000000E-03 0.  1.
         11   -1    0    0    0    0 -0.00000000000E+00 -0.00000000000E+00 -0.45593999997E+02  0.45594000000E+02  0.51100000000E-03 0. -1.
    9900012    2    1    2    0    0 -0.34439936624E+02  0.79471921095E+01  0.25186442290E+02  0.47787262998E+02  0.19999963311E+02 0.  0.
         12    1    1    2    0    0  0.34439936624E+02 -0.79471921095E+01 -0.25186442290E+02  0.43400737002E+02  0.00000000000E+00 0. -1.
         11    1    3    3    0    0 -0.23493421979E+02  0.11056359972E+02  0.16880236679E+02  0.30969765300E+02  0.51100000000E-03 0. -1.
        -11    1    3    3    0    0 -0.59247431837E+01  0.30115613599E+01  0.45499805698E+01  0.80544650390E+01  0.51100000000E-03 0.  1.
         12    1    3    3    0    0 -0.50217714615E+01 -0.61207292220E+01  0.37562250412E+01  0.87630326589E+01  0.00000000000E+00 0. -1.
</event>
<event>
 7    1  0.5426550E-010  0.4778727E+02  0.7816164E-02  0.1312668E+00
        -11   -1    0    0    0    0  0.00000000000E+00  0.00000000000E+00  0.45593999997E+02  0.45594000000E+02  0.51100000000E-03 0. -1.
         11   -1    0    0    0    0 -0.00000000000E+00 -0.00000000000E+00 -0.45593999997E+02  0.45594000000E+02  0.51100000000E-03 0.  1.
    9900012    2    1    2    0    0 -0.29236369618E+02  0.31127803728E+02  0.77406616504E+01  0.47787270557E+02  0.19999997778E+02 0.  0.
         12    1    1    2    0    0  0.29236369618E+02 -0.31127803728E+02 -0.77406616504E+01  0.43400729443E+02  0.00000000000E+00 0. -1.
         11    1    3    3    0    0 -0.58864075756E+01  0.17533743940E+02  0.64951658795E+01  0.19602784260E+02  0.51100000000E-03 0. -1.
        -11    1    3    3    0    0 -0.17444437097E+02  0.61806749507E+01  0.22939123941E+01  0.18648623617E+02  0.51100000000E-03 0.  1.
         12    1    3    3    0    0 -0.59055249452E+01  0.74133848380E+01 -0.10484166232E+01  0.95358626799E+01  0.00000000000E+00 0. -1.
</event>
<event>
 7    1  0.5426550E-010  0.4778728E+02  0.7816164E-02  0.1312668E+00
        -11   -1    0    0    0    0  0.00000000000E+00  0.00000000000E+00  0.45593999997E+02  0.45594000000E+02  0.51100000000E-03 0.  1.
         11   -1    0    0    0    0 -0.00000000000E+00 -0.00000000000E+00 -0.45593999997E+02  0.45594000000E+02  0.51100000000E-03 0. -1.
    9900012    2    1    2    0    0 -0.33792163069E+02  0.10898483020E+02  0.24958679164E+02  0.47787275552E+02  0.20000020553E+02 0.  0.
         12    1    1    2    0    0  0.33792163069E+02 -0.10898483020E+02 -0.24958679164E+02  0.43400724448E+02  0.00000000000E+00 0. -1.
         11    1    3    3    0    0  0.31805100291E+00 -0.32596421520E+01  0.13199442964E+01  0.35311013305E+01  0.51100000000E-03 0. -1.
        -11    1    3    3    0    0 -0.22995101620E+02  0.72216947570E+01  0.13038260361E+02  0.27402989019E+02  0.51100000000E-03 0.  1.
        -12    1    3    3    0    0 -0.11115112452E+02  0.69364304150E+01  0.10600474506E+02  0.16853185203E+02  0.00000000000E+00 0.  1.
</event>
<event>
 7    1  0.5426550E-010  0.4778727E+02  0.7816164E-02  0.1312668E+00
        -11   -1    0    0    0    0  0.00000000000E+00  0.00000000000E+00  0.45593999997E+02  0.45594000000E+02  0.51100000000E-03 0.  1.
         11   -1    0    0    0    0 -0.00000000000E+00 -0.00000000000E+00 -0.45593999997E+02  0.45594000000E+02  0.51100000000E-03 0. -1.
    9900012    2    1    2    0    0 -0.21603318462E+02  0.25425384290E+01  0.37556031205E+02  0.47787270166E+02  0.19999995995E+02 0.  0.
         12    1    1    2    0    0  0.21603318462E+02 -0.25425384290E+01 -0.37556031205E+02  0.43400729834E+02  0.00000000000E+00 0. -1.
         11    1    3    3    0    0  0.39806174237E-01 -0.12686955572E+01  0.14335373174E+01  0.19147329970E+01  0.51100000000E-03 0. -1.
        -11    1    3    3    0    0 -0.49912760731E+01  0.61756219915E+01  0.25792090751E+01  0.83488600140E+01  0.51100000000E-03 0.  1.
        -12    1    3    3    0    0 -0.16651848563E+02 -0.23643880053E+01  0.33543284813E+02  0.37523677155E+02  0.00000000000E+00 0.  1.
</event>
<event>
 7    1  0.5426550E-010  0.4778727E+02  0.7816164E-02  0.1312668E+00
        -11   -1    0    0    0    0  0.00000000000E+00  0.00000000000E+00  0.45593999997E+02  0.45594000000E+02  0.51100000000E-03 0.  1.
         11   -1    0    0    0    0 -0.00000000000E+00 -0.00000000000E+00 -0.45593999997E+02  0.45594000000E+02  0.51100000000E-03 0. -1.
    9900012    2    1    2    0    0  0.68568827862E+01  0.19012260497E+02  0.38407557385E+02  0.47787270109E+02  0.19999995735E+02 0.  0.
         12    1    1    2    0    0 -0.68568827862E+01 -0.19012260497E+02 -0.38407557385E+02  0.43400729891E+02  0.00000000000E+00 0. -1.
         11    1    3    3    0    0 -0.30694832834E+01  0.10180932364E+01  0.23331661032E+01  0.39877193722E+01  0.51100000000E-03 0. -1.
        -11    1    3    3    0    0  0.12714025424E+02  0.17196557592E+02  0.34234810894E+02  0.40365707138E+02  0.51100000000E-03 0.  1.
        -12    1    3    3    0    0 -0.27876593544E+01  0.79760966867E+00  0.18395803877E+01  0.34338435990E+01  0.00000000000E+00 0.  1.
</event>
<event>
 7    1  0.5426550E-010  0.4778727E+02  0.7816164E-02  0.1312668E+00
        -11   -1    0    0    0    0  0.00000000000E+00  0.00000000000E+00  0.45593999997E+02  0.45594000000E+02  0.51100000000E-03 0.  1.
         11   -1    0    0    0    0 -0.00000000000E+00 -0.00000000000E+00 -0.45593999997E+02  0.45594000000E+02  0.51100000000E-03 0. -1.
    9900012    2    1    2    0    0 -0.40250250093E+02  0.14809816177E+02  0.66490510251E+01  0.47787272272E+02  0.20000005599E+02 0.  0.
         12    1    1    2    0    0  0.40250250093E+02 -0.14809816177E+02 -0.66490510251E+01  0.43400727728E+02  0.00000000000E+00 0. -1.
         11    1    3    3    0    0 -0.34595712952E+02  0.12293406356E+02  0.29682627879E+01  0.36834790331E+02  0.51100000000E-03 0. -1.
        -11    1    3    3    0    0 -0.60498120523E+01 -0.61289910146E+00 -0.31873945193E-01  0.60808623883E+01  0.51100000000E-03 0.  1.
         12    1    3    3    0    0  0.39527491126E+00  0.31293089228E+01  0.37126621824E+01  0.48716195532E+01  0.00000000000E+00 0. -1.
</event>
<event>
 7    1  0.5426550E-010  0.4778727E+02  0.7816164E-02  0.1312668E+00
        -11   -1    0    0    0    0  0.00000000000E+00  0.00000000000E+00  0.45593999997E+02  0.45594000000E+02  0.51100000000E-03 0.  1.
         11   -1    0    0    0    0 -0.00000000000E+00 -0.00000000000E+00 -0.45593999997E+02  0.45594000000E+02  0.51100000000E-03 0. -1.
    9900012    2    1    2    0    0  0.10682051874E+02 -0.33383809632E+02 -0.25593719318E+02  0.47787269058E+02  0.19999990942E+02 0.  0.
         12    1    1    2    0    0 -0.10682051874E+02  0.33383809632E+02  0.25593719318E+02  0.43400730942E+02  0.00000000000E+00 0. -1.
         11    1    3    3    0    0 -0.49362953315E+01 -0.43796855295E+01 -0.12871773828E+01  0.67235022729E+01  0.51100000000E-03 0. -1.
        -11    1    3    3    0    0  0.10564527694E+02 -0.18975844239E+02 -0.14141792675E+02  0.25916832567E+02  0.51100000000E-03 0.  1.
         12    1    3    3    0    0  0.50538195112E+01 -0.10028279863E+02 -0.10164749261E+02  0.15146934218E+02  0.00000000000E+00 0. -1.
</event>
<event>
 7    1  0.5426550E-010  0.4778727E+02  0.7816164E-02  0.1312668E+00
        -11   -1    0    0    0    0  0.00000000000E+00  0.00000000000E+00  0.45593999997E+02  0.45594000000E+02  0.51100000000E-03 0. -1.
         11   -1    0    0    0    0 -0.00000000000E+00 -0.00000000000E+00 -0.45593999997E+02  0.45594000000E+02  0.51100000000E-03 0.  1.
    9900012    2    1    2    0    0 -0.37640652066E+02 -0.50866121290E+01 -0.20998366311E+02  0.47787266151E+02  0.19999977690E+02 0.  0.
         12    1    1    2    0    0  0.37640652066E+02  0.50866121290E+01  0.20998366311E+02  0.43400733849E+02  0.00000000000E+00 0. -1.
         11    1    3    3    0    0 -0.36050329640E+01  0.37735007435E+01  0.10966940710E+01  0.53327580744E+01  0.51100000000E-03 0. -1.
        -11    1    3    3    0    0 -0.17925521383E+02 -0.79687091755E+01 -0.15591631200E+02  0.25058403910E+02  0.51100000000E-03 0.  1.
         12    1    3    3    0    0 -0.16110097719E+02 -0.89140369702E+00 -0.65034291816E+01  0.17396104167E+02  0.00000000000E+00 0. -1.
</event>
<event>
 7    1  0.5426550E-010  0.4778728E+02  0.7816164E-02  0.1312668E+00
        -11   -1    0    0    0    0  0.00000000000E+00  0.00000000000E+00  0.45593999997E+02  0.45594000000E+02  0.51100000000E-03 0.  1.
         11   -1    0    0    0    0 -0.00000000000E+00 -0.00000000000E+00 -0.45593999997E+02  0.45594000000E+02  0.51100000000E-03 0. -1.
    9900012    2    1    2    0    0  0.36616405938E+02  0.22672529859E+02  0.53682042604E+01  0.47787280985E+02  0.20000045322E+02 0.  0.
         12    1    1    2    0    0 -0.36616405938E+02 -0.22672529859E+02 -0.53682042604E+01  0.43400719015E+02  0.00000000000E+00 0. -1.
         11    1    3    3    0    0  0.52465008210E+01 -0.20120086699E+01 -0.22667442363E+01  0.60590493847E+01  0.51100000000E-03 0. -1.
        -11    1    3    3    0    0  0.12965677305E+02  0.46950178260E+01  0.14846495400E+01  0.13869252499E+02  0.51100000000E-03 0.  1.
         12    1    3    3    0    0  0.18404227812E+02  0.19989520703E+02  0.61502989567E+01  0.27858979101E+02  0.00000000000E+00 0. -1.
</event>
<event>
 7    1  0.5426550E-010  0.4778727E+02  0.7816164E-02  0.1312668E+00
        -11   -1    0    0    0    0  0.00000000000E+00  0.00000000000E+00  0.45593999997E+02  0.45594000000E+02  0.51100000000E-03 0.  1.
         11   -1    0    0    0    0 -0.00000000000E+00 -0.00000000000E+00 -0.45593999997E+02  0.45594000000E+02  0.51100000000E-03 0. -1.
    9900012    2    1    2    0    0  0.24032548485E+02 -0.11981506789E+02  0.34095506680E+02  0.47787268815E+02  0.19999989835E+02 0.  0.
         12    1    1    2    0    0 -0.24032548485E+02  0.11981506789E+02 -0.34095506680E+02  0.43400731185E+02  0.00000000000E+00 0. -1.
         11    1    3    3    0    0  0.11245359323E+02  0.36516874588E+01  0.13119697583E+02  0.17661239835E+02  0.51100000000E-03 0. -1.
        -11    1    3    3    0    0  0.59568868695E+01 -0.10512698168E+02  0.76524630133E+01  0.14302500284E+02  0.51100000000E-03 0.  1.
         12    1    3    3    0    0  0.68303022934E+01 -0.51204960805E+01  0.13323346083E+02  0.15823528696E+02  0.00000000000E+00 0. -1.
</event>
<event>
 7    1  0.5426550E-010  0.4778727E+02  0.7816164E-02  0.1312668E+00
        -11   -1    0    0    0    0  0.00000000000E+00  0.00000000000E+00  0.45593999997E+02  0.45594000000E+02  0.51100000000E-03 0.  1.
         11   -1    0    0    0    0 -0.00000000000E+00 -0.00000000000E+00 -0.45593999997E+02  0.45594000000E+02  0.51100000000E-03 0. -1.
    9900012    2    1    2    0    0  0.40884029194E+01  0.40299044483E+02  0.15585099430E+02  0.47787270180E+02  0.19999996057E+02 0.  0.
         12    1    1    2    0    0 -0.40884029194E+01 -0.40299044483E+02 -0.15585099430E+02  0.43400729820E+02  0.00000000000E+00 0. -1.
         11    1    3    3    0    0  0.63700127292E+01  0.78774764871E+01  0.12714477071E+01  0.10210204577E+02  0.51100000000E-03 0. -1.
        -11    1    3    3    0    0 -0.69750935318E+01  0.12887522826E+02  0.60885569324E+01  0.15868544361E+02  0.51100000000E-03 0.  1.
        -12    1    3    3    0    0  0.46934837219E+01  0.19534045171E+02  0.82250947906E+01  0.21708521241E+02  0.00000000000E+00 0.  1.
</event>
<event>
 7    1  0.5426550E-010  0.4778727E+02  0.7816164E-02  0.1312668E+00
        -11   -1    0    0    0    0  0.00000000000E+00  0.00000000000E+00  0.45593999997E+02  0.45594000000E+02  0.51100000000E-03 0.  1.
         11   -1    0    0    0    0 -0.00000000000E+00 -0.00000000000E+00 -0.45593999997E+02  0.45594000000E+02  0.51100000000E-03 0. -1.
    9900012    2    1    2    0    0  0.21866058045E+02 -0.65995260912E+01  0.36904539675E+02  0.47787270885E+02  0.19999999272E+02 0.  0.
         12    1    1    2    0    0 -0.21866058045E+02  0.65995260912E+01 -0.36904539675E+02  0.43400729115E+02  0.00000000000E+00 0. -1.
         11    1    3    3    0    0  0.20010384652E+02  0.12622382303E+01  0.30451459164E+02  0.36459568082E+02  0.51100000000E-03 0. -1.
        -11    1    3    3    0    0  0.29840604306E+01 -0.54274333577E+01  0.28052099733E+01  0.67993273756E+01  0.51100000000E-03 0.  1.
         12    1    3    3    0    0 -0.11283870369E+01 -0.24343309638E+01  0.36478705385E+01  0.45283754275E+01  0.00000000000E+00 0. -1.
</event>
<event>
 7    1  0.5426550E-010  0.4778727E+02  0.7816164E-02  0.1312668E+00
        -11   -1    0    0    0    0  0.00000000000E+00  0.00000000000E+00  0.45593999997E+02  0.45594000000E+02  0.51100000000E-03 0.  1.
         11   -1    0    0    0    0 -0.00000000000E+00 -0.00000000000E+00 -0.45593999997E+02  0.45594000000E+02  0.51100000000E-03 0. -1.
    9900012    2    1    2    0    0 -0.33640086725E+02 -0.16865761121E+02  0.21622073829E+02  0.47787269479E+02  0.19999992864E+02 0.  0.
         12    1    1    2    0    0  0.33640086725E+02  0.16865761121E+02 -0.21622073829E+02  0.43400730521E+02  0.00000000000E+00 0. -1.
         11    1    3    3    0    0 -0.35257147018E+01  0.28721775899E+01  0.12935738368E+01  0.47279384301E+01  0.51100000000E-03 0. -1.
        -11    1    3    3    0    0 -0.29128350374E+02 -0.20633293706E+02  0.21153208327E+02  0.41492792476E+02  0.51100000000E-03 0.  1.
        -12    1    3    3    0    0 -0.98602164996E+00  0.89535499561E+00 -0.82470833567E+00  0.15665385732E+01  0.00000000000E+00 0.  1.
</event>
<event>
 7    1  0.5426550E-010  0.4778727E+02  0.7816164E-02  0.1312668E+00
        -11   -1    0    0    0    0  0.00000000000E+00  0.00000000000E+00  0.45593999997E+02  0.45594000000E+02  0.51100000000E-03 0.  1.
         11   -1    0    0    0    0 -0.00000000000E+00 -0.00000000000E+00 -0.45593999997E+02  0.45594000000E+02  0.51100000000E-03 0. -1.
    9900012    2    1    2    0    0  0.30488854023E+02 -0.27119839143E+02 -0.14784025235E+02  0.47787270779E+02  0.19999998788E+02 0.  0.
         12    1    1    2    0    0 -0.30488854023E+02  0.27119839143E+02  0.14784025235E+02  0.43400729221E+02  0.00000000000E+00 0. -1.
         11    1    3    3    0    0  0.96502268923E+01  0.71499750821E+00 -0.17732454859E+01  0.98378097321E+01  0.51100000000E-03 0. -1.
        -11    1    3    3    0    0  0.39283040236E+01 -0.11168156771E+02 -0.32380412149E+01  0.12273720273E+02  0.51100000000E-03 0.  1.
         12    1    3    3    0    0  0.16910323107E+02 -0.16666679881E+02 -0.97727385346E+01  0.25675740774E+02  0.00000000000E+00 0. -1.
</event>
<event>
 7    1  0.5426550E-010  0.4778728E+02  0.7816164E-02  0.1312668E+00
        -11   -1    0    0    0    0  0.00000000000E+00  0.00000000000E+00  0.45593999997E+02  0.45594000000E+02  0.51100000000E-03 0.  1.
         11   -1    0    0    0    0 -0.00000000000E+00 -0.00000000000E+00 -0.45593999997E+02  0.45594000000E+02  0.51100000000E-03 0. -1.
    9900012    2    1    2    0    0 -0.17957523278E+02 -0.73593526164E+01  0.38819970515E+02  0.47787276228E+02  0.20000023633E+02 0.  0.
         12    1    1    2    0    0  0.17957523278E+02  0.73593526164E+01 -0.38819970515E+02  0.43400723772E+02  0.00000000000E+00 0. -1.
         11    1    3    3    0    0  0.27106214240E+01 -0.10600374028E+01  0.60562488600E+00  0.29728655474E+01  0.51100000000E-03 0. -1.
        -11    1    3    3    0    0 -0.92391681712E+01 -0.58817035989E+01  0.12187719958E+02  0.16385883673E+02  0.51100000000E-03 0.  1.
         12    1    3    3    0    0 -0.11428976530E+02 -0.41761161472E+00  0.26026625671E+02  0.28428527007E+02  0.00000000000E+00 0. -1.
</event>
<event>
 7    1  0.5426550E-010  0.4778727E+02  0.7816164E-02  0.1312668E+00
        -11   -1    0    0    0    0  0.00000000000E+00  0.00000000000E+00  0.45593999997E+02  0.45594000000E+02  0.51100000000E-03 0.  1.
         11   -1    0    0    0    0 -0.00000000000E+00 -0.00000000000E+00 -0.45593999997E+02  0.45594000000E+02  0.51100000000E-03 0. -1.
    9900012    2    1    2    0    0  0.35318076418E+02  0.30024621816E+00  0.25222342947E+02  0.47787271281E+02  0.20000001078E+02 0.  0.
         12    1    1    2    0    0 -0.35318076418E+02 -0.30024621816E+00 -0.25222342947E+02  0.43400728719E+02  0.00000000000E+00 0. -1.
         11    1    3    3    0    0 -0.57142592604E+00  0.18605589355E+00 -0.15496046814E+00  0.62061049965E+00  0.51100000000E-03 0. -1.
        -11    1    3    3    0    0  0.13091395809E+02 -0.67640479407E+01  0.15499215959E+02  0.21386039474E+02  0.51100000000E-03 0.  1.
        -12    1    3    3    0    0  0.22798106535E+02  0.68782382653E+01  0.98780874557E+01  0.25780621307E+02  0.00000000000E+00 0.  1.
</event>
<event>
 7    1  0.5426550E-010  0.4778727E+02  0.7816164E-02  0.1312668E+00
        -11   -1    0    0    0    0  0.00000000000E+00  0.00000000000E+00  0.45593999997E+02  0.45594000000E+02  0.51100000000E-03 0.  1.
         11   -1    0    0    0    0 -0.00000000000E+00 -0.00000000000E+00 -0.45593999997E+02  0.45594000000E+02  0.51100000000E-03 0. -1.
    9900012    2    1    2    0    0 -0.50721458385E+01  0.37626469557E+02  0.21027255369E+02  0.47787270247E+02  0.19999996365E+02 0.  0.
         12    1    1    2    0    0  0.50721458385E+01 -0.37626469557E+02 -0.21027255369E+02  0.43400729753E+02  0.00000000000E+00 0. -1.
         11    1    3    3    0    0 -0.63242618474E+01  0.30627085240E+01  0.33883420032E+01  0.78011110240E+01  0.51100000000E-03 0. -1.
        -11    1    3    3    0    0  0.35631635365E+01  0.30620023588E+02  0.17423948943E+02  0.35410111211E+02  0.51100000000E-03 0.  1.
        -12    1    3    3    0    0 -0.23110475275E+01  0.39437374450E+01  0.21496442299E+00  0.45760480125E+01  0.00000000000E+00 0.  1.
</event>
<event>
 7    1  0.5426550E-010  0.4778727E+02  0.7816164E-02  0.1312668E+00
        -11   -1    0    0    0    0  0.00000000000E+00  0.00000000000E+00  0.45593999997E+02  0.45594000000E+02  0.51100000000E-03 0.  1.
         11   -1    0    0    0    0 -0.00000000000E+00 -0.00000000000E+00 -0.45593999997E+02  0.45594000000E+02  0.51100000000E-03 0. -1.
    9900012    2    1    2    0    0  0.27413492203E+02 -0.90755351702E+01 -0.32399978128E+02  0.47787268714E+02  0.19999989376E+02 0.  0.
         12    1    1    2    0    0 -0.27413492203E+02  0.90755351702E+01  0.32399978128E+02  0.43400731286E+02  0.00000000000E+00 0. -1.
         11    1    3    3    0    0  0.19771524666E+01  0.87999911574E+00 -0.54056191830E+01  0.58227355541E+01  0.51100000000E-03 0. -1.
        -11    1    3    3    0    0  0.18425732404E+02 -0.66010008812E+01 -0.27963335247E+02  0.34132520353E+02  0.51100000000E-03 0.  1.
        -12    1    3    3    0    0  0.70106073331E+01 -0.33545334047E+01  0.96897630129E+00  0.78320128074E+01  0.00000000000E+00 0.  1.
</event>
<event>
 7    1  0.5426550E-010  0.4778728E+02  0.7816164E-02  0.1312668E+00
        -11   -1    0    0    0    0  0.00000000000E+00  0.00000000000E+00  0.45593999997E+02  0.45594000000E+02  0.51100000000E-03 0.  1.
         11   -1    0    0    0    0 -0.00000000000E+00 -0.00000000000E+00 -0.45593999997E+02  0.45594000000E+02  0.51100000000E-03 0. -1.
    9900012    2    1    2    0    0  0.83613722317E+00 -0.20411898146E+02  0.38292001988E+02  0.47787284250E+02  0.20000060211E+02 0.  0.
         12    1    1    2    0    0 -0.83613722317E+00  0.20411898146E+02 -0.38292001988E+02  0.43400715750E+02  0.00000000000E+00 0. -1.
         11    1    3    3    0    0  0.45181301106E+01 -0.12706280080E+02  0.14787312707E+02  0.20013187415E+02  0.51100000000E-03 0. -1.
        -11    1    3    3    0    0 -0.58869746021E+01 -0.59437346923E+01  0.23507457792E+02  0.24951653736E+02  0.51100000000E-03 0.  1.
        -12    1    3    3    0    0  0.22049817147E+01 -0.17618833730E+01 -0.27685110104E-02  0.28224430990E+01  0.00000000000E+00 0.  1.
</event>
<event>
 7    1  0.5426550E-010  0.4778727E+02  0.7816164E-02  0.1312668E+00
        -11   -1    0    0    0    0  0.00000000000E+00  0.00000000000E+00  0.45593999997E+02  0.45594000000E+02  0.51100000000E-03 0.  1.
         11   -1    0    0    0    0 -0.00000000000E+00 -0.00000000000E+00 -0.45593999997E+02  0.45594000000E+02  0.51100000000E-03 0. -1.
    9900012    2    1    2    0    0 -0.15968649986E+02 -0.35223378384E+02  0.19696167161E+02  0.47787272264E+02  0.20000005560E+02 0.  0.
         12    1    1    2    0    0  0.15968649986E+02  0.35223378384E+02 -0.19696167161E+02  0.43400727736E+02  0.00000000000E+00 0. -1.
         11    1    3    3    0    0  0.65268701099E+00 -0.13871558907E+02  0.10689281952E+02  0.17524465633E+02  0.51100000000E-03 0. -1.
        -11    1    3    3    0    0 -0.12140378441E+02 -0.19694482752E+02  0.42537524847E+01  0.23523516957E+02  0.51100000000E-03 0.  1.
        -12    1    3    3    0    0 -0.44809585562E+01 -0.16573367256E+01  0.47531327247E+01  0.67392896735E+01  0.00000000000E+00 0.  1.
</event>
<event>
 7    1  0.5426550E-010  0.4778727E+02  0.7816164E-02  0.1312668E+00
        -11   -1    0    0    0    0  0.00000000000E+00  0.00000000000E+00  0.45593999997E+02  0.45594000000E+02  0.51100000000E-03 0.  1.
         11   -1    0    0    0    0 -0.00000000000E+00 -0.00000000000E+00 -0.45593999997E+02  0.45594000000E+02  0.51100000000E-03 0. -1.
    9900012    2    1    2    0    0 -0.23175861958E+01 -0.23231204014E+02  0.36586378160E+02  0.47787272902E+02  0.20000008471E+02 0.  0.
         12    1    1    2    0    0  0.23175861958E+01  0.23231204014E+02 -0.36586378160E+02  0.43400727098E+02  0.00000000000E+00 0. -1.
         11    1    3    3    0    0 -0.13205888069E+01 -0.92859788942E+01  0.23303798054E+01  0.96645759927E+01  0.51100000000E-03 0. -1.
        -11    1    3    3    0    0 -0.59580967414E-01 -0.40704819918E+01  0.21913131561E+02  0.22288062020E+02  0.51100000000E-03 0.  1.
         12    1    3    3    0    0 -0.93741642142E+00 -0.98747431281E+01  0.12342866794E+02  0.15834634890E+02  0.00000000000E+00 0. -1.
</event>
<event>
 7    1  0.5426550E-010  0.4778729E+02  0.7816164E-02  0.1312668E+00
        -11   -1    0    0    0    0  0.00000000000E+00  0.00000000000E+00  0.45593999997E+02  0.45594000000E+02  0.51100000000E-03 0. -1.
         11   -1    0    0    0    0 -0.00000000000E+00 -0.00000000000E+00 -0.45593999997E+02  0.45594000000E+02  0.51100000000E-03 0.  1.
    9900012    2    1    2    0    0 -0.62775295266E+01  0.42814455500E+02 -0.33372160559E+01  0.47787285861E+02  0.20000067556E+02 0.  0.
         12    1    1    2    0    0  0.62775295266E+01 -0.42814455500E+02  0.33372160559E+01  0.43400714139E+02  0.00000000000E+00 0. -1.
         11    1    3    3    0    0 -0.26019199325E+01  0.12158523515E+02  0.74049986505E+01  0.14471823889E+02  0.51100000000E-03 0. -1.
        -11    1    3    3    0    0 -0.12832752002E+01  0.26385998173E+02 -0.75606505483E+01  0.27477829823E+02  0.51100000000E-03 0.  1.
         12    1    3    3    0    0 -0.23923343940E+01  0.42699338125E+01 -0.31815641581E+01  0.58376321491E+01  0.00000000000E+00 0. -1.
</event>
<event>
 7    1  0.5426550E-010  0.4778726E+02  0.7816164E-02  0.1312668E+00
        -11   -1    0    0    0    0  0.00000000000E+00  0.00000000000E+00  0.45593999997E+02  0.45594000000E+02  0.51100000000E-03 0. -1.
         11   -1    0    0    0    0 -0.00000000000E+00 -0.00000000000E+00 -0.45593999997E+02  0.45594000000E+02  0.51100000000E-03 0.  1.
    9900012    2    1    2    0    0 -0.18715917731E+02  0.63527136219E+01 -0.38639121220E+02  0.47787259966E+02  0.19999949488E+02 0.  0.
         12    1    1    2    0    0  0.18715917731E+02 -0.63527136219E+01  0.38639121220E+02  0.43400740034E+02  0.00000000000E+00 0. -1.
         11    1    3    3    0    0 -0.74689072172E+01 -0.13224229540E+01 -0.29334492495E+01  0.81325581614E+01  0.51100000000E-03 0. -1.
        -11    1    3    3    0    0 -0.75714776549E+01  0.97086557797E+01 -0.30953111186E+02  0.33311865203E+02  0.51100000000E-03 0.  1.
        -12    1    3    3    0    0 -0.36755328587E+01 -0.20335192039E+01 -0.47525607842E+01  0.63428366016E+01  0.00000000000E+00 0.  1.
</event>
<event>
 7    1  0.5426550E-010  0.4778729E+02  0.7816164E-02  0.1312668E+00
        -11   -1    0    0    0    0  0.00000000000E+00  0.00000000000E+00  0.45593999997E+02  0.45594000000E+02  0.51100000000E-03 0. -1.
         11   -1    0    0    0    0 -0.00000000000E+00 -0.00000000000E+00 -0.45593999997E+02  0.45594000000E+02  0.51100000000E-03 0.  1.
    9900012    2    1    2    0    0  0.45404136143E+01  0.16232460222E+02 -0.39993919549E+02  0.47787288928E+02  0.20000081538E+02 0.  0.
         12    1    1    2    0    0 -0.45404136143E+01 -0.16232460222E+02  0.39993919549E+02  0.43400711072E+02  0.00000000000E+00 0. -1.
         11    1    3    3    0    0  0.83061683980E+01  0.67810986994E+01 -0.11341720703E+02  0.15608022354E+02  0.51100000000E-03 0.  1.
        -11    1    3    3    0    0 -0.65229791339E+01  0.23908369354E+01 -0.15771370378E+02  0.17233730934E+02  0.51100000000E-03 0. -1.
         12    1    3    3    0    0  0.27572243502E+01  0.70605245869E+01 -0.12880828468E+02  0.14945535641E+02  0.00000000000E+00 0. -1.
</event>
<event>
 7    1  0.5426550E-010  0.4778727E+02  0.7816164E-02  0.1312668E+00
        -11   -1    0    0    0    0  0.00000000000E+00  0.00000000000E+00  0.45593999997E+02  0.45594000000E+02  0.51100000000E-03 0. -1.
         11   -1    0    0    0    0 -0.00000000000E+00 -0.00000000000E+00 -0.45593999997E+02  0.45594000000E+02  0.51100000000E-03 0.  1.
    9900012    2    1    2    0    0  0.34683686321E+02  0.13778401666E+02  0.22154479058E+02  0.47787269688E+02  0.19999993816E+02 0.  0.
         12    1    1    2    0    0 -0.34683686321E+02 -0.13778401666E+02 -0.22154479058E+02  0.43400730312E+02  0.00000000000E+00 0. -1.
         11    1    3    3    0    0  0.24299448100E+02  0.13311097763E+02  0.19866481061E+02  0.34092896205E+02  0.51100000000E-03 0. -1.
        -11    1    3    3    0    0  0.46893327696E+01  0.23241323918E+01 -0.27094747843E+01  0.58934444145E+01  0.51100000000E-03 0.  1.
        -12    1    3    3    0    0  0.56949054511E+01 -0.18568284889E+01  0.49974727812E+01  0.78009290686E+01  0.00000000000E+00 0.  1.
</event>
<event>
 7    1  0.5426550E-010  0.4778727E+02  0.7816164E-02  0.1312668E+00
        -11   -1    0    0    0    0  0.00000000000E+00  0.00000000000E+00  0.45593999997E+02  0.45594000000E+02  0.51100000000E-03 0. -1.
         11   -1    0    0    0    0 -0.00000000000E+00 -0.00000000000E+00 -0.45593999997E+02  0.45594000000E+02  0.51100000000E-03 0.  1.
    9900012    2    1    2    0    0  0.45453542673E+01 -0.25477954035E+02 -0.34840159958E+02  0.47787272666E+02  0.20000007393E+02 0.  0.
         12    1    1    2    0    0 -0.45453542673E+01  0.25477954035E+02  0.34840159958E+02  0.43400727334E+02  0.00000000000E+00 0. -1.
         11    1    3    3    0    0  0.30149371228E+01 -0.13472625360E+02 -0.17604998601E+02  0.22372694427E+02  0.51100000000E-03 0.  1.
        -11    1    3    3    0    0 -0.39224087226E+00 -0.15027876030E+02 -0.13063938231E+02  0.19916259520E+02  0.51100000000E-03 0. -1.
         12    1    3    3    0    0  0.19226580168E+01  0.30225473555E+01 -0.41712231265E+01  0.54983187191E+01  0.00000000000E+00 0. -1.
</event>
<event>
 7    1  0.5426550E-010  0.4778728E+02  0.7816164E-02  0.1312668E+00
        -11   -1    0    0    0    0  0.00000000000E+00  0.00000000000E+00  0.45593999997E+02  0.45594000000E+02  0.51100000000E-03 0. -1.
         11   -1    0    0    0    0 -0.00000000000E+00 -0.00000000000E+00 -0.45593999997E+02  0.45594000000E+02  0.51100000000E-03 0.  1.
    9900012    2    1    2    0    0  0.29114558977E+02  0.29640006169E+02 -0.12547319623E+02  0.47787277197E+02  0.20000028050E+02 0.  0.
         12    1    1    2    0    0 -0.29114558977E+02 -0.29640006169E+02  0.12547319623E+02  0.43400722803E+02  0.00000000000E+00 0. -1.
         11    1    3    3    0    0  0.95927710110E+01  0.91702169097E+01  0.39543013502E+01  0.13847405290E+02  0.51100000000E-03 0. -1.
        -11    1    3    3    0    0  0.82791843425E+01  0.14979731552E+02 -0.87594782292E+01  0.19226692640E+02  0.51100000000E-03 0.  1.
         12    1    3    3    0    0  0.11242603623E+02  0.54900577075E+01 -0.77421427442E+01  0.14713179267E+02  0.00000000000E+00 0. -1.
</event>
<event>
 7    1  0.5426550E-010  0.4778727E+02  0.7816164E-02  0.1312668E+00
        -11   -1    0    0    0    0  0.00000000000E+00  0.00000000000E+00  0.45593999997E+02  0.45594000000E+02  0.51100000000E-03 0. -1.
         11   -1    0    0    0    0 -0.00000000000E+00 -0.00000000000E+00 -0.45593999997E+02  0.45594000000E+02  0.51100000000E-03 0.  1.
    9900012    2    1    2    0    0  0.35148521808E+02  0.15856618347E+02 -0.19919138762E+02  0.47787273972E+02  0.20000013349E+02 0.  0.
         12    1    1    2    0    0 -0.35148521808E+02 -0.15856618347E+02  0.19919138762E+02  0.43400726028E+02  0.00000000000E+00 0. -1.
         11    1    3    3    0    0  0.41450384216E+00  0.41764476092E+01  0.16933679448E+01  0.45257069421E+01  0.51100000000E-03 0. -1.
        -11    1    3    3    0    0  0.28946507960E+02  0.68105568132E+01 -0.15483687137E+02  0.33526535383E+02  0.51100000000E-03 0.  1.
         12    1    3    3    0    0  0.57875100060E+01  0.48696139249E+01 -0.61288195697E+01  0.97350316468E+01  0.00000000000E+00 0. -1.
</event>
<event>
 7    1  0.5426550E-010  0.4778727E+02  0.7816164E-02  0.1312668E+00
        -11   -1    0    0    0    0  0.00000000000E+00  0.00000000000E+00  0.45593999997E+02  0.45594000000E+02  0.51100000000E-03 0.  1.
         11   -1    0    0    0    0 -0.00000000000E+00 -0.00000000000E+00 -0.45593999997E+02  0.45594000000E+02  0.51100000000E-03 0. -1.
    9900012    2    1    2    0    0 -0.15929029127E+02  0.13959664440E+02  0.37881620025E+02  0.47787270329E+02  0.19999996740E+02 0.  0.
         12    1    1    2    0    0  0.15929029127E+02 -0.13959664440E+02 -0.37881620025E+02  0.43400729671E+02  0.00000000000E+00 0. -1.
         11    1    3    3    0    0  0.39121997587E+01  0.64503746317E+01  0.10214147886E+02  0.12698088720E+02  0.51100000000E-03 0. -1.
        -11    1    3    3    0    0 -0.73686594814E+01  0.14783771554E+01  0.74663033624E+01  0.10593791943E+02  0.51100000000E-03 0.  1.
         12    1    3    3    0    0 -0.12472569404E+02  0.60309126525E+01  0.20201168777E+02  0.24495389667E+02  0.00000000000E+00 0. -1.
</event>
<event>
 7    1  0.5426550E-010  0.4778728E+02  0.7816164E-02  0.1312668E+00
        -11   -1    0    0    0    0  0.00000000000E+00  0.00000000000E+00  0.45593999997E+02  0.45594000000E+02  0.51100000000E-03 0.  1.
         11   -1    0    0    0    0 -0.00000000000E+00 -0.00000000000E+00 -0.45593999997E+02  0.45594000000E+02  0.51100000000E-03 0. -1.
    9900012    2    1    2    0    0 -0.25799343560E+01  0.18756465353E+02  0.39053312016E+02  0.47787283033E+02  0.20000054660E+02 0.  0.
         12    1    1    2    0    0  0.25799343560E+01 -0.18756465353E+02 -0.39053312016E+02  0.43400716967E+02  0.00000000000E+00 0. -1.
         11    1    3    3    0    0 -0.43261034654E+01  0.37865241101E+01  0.56732296918E+01  0.80770335784E+01  0.51100000000E-03 0. -1.
        -11    1    3    3    0    0  0.29426506270E+01  0.11605647991E+01  0.20648591882E+02  0.20889481811E+02  0.51100000000E-03 0.  1.
        -12    1    3    3    0    0 -0.11964815176E+01  0.13809376444E+02  0.12731490442E+02  0.18820767643E+02  0.00000000000E+00 0.  1.
</event>
<event>
 7    1  0.5426550E-010  0.4778727E+02  0.7816164E-02  0.1312668E+00
        -11   -1    0    0    0    0  0.00000000000E+00  0.00000000000E+00  0.45593999997E+02  0.45594000000E+02  0.51100000000E-03 0.  1.
         11   -1    0    0    0    0 -0.00000000000E+00 -0.00000000000E+00 -0.45593999997E+02  0.45594000000E+02  0.51100000000E-03 0. -1.
    9900012    2    1    2    0    0  0.58266003911E+01  0.77320628035E+00  0.43000883985E+02  0.47787272546E+02  0.20000006845E+02 0.  0.
         12    1    1    2    0    0 -0.58266003911E+01 -0.77320628035E+00 -0.43000883985E+02  0.43400727454E+02  0.00000000000E+00 0. -1.
         11    1    3    3    0    0 -0.53433561255E+01 -0.15866044506E+01  0.14912954356E+02  0.15920583414E+02  0.51100000000E-03 0. -1.
        -11    1    3    3    0    0  0.62472815641E+01  0.27967449208E+01  0.56044731559E+01  0.88464924524E+01  0.51100000000E-03 0.  1.
        -12    1    3    3    0    0  0.49226749525E+01 -0.43693418982E+00  0.22483456473E+02  0.23020196679E+02  0.00000000000E+00 0.  1.
</event>
<event>
 7    1  0.5426550E-010  0.4778727E+02  0.7816164E-02  0.1312668E+00
        -11   -1    0    0    0    0  0.00000000000E+00  0.00000000000E+00  0.45593999997E+02  0.45594000000E+02  0.51100000000E-03 0. -1.
         11   -1    0    0    0    0 -0.00000000000E+00 -0.00000000000E+00 -0.45593999997E+02  0.45594000000E+02  0.51100000000E-03 0.  1.
    9900012    2    1    2    0    0 -0.14923324128E+02 -0.39777588914E+02 -0.88691025795E+01  0.47787272317E+02  0.20000005803E+02 0.  0.
         12    1    1    2    0    0  0.14923324128E+02  0.39777588914E+02  0.88691025795E+01  0.43400727683E+02  0.00000000000E+00 0. -1.
         11    1    3    3    0    0  0.34157457599E+01 -0.14843463643E+02 -0.69952314916E+01  0.16760936606E+02  0.51100000000E-03 0. -1.
        -11    1    3    3    0    0 -0.17259702454E+02 -0.23548070657E+02 -0.15290114263E+01  0.29236053712E+02  0.51100000000E-03 0.  1.
         12    1    3    3    0    0 -0.10793674342E+01 -0.13860546142E+01 -0.34485966154E+00  0.17902819994E+01  0.00000000000E+00 0. -1.
</event>
<event>
 7    1  0.5426550E-010  0.4778727E+02  0.7816164E-02  0.1312668E+00
        -11   -1    0    0    0    0  0.00000000000E+00  0.00000000000E+00  0.45593999997E+02  0.45594000000E+02  0.51100000000E-03 0.  1.
         11   -1    0    0    0    0 -0.00000000000E+00 -0.00000000000E+00 -0.45593999997E+02  0.45594000000E+02  0.51100000000E-03 0. -1.
    9900012    2    1    2    0    0 -0.14447455620E+02  0.37747017918E+02  0.15813190793E+02  0.47787270298E+02  0.19999996599E+02 0.  0.
         12    1    1    2    0    0  0.14447455620E+02 -0.37747017918E+02 -0.15813190793E+02  0.43400729702E+02  0.00000000000E+00 0. -1.
         11    1    3    3    0    0 -0.54873456864E+01  0.54625175809E+01  0.34250345157E+01  0.84664586870E+01  0.51100000000E-03 0.  1.
        -11    1    3    3    0    0 -0.23655294789E+01 -0.14509035807E+01 -0.22356078005E-01  0.27751308026E+01  0.51100000000E-03 0. -1.
        -12    1    3    3    0    0 -0.65945804545E+01  0.33735403918E+02  0.12410512355E+02  0.36545680809E+02  0.00000000000E+00 0.  1.
</event>
<event>
 7    1  0.5426550E-010  0.4778727E+02  0.7816164E-02  0.1312668E+00
        -11   -1    0    0    0    0  0.00000000000E+00  0.00000000000E+00  0.45593999997E+02  0.45594000000E+02  0.51100000000E-03 0. -1.
         11   -1    0    0    0    0 -0.00000000000E+00 -0.00000000000E+00 -0.45593999997E+02  0.45594000000E+02  0.51100000000E-03 0.  1.
    9900012    2    1    2    0    0  0.30915339555E+02 -0.25538121448E+02 -0.16603293235E+02  0.47787271744E+02  0.20000003189E+02 0.  0.
         12    1    1    2    0    0 -0.30915339555E+02  0.25538121448E+02  0.16603293235E+02  0.43400728256E+02  0.00000000000E+00 0. -1.
         11    1    3    3    0    0  0.16805624223E+02 -0.19094859306E+02 -0.45342701105E+01  0.25838000370E+02  0.51100000000E-03 0. -1.
        -11    1    3    3    0    0  0.56788265031E+01  0.15268854459E+01 -0.10990791729E+01  0.59823427607E+01  0.51100000000E-03 0.  1.
        -12    1    3    3    0    0  0.84308888293E+01 -0.79701475883E+01 -0.10969943952E+02  0.15966928613E+02  0.00000000000E+00 0.  1.
</event>
<event>
 7    1  0.5426550E-010  0.4778730E+02  0.7816164E-02  0.1312668E+00
        -11   -1    0    0    0    0  0.00000000000E+00  0.00000000000E+00  0.45593999997E+02  0.45594000000E+02  0.51100000000E-03 0.  1.
         11   -1    0    0    0    0 -0.00000000000E+00 -0.00000000000E+00 -0.45593999997E+02  0.45594000000E+02  0.51100000000E-03 0. -1.
    9900012    2    1    2    0    0  0.51148884813E+01 -0.24674566182E+02  0.35335886689E+02  0.47787295069E+02  0.20000109536E+02 0.  0.
         12    1    1    2    0    0 -0.51148884813E+01  0.24674566182E+02 -0.35335886689E+02  0.43400704931E+02  0.00000000000E+00 0. -1.
         11    1    3    3    0    0 -0.45469153223E+01 -0.21651354891E+01  0.11693218121E+01  0.51700642545E+01  0.51100000000E-03 0. -1.
        -11    1    3    3    0    0  0.72916224282E+01 -0.19289670215E+02  0.23714998819E+02  0.31427063239E+02  0.51100000000E-03 0.  1.
         12    1    3    3    0    0  0.23701813754E+01 -0.32197604785E+01  0.10451566058E+02  0.11190167575E+02  0.00000000000E+00 0. -1.
</event>
<event>
 7    1  0.5426550E-010  0.4778727E+02  0.7816164E-02  0.1312668E+00
        -11   -1    0    0    0    0  0.00000000000E+00  0.00000000000E+00  0.45593999997E+02  0.45594000000E+02  0.51100000000E-03 0. -1.
         11   -1    0    0    0    0 -0.00000000000E+00 -0.00000000000E+00 -0.45593999997E+02  0.45594000000E+02  0.51100000000E-03 0.  1.
    9900012    2    1    2    0    0 -0.52305269452E+01 -0.42071613548E+02 -0.92867890944E+01  0.47787268089E+02  0.19999986527E+02 0.  0.
         12    1    1    2    0    0  0.52305269452E+01  0.42071613548E+02  0.92867890944E+01  0.43400731911E+02  0.00000000000E+00 0. -1.
         11    1    3    3    0    0  0.92237585275E+00 -0.24797251055E+02  0.71264686834E+00  0.24824630972E+02  0.51100000000E-03 0. -1.
        -11    1    3    3    0    0 -0.64351170182E+01 -0.18391853587E+02 -0.91253864204E+01  0.21516126208E+02  0.51100000000E-03 0.  1.
         12    1    3    3    0    0  0.28221422018E+00  0.11174910932E+01 -0.87404954238E+00  0.14465109097E+01  0.00000000000E+00 0. -1.
</event>
<event>
 7    1  0.5426550E-010  0.4778727E+02  0.7816164E-02  0.1312668E+00
        -11   -1    0    0    0    0  0.00000000000E+00  0.00000000000E+00  0.45593999997E+02  0.45594000000E+02  0.51100000000E-03 0.  1.
         11   -1    0    0    0    0 -0.00000000000E+00 -0.00000000000E+00 -0.45593999997E+02  0.45594000000E+02  0.51100000000E-03 0. -1.
    9900012    2    1    2    0    0 -0.39994596893E+02 -0.16645094240E+02 -0.26450357150E+01  0.47787272393E+02  0.20000006149E+02 0.  0.
         12    1    1    2    0    0  0.39994596893E+02  0.16645094240E+02  0.26450357150E+01  0.43400727607E+02  0.00000000000E+00 0. -1.
         11    1    3    3    0    0 -0.59563367120E+01  0.38411543545E+01  0.19240173372E+01  0.73439946062E+01  0.51100000000E-03 0. -1.
        -11    1    3    3    0    0 -0.17749786094E+02 -0.86031403969E+01  0.19452466198E+00  0.19725789495E+02  0.51100000000E-03 0.  1.
         12    1    3    3    0    0 -0.16288474086E+02 -0.11883108198E+02 -0.47635777142E+01  0.20717488292E+02  0.00000000000E+00 0. -1.
</event>
<event>
 7    1  0.5426550E-010  0.4778727E+02  0.7816164E-02  0.1312668E+00
        -11   -1    0    0    0    0  0.00000000000E+00  0.00000000000E+00  0.45593999997E+02  0.45594000000E+02  0.51100000000E-03 0.  1.
         11   -1    0    0    0    0 -0.00000000000E+00 -0.00000000000E+00 -0.45593999997E+02  0.45594000000E+02  0.51100000000E-03 0. -1.
    9900012    2    1    2    0    0  0.10236465995E+01  0.36730379939E+02  0.23096634786E+02  0.47787271881E+02  0.20000003813E+02 0.  0.
         12    1    1    2    0    0 -0.10236465995E+01 -0.36730379939E+02 -0.23096634786E+02  0.43400728119E+02  0.00000000000E+00 0. -1.
         11    1    3    3    0    0  0.83509072034E+01  0.11019455403E+02  0.80196277282E+01  0.15983756682E+02  0.51100000000E-03 0. -1.
        -11    1    3    3    0    0 -0.55151683840E+01  0.25514047204E+02  0.13471792003E+02  0.29374697736E+02  0.51100000000E-03 0.  1.
        -12    1    3    3    0    0 -0.18120922198E+01  0.19687733166E+00  0.16052150544E+01  0.24288174628E+01  0.00000000000E+00 0.  1.
</event>
<event>
 7    1  0.5426550E-010  0.4778727E+02  0.7816164E-02  0.1312668E+00
        -11   -1    0    0    0    0  0.00000000000E+00  0.00000000000E+00  0.45593999997E+02  0.45594000000E+02  0.51100000000E-03 0.  1.
         11   -1    0    0    0    0 -0.00000000000E+00 -0.00000000000E+00 -0.45593999997E+02  0.45594000000E+02  0.51100000000E-03 0. -1.
    9900012    2    1    2    0    0  0.22864530807E+02  0.14933414694E+02  0.33731727313E+02  0.47787273382E+02  0.20000010656E+02 0.  0.
         12    1    1    2    0    0 -0.22864530807E+02 -0.14933414694E+02 -0.33731727313E+02  0.43400726618E+02  0.00000000000E+00 0. -1.
         11    1    3    3    0    0  0.21432936316E+02  0.12518479893E+02  0.19367901143E+02  0.31483308163E+02  0.51100000000E-03 0.  1.
        -11    1    3    3    0    0 -0.14365680014E+01  0.54003247759E+00  0.12100311087E+02  0.12197249336E+02  0.51100000000E-03 0. -1.
         12    1    3    3    0    0  0.28681624927E+01  0.18749023234E+01  0.22635150832E+01  0.41067158824E+01  0.00000000000E+00 0. -1.
</event>
<event>
 7    1  0.5426550E-010  0.4778727E+02  0.7816164E-02  0.1312668E+00
        -11   -1    0    0    0    0  0.00000000000E+00  0.00000000000E+00  0.45593999997E+02  0.45594000000E+02  0.51100000000E-03 0. -1.
         11   -1    0    0    0    0 -0.00000000000E+00 -0.00000000000E+00 -0.45593999997E+02  0.45594000000E+02  0.51100000000E-03 0.  1.
    9900012    2    1    2    0    0 -0.21881525083E+02  0.85154517609E+01 -0.36500812006E+02  0.47787270332E+02  0.19999996751E+02 0.  0.
         12    1    1    2    0    0  0.21881525083E+02 -0.85154517609E+01  0.36500812006E+02  0.43400729668E+02  0.00000000000E+00 0. -1.
         11    1    3    3    0    0 -0.52227814561E+01 -0.52603916319E+01 -0.44887280059E+01  0.86659013167E+01  0.51100000000E-03 0. -1.
        -11    1    3    3    0    0 -0.12502448784E+02  0.13205685539E+02 -0.27411851144E+02  0.32895454694E+02  0.51100000000E-03 0.  1.
        -12    1    3    3    0    0 -0.41562948429E+01  0.57015785390E+00 -0.46002328558E+01  0.62259143206E+01  0.00000000000E+00 0.  1.
</event>
<event>
 7    1  0.5426550E-010  0.4778727E+02  0.7816164E-02  0.1312668E+00
        -11   -1    0    0    0    0  0.00000000000E+00  0.00000000000E+00  0.45593999997E+02  0.45594000000E+02  0.51100000000E-03 0. -1.
         11   -1    0    0    0    0 -0.00000000000E+00 -0.00000000000E+00 -0.45593999997E+02  0.45594000000E+02  0.51100000000E-03 0.  1.
    9900012    2    1    2    0    0  0.11472125446E+02 -0.21040092559E+02 -0.36184634854E+02  0.47787274699E+02  0.20000016662E+02 0.  0.
         12    1    1    2    0    0 -0.11472125446E+02  0.21040092559E+02  0.36184634854E+02  0.43400725301E+02  0.00000000000E+00 0. -1.
         11    1    3    3    0    0  0.21462489528E+01 -0.22704008276E+01 -0.18669465746E+02  0.18929079639E+02  0.51100000000E-03 0. -1.
        -11    1    3    3    0    0  0.65110212969E+01 -0.16723641992E+02 -0.17912002778E+02  0.25355737883E+02  0.51100000000E-03 0.  1.
         12    1    3    3    0    0  0.28148551965E+01 -0.20460497398E+01  0.39683366992E+00  0.35024571770E+01  0.00000000000E+00 0. -1.
</event>
<event>
 7    1  0.5426550E-010  0.4778727E+02  0.7816164E-02  0.1312668E+00
        -11   -1    0    0    0    0  0.00000000000E+00  0.00000000000E+00  0.45593999997E+02  0.45594000000E+02  0.51100000000E-03 0.  1.
         11   -1    0    0    0    0 -0.00000000000E+00 -0.00000000000E+00 -0.45593999997E+02  0.45594000000E+02  0.51100000000E-03 0. -1.
    9900012    2    1    2    0    0  0.11979496718E+02 -0.15368662086E+02  0.38780394654E+02  0.47787272754E+02  0.20000007795E+02 0.  0.
         12    1    1    2    0    0 -0.11979496718E+02  0.15368662086E+02 -0.38780394654E+02  0.43400727246E+02  0.00000000000E+00 0. -1.
         11    1    3    3    0    0  0.35808515126E+01  0.30738392002E+01  0.66476080773E+01  0.81524032281E+01  0.51100000000E-03 0. -1.
        -11    1    3    3    0    0  0.13208422162E+01 -0.15347982925E+02  0.22861022796E+02  0.27566856323E+02  0.51100000000E-03 0.  1.
        -12    1    3    3    0    0  0.70778029896E+01 -0.30945183620E+01  0.92717637807E+01  0.12068013203E+02  0.00000000000E+00 0.  1.
</event>
<event>
 7    1  0.5426550E-010  0.4778727E+02  0.7816164E-02  0.1312668E+00
        -11   -1    0    0    0    0  0.00000000000E+00  0.00000000000E+00  0.45593999997E+02  0.45594000000E+02  0.51100000000E-03 0.  1.
         11   -1    0    0    0    0 -0.00000000000E+00 -0.00000000000E+00 -0.45593999997E+02  0.45594000000E+02  0.51100000000E-03 0. -1.
    9900012    2    1    2    0    0 -0.14728916054E+02 -0.27766523372E+02  0.29928292848E+02  0.47787268427E+02  0.19999988066E+02 0.  0.
         12    1    1    2    0    0  0.14728916054E+02  0.27766523372E+02 -0.29928292848E+02  0.43400731573E+02  0.00000000000E+00 0. -1.
         11    1    3    3    0    0 -0.16328005172E+02 -0.13907423560E+02  0.20762032424E+02  0.29850999541E+02  0.51100000000E-03 0. -1.
        -11    1    3    3    0    0 -0.78190934983E+00 -0.12321774122E+02  0.85988591700E+01  0.15045859199E+02  0.51100000000E-03 0.  1.
         12    1    3    3    0    0  0.23809984670E+01 -0.15373256897E+01  0.56740125376E+00  0.28904096870E+01  0.00000000000E+00 0. -1.
</event>
<event>
 7    1  0.5426550E-010  0.4778727E+02  0.7816164E-02  0.1312668E+00
        -11   -1    0    0    0    0  0.00000000000E+00  0.00000000000E+00  0.45593999997E+02  0.45594000000E+02  0.51100000000E-03 0.  1.
         11   -1    0    0    0    0 -0.00000000000E+00 -0.00000000000E+00 -0.45593999997E+02  0.45594000000E+02  0.51100000000E-03 0. -1.
    9900012    2    1    2    0    0 -0.12849821994E+02  0.40346826388E+02  0.95204488196E+01  0.47787271082E+02  0.20000000174E+02 0.  0.
         12    1    1    2    0    0  0.12849821994E+02 -0.40346826388E+02 -0.95204488196E+01  0.43400728918E+02  0.00000000000E+00 0. -1.
         11    1    3    3    0    0 -0.14288915478E+01  0.82884333598E+00 -0.14094579915E+01  0.21714705666E+01  0.51100000000E-03 0. -1.
        -11    1    3    3    0    0 -0.42620926771E+01  0.12604316662E+02 -0.41604027570E+01  0.13940702417E+02  0.51100000000E-03 0.  1.
        -12    1    3    3    0    0 -0.71588377690E+01  0.26913666390E+02  0.15090309568E+02  0.31675098099E+02  0.00000000000E+00 0.  1.
</event>
<event>
 7    1  0.5426550E-010  0.4778727E+02  0.7816164E-02  0.1312668E+00
        -11   -1    0    0    0    0  0.00000000000E+00  0.00000000000E+00  0.45593999997E+02  0.45594000000E+02  0.51100000000E-03 0. -1.
         11   -1    0    0    0    0 -0.00000000000E+00 -0.00000000000E+00 -0.45593999997E+02  0.45594000000E+02  0.51100000000E-03 0.  1.
    9900012    2    1    2    0    0 -0.10599347549E+02  0.27822410899E+02 -0.31578325388E+02  0.47787270156E+02  0.19999995948E+02 0.  0.
         12    1    1    2    0    0  0.10599347549E+02 -0.27822410899E+02  0.31578325388E+02  0.43400729844E+02  0.00000000000E+00 0. -1.
         11    1    3    3    0    0 -0.14223001840E+02  0.18370299188E+02 -0.27215154469E+02  0.35783044960E+02  0.51100000000E-03 0. -1.
        -11    1    3    3    0    0  0.39695917174E+01  0.40002562952E+01 -0.29527519397E+01  0.63622679218E+01  0.51100000000E-03 0.  1.
         12    1    3    3    0    0 -0.34593742655E+00  0.54518554159E+01 -0.14104189793E+01  0.56419572735E+01  0.00000000000E+00 0. -1.
</event>
<event>
 7    1  0.5741686E-010  0.4778727E+02  0.7816164E-02  0.1312668E+00
        -11   -1    0    0    0    0  0.00000000000E+00  0.00000000000E+00  0.45593999997E+02  0.45594000000E+02  0.51100000000E-03 0. -1.
         11   -1    0    0    0    0 -0.00000000000E+00 -0.00000000000E+00 -0.45593999997E+02  0.45594000000E+02  0.51100000000E-03 0.  1.
    9900012    2    1    2    0    0  0.71281355395E+00 -0.38384265466E+02 -0.20242610757E+02  0.47787271564E+02  0.20000002368E+02 0.  0.
         12    1    1    2    0    0 -0.71281355395E+00  0.38384265466E+02  0.20242610757E+02  0.43400728436E+02  0.00000000000E+00 0. -1.
         11    1    3    3    0    0 -0.15614288224E+00  0.11568188296E+01 -0.21682177500E+01  0.24624741373E+01  0.51100000000E-03 0. -1.
        -11    1    3    3    0    0 -0.19359585896E+01 -0.21501746968E+02 -0.33003553791E+01  0.21839537637E+02  0.51100000000E-03 0.  1.
        -12    1    3    3    0    0  0.28049150258E+01 -0.18039337328E+02 -0.14774037628E+02  0.23485259789E+02  0.00000000000E+00 0.  1.
</event>
<event>
 7    1  0.5426550E-010  0.4778727E+02  0.7816164E-02  0.1312668E+00
        -11   -1    0    0    0    0  0.00000000000E+00  0.00000000000E+00  0.45593999997E+02  0.45594000000E+02  0.51100000000E-03 0. -1.
         11   -1    0    0    0    0 -0.00000000000E+00 -0.00000000000E+00 -0.45593999997E+02  0.45594000000E+02  0.51100000000E-03 0.  1.
    9900012    2    1    2    0    0 -0.30786350540E+02  0.74716379050E+01  0.29664768871E+02  0.47787271150E+02  0.20000000481E+02 0.  0.
         12    1    1    2    0    0  0.30786350540E+02 -0.74716379050E+01 -0.29664768871E+02  0.43400728850E+02  0.00000000000E+00 0. -1.
         11    1    3    3    0    0 -0.44318842561E+01  0.21302207170E+01 -0.11116441559E+00  0.49185156451E+01  0.51100000000E-03 0.  1.
        -11    1    3    3    0    0 -0.15348248500E+02 -0.97823555347E+00  0.24912555921E+02  0.29277314077E+02  0.51100000000E-03 0. -1.
        -12    1    3    3    0    0 -0.11006217784E+02  0.63196527415E+01  0.48633773659E+01  0.13591441427E+02  0.00000000000E+00 0.  1.
</event>
<event>
 7    1  0.5426550E-010  0.4778727E+02  0.7816164E-02  0.1312668E+00
        -11   -1    0    0    0    0  0.00000000000E+00  0.00000000000E+00  0.45593999997E+02  0.45594000000E+02  0.51100000000E-03 0.  1.
         11   -1    0    0    0    0 -0.00000000000E+00 -0.00000000000E+00 -0.45593999997E+02  0.45594000000E+02  0.51100000000E-03 0. -1.
    9900012    2    1    2    0    0 -0.37076757937E+02 -0.11728802770E+02  0.19271020257E+02  0.47787274023E+02  0.20000013582E+02 0.  0.
         12    1    1    2    0    0  0.37076757937E+02  0.11728802770E+02 -0.19271020257E+02  0.43400725977E+02  0.00000000000E+00 0. -1.
         11    1    3    3    0    0 -0.18430180282E+01  0.16033940878E+01 -0.57989809131E+00  0.25107509057E+01  0.51100000000E-03 0. -1.
        -11    1    3    3    0    0 -0.36935482016E+01 -0.43679719694E+01 -0.17849387746E+01  0.59922853849E+01  0.51100000000E-03 0.  1.
        -12    1    3    3    0    0 -0.31540191708E+02 -0.89642248880E+01  0.21635857123E+02  0.39284237733E+02  0.00000000000E+00 0.  1.
</event>
<event>
 7    1  0.5426550E-010  0.4778728E+02  0.7816164E-02  0.1312668E+00
        -11   -1    0    0    0    0  0.00000000000E+00  0.00000000000E+00  0.45593999997E+02  0.45594000000E+02  0.51100000000E-03 0.  1.
         11   -1    0    0    0    0 -0.00000000000E+00 -0.00000000000E+00 -0.45593999997E+02  0.45594000000E+02  0.51100000000E-03 0. -1.
    9900012    2    1    2    0    0 -0.41288819689E+02  0.40410455059E+01  0.12748574466E+02  0.47787276146E+02  0.20000023261E+02 0.  0.
         12    1    1    2    0    0  0.41288819689E+02 -0.40410455059E+01 -0.12748574466E+02  0.43400723854E+02  0.00000000000E+00 0. -1.
         11    1    3    3    0    0 -0.14528930336E+02  0.88739295124E+01 -0.14400515011E+01  0.17085379430E+02  0.51100000000E-03 0. -1.
        -11    1    3    3    0    0 -0.14146635804E+02 -0.19829787472E+01  0.70215110636E+01  0.15917321607E+02  0.51100000000E-03 0.  1.
         12    1    3    3    0    0 -0.12613253550E+02 -0.28499052593E+01  0.71671149031E+01  0.14784575109E+02  0.00000000000E+00 0. -1.
</event>
<event>
 7    1  0.5426550E-010  0.4778727E+02  0.7816164E-02  0.1312668E+00
        -11   -1    0    0    0    0  0.00000000000E+00  0.00000000000E+00  0.45593999997E+02  0.45594000000E+02  0.51100000000E-03 0.  1.
         11   -1    0    0    0    0 -0.00000000000E+00 -0.00000000000E+00 -0.45593999997E+02  0.45594000000E+02  0.51100000000E-03 0. -1.
    9900012    2    1    2    0    0  0.20260837358E+02 -0.33070160295E+02  0.19480413261E+02  0.47787268057E+02  0.19999986380E+02 0.  0.
         12    1    1    2    0    0 -0.20260837358E+02  0.33070160295E+02 -0.19480413261E+02  0.43400731943E+02  0.00000000000E+00 0. -1.
         11    1    3    3    0    0  0.67616367309E+01 -0.33483977018E+01  0.25413063442E+01  0.79617671811E+01  0.51100000000E-03 0. -1.
        -11    1    3    3    0    0  0.89457259961E+01 -0.27884273510E+02  0.18541467485E+02  0.34660420360E+02  0.51100000000E-03 0.  1.
        -12    1    3    3    0    0  0.45534746309E+01 -0.18374890831E+01 -0.16023605687E+01  0.51650805161E+01  0.00000000000E+00 0.  1.
</event>
<event>
 7    1  0.5426550E-010  0.4778727E+02  0.7816164E-02  0.1312668E+00
        -11   -1    0    0    0    0  0.00000000000E+00  0.00000000000E+00  0.45593999997E+02  0.45594000000E+02  0.51100000000E-03 0.  1.
         11   -1    0    0    0    0 -0.00000000000E+00 -0.00000000000E+00 -0.45593999997E+02  0.45594000000E+02  0.51100000000E-03 0. -1.
    9900012    2    1    2    0    0  0.18937168120E+02 -0.13144025155E+01  0.39029211580E+02  0.47787270203E+02  0.19999996164E+02 0.  0.
         12    1    1    2    0    0 -0.18937168120E+02  0.13144025155E+01 -0.39029211580E+02  0.43400729797E+02  0.00000000000E+00 0. -1.
         11    1    3    3    0    0  0.45727955296E+01  0.61556993302E+00  0.23199238643E+02  0.23653626766E+02  0.51100000000E-03 0. -1.
        -11    1    3    3    0    0  0.94898052580E+01  0.19685148261E+01  0.14969224027E+02  0.17832810286E+02  0.51100000000E-03 0.  1.
         12    1    3    3    0    0  0.48745673325E+01 -0.38984872747E+01  0.86074890876E+00  0.63008331508E+01  0.00000000000E+00 0. -1.
</event>
<event>
 7    1  0.5426550E-010  0.4778726E+02  0.7816164E-02  0.1312668E+00
        -11   -1    0    0    0    0  0.00000000000E+00  0.00000000000E+00  0.45593999997E+02  0.45594000000E+02  0.51100000000E-03 0. -1.
         11   -1    0    0    0    0 -0.00000000000E+00 -0.00000000000E+00 -0.45593999997E+02  0.45594000000E+02  0.51100000000E-03 0.  1.
    9900012    2    1    2    0    0  0.12147528099E+02 -0.37471603552E+02 -0.18219229414E+02  0.47787264614E+02  0.19999970679E+02 0.  0.
         12    1    1    2    0    0 -0.12147528099E+02  0.37471603552E+02  0.18219229414E+02  0.43400735386E+02  0.00000000000E+00 0. -1.
         11    1    3    3    0    0 -0.34887079656E+01 -0.99728170315E+01  0.11623632257E+01  0.10629169833E+02  0.51100000000E-03 0. -1.
        -11    1    3    3    0    0  0.63769462387E+01 -0.11081981897E+02 -0.66372688768E+01  0.14405870487E+02  0.51100000000E-03 0.  1.
         12    1    3    3    0    0  0.92592898258E+01 -0.16416804624E+02 -0.12744323763E+02  0.22752224293E+02  0.00000000000E+00 0. -1.
</event>
<event>
 7    1  0.5426550E-010  0.4778728E+02  0.7816164E-02  0.1312668E+00
        -11   -1    0    0    0    0  0.00000000000E+00  0.00000000000E+00  0.45593999997E+02  0.45594000000E+02  0.51100000000E-03 0. -1.
         11   -1    0    0    0    0 -0.00000000000E+00 -0.00000000000E+00 -0.45593999997E+02  0.45594000000E+02  0.51100000000E-03 0.  1.
    9900012    2    1    2    0    0 -0.29530974195E+02  0.20284500572E+02 -0.24496600522E+02  0.47787276072E+02  0.20000022922E+02 0.  0.
         12    1    1    2    0    0  0.29530974195E+02 -0.20284500572E+02  0.24496600522E+02  0.43400723928E+02  0.00000000000E+00 0. -1.
         11    1    3    3    0    0  0.95083435620E+00  0.61169786265E+01 -0.71735774807E+01  0.94753220327E+01  0.51100000000E-03 0.  1.
        -11    1    3    3    0    0 -0.24046872684E+02  0.13514876356E+02 -0.12736938980E+02  0.30383113462E+02  0.51100000000E-03 0. -1.
        -12    1    3    3    0    0 -0.64349358675E+01  0.65264558936E+00 -0.45860840614E+01  0.79288405774E+01  0.00000000000E+00 0.  1.
</event>
<event>
 7    1  0.5426550E-010  0.4778727E+02  0.7816164E-02  0.1312668E+00
        -11   -1    0    0    0    0  0.00000000000E+00  0.00000000000E+00  0.45593999997E+02  0.45594000000E+02  0.51100000000E-03 0. -1.
         11   -1    0    0    0    0 -0.00000000000E+00 -0.00000000000E+00 -0.45593999997E+02  0.45594000000E+02  0.51100000000E-03 0.  1.
    9900012    2    1    2    0    0 -0.25425176607E+02 -0.25827015215E+02 -0.23877787626E+02  0.47787273482E+02  0.20000011112E+02 0.  0.
         12    1    1    2    0    0  0.25425176607E+02  0.25827015215E+02  0.23877787626E+02  0.43400726518E+02  0.00000000000E+00 0. -1.
         11    1    3    3    0    0 -0.19458762408E+01  0.32680342817E+01 -0.19152403810E+01  0.42584772382E+01  0.51100000000E-03 0. -1.
        -11    1    3    3    0    0 -0.12992375879E+02 -0.13676582613E+02 -0.97065181166E+01  0.21214788172E+02  0.51100000000E-03 0.  1.
         12    1    3    3    0    0 -0.10486924487E+02 -0.15418466883E+02 -0.12256029128E+02  0.22314008072E+02  0.00000000000E+00 0. -1.
</event>
<event>
 7    1  0.5426550E-010  0.4778723E+02  0.7816164E-02  0.1312668E+00
        -11   -1    0    0    0    0  0.00000000000E+00  0.00000000000E+00  0.45593999997E+02  0.45594000000E+02  0.51100000000E-03 0.  1.
         11   -1    0    0    0    0 -0.00000000000E+00 -0.00000000000E+00 -0.45593999997E+02  0.45594000000E+02  0.51100000000E-03 0. -1.
    9900012    2    1    2    0    0 -0.24484596787E+02 -0.15316606345E+02  0.32396491229E+02  0.47787233259E+02  0.19999827722E+02 0.  0.
         12    1    1    2    0    0  0.24484596787E+02  0.15316606345E+02 -0.32396491229E+02  0.43400766741E+02  0.00000000000E+00 0. -1.
         11    1    3    3    0    0 -0.11279459972E+02 -0.30849715244E+01  0.22323363457E+02  0.25200710761E+02  0.51100000000E-03 0.  1.
        -11    1    3    3    0    0 -0.11733700701E+01  0.66574548318E+00  0.35211168693E+01  0.37707132798E+01  0.51100000000E-03 0. -1.
         12    1    3    3    0    0 -0.12031766744E+02 -0.12897380303E+02  0.65520109027E+01  0.18815809219E+02  0.00000000000E+00 0. -1.
</event>
<event>
 7    1  0.5426550E-010  0.4778727E+02  0.7816164E-02  0.1312668E+00
        -11   -1    0    0    0    0  0.00000000000E+00  0.00000000000E+00  0.45593999997E+02  0.45594000000E+02  0.51100000000E-03 0. -1.
         11   -1    0    0    0    0 -0.00000000000E+00 -0.00000000000E+00 -0.45593999997E+02  0.45594000000E+02  0.51100000000E-03 0.  1.
    9900012    2    1    2    0    0  0.40820665955E+02 -0.21231785536E+01 -0.14587279553E+02  0.47787269811E+02  0.19999994378E+02 0.  0.
         12    1    1    2    0    0 -0.40820665955E+02  0.21231785536E+01  0.14587279553E+02  0.43400730189E+02  0.00000000000E+00 0. -1.
         11    1    3    3    0    0  0.22957050961E+02 -0.70921098456E+01 -0.10148202597E+02  0.26082757275E+02  0.51100000000E-03 0. -1.
        -11    1    3    3    0    0  0.47565101141E+01  0.63577214378E+01 -0.28151499825E+01  0.84243741626E+01  0.51100000000E-03 0.  1.
        -12    1    3    3    0    0  0.13107104880E+02 -0.13887901458E+01 -0.16239269734E+01  0.13280138373E+02  0.00000000000E+00 0.  1.
</event>
<event>
 7    1  0.5426550E-010  0.4778727E+02  0.7816164E-02  0.1312668E+00
        -11   -1    0    0    0    0  0.00000000000E+00  0.00000000000E+00  0.45593999997E+02  0.45594000000E+02  0.51100000000E-03 0. -1.
         11   -1    0    0    0    0 -0.00000000000E+00 -0.00000000000E+00 -0.45593999997E+02  0.45594000000E+02  0.51100000000E-03 0.  1.
    9900012    2    1    2    0    0  0.77192204856E+01  0.16520085708E+02 -0.39384307966E+02  0.47787270620E+02  0.19999998065E+02 0.  0.
         12    1    1    2    0    0 -0.77192204856E+01 -0.16520085708E+02  0.39384307966E+02  0.43400729380E+02  0.00000000000E+00 0. -1.
         11    1    3    3    0    0  0.26539599628E+01  0.12104757462E+02 -0.65071661862E+01  0.13996852101E+02  0.51100000000E-03 0. -1.
        -11    1    3    3    0    0  0.21650699197E+01  0.19590795405E-01 -0.14943344155E+02  0.15099385628E+02  0.51100000000E-03 0.  1.
         12    1    3    3    0    0  0.29001906031E+01  0.43957374508E+01 -0.17933797625E+02  0.18691032891E+02  0.00000000000E+00 0. -1.
</event>
<event>
 7    1  0.5426550E-010  0.4778727E+02  0.7816164E-02  0.1312668E+00
        -11   -1    0    0    0    0  0.00000000000E+00  0.00000000000E+00  0.45593999997E+02  0.45594000000E+02  0.51100000000E-03 0. -1.
         11   -1    0    0    0    0 -0.00000000000E+00 -0.00000000000E+00 -0.45593999997E+02  0.45594000000E+02  0.51100000000E-03 0.  1.
    9900012    2    1    2    0    0 -0.13987370944E+02  0.38616808445E+02  0.14025647404E+02  0.47787271601E+02  0.20000002538E+02 0.  0.
         12    1    1    2    0    0  0.13987370944E+02 -0.38616808445E+02 -0.14025647404E+02  0.43400728399E+02  0.00000000000E+00 0. -1.
         11    1    3    3    0    0 -0.28711258480E+01  0.15432673878E+02  0.57882645843E+01  0.16730654316E+02  0.51100000000E-03 0. -1.
        -11    1    3    3    0    0 -0.96349453019E+01  0.14035605279E+02 -0.21226835218E+01  0.17156228377E+02  0.51100000000E-03 0.  1.
        -12    1    3    3    0    0 -0.14812997944E+01  0.91485292880E+01  0.10360066341E+02  0.13900388909E+02  0.00000000000E+00 0.  1.
</event>
<event>
 7    1  0.5426550E-010  0.4778727E+02  0.7816164E-02  0.1312668E+00
        -11   -1    0    0    0    0  0.00000000000E+00  0.00000000000E+00  0.45593999997E+02  0.45594000000E+02  0.51100000000E-03 0.  1.
         11   -1    0    0    0    0 -0.00000000000E+00 -0.00000000000E+00 -0.45593999997E+02  0.45594000000E+02  0.51100000000E-03 0. -1.
    9900012    2    1    2    0    0  0.56892921415E+01 -0.37068637596E+02  0.21844249637E+02  0.47787272120E+02  0.20000004906E+02 0.  0.
         12    1    1    2    0    0 -0.56892921415E+01  0.37068637596E+02 -0.21844249637E+02  0.43400727880E+02  0.00000000000E+00 0. -1.
         11    1    3    3    0    0 -0.29344191028E+01 -0.12956726558E+02  0.13698491371E+02  0.19082354275E+02  0.51100000000E-03 0. -1.
        -11    1    3    3    0    0  0.10436990773E+02 -0.15253669383E+02  0.53982741128E+01  0.19254780438E+02  0.51100000000E-03 0.  1.
        -12    1    3    3    0    0 -0.18132795284E+01 -0.88582416542E+01  0.27474841532E+01  0.94501374077E+01  0.00000000000E+00 0.  1.
</event>
<event>
 7    1  0.5426550E-010  0.4778727E+02  0.7816164E-02  0.1312668E+00
        -11   -1    0    0    0    0  0.00000000000E+00  0.00000000000E+00  0.45593999997E+02  0.45594000000E+02  0.51100000000E-03 0.  1.
         11   -1    0    0    0    0 -0.00000000000E+00 -0.00000000000E+00 -0.45593999997E+02  0.45594000000E+02  0.51100000000E-03 0. -1.
    9900012    2    1    2    0    0  0.33444737548E+02 -0.14735265474E+01  0.27620666616E+02  0.47787274494E+02  0.20000015727E+02 0.  0.
         12    1    1    2    0    0 -0.33444737548E+02  0.14735265474E+01 -0.27620666616E+02  0.43400725506E+02  0.00000000000E+00 0. -1.
         11    1    3    3    0    0  0.28116040852E+01  0.64701758929E+01  0.40175027397E+01  0.81184125382E+01  0.51100000000E-03 0. -1.
        -11    1    3    3    0    0  0.27448171519E+02 -0.68390983981E+01  0.22424904439E+02  0.36097807773E+02  0.51100000000E-03 0.  1.
         12    1    3    3    0    0  0.31849619441E+01 -0.11046040422E+01  0.11782594372E+01  0.35710541828E+01  0.00000000000E+00 0. -1.
</event>
<event>
 7    1  0.5426550E-010  0.4778727E+02  0.7816164E-02  0.1312668E+00
        -11   -1    0    0    0    0  0.00000000000E+00  0.00000000000E+00  0.45593999997E+02  0.45594000000E+02  0.51100000000E-03 0.  1.
         11   -1    0    0    0    0 -0.00000000000E+00 -0.00000000000E+00 -0.45593999997E+02  0.45594000000E+02  0.51100000000E-03 0. -1.
    9900012    2    1    2    0    0  0.15395814929E+02  0.96817772786E+01  0.39406286424E+02  0.47787270302E+02  0.19999996615E+02 0.  0.
         12    1    1    2    0    0 -0.15395814929E+02 -0.96817772786E+01 -0.39406286424E+02  0.43400729698E+02  0.00000000000E+00 0. -1.
         11    1    3    3    0    0  0.68730710770E+01  0.13617619252E+01  0.16309863775E+01  0.71939987764E+01  0.51100000000E-03 0. -1.
        -11    1    3    3    0    0  0.10087534888E+02  0.82649615531E+01  0.35597116360E+02  0.37910719368E+02  0.51100000000E-03 0.  1.
         12    1    3    3    0    0 -0.15647910357E+01  0.55053800266E-01  0.21781836864E+01  0.26825521575E+01  0.00000000000E+00 0. -1.
</event>
<event>
 7    1  0.5426550E-010  0.4778727E+02  0.7816164E-02  0.1312668E+00
        -11   -1    0    0    0    0  0.00000000000E+00  0.00000000000E+00  0.45593999997E+02  0.45594000000E+02  0.51100000000E-03 0.  1.
         11   -1    0    0    0    0 -0.00000000000E+00 -0.00000000000E+00 -0.45593999997E+02  0.45594000000E+02  0.51100000000E-03 0. -1.
    9900012    2    1    2    0    0  0.20475846781E+02 -0.29139434706E+02  0.24804360951E+02  0.47787270990E+02  0.19999999754E+02 0.  0.
         12    1    1    2    0    0 -0.20475846781E+02  0.29139434706E+02 -0.24804360951E+02  0.43400729010E+02  0.00000000000E+00 0. -1.
         11    1    3    3    0    0  0.63361275626E+01 -0.10439736817E+02  0.17744480027E+02  0.21540686827E+02  0.51100000000E-03 0. -1.
        -11    1    3    3    0    0  0.14385849601E+02 -0.14727920954E+02  0.81151942487E+01  0.22129634031E+02  0.51100000000E-03 0.  1.
         12    1    3    3    0    0 -0.24613038338E+00 -0.39717769341E+01 -0.10553133241E+01  0.41169501323E+01  0.00000000000E+00 0. -1.
</event>
<event>
 7    1  0.5426550E-010  0.4778727E+02  0.7816164E-02  0.1312668E+00
        -11   -1    0    0    0    0  0.00000000000E+00  0.00000000000E+00  0.45593999997E+02  0.45594000000E+02  0.51100000000E-03 0.  1.
         11   -1    0    0    0    0 -0.00000000000E+00 -0.00000000000E+00 -0.45593999997E+02  0.45594000000E+02  0.51100000000E-03 0. -1.
    9900012    2    1    2    0    0 -0.13172603754E+02 -0.20036775257E+02  0.36175037368E+02  0.47787272116E+02  0.20000004884E+02 0.  0.
         12    1    1    2    0    0  0.13172603754E+02  0.20036775257E+02 -0.36175037368E+02  0.43400727884E+02  0.00000000000E+00 0. -1.
         11    1    3    3    0    0 -0.83474610930E+01 -0.21380121091E+02  0.19479426557E+02  0.30103782882E+02  0.51100000000E-03 0. -1.
        -11    1    3    3    0    0 -0.41264813437E+01  0.11101686386E-01  0.99417807212E+01  0.10764152345E+02  0.51100000000E-03 0.  1.
         12    1    3    3    0    0 -0.69866131745E+00  0.13322441476E+01  0.67538300894E+01  0.69193368889E+01  0.00000000000E+00 0. -1.
</event>
<event>
 7    1  0.5426550E-010  0.4778728E+02  0.7816164E-02  0.1312668E+00
        -11   -1    0    0    0    0  0.00000000000E+00  0.00000000000E+00  0.45593999997E+02  0.45594000000E+02  0.51100000000E-03 0. -1.
         11   -1    0    0    0    0 -0.00000000000E+00 -0.00000000000E+00 -0.45593999997E+02  0.45594000000E+02  0.51100000000E-03 0.  1.
    9900012    2    1    2    0    0  0.19028946798E+02  0.28358616824E+02 -0.26782654911E+02  0.47787279171E+02  0.20000037051E+02 0.  0.
         12    1    1    2    0    0 -0.19028946798E+02 -0.28358616824E+02  0.26782654911E+02  0.43400720829E+02  0.00000000000E+00 0. -1.
         11    1    3    3    0    0 -0.18489145389E+01  0.11995714537E+02 -0.72589518890E+01  0.14142419702E+02  0.51100000000E-03 0.  1.
        -11    1    3    3    0    0  0.64596766530E+01  0.14217852087E+01 -0.41350126323E+01  0.78004631511E+01  0.51100000000E-03 0. -1.
         12    1    3    3    0    0  0.14418184684E+02  0.14941117078E+02 -0.15388690390E+02  0.25844396318E+02  0.00000000000E+00 0. -1.
</event>
<event>
 7    1  0.5426550E-010  0.4778727E+02  0.7816164E-02  0.1312668E+00
        -11   -1    0    0    0    0  0.00000000000E+00  0.00000000000E+00  0.45593999997E+02  0.45594000000E+02  0.51100000000E-03 0.  1.
         11   -1    0    0    0    0 -0.00000000000E+00 -0.00000000000E+00 -0.45593999997E+02  0.45594000000E+02  0.51100000000E-03 0. -1.
    9900012    2    1    2    0    0  0.28323602438E+01 -0.59268700139E+00  0.43304153607E+02  0.47787271180E+02  0.20000000620E+02 0.  0.
         12    1    1    2    0    0 -0.28323602438E+01  0.59268700139E+00 -0.43304153607E+02  0.43400728820E+02  0.00000000000E+00 0. -1.
         11    1    3    3    0    0 -0.50970031764E+01 -0.38101814679E+01  0.72702353698E+01  0.96619483952E+01  0.51100000000E-03 0. -1.
        -11    1    3    3    0    0  0.93799668301E+01  0.37444026415E+01  0.24673768090E+02  0.26660816958E+02  0.51100000000E-03 0.  1.
        -12    1    3    3    0    0 -0.14506034098E+01 -0.52690817502E+00  0.11360150148E+02  0.11464505827E+02  0.00000000000E+00 0.  1.
</event>
<event>
 7    1  0.5426550E-010  0.4778727E+02  0.7816164E-02  0.1312668E+00
        -11   -1    0    0    0    0  0.00000000000E+00  0.00000000000E+00  0.45593999997E+02  0.45594000000E+02  0.51100000000E-03 0.  1.
         11   -1    0    0    0    0 -0.00000000000E+00 -0.00000000000E+00 -0.45593999997E+02  0.45594000000E+02  0.51100000000E-03 0. -1.
    9900012    2    1    2    0    0  0.19940577996E+02 -0.38548192627E+02  0.18422489811E+00  0.47787265623E+02  0.19999975283E+02 0.  0.
         12    1    1    2    0    0 -0.19940577996E+02  0.38548192627E+02 -0.18422489811E+00  0.43400734377E+02  0.00000000000E+00 0. -1.
         11    1    3    3    0    0  0.10671807156E+00 -0.58581986622E+00  0.28940028941E+01  0.29546280096E+01  0.51100000000E-03 0.  1.
        -11    1    3    3    0    0  0.13452933308E+02 -0.20835870273E+02 -0.75514065068E+01  0.25925636831E+02  0.51100000000E-03 0. -1.
        -12    1    3    3    0    0  0.63809266160E+01 -0.17126502488E+02  0.48416285108E+01  0.18907000783E+02  0.00000000000E+00 0.  1.
</event>
<event>
 7    1  0.5426550E-010  0.4778722E+02  0.7816164E-02  0.1312668E+00
        -11   -1    0    0    0    0  0.00000000000E+00  0.00000000000E+00  0.45593999997E+02  0.45594000000E+02  0.51100000000E-03 0.  1.
         11   -1    0    0    0    0 -0.00000000000E+00 -0.00000000000E+00 -0.45593999997E+02  0.45594000000E+02  0.51100000000E-03 0. -1.
    9900012    2    1    2    0    0  0.15606799817E+02  0.29235779225E+02  0.28023649290E+02  0.47787217669E+02  0.19999756640E+02 0.  0.
         12    1    1    2    0    0 -0.15606799817E+02 -0.29235779225E+02 -0.28023649290E+02  0.43400782331E+02  0.00000000000E+00 0. -1.
         11    1    3    3    0    0  0.11235520903E+02  0.35806745431E+01  0.10127179392E+02  0.15544063910E+02  0.51100000000E-03 0. -1.
        -11    1    3    3    0    0  0.45435651898E+01  0.18982071905E+02  0.16175168581E+02  0.25349538799E+02  0.51100000000E-03 0.  1.
        -12    1    3    3    0    0 -0.17228627559E+00  0.66730327765E+01  0.17213013166E+01  0.68936149602E+01  0.00000000000E+00 0.  1.
</event>
<event>
 7    1  0.5426550E-010  0.4778728E+02  0.7816164E-02  0.1312668E+00
        -11   -1    0    0    0    0  0.00000000000E+00  0.00000000000E+00  0.45593999997E+02  0.45594000000E+02  0.51100000000E-03 0.  1.
         11   -1    0    0    0    0 -0.00000000000E+00 -0.00000000000E+00 -0.45593999997E+02  0.45594000000E+02  0.51100000000E-03 0. -1.
    9900012    2    1    2    0    0 -0.35949514204E+02 -0.13676749371E+02  0.20104754215E+02  0.47787283567E+02  0.20000057094E+02 0.  0.
         12    1    1    2    0    0  0.35949514204E+02  0.13676749371E+02 -0.20104754215E+02  0.43400716433E+02  0.00000000000E+00 0. -1.
         11    1    3    3    0    0  0.14158203930E+01  0.81234881395E+00  0.33088338861E+01  0.36895582293E+01  0.51100000000E-03 0. -1.
        -11    1    3    3    0    0 -0.18678421374E+02 -0.86078878375E+01  0.47762580962E+01  0.21113782222E+02  0.51100000000E-03 0.  1.
         12    1    3    3    0    0 -0.18686913223E+02 -0.58812103479E+01  0.12019662232E+02  0.22983943115E+02  0.00000000000E+00 0. -1.
</event>
<event>
 7    1  0.5426550E-010  0.4778722E+02  0.7816164E-02  0.1312668E+00
        -11   -1    0    0    0    0  0.00000000000E+00  0.00000000000E+00  0.45593999997E+02  0.45594000000E+02  0.51100000000E-03 0.  1.
         11   -1    0    0    0    0 -0.00000000000E+00 -0.00000000000E+00 -0.45593999997E+02  0.45594000000E+02  0.51100000000E-03 0. -1.
    9900012    2    1    2    0    0  0.22686952074E+02  0.14267765915E+02  0.34137386884E+02  0.47787215193E+02  0.19999745348E+02 0.  0.
         12    1    1    2    0    0 -0.22686952074E+02 -0.14267765915E+02 -0.34137386884E+02  0.43400784807E+02  0.00000000000E+00 0. -1.
         11    1    3    3    0    0  0.10114023971E+02  0.70064463852E+01  0.53060334883E+01  0.13399170253E+02  0.51100000000E-03 0. -1.
        -11    1    3    3    0    0  0.83005579006E+01  0.92889063266E+01  0.13616282089E+02  0.18454977117E+02  0.51100000000E-03 0.  1.
         12    1    3    3    0    0  0.42723702027E+01 -0.20275867967E+01  0.15215071307E+02  0.15933067822E+02  0.00000000000E+00 0. -1.
</event>
<event>
 7    1  0.5426550E-010  0.4778726E+02  0.7816164E-02  0.1312668E+00
        -11   -1    0    0    0    0  0.00000000000E+00  0.00000000000E+00  0.45593999997E+02  0.45594000000E+02  0.51100000000E-03 0. -1.
         11   -1    0    0    0    0 -0.00000000000E+00 -0.00000000000E+00 -0.45593999997E+02  0.45594000000E+02  0.51100000000E-03 0.  1.
    9900012    2    1    2    0    0  0.30855870410E+02  0.23852405520E+02 -0.19042119881E+02  0.47787259023E+02  0.19999945187E+02 0.  0.
         12    1    1    2    0    0 -0.30855870410E+02 -0.23852405520E+02  0.19042119881E+02  0.43400740977E+02  0.00000000000E+00 0. -1.
         11    1    3    3    0    0  0.86716225790E+01  0.94063391765E+01  0.15207810025E+01  0.12883673000E+02  0.51100000000E-03 0.  1.
        -11    1    3    3    0    0  0.12926288980E+02  0.35858260832E+01 -0.13303283188E+02  0.18892443974E+02  0.51100000000E-03 0. -1.
        -12    1    3    3    0    0  0.92579588513E+01  0.10860240260E+02 -0.72596176953E+01  0.16011142048E+02  0.00000000000E+00 0.  1.
</event>
<event>
 7    1  0.5426550E-010  0.4778727E+02  0.7816164E-02  0.1312668E+00
        -11   -1    0    0    0    0  0.00000000000E+00  0.00000000000E+00  0.45593999997E+02  0.45594000000E+02  0.51100000000E-03 0. -1.
         11   -1    0    0    0    0 -0.00000000000E+00 -0.00000000000E+00 -0.45593999997E+02  0.45594000000E+02  0.51100000000E-03 0.  1.
    9900012    2    1    2    0    0  0.32081170529E+02  0.15003573978E+02 -0.25086137034E+02  0.47787274131E+02  0.20000014074E+02 0.  0.
         12    1    1    2    0    0 -0.32081170529E+02 -0.15003573978E+02  0.25086137034E+02  0.43400725869E+02  0.00000000000E+00 0. -1.
         11    1    3    3    0    0  0.16294741469E+02  0.48829212482E+01 -0.34072601877E+01  0.17348514107E+02  0.51100000000E-03 0. -1.
        -11    1    3    3    0    0 -0.65034617221E+00  0.28472964105E+01 -0.56295665891E+01  0.63420869779E+01  0.51100000000E-03 0.  1.
         12    1    3    3    0    0  0.16436775232E+02  0.72733563196E+01 -0.16049310258E+02  0.24096673047E+02  0.00000000000E+00 0. -1.
</event>
<event>
 7    1  0.5426550E-010  0.4778727E+02  0.7816164E-02  0.1312668E+00
        -11   -1    0    0    0    0  0.00000000000E+00  0.00000000000E+00  0.45593999997E+02  0.45594000000E+02  0.51100000000E-03 0. -1.
         11   -1    0    0    0    0 -0.00000000000E+00 -0.00000000000E+00 -0.45593999997E+02  0.45594000000E+02  0.51100000000E-03 0.  1.
    9900012    2    1    2    0    0 -0.16006133850E+02 -0.11962833443E+02 -0.38526840721E+02  0.47787272348E+02  0.20000005944E+02 0.  0.
         12    1    1    2    0    0  0.16006133850E+02  0.11962833443E+02  0.38526840721E+02  0.43400727652E+02  0.00000000000E+00 0. -1.
         11    1    3    3    0    0 -0.15886204604E+02 -0.49756598598E+01 -0.14832577729E+02  0.22296503092E+02  0.51100000000E-03 0. -1.
        -11    1    3    3    0    0 -0.29937842342E+01 -0.29630530883E+01 -0.80773541583E+01  0.91096694839E+01  0.51100000000E-03 0.  1.
         12    1    3    3    0    0  0.28738549887E+01 -0.40241204947E+01 -0.15616908833E+02  0.16381099772E+02  0.00000000000E+00 0. -1.
</event>
<event>
 7    1  0.5426550E-010  0.4778727E+02  0.7816164E-02  0.1312668E+00
        -11   -1    0    0    0    0  0.00000000000E+00  0.00000000000E+00  0.45593999997E+02  0.45594000000E+02  0.51100000000E-03 0.  1.
         11   -1    0    0    0    0 -0.00000000000E+00 -0.00000000000E+00 -0.45593999997E+02  0.45594000000E+02  0.51100000000E-03 0. -1.
    9900012    2    1    2    0    0  0.11469589195E+02  0.32764969172E+02  0.26048581863E+02  0.47787270764E+02  0.19999998723E+02 0.  0.
         12    1    1    2    0    0 -0.11469589195E+02 -0.32764969172E+02 -0.26048581863E+02  0.43400729236E+02  0.00000000000E+00 0. -1.
         11    1    3    3    0    0  0.88419870171E+01  0.24943806592E+02  0.15891884288E+02  0.30869502882E+02  0.51100000000E-03 0. -1.
        -11    1    3    3    0    0 -0.41183479123E+01  0.41429863745E+01  0.41718186501E+01  0.71783839920E+01  0.51100000000E-03 0.  1.
         12    1    3    3    0    0  0.67459500898E+01  0.36781762051E+01  0.59848789253E+01  0.97393838902E+01  0.00000000000E+00 0. -1.
</event>
<event>
 7    1  0.5426550E-010  0.4778727E+02  0.7816164E-02  0.1312668E+00
        -11   -1    0    0    0    0  0.00000000000E+00  0.00000000000E+00  0.45593999997E+02  0.45594000000E+02  0.51100000000E-03 0.  1.
         11   -1    0    0    0    0 -0.00000000000E+00 -0.00000000000E+00 -0.45593999997E+02  0.45594000000E+02  0.51100000000E-03 0. -1.
    9900012    2    1    2    0    0 -0.19077843536E+02  0.13991340823E+02  0.36385458495E+02  0.47787270491E+02  0.19999997476E+02 0.  0.
         12    1    1    2    0    0  0.19077843536E+02 -0.13991340823E+02 -0.36385458495E+02  0.43400729509E+02  0.00000000000E+00 0. -1.
         11    1    3    3    0    0  0.52225601308E+00  0.40610075599E+00 -0.22715522840E+01  0.23659288255E+01  0.51100000000E-03 0. -1.
        -11    1    3    3    0    0 -0.11825438263E+02  0.82313774732E+01  0.23437057476E+02  0.27511674406E+02  0.51100000000E-03 0.  1.
         12    1    3    3    0    0 -0.77746612859E+01  0.53538625943E+01  0.15219953303E+02  0.17909667259E+02  0.00000000000E+00 0. -1.
</event>
<event>
 7    1  0.5426550E-010  0.4778728E+02  0.7816164E-02  0.1312668E+00
        -11   -1    0    0    0    0  0.00000000000E+00  0.00000000000E+00  0.45593999997E+02  0.45594000000E+02  0.51100000000E-03 0.  1.
         11   -1    0    0    0    0 -0.00000000000E+00 -0.00000000000E+00 -0.45593999997E+02  0.45594000000E+02  0.51100000000E-03 0. -1.
    9900012    2    1    2    0    0  0.15387283931E+02 -0.13976422716E+02  0.38098740097E+02  0.47787275401E+02  0.20000019864E+02 0.  0.
         12    1    1    2    0    0 -0.15387283931E+02  0.13976422716E+02 -0.38098740097E+02  0.43400724599E+02  0.00000000000E+00 0. -1.
         11    1    3    3    0    0  0.38281930401E+01 -0.10230083457E+02  0.26492216964E+02  0.28655666620E+02  0.51100000000E-03 0. -1.
        -11    1    3    3    0    0  0.56917494649E+01 -0.62579597162E+01  0.86465375894E+01  0.12096308707E+02  0.51100000000E-03 0.  1.
         12    1    3    3    0    0  0.58673414257E+01  0.25116204569E+01  0.29599855440E+01  0.70353000750E+01  0.00000000000E+00 0. -1.
</event>
<event>
 7    1  0.5426550E-010  0.4778727E+02  0.7816164E-02  0.1312668E+00
        -11   -1    0    0    0    0  0.00000000000E+00  0.00000000000E+00  0.45593999997E+02  0.45594000000E+02  0.51100000000E-03 0.  1.
         11   -1    0    0    0    0 -0.00000000000E+00 -0.00000000000E+00 -0.45593999997E+02  0.45594000000E+02  0.51100000000E-03 0. -1.
    9900012    2    1    2    0    0  0.20172185124E+02  0.22207901797E+02  0.31361047149E+02  0.47787271513E+02  0.20000002138E+02 0.  0.
         12    1    1    2    0    0 -0.20172185124E+02 -0.22207901797E+02 -0.31361047149E+02  0.43400728487E+02  0.00000000000E+00 0. -1.
         11    1    3    3    0    0  0.53536695479E+01  0.15844926183E+02  0.12506316325E+02  0.20883759519E+02  0.51100000000E-03 0. -1.
        -11    1    3    3    0    0  0.99909669841E+01 -0.12929677801E+01  0.88160005587E+01  0.13387047960E+02  0.51100000000E-03 0.  1.
         12    1    3    3    0    0  0.48275485919E+01  0.76559433944E+01  0.10038730265E+02  0.13516464034E+02  0.00000000000E+00 0. -1.
</event>
<event>
 7    1  0.5426550E-010  0.4778727E+02  0.7816164E-02  0.1312668E+00
        -11   -1    0    0    0    0  0.00000000000E+00  0.00000000000E+00  0.45593999997E+02  0.45594000000E+02  0.51100000000E-03 0. -1.
         11   -1    0    0    0    0 -0.00000000000E+00 -0.00000000000E+00 -0.45593999997E+02  0.45594000000E+02  0.51100000000E-03 0.  1.
    9900012    2    1    2    0    0 -0.35412152310E+02 -0.19025664108E+01 -0.25019654624E+02  0.47787269503E+02  0.19999992970E+02 0.  0.
         12    1    1    2    0    0  0.35412152310E+02  0.19025664108E+01  0.25019654624E+02  0.43400730497E+02  0.00000000000E+00 0. -1.
         11    1    3    3    0    0 -0.55420418009E+01  0.36168812310E+01 -0.11362730203E+02  0.13149437063E+02  0.51100000000E-03 0. -1.
        -11    1    3    3    0    0 -0.29813051938E+02 -0.59131025636E+01 -0.11583026289E+02  0.32526133279E+02  0.51100000000E-03 0.  1.
        -12    1    3    3    0    0 -0.57058570906E-01  0.39365492187E+00 -0.20738981329E+01  0.21116991603E+01  0.00000000000E+00 0.  1.
</event>
<event>
 7    1  0.5426550E-010  0.4778727E+02  0.7816164E-02  0.1312668E+00
        -11   -1    0    0    0    0  0.00000000000E+00  0.00000000000E+00  0.45593999997E+02  0.45594000000E+02  0.51100000000E-03 0. -1.
         11   -1    0    0    0    0 -0.00000000000E+00 -0.00000000000E+00 -0.45593999997E+02  0.45594000000E+02  0.51100000000E-03 0.  1.
    9900012    2    1    2    0    0 -0.26354020335E+02  0.19736939923E+02 -0.28276173949E+02  0.47787271912E+02  0.20000003956E+02 0.  0.
         12    1    1    2    0    0  0.26354020335E+02 -0.19736939923E+02  0.28276173949E+02  0.43400728088E+02  0.00000000000E+00 0. -1.
         11    1    3    3    0    0  0.81277675149E+00  0.70657526166E+01 -0.35080550110E+01  0.79304423778E+01  0.51100000000E-03 0. -1.
        -11    1    3    3    0    0 -0.15056638169E+02  0.22476773308E+01 -0.11288852959E+02  0.18952377364E+02  0.51100000000E-03 0.  1.
        -12    1    3    3    0    0 -0.12110158917E+02  0.10423509976E+02 -0.13479265979E+02  0.20904452171E+02  0.00000000000E+00 0.  1.
</event>
<event>
 7    1  0.5426550E-010  0.4778727E+02  0.7816164E-02  0.1312668E+00
        -11   -1    0    0    0    0  0.00000000000E+00  0.00000000000E+00  0.45593999997E+02  0.45594000000E+02  0.51100000000E-03 0.  1.
         11   -1    0    0    0    0 -0.00000000000E+00 -0.00000000000E+00 -0.45593999997E+02  0.45594000000E+02  0.51100000000E-03 0. -1.
    9900012    2    1    2    0    0 -0.90521671626E+01 -0.24789180680E+02  0.34455449507E+02  0.47787271782E+02  0.20000003362E+02 0.  0.
         12    1    1    2    0    0  0.90521671626E+01  0.24789180680E+02 -0.34455449507E+02  0.43400728218E+02  0.00000000000E+00 0. -1.
         11    1    3    3    0    0  0.46366855635E+01 -0.57368957600E+01  0.18328942929E+01  0.76006794253E+01  0.51100000000E-03 0. -1.
        -11    1    3    3    0    0 -0.81416118878E+01 -0.11559178825E+02  0.20103466832E+02  0.24577425377E+02  0.51100000000E-03 0.  1.
         12    1    3    3    0    0 -0.55472408382E+01 -0.74931060950E+01  0.12519088383E+02  0.15609166980E+02  0.00000000000E+00 0. -1.
</event>
<event>
 7    1  0.5426550E-010  0.4778727E+02  0.7816164E-02  0.1312668E+00
        -11   -1    0    0    0    0  0.00000000000E+00  0.00000000000E+00  0.45593999997E+02  0.45594000000E+02  0.51100000000E-03 0.  1.
         11   -1    0    0    0    0 -0.00000000000E+00 -0.00000000000E+00 -0.45593999997E+02  0.45594000000E+02  0.51100000000E-03 0. -1.
    9900012    2    1    2    0    0 -0.37009177406E+02  0.15500553491E+02  0.16543178871E+02  0.47787272610E+02  0.20000007139E+02 0.  0.
         12    1    1    2    0    0  0.37009177406E+02 -0.15500553491E+02 -0.16543178871E+02  0.43400727390E+02  0.00000000000E+00 0. -1.
         11    1    3    3    0    0 -0.16605618174E+02  0.95572784548E+01  0.14411418740E+02  0.23974509730E+02  0.51100000000E-03 0.  1.
        -11    1    3    3    0    0 -0.17895972489E+02  0.17701463303E+01 -0.10214142499E+01  0.18012288491E+02  0.51100000000E-03 0. -1.
         12    1    3    3    0    0 -0.25075867431E+01  0.41731287056E+01  0.31531743812E+01  0.58004743897E+01  0.00000000000E+00 0. -1.
</event>
<event>
 7    1  0.5426550E-010  0.4778727E+02  0.7816164E-02  0.1312668E+00
        -11   -1    0    0    0    0  0.00000000000E+00  0.00000000000E+00  0.45593999997E+02  0.45594000000E+02  0.51100000000E-03 0. -1.
         11   -1    0    0    0    0 -0.00000000000E+00 -0.00000000000E+00 -0.45593999997E+02  0.45594000000E+02  0.51100000000E-03 0.  1.
    9900012    2    1    2    0    0 -0.16711773273E+02 -0.22609291441E+02 -0.33062975480E+02  0.47787265295E+02  0.19999973785E+02 0.  0.
         12    1    1    2    0    0  0.16711773273E+02  0.22609291441E+02  0.33062975480E+02  0.43400734705E+02  0.00000000000E+00 0. -1.
         11    1    3    3    0    0 -0.32112866359E+01 -0.84461055054E+01 -0.10686291543E+02  0.13994494892E+02  0.51100000000E-03 0.  1.
        -11    1    3    3    0    0  0.37434302485E+01 -0.27136612810E+01 -0.41347498806E+01  0.62026917068E+01  0.51100000000E-03 0. -1.
        -12    1    3    3    0    0 -0.17243916886E+02 -0.11449524654E+02 -0.18241934056E+02  0.27590078696E+02  0.00000000000E+00 0.  1.
</event>
<event>
 7    1  0.5426550E-010  0.4778727E+02  0.7816164E-02  0.1312668E+00
        -11   -1    0    0    0    0  0.00000000000E+00  0.00000000000E+00  0.45593999997E+02  0.45594000000E+02  0.51100000000E-03 0.  1.
         11   -1    0    0    0    0 -0.00000000000E+00 -0.00000000000E+00 -0.45593999997E+02  0.45594000000E+02  0.51100000000E-03 0. -1.
    9900012    2    1    2    0    0  0.26169639139E+02  0.23963587459E+02  0.24990396755E+02  0.47787268824E+02  0.19999989878E+02 0.  0.
         12    1    1    2    0    0 -0.26169639139E+02 -0.23963587459E+02 -0.24990396755E+02  0.43400731176E+02  0.00000000000E+00 0. -1.
         11    1    3    3    0    0  0.18307298644E+01  0.35036998287E+01 -0.23440013910E+01  0.45958488996E+01  0.51100000000E-03 0. -1.
        -11    1    3    3    0    0 -0.66701852138E+00 -0.45834808040E+00  0.97151833889E+00  0.12644543545E+01  0.51100000000E-03 0.  1.
         12    1    3    3    0    0  0.25005927796E+02  0.20918235711E+02  0.26362879807E+02  0.41926965570E+02  0.00000000000E+00 0. -1.
</event>
<event>
 7    1  0.5426550E-010  0.4778727E+02  0.7816164E-02  0.1312668E+00
        -11   -1    0    0    0    0  0.00000000000E+00  0.00000000000E+00  0.45593999997E+02  0.45594000000E+02  0.51100000000E-03 0. -1.
         11   -1    0    0    0    0 -0.00000000000E+00 -0.00000000000E+00 -0.45593999997E+02  0.45594000000E+02  0.51100000000E-03 0.  1.
    9900012    2    1    2    0    0 -0.35290969276E+01 -0.38060532008E+01 -0.43089238814E+02  0.47787273420E+02  0.20000010831E+02 0.  0.
         12    1    1    2    0    0  0.35290969276E+01  0.38060532008E+01  0.43089238814E+02  0.43400726580E+02  0.00000000000E+00 0. -1.
         11    1    3    3    0    0 -0.37795200375E+00 -0.57414743489E+01 -0.47220431453E+01  0.74434580097E+01  0.51100000000E-03 0. -1.
        -11    1    3    3    0    0 -0.96384478554E+00  0.46925270954E+01 -0.55209418034E+01  0.73095557984E+01  0.51100000000E-03 0.  1.
        -12    1    3    3    0    0 -0.21873001383E+01 -0.27571059473E+01 -0.32846253866E+02  0.33034259612E+02  0.00000000000E+00 0.  1.
</event>
<event>
 7    1  0.5426550E-010  0.4778727E+02  0.7816164E-02  0.1312668E+00
        -11   -1    0    0    0    0  0.00000000000E+00  0.00000000000E+00  0.45593999997E+02  0.45594000000E+02  0.51100000000E-03 0. -1.
         11   -1    0    0    0    0 -0.00000000000E+00 -0.00000000000E+00 -0.45593999997E+02  0.45594000000E+02  0.51100000000E-03 0.  1.
    9900012    2    1    2    0    0  0.41664783840E+02  0.11399401718E+02  0.42098261319E+01  0.47787271803E+02  0.20000003460E+02 0.  0.
         12    1    1    2    0    0 -0.41664783840E+02 -0.11399401718E+02 -0.42098261319E+01  0.43400728197E+02  0.00000000000E+00 0. -1.
         11    1    3    3    0    0  0.28264236197E+02  0.84832531700E+01  0.92518362664E+01  0.30926188041E+02  0.51100000000E-03 0. -1.
        -11    1    3    3    0    0  0.10309848259E+02  0.38469797129E+00 -0.69441143305E+01  0.12436305229E+02  0.51100000000E-03 0.  1.
        -12    1    3    3    0    0  0.30906993841E+01  0.25314505762E+01  0.19021041960E+01  0.44247785340E+01  0.00000000000E+00 0.  1.
</event>
<event>
 7    1  0.5426550E-010  0.4778726E+02  0.7816164E-02  0.1312668E+00
        -11   -1    0    0    0    0  0.00000000000E+00  0.00000000000E+00  0.45593999997E+02  0.45594000000E+02  0.51100000000E-03 0.  1.
         11   -1    0    0    0    0 -0.00000000000E+00 -0.00000000000E+00 -0.45593999997E+02  0.45594000000E+02  0.51100000000E-03 0. -1.
    9900012    2    1    2    0    0  0.27040098453E+01 -0.42270061688E+02  0.94633297743E+01  0.47787258131E+02  0.19999941121E+02 0.  0.
         12    1    1    2    0    0 -0.27040098453E+01  0.42270061688E+02 -0.94633297743E+01  0.43400741869E+02  0.00000000000E+00 0. -1.
         11    1    3    3    0    0  0.19594224555E+01 -0.13927097404E+02  0.10945408761E+02  0.17821485675E+02  0.51100000000E-03 0. -1.
        -11    1    3    3    0    0 -0.19079565814E+01 -0.18782704419E+02 -0.48428418215E+01  0.19490597753E+02  0.51100000000E-03 0.  1.
        -12    1    3    3    0    0  0.26525439712E+01 -0.95602598648E+01  0.33607628348E+01  0.10475174702E+02  0.00000000000E+00 0.  1.
</event>
<event>
 7    1  0.5426550E-010  0.4778727E+02  0.7816164E-02  0.1312668E+00
        -11   -1    0    0    0    0  0.00000000000E+00  0.00000000000E+00  0.45593999997E+02  0.45594000000E+02  0.51100000000E-03 0. -1.
         11   -1    0    0    0    0 -0.00000000000E+00 -0.00000000000E+00 -0.45593999997E+02  0.45594000000E+02  0.51100000000E-03 0.  1.
    9900012    2    1    2    0    0  0.12088235726E+02  0.13510427096E+02 -0.39433064688E+02  0.47787266435E+02  0.19999978983E+02 0.  0.
         12    1    1    2    0    0 -0.12088235726E+02 -0.13510427096E+02  0.39433064688E+02  0.43400733565E+02  0.00000000000E+00 0. -1.
         11    1    3    3    0    0 -0.60138171040E+00 -0.23301482362E+01 -0.23472629543E+01  0.33616802944E+01  0.51100000000E-03 0. -1.
        -11    1    3    3    0    0  0.90178722247E+01  0.13943129857E+02 -0.16427824400E+02  0.23358217065E+02  0.51100000000E-03 0.  1.
        -12    1    3    3    0    0  0.36717452115E+01  0.18974454748E+01 -0.20657977334E+02  0.21067369075E+02  0.00000000000E+00 0.  1.
</event>
<event>
 7    1  0.5426550E-010  0.4778730E+02  0.7816164E-02  0.1312668E+00
        -11   -1    0    0    0    0  0.00000000000E+00  0.00000000000E+00  0.45593999997E+02  0.45594000000E+02  0.51100000000E-03 0.  1.
         11   -1    0    0    0    0 -0.00000000000E+00 -0.00000000000E+00 -0.45593999997E+02  0.45594000000E+02  0.51100000000E-03 0. -1.
    9900012    2    1    2    0    0 -0.37974255720E+02 -0.17095145906E+02  0.12220190250E+02  0.47787295388E+02  0.20000110994E+02 0.  0.
         12    1    1    2    0    0  0.37974255720E+02  0.17095145906E+02 -0.12220190250E+02  0.43400704612E+02  0.00000000000E+00 0. -1.
         11    1    3    3    0    0 -0.25158924770E+02 -0.15467339192E+01  0.89753952329E+01  0.26756711331E+02  0.51100000000E-03 0. -1.
        -11    1    3    3    0    0 -0.43290393977E+01 -0.91299871614E+01  0.21840548333E+01  0.10337666248E+02  0.51100000000E-03 0.  1.
         12    1    3    3    0    0 -0.84862915523E+01 -0.64184248253E+01  0.10607401836E+01  0.10692917810E+02  0.00000000000E+00 0. -1.
</event>
<event>
 7    1  0.5426550E-010  0.4778727E+02  0.7816164E-02  0.1312668E+00
        -11   -1    0    0    0    0  0.00000000000E+00  0.00000000000E+00  0.45593999997E+02  0.45594000000E+02  0.51100000000E-03 0. -1.
         11   -1    0    0    0    0 -0.00000000000E+00 -0.00000000000E+00 -0.45593999997E+02  0.45594000000E+02  0.51100000000E-03 0.  1.
    9900012    2    1    2    0    0 -0.19947641133E+02 -0.30840006580E+02  0.23121611638E+02  0.47787270543E+02  0.19999997714E+02 0.  0.
         12    1    1    2    0    0  0.19947641133E+02  0.30840006580E+02 -0.23121611638E+02  0.43400729457E+02  0.00000000000E+00 0. -1.
         11    1    3    3    0    0  0.76913167383E-01 -0.18675157164E+00 -0.79578729820E-01  0.21708251931E+00  0.51100000000E-03 0. -1.
        -11    1    3    3    0    0 -0.20826875652E+02 -0.32996985612E+02  0.22239969023E+02  0.44912982882E+02  0.51100000000E-03 0.  1.
        -12    1    3    3    0    0  0.80232135206E+00  0.23437306032E+01  0.96122134467E+00  0.26572051418E+01  0.00000000000E+00 0.  1.
</event>
<event>
 7    1  0.5426550E-010  0.4778724E+02  0.7816164E-02  0.1312668E+00
        -11   -1    0    0    0    0  0.00000000000E+00  0.00000000000E+00  0.45593999997E+02  0.45594000000E+02  0.51100000000E-03 0.  1.
         11   -1    0    0    0    0 -0.00000000000E+00 -0.00000000000E+00 -0.45593999997E+02  0.45594000000E+02  0.51100000000E-03 0. -1.
    9900012    2    1    2    0    0 -0.68688461542E+01 -0.34860813743E+02  0.24923254445E+02  0.47787239702E+02  0.19999857097E+02 0.  0.
         12    1    1    2    0    0  0.68688461542E+01  0.34860813743E+02 -0.24923254445E+02  0.43400760298E+02  0.00000000000E+00 0. -1.
         11    1    3    3    0    0  0.26449340860E+01 -0.13606931870E+01  0.33128629277E+01  0.44522155504E+01  0.51100000000E-03 0. -1.
        -11    1    3    3    0    0 -0.85250631227E+01 -0.33653150791E+02  0.17070292340E+02  0.38685994109E+02  0.51100000000E-03 0.  1.
        -12    1    3    3    0    0 -0.98871711750E+00  0.15303023496E+00  0.45400991778E+01  0.46490300424E+01  0.00000000000E+00 0.  1.
</event>
<event>
 7    1  0.5426550E-010  0.4778727E+02  0.7816164E-02  0.1312668E+00
        -11   -1    0    0    0    0  0.00000000000E+00  0.00000000000E+00  0.45593999997E+02  0.45594000000E+02  0.51100000000E-03 0.  1.
         11   -1    0    0    0    0 -0.00000000000E+00 -0.00000000000E+00 -0.45593999997E+02  0.45594000000E+02  0.51100000000E-03 0. -1.
    9900012    2    1    2    0    0  0.16427847270E+02 -0.32980892933E+02  0.22934904762E+02  0.47787270502E+02  0.19999997526E+02 0.  0.
         12    1    1    2    0    0 -0.16427847270E+02  0.32980892933E+02 -0.22934904762E+02  0.43400729498E+02  0.00000000000E+00 0. -1.
         11    1    3    3    0    0  0.15956116868E+02 -0.25992346972E+02  0.18092963610E+02  0.35462023336E+02  0.51100000000E-03 0. -1.
        -11    1    3    3    0    0  0.33567434116E+01  0.60357629111E-01  0.11108106320E+00  0.33591231949E+01  0.51100000000E-03 0.  1.
         12    1    3    3    0    0 -0.28850130100E+01 -0.70489035900E+01  0.47308600888E+01  0.89661239712E+01  0.00000000000E+00 0. -1.
</event>
<event>
 7    1  0.5426550E-010  0.4778727E+02  0.7816164E-02  0.1312668E+00
        -11   -1    0    0    0    0  0.00000000000E+00  0.00000000000E+00  0.45593999997E+02  0.45594000000E+02  0.51100000000E-03 0.  1.
         11   -1    0    0    0    0 -0.00000000000E+00 -0.00000000000E+00 -0.45593999997E+02  0.45594000000E+02  0.51100000000E-03 0. -1.
    9900012    2    1    2    0    0 -0.45783553076E+01 -0.32645882905E+02  0.28229565244E+02  0.47787270031E+02  0.19999995380E+02 0.  0.
         12    1    1    2    0    0  0.45783553076E+01  0.32645882905E+02 -0.28229565244E+02  0.43400729969E+02  0.00000000000E+00 0. -1.
         11    1    3    3    0    0 -0.51611677046E+01 -0.10983505358E+02  0.85721900626E+01  0.14857909838E+02  0.51100000000E-03 0. -1.
        -11    1    3    3    0    0  0.76059347931E+01 -0.10277876624E+02  0.73263723966E+01  0.14736374205E+02  0.51100000000E-03 0.  1.
        -12    1    3    3    0    0 -0.70231223961E+01 -0.11384500923E+02  0.12331002785E+02  0.18192985987E+02  0.00000000000E+00 0.  1.
</event>
<event>
 7    1  0.5426550E-010  0.4778728E+02  0.7816164E-02  0.1312668E+00
        -11   -1    0    0    0    0  0.00000000000E+00  0.00000000000E+00  0.45593999997E+02  0.45594000000E+02  0.51100000000E-03 0. -1.
         11   -1    0    0    0    0 -0.00000000000E+00 -0.00000000000E+00 -0.45593999997E+02  0.45594000000E+02  0.51100000000E-03 0.  1.
    9900012    2    1    2    0    0  0.24568209014E+02  0.12041517088E+02  0.33690171073E+02  0.47787278176E+02  0.20000032515E+02 0.  0.
         12    1    1    2    0    0 -0.24568209014E+02 -0.12041517088E+02 -0.33690171073E+02  0.43400721824E+02  0.00000000000E+00 0. -1.
         11    1    3    3    0    0  0.70657228028E+01 -0.23650657916E+01  0.47596438126E+01  0.88415035151E+01  0.51100000000E-03 0. -1.
        -11    1    3    3    0    0  0.10022368598E+02  0.15269527738E+02  0.22943487194E+02  0.29325926320E+02  0.51100000000E-03 0.  1.
        -12    1    3    3    0    0  0.74801176133E+01 -0.86294485876E+00  0.59870400660E+01  0.96198483403E+01  0.00000000000E+00 0.  1.
</event>
<event>
 7    1  0.5426550E-010  0.4778727E+02  0.7816164E-02  0.1312668E+00
        -11   -1    0    0    0    0  0.00000000000E+00  0.00000000000E+00  0.45593999997E+02  0.45594000000E+02  0.51100000000E-03 0.  1.
         11   -1    0    0    0    0 -0.00000000000E+00 -0.00000000000E+00 -0.45593999997E+02  0.45594000000E+02  0.51100000000E-03 0. -1.
    9900012    2    1    2    0    0  0.36992105159E+01 -0.62908445817E+01  0.42782757598E+02  0.47787271530E+02  0.20000002216E+02 0.  0.
         12    1    1    2    0    0 -0.36992105159E+01  0.62908445817E+01 -0.42782757598E+02  0.43400728470E+02  0.00000000000E+00 0. -1.
         11    1    3    3    0    0  0.37001436817E+01 -0.12888178943E+01  0.11045903131E+01  0.40709009876E+01  0.51100000000E-03 0. -1.
        -11    1    3    3    0    0 -0.58241740077E+01 -0.61242008200E+00  0.16801281012E+02  0.17792669983E+02  0.51100000000E-03 0.  1.
        -12    1    3    3    0    0  0.58232408418E+01 -0.43896066054E+01  0.24876886273E+02  0.25923700559E+02  0.00000000000E+00 0.  1.
</event>
<event>
 7    1  0.5426550E-010  0.4778726E+02  0.7816164E-02  0.1312668E+00
        -11   -1    0    0    0    0  0.00000000000E+00  0.00000000000E+00  0.45593999997E+02  0.45594000000E+02  0.51100000000E-03 0.  1.
         11   -1    0    0    0    0 -0.00000000000E+00 -0.00000000000E+00 -0.45593999997E+02  0.45594000000E+02  0.51100000000E-03 0. -1.
    9900012    2    1    2    0    0  0.15186093670E+02 -0.24884114092E+02  0.32152562665E+02  0.47787264280E+02  0.19999969160E+02 0.  0.
         12    1    1    2    0    0 -0.15186093670E+02  0.24884114092E+02 -0.32152562665E+02  0.43400735720E+02  0.00000000000E+00 0. -1.
         11    1    3    3    0    0  0.64052496022E+01  0.14459145507E+01  0.90026642934E+01  0.11142973391E+02  0.51100000000E-03 0. -1.
        -11    1    3    3    0    0  0.87572383152E+01 -0.24049327359E+02  0.18883123140E+02  0.31806158352E+02  0.51100000000E-03 0.  1.
        -12    1    3    3    0    0  0.23605752955E-01 -0.22807012838E+01  0.42667752308E+01  0.48381325372E+01  0.00000000000E+00 0.  1.
</event>
<event>
 7    1  0.5426550E-010  0.4778727E+02  0.7816164E-02  0.1312668E+00
        -11   -1    0    0    0    0  0.00000000000E+00  0.00000000000E+00  0.45593999997E+02  0.45594000000E+02  0.51100000000E-03 0. -1.
         11   -1    0    0    0    0 -0.00000000000E+00 -0.00000000000E+00 -0.45593999997E+02  0.45594000000E+02  0.51100000000E-03 0.  1.
    9900012    2    1    2    0    0  0.40218906202E+02 -0.16304170000E+02  0.48649811583E+00  0.47787273555E+02  0.20000011449E+02 0.  0.
         12    1    1    2    0    0 -0.40218906202E+02  0.16304170000E+02 -0.48649811583E+00  0.43400726445E+02  0.00000000000E+00 0. -1.
         11    1    3    3    0    0  0.16453060760E+02 -0.87746922220E+01  0.90686220284E+01  0.20734954490E+02  0.51100000000E-03 0. -1.
        -11    1    3    3    0    0  0.19925430073E+02 -0.82827763383E+01 -0.61231930774E+01  0.22430350893E+02  0.51100000000E-03 0.  1.
        -12    1    3    3    0    0  0.38404153696E+01  0.75329856050E+00 -0.24589308352E+01  0.46219681721E+01  0.00000000000E+00 0.  1.
</event>
<event>
 7    1  0.5426550E-010  0.4778727E+02  0.7816164E-02  0.1312668E+00
        -11   -1    0    0    0    0  0.00000000000E+00  0.00000000000E+00  0.45593999997E+02  0.45594000000E+02  0.51100000000E-03 0.  1.
         11   -1    0    0    0    0 -0.00000000000E+00 -0.00000000000E+00 -0.45593999997E+02  0.45594000000E+02  0.51100000000E-03 0. -1.
    9900012    2    1    2    0    0 -0.98020055000E+01  0.76096560591E+01  0.41588907114E+02  0.47787269913E+02  0.19999994841E+02 0.  0.
         12    1    1    2    0    0  0.98020055000E+01 -0.76096560591E+01 -0.41588907114E+02  0.43400730087E+02  0.00000000000E+00 0. -1.
         11    1    3    3    0    0  0.19773660386E+01 -0.35023450449E+01  0.18906423631E+01  0.44442013985E+01  0.51100000000E-03 0. -1.
        -11    1    3    3    0    0 -0.67016234161E+01  0.66509649763E+01  0.30503333926E+02  0.31931183386E+02  0.51100000000E-03 0.  1.
         12    1    3    3    0    0 -0.50777481224E+01  0.44610361277E+01  0.91949308243E+01  0.11411885129E+02  0.00000000000E+00 0. -1.
</event>
<event>
 7    1  0.5426550E-010  0.4778727E+02  0.7816164E-02  0.1312668E+00
        -11   -1    0    0    0    0  0.00000000000E+00  0.00000000000E+00  0.45593999997E+02  0.45594000000E+02  0.51100000000E-03 0. -1.
         11   -1    0    0    0    0 -0.00000000000E+00 -0.00000000000E+00 -0.45593999997E+02  0.45594000000E+02  0.51100000000E-03 0.  1.
    9900012    2    1    2    0    0  0.69404484938E+00 -0.55437656547E+01 -0.43039617150E+02  0.47787266362E+02  0.19999978650E+02 0.  0.
         12    1    1    2    0    0 -0.69404484938E+00  0.55437656547E+01  0.43039617150E+02  0.43400733638E+02  0.00000000000E+00 0. -1.
         11    1    3    3    0    0  0.14702909947E+01  0.17907386702E+01 -0.11941290025E+01  0.26066156084E+01  0.51100000000E-03 0. -1.
        -11    1    3    3    0    0  0.14143777083E+01 -0.11402558932E+02 -0.35624227749E+02  0.37431329358E+02  0.51100000000E-03 0.  1.
        -12    1    3    3    0    0 -0.21906238536E+01  0.40680546066E+01 -0.62212603985E+01  0.77493213959E+01  0.00000000000E+00 0.  1.
</event>
<event>
 7    1  0.5426550E-010  0.4778727E+02  0.7816164E-02  0.1312668E+00
        -11   -1    0    0    0    0  0.00000000000E+00  0.00000000000E+00  0.45593999997E+02  0.45594000000E+02  0.51100000000E-03 0. -1.
         11   -1    0    0    0    0 -0.00000000000E+00 -0.00000000000E+00 -0.45593999997E+02  0.45594000000E+02  0.51100000000E-03 0.  1.
    9900012    2    1    2    0    0 -0.27374631211E+00 -0.24082873253E+02 -0.36104895322E+02  0.47787272041E+02  0.20000004543E+02 0.  0.
         12    1    1    2    0    0  0.27374631211E+00  0.24082873253E+02  0.36104895322E+02  0.43400727959E+02  0.00000000000E+00 0. -1.
         11    1    3    3    0    0  0.32145486901E+01 -0.15547526176E+01 -0.40866008610E+01  0.54268670374E+01  0.51100000000E-03 0. -1.
        -11    1    3    3    0    0  0.39023385450E+01 -0.17063381506E+02 -0.26107719592E+02  0.31432471381E+02  0.51100000000E-03 0.  1.
        -12    1    3    3    0    0 -0.73906335472E+01 -0.54647391289E+01 -0.59105748696E+01  0.10927933623E+02  0.00000000000E+00 0.  1.
</event>
<event>
 7    1  0.5426550E-010  0.4778727E+02  0.7816164E-02  0.1312668E+00
        -11   -1    0    0    0    0  0.00000000000E+00  0.00000000000E+00  0.45593999997E+02  0.45594000000E+02  0.51100000000E-03 0. -1.
         11   -1    0    0    0    0 -0.00000000000E+00 -0.00000000000E+00 -0.45593999997E+02  0.45594000000E+02  0.51100000000E-03 0.  1.
    9900012    2    1    2    0    0  0.20440935941E+02  0.38063044235E+02  0.41226190821E+01  0.47787272049E+02  0.20000004580E+02 0.  0.
         12    1    1    2    0    0 -0.20440935941E+02 -0.38063044235E+02 -0.41226190821E+01  0.43400727951E+02  0.00000000000E+00 0. -1.
         11    1    3    3    0    0  0.34626521248E+01  0.83070155675E+01  0.45001417403E+01  0.10062193763E+02  0.51100000000E-03 0. -1.
        -11    1    3    3    0    0  0.19485174072E+02  0.27406032724E+02  0.17694796889E+01  0.33673338072E+02  0.51100000000E-03 0.  1.
        -12    1    3    3    0    0 -0.25068902554E+01  0.23499959431E+01 -0.21470023471E+01  0.40517402142E+01  0.00000000000E+00 0.  1.
</event>
<event>
 7    1  0.5426550E-010  0.4778727E+02  0.7816164E-02  0.1312668E+00
        -11   -1    0    0    0    0  0.00000000000E+00  0.00000000000E+00  0.45593999997E+02  0.45594000000E+02  0.51100000000E-03 0.  1.
         11   -1    0    0    0    0 -0.00000000000E+00 -0.00000000000E+00 -0.45593999997E+02  0.45594000000E+02  0.51100000000E-03 0. -1.
    9900012    2    1    2    0    0 -0.25270773412E+02 -0.18959631070E+01  0.35233745565E+02  0.47787268537E+02  0.19999988570E+02 0.  0.
         12    1    1    2    0    0  0.25270773412E+02  0.18959631070E+01 -0.35233745565E+02  0.43400731463E+02  0.00000000000E+00 0. -1.
         11    1    3    3    0    0 -0.14134412528E+02 -0.31520046207E+01  0.82123849625E+01  0.16648123548E+02  0.51100000000E-03 0. -1.
        -11    1    3    3    0    0  0.15941049873E+01 -0.34486036441E+00  0.81985190275E+01  0.83591754310E+01  0.51100000000E-03 0.  1.
         12    1    3    3    0    0 -0.12730465872E+02  0.16009018781E+01  0.18822841575E+02  0.22779969559E+02  0.00000000000E+00 0. -1.
</event>
<event>
 7    1  0.5426550E-010  0.4778727E+02  0.7816164E-02  0.1312668E+00
        -11   -1    0    0    0    0  0.00000000000E+00  0.00000000000E+00  0.45593999997E+02  0.45594000000E+02  0.51100000000E-03 0. -1.
         11   -1    0    0    0    0 -0.00000000000E+00 -0.00000000000E+00 -0.45593999997E+02  0.45594000000E+02  0.51100000000E-03 0.  1.
    9900012    2    1    2    0    0  0.82671674941E+01  0.29771390051E+02 -0.30478540064E+02  0.47787272720E+02  0.20000007642E+02 0.  0.
         12    1    1    2    0    0 -0.82671674941E+01 -0.29771390051E+02  0.30478540064E+02  0.43400727280E+02  0.00000000000E+00 0. -1.
         11    1    3    3    0    0 -0.36438245489E+01  0.10869393927E+01 -0.93853129981E+00  0.39165974836E+01  0.51100000000E-03 0. -1.
        -11    1    3    3    0    0  0.63294312789E+01  0.23786547816E+02 -0.25395472409E+02  0.35366531869E+02  0.51100000000E-03 0.  1.
         12    1    3    3    0    0  0.55815607641E+01  0.48979028422E+01 -0.41445363553E+01  0.85041433675E+01  0.00000000000E+00 0. -1.
</event>
<event>
 7    1  0.5426550E-010  0.4778728E+02  0.7816164E-02  0.1312668E+00
        -11   -1    0    0    0    0  0.00000000000E+00  0.00000000000E+00  0.45593999997E+02  0.45594000000E+02  0.51100000000E-03 0.  1.
         11   -1    0    0    0    0 -0.00000000000E+00 -0.00000000000E+00 -0.45593999997E+02  0.45594000000E+02  0.51100000000E-03 0. -1.
    9900012    2    1    2    0    0 -0.25807698815E+02 -0.18239588478E+02  0.29747312277E+02  0.47787280033E+02  0.20000040983E+02 0.  0.
         12    1    1    2    0    0  0.25807698815E+02  0.18239588478E+02 -0.29747312277E+02  0.43400719967E+02  0.00000000000E+00 0. -1.
         11    1    3    3    0    0 -0.16502941276E+01 -0.52104228676E+01  0.28644288787E+01  0.61706507136E+01  0.51100000000E-03 0. -1.
        -11    1    3    3    0    0 -0.20890514806E+01  0.35715508003E+01  0.39576073023E+01  0.57256237240E+01  0.51100000000E-03 0.  1.
        -12    1    3    3    0    0 -0.22068353207E+02 -0.16600716411E+02  0.22925276096E+02  0.35891005596E+02  0.00000000000E+00 0.  1.
</event>
<event>
 7    1  0.5426550E-010  0.4778727E+02  0.7816164E-02  0.1312668E+00
        -11   -1    0    0    0    0  0.00000000000E+00  0.00000000000E+00  0.45593999997E+02  0.45594000000E+02  0.51100000000E-03 0.  1.
         11   -1    0    0    0    0 -0.00000000000E+00 -0.00000000000E+00 -0.45593999997E+02  0.45594000000E+02  0.51100000000E-03 0. -1.
    9900012    2    1    2    0    0 -0.29792047233E+02 -0.29443663140E+02 -0.11363447434E+02  0.47787270570E+02  0.19999997839E+02 0.  0.
         12    1    1    2    0    0  0.29792047233E+02  0.29443663140E+02  0.11363447434E+02  0.43400729430E+02  0.00000000000E+00 0. -1.
         11    1    3    3    0    0 -0.95239995776E+01 -0.18226762325E+02 -0.84495354655E+01  0.22233220250E+02  0.51100000000E-03 0. -1.
        -11    1    3    3    0    0 -0.11498706521E+02 -0.45759115016E+01  0.34474184967E+01  0.12846941748E+02  0.51100000000E-03 0.  1.
        -12    1    3    3    0    0 -0.87693411344E+01 -0.66409893126E+01 -0.63613304657E+01  0.12707108573E+02  0.00000000000E+00 0.  1.
</event>
<event>
 7    1  0.5426550E-010  0.4778728E+02  0.7816164E-02  0.1312668E+00
        -11   -1    0    0    0    0  0.00000000000E+00  0.00000000000E+00  0.45593999997E+02  0.45594000000E+02  0.51100000000E-03 0.  1.
         11   -1    0    0    0    0 -0.00000000000E+00 -0.00000000000E+00 -0.45593999997E+02  0.45594000000E+02  0.51100000000E-03 0. -1.
    9900012    2    1    2    0    0 -0.40545419209E+02  0.32180144622E+00  0.15478620869E+02  0.47787282506E+02  0.20000052256E+02 0.  0.
         12    1    1    2    0    0  0.40545419209E+02 -0.32180144622E+00 -0.15478620869E+02  0.43400717494E+02  0.00000000000E+00 0. -1.
         11    1    3    3    0    0 -0.34143336944E+01 -0.11683646214E+01 -0.39549098041E+01  0.53538829167E+01  0.51100000000E-03 0. -1.
        -11    1    3    3    0    0 -0.30700535393E+02  0.36376966191E+01  0.16543948253E+02  0.35063626940E+02  0.51100000000E-03 0.  1.
         12    1    3    3    0    0 -0.64305501222E+01 -0.21475305515E+01  0.28895824195E+01  0.73697726494E+01  0.00000000000E+00 0. -1.
</event>
<event>
 7    1  0.5426550E-010  0.4778727E+02  0.7816164E-02  0.1312668E+00
        -11   -1    0    0    0    0  0.00000000000E+00  0.00000000000E+00  0.45593999997E+02  0.45594000000E+02  0.51100000000E-03 0.  1.
         11   -1    0    0    0    0 -0.00000000000E+00 -0.00000000000E+00 -0.45593999997E+02  0.45594000000E+02  0.51100000000E-03 0. -1.
    9900012    2    1    2    0    0 -0.24490844496E+02 -0.55214886627E+01  0.35402478134E+02  0.47787265453E+02  0.19999974508E+02 0.  0.
         12    1    1    2    0    0  0.24490844496E+02  0.55214886627E+01 -0.35402478134E+02  0.43400734547E+02  0.00000000000E+00 0. -1.
         11    1    3    3    0    0 -0.27938372950E+01  0.18790469934E+01 -0.16232057387E+01  0.37377990269E+01  0.51100000000E-03 0. -1.
        -11    1    3    3    0    0 -0.82310489520E+01 -0.60698366158E+00  0.17743577611E+02  0.19569188606E+02  0.51100000000E-03 0.  1.
         12    1    3    3    0    0 -0.13465958249E+02 -0.67935519945E+01  0.19282106261E+02  0.24480277820E+02  0.00000000000E+00 0. -1.
</event>
<event>
 7    1  0.5426550E-010  0.4778727E+02  0.7816164E-02  0.1312668E+00
        -11   -1    0    0    0    0  0.00000000000E+00  0.00000000000E+00  0.45593999997E+02  0.45594000000E+02  0.51100000000E-03 0. -1.
         11   -1    0    0    0    0 -0.00000000000E+00 -0.00000000000E+00 -0.45593999997E+02  0.45594000000E+02  0.51100000000E-03 0.  1.
    9900012    2    1    2    0    0 -0.40249807197E+02 -0.14899895513E+02 -0.64474172134E+01  0.47787273572E+02  0.20000011525E+02 0.  0.
         12    1    1    2    0    0  0.40249807197E+02  0.14899895513E+02  0.64474172134E+01  0.43400726428E+02  0.00000000000E+00 0. -1.
         11    1    3    3    0    0 -0.60465442737E+01 -0.42008499435E+01 -0.72794739381E+01  0.10353674661E+02  0.51100000000E-03 0. -1.
        -11    1    3    3    0    0 -0.32207087319E+02 -0.67317380660E+01  0.15263137340E+01  0.32938463911E+02  0.51100000000E-03 0.  1.
        -12    1    3    3    0    0 -0.19961756046E+01 -0.39673075039E+01 -0.69425700930E+00  0.44951350001E+01  0.00000000000E+00 0.  1.
</event>
<event>
 7    1  0.5426550E-010  0.4778729E+02  0.7816164E-02  0.1312668E+00
        -11   -1    0    0    0    0  0.00000000000E+00  0.00000000000E+00  0.45593999997E+02  0.45594000000E+02  0.51100000000E-03 0.  1.
         11   -1    0    0    0    0 -0.00000000000E+00 -0.00000000000E+00 -0.45593999997E+02  0.45594000000E+02  0.51100000000E-03 0. -1.
    9900012    2    1    2    0    0  0.30028958593E+02  0.24861252088E+02  0.19073576276E+02  0.47787291233E+02  0.20000092047E+02 0.  0.
         12    1    1    2    0    0 -0.30028958593E+02 -0.24861252088E+02 -0.19073576276E+02  0.43400708767E+02  0.00000000000E+00 0. -1.
         11    1    3    3    0    0  0.11961931409E+02  0.13853345717E+02  0.39735992872E+00  0.18307399754E+02  0.51100000000E-03 0. -1.
        -11    1    3    3    0    0  0.11542093160E+02  0.10627045029E+02  0.99541403853E+01  0.18580605793E+02  0.51100000000E-03 0.  1.
         12    1    3    3    0    0  0.65249340237E+01  0.38086134170E+00  0.87220759617E+01  0.10899285686E+02  0.00000000000E+00 0. -1.
</event>
<event>
 7    1  0.5426550E-010  0.4778727E+02  0.7816164E-02  0.1312668E+00
        -11   -1    0    0    0    0  0.00000000000E+00  0.00000000000E+00  0.45593999997E+02  0.45594000000E+02  0.51100000000E-03 0.  1.
         11   -1    0    0    0    0 -0.00000000000E+00 -0.00000000000E+00 -0.45593999997E+02  0.45594000000E+02  0.51100000000E-03 0. -1.
    9900012    2    1    2    0    0  0.33366394808E+02 -0.11829601070E+02  0.25107118003E+02  0.47787272606E+02  0.20000007118E+02 0.  0.
         12    1    1    2    0    0 -0.33366394808E+02  0.11829601070E+02 -0.25107118003E+02  0.43400727394E+02  0.00000000000E+00 0. -1.
         11    1    3    3    0    0  0.13431043151E+02  0.36342601711E+01  0.13253265575E+02  0.19215874057E+02  0.51100000000E-03 0. -1.
        -11    1    3    3    0    0  0.18940940679E+02 -0.12639986086E+02  0.11629911745E+02  0.25569187111E+02  0.51100000000E-03 0.  1.
        -12    1    3    3    0    0  0.99441097823E+00 -0.28238751554E+01  0.22394068253E+00  0.30022114376E+01  0.00000000000E+00 0.  1.
</event>
<event>
 7    1  0.5426550E-010  0.4778727E+02  0.7816164E-02  0.1312668E+00
        -11   -1    0    0    0    0  0.00000000000E+00  0.00000000000E+00  0.45593999997E+02  0.45594000000E+02  0.51100000000E-03 0. -1.
         11   -1    0    0    0    0 -0.00000000000E+00 -0.00000000000E+00 -0.45593999997E+02  0.45594000000E+02  0.51100000000E-03 0.  1.
    9900012    2    1    2    0    0 -0.11746537884E+02  0.85790673042E+01 -0.40890605437E+02  0.47787272344E+02  0.20000005926E+02 0.  0.
         12    1    1    2    0    0  0.11746537884E+02 -0.85790673042E+01  0.40890605437E+02  0.43400727656E+02  0.00000000000E+00 0. -1.
         11    1    3    3    0    0 -0.44106423596E+01  0.22573782421E+01 -0.27886364508E+02  0.28323115088E+02  0.51100000000E-03 0.  1.
        -11    1    3    3    0    0 -0.79302674404E+01  0.77594595777E+01 -0.66785537282E+01  0.12949958872E+02  0.51100000000E-03 0. -1.
         12    1    3    3    0    0  0.59437191619E+00 -0.14377705157E+01 -0.63256872005E+01  0.65141983842E+01  0.00000000000E+00 0. -1.
</event>
<event>
 7    1  0.5426550E-010  0.4778727E+02  0.7816164E-02  0.1312668E+00
        -11   -1    0    0    0    0  0.00000000000E+00  0.00000000000E+00  0.45593999997E+02  0.45594000000E+02  0.51100000000E-03 0. -1.
         11   -1    0    0    0    0 -0.00000000000E+00 -0.00000000000E+00 -0.45593999997E+02  0.45594000000E+02  0.51100000000E-03 0.  1.
    9900012    2    1    2    0    0  0.35183005429E+02  0.55717560486E+01 -0.24793851513E+02  0.47787269484E+02  0.19999992886E+02 0.  0.
         12    1    1    2    0    0 -0.35183005429E+02 -0.55717560486E+01  0.24793851513E+02  0.43400730516E+02  0.00000000000E+00 0. -1.
         11    1    3    3    0    0  0.70322851876E+01  0.38296946639E+01 -0.13702185559E+02  0.15870396515E+02  0.51100000000E-03 0.  1.
        -11    1    3    3    0    0  0.26250344366E+02  0.44025756122E+01 -0.10389514906E+02  0.28572806505E+02  0.51100000000E-03 0. -1.
        -12    1    3    3    0    0  0.19003758758E+01 -0.26605142275E+01 -0.70215104785E+00  0.33440664644E+01  0.00000000000E+00 0.  1.
</event>
<event>
 7    1  0.5426550E-010  0.4778727E+02  0.7816164E-02  0.1312668E+00
        -11   -1    0    0    0    0  0.00000000000E+00  0.00000000000E+00  0.45593999997E+02  0.45594000000E+02  0.51100000000E-03 0.  1.
         11   -1    0    0    0    0 -0.00000000000E+00 -0.00000000000E+00 -0.45593999997E+02  0.45594000000E+02  0.51100000000E-03 0. -1.
    9900012    2    1    2    0    0  0.48505543638E+01 -0.23752685562E+01  0.43063368101E+02  0.47787269009E+02  0.19999990718E+02 0.  0.
         12    1    1    2    0    0 -0.48505543638E+01  0.23752685562E+01 -0.43063368101E+02  0.43400730991E+02  0.00000000000E+00 0. -1.
         11    1    3    3    0    0  0.97946619757E+01  0.81873250355E+00  0.18439491522E+02  0.20895467785E+02  0.51100000000E-03 0. -1.
        -11    1    3    3    0    0 -0.46613173264E+01  0.20672174574E+01  0.83254909774E+01  0.97629435884E+01  0.51100000000E-03 0.  1.
        -12    1    3    3    0    0 -0.28279028547E+00 -0.52612185172E+01  0.16298385602E+02  0.17128857635E+02  0.00000000000E+00 0.  1.
</event>
<event>
 7    1  0.5426550E-010  0.4778727E+02  0.7816164E-02  0.1312668E+00
        -11   -1    0    0    0    0  0.00000000000E+00  0.00000000000E+00  0.45593999997E+02  0.45594000000E+02  0.51100000000E-03 0.  1.
         11   -1    0    0    0    0 -0.00000000000E+00 -0.00000000000E+00 -0.45593999997E+02  0.45594000000E+02  0.51100000000E-03 0. -1.
    9900012    2    1    2    0    0 -0.18242698836E+02 -0.31003621533E+02 -0.24281739501E+02  0.47787268645E+02  0.19999989058E+02 0.  0.
         12    1    1    2    0    0  0.18242698836E+02  0.31003621533E+02  0.24281739501E+02  0.43400731355E+02  0.00000000000E+00 0. -1.
         11    1    3    3    0    0 -0.89918500724E+00 -0.33102120446E+01 -0.25577813804E+01  0.42788179803E+01  0.51100000000E-03 0. -1.
        -11    1    3    3    0    0 -0.19343000755E+02 -0.28429174880E+02 -0.22660726322E+02  0.41181041516E+02  0.51100000000E-03 0.  1.
        -12    1    3    3    0    0  0.19994869264E+01  0.73576539163E+00  0.93676820203E+00  0.23274091486E+01  0.00000000000E+00 0.  1.
</event>
<event>
 7    1  0.5426550E-010  0.4778727E+02  0.7816164E-02  0.1312668E+00
        -11   -1    0    0    0    0  0.00000000000E+00  0.00000000000E+00  0.45593999997E+02  0.45594000000E+02  0.51100000000E-03 0.  1.
         11   -1    0    0    0    0 -0.00000000000E+00 -0.00000000000E+00 -0.45593999997E+02  0.45594000000E+02  0.51100000000E-03 0. -1.
    9900012    2    1    2    0    0 -0.98837119651E+01 -0.30072227869E+02  0.29691693487E+02  0.47787270590E+02  0.19999997927E+02 0.  0.
         12    1    1    2    0    0  0.98837119651E+01  0.30072227869E+02 -0.29691693487E+02  0.43400729410E+02  0.00000000000E+00 0. -1.
         11    1    3    3    0    0 -0.31283798802E+01  0.15592342848E+01  0.29879055320E+01  0.45984292926E+01  0.51100000000E-03 0. -1.
        -11    1    3    3    0    0  0.16651206961E+01 -0.16713361162E+02  0.12532362677E+02  0.20956363778E+02  0.51100000000E-03 0.  1.
        -12    1    3    3    0    0 -0.84204527810E+01 -0.14918100992E+02  0.14171425277E+02  0.22232477519E+02  0.00000000000E+00 0.  1.
</event>
<event>
 7    1  0.5426550E-010  0.4778727E+02  0.7816164E-02  0.1312668E+00
        -11   -1    0    0    0    0  0.00000000000E+00  0.00000000000E+00  0.45593999997E+02  0.45594000000E+02  0.51100000000E-03 0. -1.
         11   -1    0    0    0    0 -0.00000000000E+00 -0.00000000000E+00 -0.45593999997E+02  0.45594000000E+02  0.51100000000E-03 0.  1.
    9900012    2    1    2    0    0  0.27856080518E+02  0.27266369993E+02 -0.19084204759E+02  0.47787273904E+02  0.20000013037E+02 0.  0.
         12    1    1    2    0    0 -0.27856080518E+02 -0.27266369993E+02  0.19084204759E+02  0.43400726096E+02  0.00000000000E+00 0. -1.
         11    1    3    3    0    0 -0.19073261588E+00  0.34902241801E+01 -0.17457460649E+01  0.39071310884E+01  0.51100000000E-03 0.  1.
        -11    1    3    3    0    0  0.10742794103E+00  0.38212134746E+01 -0.70808126996E+01  0.80468081826E+01  0.51100000000E-03 0. -1.
        -12    1    3    3    0    0  0.27939385193E+02  0.19954932338E+02 -0.10257645995E+02  0.35833334633E+02  0.00000000000E+00 0.  1.
</event>
<event>
 7    1  0.5426550E-010  0.4778727E+02  0.7816164E-02  0.1312668E+00
        -11   -1    0    0    0    0  0.00000000000E+00  0.00000000000E+00  0.45593999997E+02  0.45594000000E+02  0.51100000000E-03 0.  1.
         11   -1    0    0    0    0 -0.00000000000E+00 -0.00000000000E+00 -0.45593999997E+02  0.45594000000E+02  0.51100000000E-03 0. -1.
    9900012    2    1    2    0    0 -0.29262958660E+02 -0.22671216777E+02  0.22656528525E+02  0.47787272996E+02  0.20000008898E+02 0.  0.
         12    1    1    2    0    0  0.29262958660E+02  0.22671216777E+02 -0.22656528525E+02  0.43400727004E+02  0.00000000000E+00 0. -1.
         11    1    3    3    0    0 -0.61455615602E+01  0.23285765144E+01  0.51122518534E+01  0.83261824834E+01  0.51100000000E-03 0. -1.
        -11    1    3    3    0    0 -0.13972247087E+02 -0.13284851629E+02  0.14898796695E+02  0.24365654407E+02  0.51100000000E-03 0.  1.
         12    1    3    3    0    0 -0.91451500134E+01 -0.11714941662E+02  0.26454799760E+01  0.15095436106E+02  0.00000000000E+00 0. -1.
</event>
<event>
 7    1  0.5426550E-010  0.4778727E+02  0.7816164E-02  0.1312668E+00
        -11   -1    0    0    0    0  0.00000000000E+00  0.00000000000E+00  0.45593999997E+02  0.45594000000E+02  0.51100000000E-03 0. -1.
         11   -1    0    0    0    0 -0.00000000000E+00 -0.00000000000E+00 -0.45593999997E+02  0.45594000000E+02  0.51100000000E-03 0.  1.
    9900012    2    1    2    0    0  0.23601849398E+02  0.36385576411E+02 -0.16327111888E+01  0.47787271762E+02  0.20000003270E+02 0.  0.
         12    1    1    2    0    0 -0.23601849398E+02 -0.36385576411E+02  0.16327111888E+01  0.43400728238E+02  0.00000000000E+00 0. -1.
         11    1    3    3    0    0  0.24232412985E+01  0.17444821599E+02  0.21751294236E+01  0.17746128797E+02  0.51100000000E-03 0. -1.
        -11    1    3    3    0    0  0.21332985384E+02  0.15556413105E+02 -0.31480290669E+01  0.26589628454E+02  0.51100000000E-03 0.  1.
        -12    1    3    3    0    0 -0.15437728390E+00  0.33843417076E+01 -0.65981154556E+00  0.34515145104E+01  0.00000000000E+00 0.  1.
</event>
<event>
 7    1  0.5426550E-010  0.4778726E+02  0.7816164E-02  0.1312668E+00
        -11   -1    0    0    0    0  0.00000000000E+00  0.00000000000E+00  0.45593999997E+02  0.45594000000E+02  0.51100000000E-03 0.  1.
         11   -1    0    0    0    0 -0.00000000000E+00 -0.00000000000E+00 -0.45593999997E+02  0.45594000000E+02  0.51100000000E-03 0. -1.
    9900012    2    1    2    0    0 -0.77427852726E+00 -0.36342954592E+02  0.23711065647E+02  0.47787257036E+02  0.19999936129E+02 0.  0.
         12    1    1    2    0    0  0.77427852726E+00  0.36342954592E+02 -0.23711065647E+02  0.43400742964E+02  0.00000000000E+00 0. -1.
         11    1    3    3    0    0  0.31585234820E+01 -0.12228310113E+02 -0.61515702507E+00  0.12644613764E+02  0.51100000000E-03 0. -1.
        -11    1    3    3    0    0  0.10119873061E+01 -0.12849089481E+02  0.14474545121E+02  0.19381322853E+02  0.51100000000E-03 0.  1.
         12    1    3    3    0    0 -0.49447893154E+01 -0.11265554997E+02  0.98516775511E+01  0.15761320419E+02  0.00000000000E+00 0. -1.
</event>
<event>
 7    1  0.5426550E-010  0.4778727E+02  0.7816164E-02  0.1312668E+00
        -11   -1    0    0    0    0  0.00000000000E+00  0.00000000000E+00  0.45593999997E+02  0.45594000000E+02  0.51100000000E-03 0. -1.
         11   -1    0    0    0    0 -0.00000000000E+00 -0.00000000000E+00 -0.45593999997E+02  0.45594000000E+02  0.51100000000E-03 0.  1.
    9900012    2    1    2    0    0  0.71537461386E+01  0.38837017043E+02 -0.18003700979E+02  0.47787271601E+02  0.20000002540E+02 0.  0.
         12    1    1    2    0    0 -0.71537461386E+01 -0.38837017043E+02  0.18003700979E+02  0.43400728399E+02  0.00000000000E+00 0. -1.
         11    1    3    3    0    0  0.47957521530E+01  0.15394850141E+02  0.21781084014E+01  0.16270980488E+02  0.51100000000E-03 0. -1.
        -11    1    3    3    0    0  0.30585331259E+01  0.18246532283E+02 -0.12945551445E+02  0.22580475365E+02  0.51100000000E-03 0.  1.
         12    1    3    3    0    0 -0.70053914031E+00  0.51956346191E+01 -0.72362579360E+01  0.89358157489E+01  0.00000000000E+00 0. -1.
</event>
<event>
 7    1  0.5426550E-010  0.4778727E+02  0.7816164E-02  0.1312668E+00
        -11   -1    0    0    0    0  0.00000000000E+00  0.00000000000E+00  0.45593999997E+02  0.45594000000E+02  0.51100000000E-03 0. -1.
         11   -1    0    0    0    0 -0.00000000000E+00 -0.00000000000E+00 -0.45593999997E+02  0.45594000000E+02  0.51100000000E-03 0.  1.
    9900012    2    1    2    0    0 -0.22339103471E+02 -0.36191030153E+02 -0.86485256040E+01  0.47787271866E+02  0.20000003744E+02 0.  0.
         12    1    1    2    0    0  0.22339103471E+02  0.36191030153E+02  0.86485256040E+01  0.43400728134E+02  0.00000000000E+00 0. -1.
         11    1    3    3    0    0  0.73790498313E+00 -0.33242533122E+01 -0.42387001281E+01  0.54370711679E+01  0.51100000000E-03 0. -1.
        -11    1    3    3    0    0 -0.89820127202E+01 -0.85077251167E+01  0.39581627879E+01  0.12989418466E+02  0.51100000000E-03 0.  1.
        -12    1    3    3    0    0 -0.14094995734E+02 -0.24359051725E+02 -0.83679882638E+01  0.29360782232E+02  0.00000000000E+00 0.  1.
</event>
<event>
 7    1  0.5426550E-010  0.4778722E+02  0.7816164E-02  0.1312668E+00
        -11   -1    0    0    0    0  0.00000000000E+00  0.00000000000E+00  0.45593999997E+02  0.45594000000E+02  0.51100000000E-03 0. -1.
         11   -1    0    0    0    0 -0.00000000000E+00 -0.00000000000E+00 -0.45593999997E+02  0.45594000000E+02  0.51100000000E-03 0.  1.
    9900012    2    1    2    0    0  0.10052004783E+02 -0.29041290745E+02 -0.30646173608E+02  0.47787224372E+02  0.19999787200E+02 0.  0.
         12    1    1    2    0    0 -0.10052004783E+02  0.29041290745E+02  0.30646173608E+02  0.43400775628E+02  0.00000000000E+00 0. -1.
         11    1    3    3    0    0  0.10332332091E+02 -0.18533418426E+02 -0.99747653684E+01  0.23446548348E+02  0.51100000000E-03 0. -1.
        -11    1    3    3    0    0  0.13965093729E+01 -0.87806473238E+01 -0.99122900670E+01  0.13315536057E+02  0.51100000000E-03 0.  1.
         12    1    3    3    0    0 -0.16768366809E+01 -0.17272249947E+01 -0.10759118173E+02  0.11025139967E+02  0.00000000000E+00 0. -1.
</event>
<event>
 7    1  0.5426550E-010  0.4778727E+02  0.7816164E-02  0.1312668E+00
        -11   -1    0    0    0    0  0.00000000000E+00  0.00000000000E+00  0.45593999997E+02  0.45594000000E+02  0.51100000000E-03 0.  1.
         11   -1    0    0    0    0 -0.00000000000E+00 -0.00000000000E+00 -0.45593999997E+02  0.45594000000E+02  0.51100000000E-03 0. -1.
    9900012    2    1    2    0    0  0.11315406684E+02  0.22578417764E+02  0.35295889739E+02  0.47787271785E+02  0.20000003375E+02 0.  0.
         12    1    1    2    0    0 -0.11315406684E+02 -0.22578417764E+02 -0.35295889739E+02  0.43400728215E+02  0.00000000000E+00 0. -1.
         11    1    3    3    0    0  0.94045286703E+01  0.26443279701E+01  0.39322698732E+01  0.10530924771E+02  0.51100000000E-03 0. -1.
        -11    1    3    3    0    0  0.91998622756E+00  0.43713362908E+01  0.59609445304E+01  0.74490144034E+01  0.51100000000E-03 0.  1.
         12    1    3    3    0    0  0.99089178646E+00  0.15562753503E+02  0.25402675335E+02  0.29807332610E+02  0.00000000000E+00 0. -1.
</event>
<event>
 7    1  0.5426550E-010  0.4778727E+02  0.7816164E-02  0.1312668E+00
        -11   -1    0    0    0    0  0.00000000000E+00  0.00000000000E+00  0.45593999997E+02  0.45594000000E+02  0.51100000000E-03 0. -1.
         11   -1    0    0    0    0 -0.00000000000E+00 -0.00000000000E+00 -0.45593999997E+02  0.45594000000E+02  0.51100000000E-03 0.  1.
    9900012    2    1    2    0    0  0.31959208489E+02  0.26954451867E+02 -0.11648591857E+02  0.47787272184E+02  0.20000005197E+02 0.  0.
         12    1    1    2    0    0 -0.31959208489E+02 -0.26954451867E+02  0.11648591857E+02  0.43400727816E+02  0.00000000000E+00 0. -1.
         11    1    3    3    0    0  0.43861270376E+01 -0.27610121702E+00 -0.63364189784E+01  0.77113259562E+01  0.51100000000E-03 0. -1.
        -11    1    3    3    0    0  0.40727528842E+01  0.85262964738E+01 -0.31610121502E+01  0.99637867144E+01  0.51100000000E-03 0.  1.
         12    1    3    3    0    0  0.23500328567E+02  0.18704256610E+02 -0.21511607281E+01  0.30112159514E+02  0.00000000000E+00 0. -1.
</event>
<event>
 7    1  0.5426550E-010  0.4778727E+02  0.7816164E-02  0.1312668E+00
        -11   -1    0    0    0    0  0.00000000000E+00  0.00000000000E+00  0.45593999997E+02  0.45594000000E+02  0.51100000000E-03 0.  1.
         11   -1    0    0    0    0 -0.00000000000E+00 -0.00000000000E+00 -0.45593999997E+02  0.45594000000E+02  0.51100000000E-03 0. -1.
    9900012    2    1    2    0    0 -0.12297607486E+02 -0.26025414368E+02  0.32481840952E+02  0.47787270346E+02  0.19999996815E+02 0.  0.
         12    1    1    2    0    0  0.12297607486E+02  0.26025414368E+02 -0.32481840952E+02  0.43400729654E+02  0.00000000000E+00 0. -1.
         11    1    3    3    0    0 -0.12199112451E+02 -0.14469966982E+02  0.18074547155E+02  0.26170356210E+02  0.51100000000E-03 0. -1.
        -11    1    3    3    0    0  0.53374239314E+01 -0.45919452269E+01  0.82646725220E+01  0.10857203477E+02  0.51100000000E-03 0.  1.
        -12    1    3    3    0    0 -0.54359189658E+01 -0.69635021594E+01  0.61426212749E+01  0.10759710658E+02  0.00000000000E+00 0.  1.
</event>
<event>
 7    1  0.5426550E-010  0.4778727E+02  0.7816164E-02  0.1312668E+00
        -11   -1    0    0    0    0  0.00000000000E+00  0.00000000000E+00  0.45593999997E+02  0.45594000000E+02  0.51100000000E-03 0. -1.
         11   -1    0    0    0    0 -0.00000000000E+00 -0.00000000000E+00 -0.45593999997E+02  0.45594000000E+02  0.51100000000E-03 0.  1.
    9900012    2    1    2    0    0 -0.72864426618E+01  0.40811024561E+02 -0.12844893085E+02  0.47787271311E+02  0.20000001215E+02 0.  0.
         12    1    1    2    0    0  0.72864426618E+01 -0.40811024561E+02  0.12844893085E+02  0.43400728689E+02  0.00000000000E+00 0. -1.
         11    1    3    3    0    0  0.30245162720E+01  0.12288407819E+00 -0.43913395440E+00  0.30586987539E+01  0.51100000000E-03 0. -1.
        -11    1    3    3    0    0 -0.28319580617E+01  0.41822263613E+01  0.95745013335E+00  0.51407893187E+01  0.51100000000E-03 0.  1.
         12    1    3    3    0    0 -0.74790008720E+01  0.36505914122E+02 -0.13363209264E+02  0.39587783238E+02  0.00000000000E+00 0. -1.
</event>
<event>
 7    1  0.5426550E-010  0.4778727E+02  0.7816164E-02  0.1312668E+00
        -11   -1    0    0    0    0  0.00000000000E+00  0.00000000000E+00  0.45593999997E+02  0.45594000000E+02  0.51100000000E-03 0.  1.
         11   -1    0    0    0    0 -0.00000000000E+00 -0.00000000000E+00 -0.45593999997E+02  0.45594000000E+02  0.51100000000E-03 0. -1.
    9900012    2    1    2    0    0  0.31284637635E+02 -0.85245371390E+01  0.28848343072E+02  0.47787272086E+02  0.20000004751E+02 0.  0.
         12    1    1    2    0    0 -0.31284637635E+02  0.85245371390E+01 -0.28848343072E+02  0.43400727914E+02  0.00000000000E+00 0. -1.
         11    1    3    3    0    0  0.56315935440E+01  0.12663846494E+01  0.11808450707E+01  0.58917714880E+01  0.51100000000E-03 0. -1.
        -11    1    3    3    0    0  0.23857604692E+02 -0.84269705848E+01  0.15831983566E+02  0.29847124465E+02  0.51100000000E-03 0.  1.
        -12    1    3    3    0    0  0.17954393991E+01 -0.13639512036E+01  0.11835514435E+02  0.12048376134E+02  0.00000000000E+00 0.  1.
</event>
<event>
 7    1  0.5426550E-010  0.4778725E+02  0.7816164E-02  0.1312668E+00
        -11   -1    0    0    0    0  0.00000000000E+00  0.00000000000E+00  0.45593999997E+02  0.45594000000E+02  0.51100000000E-03 0. -1.
         11   -1    0    0    0    0 -0.00000000000E+00 -0.00000000000E+00 -0.45593999997E+02  0.45594000000E+02  0.51100000000E-03 0.  1.
    9900012    2    1    2    0    0 -0.19982664645E+02 -0.33188246670E+02 -0.19566776517E+02  0.47787247165E+02  0.19999891125E+02 0.  0.
         12    1    1    2    0    0  0.19982664645E+02  0.33188246670E+02  0.19566776517E+02  0.43400752835E+02  0.00000000000E+00 0. -1.
         11    1    3    3    0    0 -0.61801603853E+01 -0.11057954234E+01 -0.59820099748E+01  0.86718861562E+01  0.51100000000E-03 0. -1.
        -11    1    3    3    0    0 -0.51451270978E+01 -0.24900771758E+02 -0.97272002256E+01  0.27223871721E+02  0.51100000000E-03 0.  1.
        -12    1    3    3    0    0 -0.86573771619E+01 -0.71816794888E+01 -0.38575663163E+01  0.11891489288E+02  0.00000000000E+00 0.  1.
</event>
<event>
 7    1  0.5426550E-010  0.4778727E+02  0.7816164E-02  0.1312668E+00
        -11   -1    0    0    0    0  0.00000000000E+00  0.00000000000E+00  0.45593999997E+02  0.45594000000E+02  0.51100000000E-03 0.  1.
         11   -1    0    0    0    0 -0.00000000000E+00 -0.00000000000E+00 -0.45593999997E+02  0.45594000000E+02  0.51100000000E-03 0. -1.
    9900012    2    1    2    0    0 -0.10712823196E+02 -0.37435301068E+02  0.19169171855E+02  0.47787268480E+02  0.19999988306E+02 0.  0.
         12    1    1    2    0    0  0.10712823196E+02  0.37435301068E+02 -0.19169171855E+02  0.43400731520E+02  0.00000000000E+00 0. -1.
         11    1    3    3    0    0 -0.25035053969E+01  0.18662155146E+00  0.10009262767E+01  0.27026321518E+01  0.51100000000E-03 0. -1.
        -11    1    3    3    0    0 -0.93954839320E+00 -0.30155948815E+02  0.16915362779E+02  0.34588921613E+02  0.51100000000E-03 0.  1.
        -12    1    3    3    0    0 -0.72697694063E+01 -0.74659738042E+01  0.12528827997E+01  0.10495714715E+02  0.00000000000E+00 0.  1.
</event>
<event>
 7    1  0.5426550E-010  0.4778727E+02  0.7816164E-02  0.1312668E+00
        -11   -1    0    0    0    0  0.00000000000E+00  0.00000000000E+00  0.45593999997E+02  0.45594000000E+02  0.51100000000E-03 0.  1.
         11   -1    0    0    0    0 -0.00000000000E+00 -0.00000000000E+00 -0.45593999997E+02  0.45594000000E+02  0.51100000000E-03 0. -1.
    9900012    2    1    2    0    0 -0.27313245231E+02 -0.49318537946E+01  0.33365955245E+02  0.47787268251E+02  0.19999987266E+02 0.  0.
         12    1    1    2    0    0  0.27313245231E+02  0.49318537946E+01 -0.33365955245E+02  0.43400731749E+02  0.00000000000E+00 0. -1.
         11    1    3    3    0    0 -0.16277033843E+02  0.21975599644E+00  0.91607030967E+01  0.18679095398E+02  0.51100000000E-03 0. -1.
        -11    1    3    3    0    0 -0.67058732915E+01 -0.12077830027E+00  0.20361642150E+02  0.21437812279E+02  0.51100000000E-03 0.  1.
         12    1    3    3    0    0 -0.43303380964E+01 -0.50308314908E+01  0.38436099988E+01  0.76703605744E+01  0.00000000000E+00 0. -1.
</event>
<event>
 7    1  0.5426550E-010  0.4778727E+02  0.7816164E-02  0.1312668E+00
        -11   -1    0    0    0    0  0.00000000000E+00  0.00000000000E+00  0.45593999997E+02  0.45594000000E+02  0.51100000000E-03 0.  1.
         11   -1    0    0    0    0 -0.00000000000E+00 -0.00000000000E+00 -0.45593999997E+02  0.45594000000E+02  0.51100000000E-03 0. -1.
    9900012    2    1    2    0    0  0.81308622650E+01  0.41229235273E+02  0.10847236308E+02  0.47787270768E+02  0.19999998738E+02 0.  0.
         12    1    1    2    0    0 -0.81308622650E+01 -0.41229235273E+02 -0.10847236308E+02  0.43400729232E+02  0.00000000000E+00 0. -1.
         11    1    3    3    0    0 -0.34567958047E+01  0.12153225042E+02  0.17158635948E+01  0.12751255008E+02  0.51100000000E-03 0. -1.
        -11    1    3    3    0    0  0.14130084455E+02  0.26410424983E+02  0.92557731469E+01  0.31350265889E+02  0.51100000000E-03 0.  1.
        -12    1    3    3    0    0 -0.25424263854E+01  0.26655852487E+01 -0.12440043383E+00  0.36857498709E+01  0.00000000000E+00 0.  1.
</event>
<event>
 7    1  0.5426550E-010  0.4778727E+02  0.7816164E-02  0.1312668E+00
        -11   -1    0    0    0    0  0.00000000000E+00  0.00000000000E+00  0.45593999997E+02  0.45594000000E+02  0.51100000000E-03 0. -1.
         11   -1    0    0    0    0 -0.00000000000E+00 -0.00000000000E+00 -0.45593999997E+02  0.45594000000E+02  0.51100000000E-03 0.  1.
    9900012    2    1    2    0    0 -0.20696946827E+02  0.38046420533E+02  0.27801835045E+01  0.47787272545E+02  0.20000006840E+02 0.  0.
         12    1    1    2    0    0  0.20696946827E+02 -0.38046420533E+02 -0.27801835045E+01  0.43400727455E+02  0.00000000000E+00 0. -1.
         11    1    3    3    0    0 -0.17236022803E+01  0.14118182908E+02  0.63975655519E+01  0.15595599979E+02  0.51100000000E-03 0. -1.
        -11    1    3    3    0    0  0.41463418065E+00  0.21641243309E+01  0.14070292216E+01  0.26143999532E+01  0.51100000000E-03 0.  1.
         12    1    3    3    0    0 -0.19387978727E+02  0.21764113294E+02 -0.50244112690E+01  0.29577272613E+02  0.00000000000E+00 0. -1.
</event>
<event>
 7    1  0.5426550E-010  0.4778727E+02  0.7816164E-02  0.1312668E+00
        -11   -1    0    0    0    0  0.00000000000E+00  0.00000000000E+00  0.45593999997E+02  0.45594000000E+02  0.51100000000E-03 0.  1.
         11   -1    0    0    0    0 -0.00000000000E+00 -0.00000000000E+00 -0.45593999997E+02  0.45594000000E+02  0.51100000000E-03 0. -1.
    9900012    2    1    2    0    0 -0.10184522291E+02 -0.22374259887E+02  0.35767184904E+02  0.47787268258E+02  0.19999987295E+02 0.  0.
         12    1    1    2    0    0  0.10184522291E+02  0.22374259887E+02 -0.35767184904E+02  0.43400731742E+02  0.00000000000E+00 0. -1.
         11    1    3    3    0    0 -0.65745635307E+00  0.20493457827E+01  0.67282181046E+01  0.70640630035E+01  0.51100000000E-03 0. -1.
        -11    1    3    3    0    0 -0.69926752424E+01 -0.21403938439E+02  0.17465819235E+02  0.28497033697E+02  0.51100000000E-03 0.  1.
         12    1    3    3    0    0 -0.25343906955E+01 -0.30196672308E+01  0.11573147565E+02  0.12226171557E+02  0.00000000000E+00 0. -1.
</event>
<event>
 7    1  0.5426550E-010  0.4778727E+02  0.7816164E-02  0.1312668E+00
        -11   -1    0    0    0    0  0.00000000000E+00  0.00000000000E+00  0.45593999997E+02  0.45594000000E+02  0.51100000000E-03 0.  1.
         11   -1    0    0    0    0 -0.00000000000E+00 -0.00000000000E+00 -0.45593999997E+02  0.45594000000E+02  0.51100000000E-03 0. -1.
    9900012    2    1    2    0    0 -0.22314000093E+02 -0.23589599596E+02  0.28796521863E+02  0.47787268662E+02  0.19999989140E+02 0.  0.
         12    1    1    2    0    0  0.22314000093E+02  0.23589599596E+02 -0.28796521863E+02  0.43400731338E+02  0.00000000000E+00 0. -1.
         11    1    3    3    0    0 -0.10119314426E+02 -0.89608012488E+01  0.21865197640E+02  0.25705706596E+02  0.51100000000E-03 0.  1.
        -11    1    3    3    0    0 -0.10753780727E+02 -0.94169325868E+01  0.82657438412E+01  0.16511963565E+02  0.51100000000E-03 0. -1.
         12    1    3    3    0    0 -0.14409049399E+01 -0.52118657607E+01 -0.13344196188E+01  0.55695985019E+01  0.00000000000E+00 0. -1.
</event>
<event>
 7    1  0.5426550E-010  0.4778727E+02  0.7816164E-02  0.1312668E+00
        -11   -1    0    0    0    0  0.00000000000E+00  0.00000000000E+00  0.45593999997E+02  0.45594000000E+02  0.51100000000E-03 0.  1.
         11   -1    0    0    0    0 -0.00000000000E+00 -0.00000000000E+00 -0.45593999997E+02  0.45594000000E+02  0.51100000000E-03 0. -1.
    9900012    2    1    2    0    0 -0.40821525455E+02  0.82048550234E+00  0.14715736793E+02  0.47787273666E+02  0.20000011953E+02 0.  0.
         12    1    1    2    0    0  0.40821525455E+02 -0.82048550234E+00 -0.14715736793E+02  0.43400726334E+02  0.00000000000E+00 0. -1.
         11    1    3    3    0    0 -0.15116101204E+02  0.67065023590E+00 -0.38615636615E+01  0.15615952149E+02  0.51100000000E-03 0. -1.
        -11    1    3    3    0    0 -0.22952019826E+02 -0.13044382528E+01  0.15105537879E+02  0.27507708886E+02  0.51100000000E-03 0.  1.
         12    1    3    3    0    0 -0.27534044244E+01  0.14542735193E+01  0.34717625752E+01  0.46636126310E+01  0.00000000000E+00 0. -1.
</event>
<event>
 7    1  0.5426550E-010  0.4778727E+02  0.7816164E-02  0.1312668E+00
        -11   -1    0    0    0    0  0.00000000000E+00  0.00000000000E+00  0.45593999997E+02  0.45594000000E+02  0.51100000000E-03 0.  1.
         11   -1    0    0    0    0 -0.00000000000E+00 -0.00000000000E+00 -0.45593999997E+02  0.45594000000E+02  0.51100000000E-03 0. -1.
    9900012    2    1    2    0    0  0.23213362704E+01 -0.12467480788E+02  0.41506586620E+02  0.47787269452E+02  0.19999992738E+02 0.  0.
         12    1    1    2    0    0 -0.23213362704E+01  0.12467480788E+02 -0.41506586620E+02  0.43400730548E+02  0.00000000000E+00 0. -1.
         11    1    3    3    0    0 -0.65903609960E+01 -0.40978056820E+01  0.76396465204E+01  0.10889860820E+02  0.51100000000E-03 0. -1.
        -11    1    3    3    0    0  0.37578025148E+01 -0.64789639953E+01  0.27445772670E+02  0.28449402312E+02  0.51100000000E-03 0.  1.
         12    1    3    3    0    0  0.51538947515E+01 -0.18907111109E+01  0.64211674298E+01  0.84480063196E+01  0.00000000000E+00 0. -1.
</event>
<event>
 7    1  0.5426550E-010  0.4778727E+02  0.7816164E-02  0.1312668E+00
        -11   -1    0    0    0    0  0.00000000000E+00  0.00000000000E+00  0.45593999997E+02  0.45594000000E+02  0.51100000000E-03 0.  1.
         11   -1    0    0    0    0 -0.00000000000E+00 -0.00000000000E+00 -0.45593999997E+02  0.45594000000E+02  0.51100000000E-03 0. -1.
    9900012    2    1    2    0    0  0.32256052332E+02  0.27223758071E+02  0.10101360763E+02  0.47787269536E+02  0.19999993121E+02 0.  0.
         12    1    1    2    0    0 -0.32256052332E+02 -0.27223758071E+02 -0.10101360763E+02  0.43400730464E+02  0.00000000000E+00 0. -1.
         11    1    3    3    0    0  0.18812614030E+02  0.17496918140E+02  0.13728387184E+02  0.29129455985E+02  0.51100000000E-03 0.  1.
        -11    1    3    3    0    0  0.36565314580E+01  0.17186621191E+01 -0.44186128529E+01  0.59873334288E+01  0.51100000000E-03 0. -1.
         12    1    3    3    0    0  0.97869068440E+01  0.80081778120E+01  0.79158643140E+00  0.12670480122E+02  0.00000000000E+00 0. -1.
</event>
<event>
 7    1  0.5426550E-010  0.4778729E+02  0.7816164E-02  0.1312668E+00
        -11   -1    0    0    0    0  0.00000000000E+00  0.00000000000E+00  0.45593999997E+02  0.45594000000E+02  0.51100000000E-03 0. -1.
         11   -1    0    0    0    0 -0.00000000000E+00 -0.00000000000E+00 -0.45593999997E+02  0.45594000000E+02  0.51100000000E-03 0.  1.
    9900012    2    1    2    0    0  0.52560436522E+01  0.15595017448E+02 -0.40159573072E+02  0.47787287179E+02  0.20000073562E+02 0.  0.
         12    1    1    2    0    0 -0.52560436522E+01 -0.15595017448E+02  0.40159573072E+02  0.43400712821E+02  0.00000000000E+00 0. -1.
         11    1    3    3    0    0  0.23825280754E+01  0.54646509594E+00  0.88591862953E+00  0.25999838866E+01  0.51100000000E-03 0. -1.
        -11    1    3    3    0    0  0.13369195080E+01  0.16591855065E+02 -0.37467003704E+02  0.40998211852E+02  0.51100000000E-03 0.  1.
        -12    1    3    3    0    0  0.15365960688E+01 -0.15433027128E+01 -0.35784879979E+01  0.41890914401E+01  0.00000000000E+00 0.  1.
</event>
<event>
 7    1  0.5426550E-010  0.4778727E+02  0.7816164E-02  0.1312668E+00
        -11   -1    0    0    0    0  0.00000000000E+00  0.00000000000E+00  0.45593999997E+02  0.45594000000E+02  0.51100000000E-03 0. -1.
         11   -1    0    0    0    0 -0.00000000000E+00 -0.00000000000E+00 -0.45593999997E+02  0.45594000000E+02  0.51100000000E-03 0.  1.
    9900012    2    1    2    0    0 -0.41367962561E+02 -0.13112692014E+02  0.61017879531E+00  0.47787270324E+02  0.19999996715E+02 0.  0.
         12    1    1    2    0    0  0.41367962561E+02  0.13112692014E+02 -0.61017879531E+00  0.43400729676E+02  0.00000000000E+00 0. -1.
         11    1    3    3    0    0 -0.14420815517E+02 -0.69359994287E+01  0.69304613068E+01  0.17438443234E+02  0.51100000000E-03 0. -1.
        -11    1    3    3    0    0 -0.26275067171E+02 -0.32653662966E+01 -0.45192780712E+01  0.26860112555E+02  0.51100000000E-03 0.  1.
         12    1    3    3    0    0 -0.67207987239E+00 -0.29113262884E+01 -0.18010044403E+01  0.34887145349E+01  0.00000000000E+00 0. -1.
</event>
<event>
 7    1  0.5426550E-010  0.4778727E+02  0.7816164E-02  0.1312668E+00
        -11   -1    0    0    0    0  0.00000000000E+00  0.00000000000E+00  0.45593999997E+02  0.45594000000E+02  0.51100000000E-03 0.  1.
         11   -1    0    0    0    0 -0.00000000000E+00 -0.00000000000E+00 -0.45593999997E+02  0.45594000000E+02  0.51100000000E-03 0. -1.
    9900012    2    1    2    0    0  0.37287712895E+01  0.24836391983E+02  0.35395948235E+02  0.47787271279E+02  0.20000001069E+02 0.  0.
         12    1    1    2    0    0 -0.37287712895E+01 -0.24836391983E+02 -0.35395948235E+02  0.43400728721E+02  0.00000000000E+00 0. -1.
         11    1    3    3    0    0 -0.65954047468E+00  0.24153189818E+02  0.21780108165E+02  0.32529750751E+02  0.51100000000E-03 0. -1.
        -11    1    3    3    0    0  0.12268288990E+01  0.11743872548E+01  0.10984559312E+02  0.11115072564E+02  0.51100000000E-03 0.  1.
         12    1    3    3    0    0  0.31614828651E+01 -0.49118508955E+00  0.26312807589E+01  0.41424479636E+01  0.00000000000E+00 0. -1.
</event>
<event>
 7    1  0.5426550E-010  0.4778727E+02  0.7816164E-02  0.1312668E+00
        -11   -1    0    0    0    0  0.00000000000E+00  0.00000000000E+00  0.45593999997E+02  0.45594000000E+02  0.51100000000E-03 0. -1.
         11   -1    0    0    0    0 -0.00000000000E+00 -0.00000000000E+00 -0.45593999997E+02  0.45594000000E+02  0.51100000000E-03 0.  1.
    9900012    2    1    2    0    0 -0.37944218830E+02  0.29279216863E+01 -0.20863530929E+02  0.47787269697E+02  0.19999993856E+02 0.  0.
         12    1    1    2    0    0  0.37944218830E+02 -0.29279216863E+01  0.20863530929E+02  0.43400730303E+02  0.00000000000E+00 0. -1.
         11    1    3    3    0    0 -0.24907402711E+02  0.24201574284E+01 -0.14369199097E+02  0.28856710740E+02  0.51100000000E-03 0. -1.
        -11    1    3    3    0    0 -0.49556422829E+01 -0.56459617206E+01 -0.17185916623E+01  0.77064149739E+01  0.51100000000E-03 0.  1.
         12    1    3    3    0    0 -0.80811738359E+01  0.61537259784E+01 -0.47757401698E+01  0.11224143983E+02  0.00000000000E+00 0. -1.
</event>
<event>
 7    1  0.5426550E-010  0.4778728E+02  0.7816164E-02  0.1312668E+00
        -11   -1    0    0    0    0  0.00000000000E+00  0.00000000000E+00  0.45593999997E+02  0.45594000000E+02  0.51100000000E-03 0.  1.
         11   -1    0    0    0    0 -0.00000000000E+00 -0.00000000000E+00 -0.45593999997E+02  0.45594000000E+02  0.51100000000E-03 0. -1.
    9900012    2    1    2    0    0  0.48119080967E+01  0.35266385618E+02  0.24834461315E+02  0.47787275549E+02  0.20000020538E+02 0.  0.
         12    1    1    2    0    0 -0.48119080967E+01 -0.35266385618E+02 -0.24834461315E+02  0.43400724451E+02  0.00000000000E+00 0. -1.
         11    1    3    3    0    0  0.30080008267E+01  0.33776592976E+01 -0.13706665817E+01  0.47260319977E+01  0.51100000000E-03 0. -1.
        -11    1    3    3    0    0 -0.15637339087E+01  0.30441587069E+02  0.22894822052E+02  0.38122281727E+02  0.51100000000E-03 0.  1.
        -12    1    3    3    0    0  0.33676411787E+01  0.14471392516E+01  0.33103058443E+01  0.49389618246E+01  0.00000000000E+00 0.  1.
</event>
<event>
 7    1  0.5426550E-010  0.4778727E+02  0.7816164E-02  0.1312668E+00
        -11   -1    0    0    0    0  0.00000000000E+00  0.00000000000E+00  0.45593999997E+02  0.45594000000E+02  0.51100000000E-03 0.  1.
         11   -1    0    0    0    0 -0.00000000000E+00 -0.00000000000E+00 -0.45593999997E+02  0.45594000000E+02  0.51100000000E-03 0. -1.
    9900012    2    1    2    0    0 -0.21886116555E+02  0.67503772894E+01  0.36865350114E+02  0.47787265785E+02  0.19999976019E+02 0.  0.
         12    1    1    2    0    0  0.21886116555E+02 -0.67503772894E+01 -0.36865350114E+02  0.43400734215E+02  0.00000000000E+00 0. -1.
         11    1    3    3    0    0  0.68658742024E-01  0.53469437096E+01  0.11400466955E+01  0.54675614112E+01  0.51100000000E-03 0. -1.
        -11    1    3    3    0    0 -0.10168454621E+02 -0.66299896143E+00  0.11963848200E+02  0.15715301493E+02  0.51100000000E-03 0.  1.
         12    1    3    3    0    0 -0.11786320676E+02  0.20664325413E+01  0.23761455219E+02  0.26604402880E+02  0.00000000000E+00 0. -1.
</event>
<event>
 7    1  0.5426550E-010  0.4778727E+02  0.7816164E-02  0.1312668E+00
        -11   -1    0    0    0    0  0.00000000000E+00  0.00000000000E+00  0.45593999997E+02  0.45594000000E+02  0.51100000000E-03 0.  1.
         11   -1    0    0    0    0 -0.00000000000E+00 -0.00000000000E+00 -0.45593999997E+02  0.45594000000E+02  0.51100000000E-03 0. -1.
    9900012    2    1    2    0    0 -0.34960580341E+02  0.16791563307E+02  0.19478823373E+02  0.47787270328E+02  0.19999996732E+02 0.  0.
         12    1    1    2    0    0  0.34960580341E+02 -0.16791563307E+02 -0.19478823373E+02  0.43400729672E+02  0.00000000000E+00 0. -1.
         11    1    3    3    0    0 -0.30886992826E+02  0.11879825294E+02  0.19626832545E+02  0.38475305468E+02  0.51100000000E-03 0. -1.
        -11    1    3    3    0    0 -0.47613606649E+01  0.31255025597E+01  0.23530885566E+01  0.61624952453E+01  0.51100000000E-03 0.  1.
         12    1    3    3    0    0  0.68777314985E+00  0.17862354536E+01 -0.25010977288E+01  0.31494696141E+01  0.00000000000E+00 0. -1.
</event>
<event>
 7    1  0.5426550E-010  0.4778727E+02  0.7816164E-02  0.1312668E+00
        -11   -1    0    0    0    0  0.00000000000E+00  0.00000000000E+00  0.45593999997E+02  0.45594000000E+02  0.51100000000E-03 0.  1.
         11   -1    0    0    0    0 -0.00000000000E+00 -0.00000000000E+00 -0.45593999997E+02  0.45594000000E+02  0.51100000000E-03 0. -1.
    9900012    2    1    2    0    0  0.17318554733E+02 -0.54681717817E+01  0.39418143805E+02  0.47787270723E+02  0.19999998536E+02 0.  0.
         12    1    1    2    0    0 -0.17318554733E+02  0.54681717817E+01 -0.39418143805E+02  0.43400729277E+02  0.00000000000E+00 0. -1.
         11    1    3    3    0    0  0.86648014634E+01  0.55404992470E+00  0.36336999384E+01  0.94122011890E+01  0.51100000000E-03 0. -1.
        -11    1    3    3    0    0  0.43223932477E+01 -0.23713083460E+01  0.29521299697E+02  0.29930140707E+02  0.51100000000E-03 0.  1.
        -12    1    3    3    0    0  0.43313600223E+01 -0.36509133604E+01  0.62631441696E+01  0.84449288273E+01  0.00000000000E+00 0.  1.
</event>
<event>
 7    1  0.5426550E-010  0.4778727E+02  0.7816164E-02  0.1312668E+00
        -11   -1    0    0    0    0  0.00000000000E+00  0.00000000000E+00  0.45593999997E+02  0.45594000000E+02  0.51100000000E-03 0.  1.
         11   -1    0    0    0    0 -0.00000000000E+00 -0.00000000000E+00 -0.45593999997E+02  0.45594000000E+02  0.51100000000E-03 0. -1.
    9900012    2    1    2    0    0  0.41390449111E+02  0.63723709156E+01  0.11395038431E+02  0.47787270864E+02  0.19999999177E+02 0.  0.
         12    1    1    2    0    0 -0.41390449111E+02 -0.63723709156E+01 -0.11395038431E+02  0.43400729136E+02  0.00000000000E+00 0. -1.
         11    1    3    3    0    0  0.13354963553E+02 -0.26132684198E+01 -0.49964050623E+00  0.13617410335E+02  0.51100000000E-03 0. -1.
        -11    1    3    3    0    0  0.27733285670E+02  0.93149348228E+01  0.13703831456E+02  0.32306317364E+02  0.51100000000E-03 0.  1.
         12    1    3    3    0    0  0.30219988831E+00 -0.32929548741E+00 -0.18091525189E+01  0.18635431649E+01  0.00000000000E+00 0. -1.
</event>
<event>
 7    1  0.5426550E-010  0.4778727E+02  0.7816164E-02  0.1312668E+00
        -11   -1    0    0    0    0  0.00000000000E+00  0.00000000000E+00  0.45593999997E+02  0.45594000000E+02  0.51100000000E-03 0.  1.
         11   -1    0    0    0    0 -0.00000000000E+00 -0.00000000000E+00 -0.45593999997E+02  0.45594000000E+02  0.51100000000E-03 0. -1.
    9900012    2    1    2    0    0 -0.12251463068E+02  0.21823337804E+02  0.35457961979E+02  0.47787268579E+02  0.19999988759E+02 0.  0.
         12    1    1    2    0    0  0.12251463068E+02 -0.21823337804E+02 -0.35457961979E+02  0.43400731421E+02  0.00000000000E+00 0. -1.
         11    1    3    3    0    0 -0.12030055392E+02  0.69317151784E+01  0.12734179391E+02  0.18839592168E+02  0.51100000000E-03 0. -1.
        -11    1    3    3    0    0  0.33549916422E+01  0.68429203059E+01  0.16463715662E+02  0.18142090863E+02  0.51100000000E-03 0.  1.
        -12    1    3    3    0    0 -0.35763993183E+01  0.80487023195E+01  0.62600669261E+01  0.10805585548E+02  0.00000000000E+00 0.  1.
</event>
<event>
 7    1  0.5426550E-010  0.4778725E+02  0.7816164E-02  0.1312668E+00
        -11   -1    0    0    0    0  0.00000000000E+00  0.00000000000E+00  0.45593999997E+02  0.45594000000E+02  0.51100000000E-03 0.  1.
         11   -1    0    0    0    0 -0.00000000000E+00 -0.00000000000E+00 -0.45593999997E+02  0.45594000000E+02  0.51100000000E-03 0. -1.
    9900012    2    1    2    0    0 -0.20220976112E+01  0.13080862014E+02  0.41333126711E+02  0.47787248930E+02  0.19999899169E+02 0.  0.
         12    1    1    2    0    0  0.20220976112E+01 -0.13080862014E+02 -0.41333126711E+02  0.43400751070E+02  0.00000000000E+00 0. -1.
         11    1    3    3    0    0 -0.82527001474E+00  0.42948727627E+01  0.24665647933E+01  0.50210501676E+01  0.51100000000E-03 0. -1.
        -11    1    3    3    0    0  0.39858972046E+01  0.10876298970E+01  0.28719875021E+02  0.29015539575E+02  0.51100000000E-03 0.  1.
        -12    1    3    3    0    0 -0.51827248011E+01  0.76983593541E+01  0.10146686896E+02  0.13750659187E+02  0.00000000000E+00 0.  1.
</event>
<event>
 7    1  0.5426550E-010  0.4778729E+02  0.7816164E-02  0.1312668E+00
        -11   -1    0    0    0    0  0.00000000000E+00  0.00000000000E+00  0.45593999997E+02  0.45594000000E+02  0.51100000000E-03 0.  1.
         11   -1    0    0    0    0 -0.00000000000E+00 -0.00000000000E+00 -0.45593999997E+02  0.45594000000E+02  0.51100000000E-03 0. -1.
    9900012    2    1    2    0    0  0.39757933596E+02 -0.16688025194E+02 -0.49434991677E+01  0.47787289721E+02  0.20000085153E+02 0.  0.
         12    1    1    2    0    0 -0.39757933596E+02  0.16688025194E+02  0.49434991677E+01  0.43400710279E+02  0.00000000000E+00 0. -1.
         11    1    3    3    0    0  0.15383736063E+02  0.10364052052E+01  0.29068714577E+01  0.15690231768E+02  0.51100000000E-03 0. -1.
        -11    1    3    3    0    0  0.27478337240E+00 -0.24324806138E+01  0.15840243557E+00  0.24530714280E+01  0.51100000000E-03 0.  1.
         12    1    3    3    0    0  0.24099414161E+02 -0.15291949785E+02 -0.80087730610E+01  0.29643986525E+02  0.00000000000E+00 0. -1.
</event>
<event>
 7    1  0.5426550E-010  0.4778727E+02  0.7816164E-02  0.1312668E+00
        -11   -1    0    0    0    0  0.00000000000E+00  0.00000000000E+00  0.45593999997E+02  0.45594000000E+02  0.51100000000E-03 0.  1.
         11   -1    0    0    0    0 -0.00000000000E+00 -0.00000000000E+00 -0.45593999997E+02  0.45594000000E+02  0.51100000000E-03 0. -1.
    9900012    2    1    2    0    0 -0.25032653123E+02 -0.20673180110E+01  0.35393723780E+02  0.47787271790E+02  0.20000003401E+02 0.  0.
         12    1    1    2    0    0  0.25032653123E+02  0.20673180110E+01 -0.35393723780E+02  0.43400728210E+02  0.00000000000E+00 0. -1.
         11    1    3    3    0    0 -0.10940296998E+01 -0.32655025733E+01  0.14392301936E+02  0.14798606803E+02  0.51100000000E-03 0. -1.
        -11    1    3    3    0    0 -0.16708675889E+02  0.22623884399E+01  0.94754159756E+01  0.19341193335E+02  0.51100000000E-03 0.  1.
        -12    1    3    3    0    0 -0.72299475334E+01 -0.10642038776E+01  0.11526005868E+02  0.13647471652E+02  0.00000000000E+00 0.  1.
</event>
<event>
 7    1  0.5426550E-010  0.4778727E+02  0.7816164E-02  0.1312668E+00
        -11   -1    0    0    0    0  0.00000000000E+00  0.00000000000E+00  0.45593999997E+02  0.45594000000E+02  0.51100000000E-03 0.  1.
         11   -1    0    0    0    0 -0.00000000000E+00 -0.00000000000E+00 -0.45593999997E+02  0.45594000000E+02  0.51100000000E-03 0. -1.
    9900012    2    1    2    0    0 -0.29764337582E+02  0.19007426933E+01  0.31529265522E+02  0.47787271909E+02  0.20000003942E+02 0.  0.
         12    1    1    2    0    0  0.29764337582E+02 -0.19007426933E+01 -0.31529265522E+02  0.43400728091E+02  0.00000000000E+00 0. -1.
         11    1    3    3    0    0 -0.44824670511E+01 -0.55190049638E+01  0.53941773538E+01  0.89246331151E+01  0.51100000000E-03 0. -1.
        -11    1    3    3    0    0 -0.24103167716E+02  0.40261881328E+01  0.19294089711E+02  0.31135747668E+02  0.51100000000E-03 0.  1.
         12    1    3    3    0    0 -0.11787028145E+01  0.33935595243E+01  0.68409984579E+01  0.77268911259E+01  0.00000000000E+00 0. -1.
</event>
<event>
 7    1  0.5426550E-010  0.4778727E+02  0.7816164E-02  0.1312668E+00
        -11   -1    0    0    0    0  0.00000000000E+00  0.00000000000E+00  0.45593999997E+02  0.45594000000E+02  0.51100000000E-03 0.  1.
         11   -1    0    0    0    0 -0.00000000000E+00 -0.00000000000E+00 -0.45593999997E+02  0.45594000000E+02  0.51100000000E-03 0. -1.
    9900012    2    1    2    0    0 -0.11069429700E+02 -0.18165995110E+02  0.37829724179E+02  0.47787266323E+02  0.19999978473E+02 0.  0.
         12    1    1    2    0    0  0.11069429700E+02  0.18165995110E+02 -0.37829724179E+02  0.43400733677E+02  0.00000000000E+00 0. -1.
         11    1    3    3    0    0 -0.18206519276E+00  0.87199897745E+00 -0.10126407058E+01  0.13486924821E+01  0.51100000000E-03 0. -1.
        -11    1    3    3    0    0 -0.12993088217E+02 -0.13379822696E+02  0.23851158733E+02  0.30277347472E+02  0.51100000000E-03 0.  1.
        -12    1    3    3    0    0  0.21057237098E+01 -0.56581713918E+01  0.14991206152E+02  0.16161226369E+02  0.00000000000E+00 0.  1.
</event>
<event>
 7    1  0.5426550E-010  0.4778727E+02  0.7816164E-02  0.1312668E+00
        -11   -1    0    0    0    0  0.00000000000E+00  0.00000000000E+00  0.45593999997E+02  0.45594000000E+02  0.51100000000E-03 0.  1.
         11   -1    0    0    0    0 -0.00000000000E+00 -0.00000000000E+00 -0.45593999997E+02  0.45594000000E+02  0.51100000000E-03 0. -1.
    9900012    2    1    2    0    0  0.17352775271E+02 -0.33429982771E+02  0.21562495528E+02  0.47787265317E+02  0.19999973886E+02 0.  0.
         12    1    1    2    0    0 -0.17352775271E+02  0.33429982771E+02 -0.21562495528E+02  0.43400734683E+02  0.00000000000E+00 0. -1.
         11    1    3    3    0    0  0.90430473156E+00  0.14379743496E+01  0.48370742570E+01  0.51266777650E+01  0.51100000000E-03 0. -1.
        -11    1    3    3    0    0  0.55831423212E+01 -0.19752146904E+02  0.10314881375E+02  0.22972060498E+02  0.51100000000E-03 0.  1.
         12    1    3    3    0    0  0.10865328218E+02 -0.15115810216E+02  0.64105398952E+01  0.19688527053E+02  0.00000000000E+00 0. -1.
</event>
<event>
 7    1  0.5426550E-010  0.4778727E+02  0.7816164E-02  0.1312668E+00
        -11   -1    0    0    0    0  0.00000000000E+00  0.00000000000E+00  0.45593999997E+02  0.45594000000E+02  0.51100000000E-03 0. -1.
         11   -1    0    0    0    0 -0.00000000000E+00 -0.00000000000E+00 -0.45593999997E+02  0.45594000000E+02  0.51100000000E-03 0.  1.
    9900012    2    1    2    0    0 -0.14813133164E+02  0.13803515007E+02 -0.38388249065E+02  0.47787267207E+02  0.19999982503E+02 0.  0.
         12    1    1    2    0    0  0.14813133164E+02 -0.13803515007E+02  0.38388249065E+02  0.43400732793E+02  0.00000000000E+00 0. -1.
         11    1    3    3    0    0 -0.35802365857E+01  0.88572883753E+01 -0.23237162748E+02  0.25124398186E+02  0.51100000000E-03 0. -1.
        -11    1    3    3    0    0 -0.80083028664E+01  0.76818003943E+01 -0.60773225950E+01  0.12652146944E+02  0.51100000000E-03 0.  1.
         12    1    3    3    0    0 -0.32245937115E+01 -0.27355737625E+01 -0.90737637221E+01  0.10010722077E+02  0.00000000000E+00 0. -1.
</event>
<event>
 7    1  0.5426550E-010  0.4778725E+02  0.7816164E-02  0.1312668E+00
        -11   -1    0    0    0    0  0.00000000000E+00  0.00000000000E+00  0.45593999997E+02  0.45594000000E+02  0.51100000000E-03 0. -1.
         11   -1    0    0    0    0 -0.00000000000E+00 -0.00000000000E+00 -0.45593999997E+02  0.45594000000E+02  0.51100000000E-03 0.  1.
    9900012    2    1    2    0    0 -0.31143632961E+02 -0.30219249690E+02 -0.70427162769E+00  0.47787252030E+02  0.19999913305E+02 0.  0.
         12    1    1    2    0    0  0.31143632961E+02  0.30219249690E+02  0.70427162769E+00  0.43400747970E+02  0.00000000000E+00 0. -1.
         11    1    3    3    0    0 -0.16636790403E+02 -0.24148154662E+02  0.10121393085E+01  0.29341789222E+02  0.51100000000E-03 0.  1.
        -11    1    3    3    0    0 -0.98932833660E+01 -0.26018064966E+01  0.33507849978E+01  0.10764488523E+02  0.51100000000E-03 0. -1.
        -12    1    3    3    0    0 -0.46135591918E+01 -0.34692885318E+01 -0.50671959339E+01  0.76809742850E+01  0.00000000000E+00 0.  1.
</event>
<event>
 7    1  0.5426550E-010  0.4778727E+02  0.7816164E-02  0.1312668E+00
        -11   -1    0    0    0    0  0.00000000000E+00  0.00000000000E+00  0.45593999997E+02  0.45594000000E+02  0.51100000000E-03 0.  1.
         11   -1    0    0    0    0 -0.00000000000E+00 -0.00000000000E+00 -0.45593999997E+02  0.45594000000E+02  0.51100000000E-03 0. -1.
    9900012    2    1    2    0    0 -0.22658649927E+02 -0.33398514591E+02  0.15960845079E+02  0.47787265340E+02  0.19999973990E+02 0.  0.
         12    1    1    2    0    0  0.22658649927E+02  0.33398514591E+02 -0.15960845079E+02  0.43400734660E+02  0.00000000000E+00 0. -1.
         11    1    3    3    0    0  0.11437883733E+01 -0.43757165807E+01  0.52245753719E+01  0.69102341144E+01  0.51100000000E-03 0. -1.
        -11    1    3    3    0    0 -0.15939278781E+02 -0.25661337892E+02  0.11426890514E+02  0.32297657771E+02  0.51100000000E-03 0.  1.
        -12    1    3    3    0    0 -0.78631595198E+01 -0.33614601185E+01 -0.69062080664E+00  0.85793734539E+01  0.00000000000E+00 0.  1.
</event>
<event>
 7    1  0.5426550E-010  0.4778727E+02  0.7816164E-02  0.1312668E+00
        -11   -1    0    0    0    0  0.00000000000E+00  0.00000000000E+00  0.45593999997E+02  0.45594000000E+02  0.51100000000E-03 0. -1.
         11   -1    0    0    0    0 -0.00000000000E+00 -0.00000000000E+00 -0.45593999997E+02  0.45594000000E+02  0.51100000000E-03 0.  1.
    9900012    2    1    2    0    0 -0.21002417313E+02  0.34031257122E+02 -0.16864034277E+02  0.47787266753E+02  0.19999980436E+02 0.  0.
         12    1    1    2    0    0  0.21002417313E+02 -0.34031257122E+02  0.16864034277E+02  0.43400733247E+02  0.00000000000E+00 0. -1.
         11    1    3    3    0    0 -0.11176277498E+01  0.10426014559E+02 -0.10590810688E+02  0.14903561408E+02  0.51100000000E-03 0. -1.
        -11    1    3    3    0    0 -0.93391360001E+01  0.11331715531E+02 -0.78048743053E+01  0.16629591134E+02  0.51100000000E-03 0.  1.
         12    1    3    3    0    0 -0.10545653563E+02  0.12273527032E+02  0.15316507164E+01  0.16254114211E+02  0.00000000000E+00 0. -1.
</event>
<event>
 7    1  0.5426550E-010  0.4778727E+02  0.7816164E-02  0.1312668E+00
        -11   -1    0    0    0    0  0.00000000000E+00  0.00000000000E+00  0.45593999997E+02  0.45594000000E+02  0.51100000000E-03 0. -1.
         11   -1    0    0    0    0 -0.00000000000E+00 -0.00000000000E+00 -0.45593999997E+02  0.45594000000E+02  0.51100000000E-03 0.  1.
    9900012    2    1    2    0    0 -0.35700201136E+02  0.68034092070E+01 -0.23724088677E+02  0.47787272799E+02  0.20000008000E+02 0.  0.
         12    1    1    2    0    0  0.35700201136E+02 -0.68034092070E+01  0.23724088677E+02  0.43400727201E+02  0.00000000000E+00 0. -1.
         11    1    3    3    0    0 -0.56783527628E+01 -0.41363098432E+01 -0.10559418495E+01  0.71040666290E+01  0.51100000000E-03 0. -1.
        -11    1    3    3    0    0 -0.27046816916E+02  0.11107795432E+02 -0.15887049551E+02  0.33276294390E+02  0.51100000000E-03 0.  1.
        -12    1    3    3    0    0 -0.29750314581E+01 -0.16807638191E+00 -0.67810972766E+01  0.74069117804E+01  0.00000000000E+00 0.  1.
</event>
<event>
 7    1  0.5426550E-010  0.4778727E+02  0.7816164E-02  0.1312668E+00
        -11   -1    0    0    0    0  0.00000000000E+00  0.00000000000E+00  0.45593999997E+02  0.45594000000E+02  0.51100000000E-03 0.  1.
         11   -1    0    0    0    0 -0.00000000000E+00 -0.00000000000E+00 -0.45593999997E+02  0.45594000000E+02  0.51100000000E-03 0. -1.
    9900012    2    1    2    0    0 -0.59967676560E+01 -0.33311796411E+02  0.27165909441E+02  0.47787266847E+02  0.19999980861E+02 0.  0.
         12    1    1    2    0    0  0.59967676560E+01  0.33311796411E+02 -0.27165909441E+02  0.43400733153E+02  0.00000000000E+00 0. -1.
         11    1    3    3    0    0 -0.19858049969E+01 -0.77128585358E+00  0.22916954021E+01  0.31289249641E+01  0.51100000000E-03 0. -1.
        -11    1    3    3    0    0  0.62329463270E+01 -0.64306525497E+01  0.47431734256E+01  0.10134130774E+02  0.51100000000E-03 0.  1.
        -12    1    3    3    0    0 -0.10243908986E+02 -0.26109858008E+02  0.20131040614E+02  0.34524211109E+02  0.00000000000E+00 0.  1.
</event>
<event>
 7    1  0.5426550E-010  0.4778726E+02  0.7816164E-02  0.1312668E+00
        -11   -1    0    0    0    0  0.00000000000E+00  0.00000000000E+00  0.45593999997E+02  0.45594000000E+02  0.51100000000E-03 0.  1.
         11   -1    0    0    0    0 -0.00000000000E+00 -0.00000000000E+00 -0.45593999997E+02  0.45594000000E+02  0.51100000000E-03 0. -1.
    9900012    2    1    2    0    0  0.31611773328E+02  0.29157374212E+02 -0.58453059784E+01  0.47787259386E+02  0.19999946843E+02 0.  0.
         12    1    1    2    0    0 -0.31611773328E+02 -0.29157374212E+02  0.58453059784E+01  0.43400740614E+02  0.00000000000E+00 0. -1.
         11    1    3    3    0    0  0.18988722543E+02  0.14499391873E+02  0.14221366651E+01  0.23933792459E+02  0.51100000000E-03 0. -1.
        -11    1    3    3    0    0  0.95787971313E+01  0.77711318496E+01 -0.99630681176E+01  0.15855805602E+02  0.51100000000E-03 0.  1.
        -12    1    3    3    0    0  0.30442536536E+01  0.68868504895E+01  0.26956254742E+01  0.79976613250E+01  0.00000000000E+00 0.  1.
</event>
<event>
 7    1  0.5426550E-010  0.4778727E+02  0.7816164E-02  0.1312668E+00
        -11   -1    0    0    0    0  0.00000000000E+00  0.00000000000E+00  0.45593999997E+02  0.45594000000E+02  0.51100000000E-03 0.  1.
         11   -1    0    0    0    0 -0.00000000000E+00 -0.00000000000E+00 -0.45593999997E+02  0.45594000000E+02  0.51100000000E-03 0. -1.
    9900012    2    1    2    0    0  0.42207693388E+02 -0.93310093830E+01  0.38814909478E+01  0.47787273172E+02  0.20000009701E+02 0.  0.
         12    1    1    2    0    0 -0.42207693388E+02  0.93310093830E+01 -0.38814909478E+01  0.43400726828E+02  0.00000000000E+00 0. -1.
         11    1    3    3    0    0  0.38983584599E+01 -0.47644143729E+01 -0.16817784660E+01  0.63816316149E+01  0.51100000000E-03 0. -1.
        -11    1    3    3    0    0  0.29078745391E+02 -0.46859959389E+01  0.10076787555E+02  0.31129947625E+02  0.51100000000E-03 0.  1.
        -12    1    3    3    0    0  0.92305895369E+01  0.11940092883E+00 -0.45135181408E+01  0.10275693932E+02  0.00000000000E+00 0.  1.
</event>
<event>
 7    1  0.5426550E-010  0.4778727E+02  0.7816164E-02  0.1312668E+00
        -11   -1    0    0    0    0  0.00000000000E+00  0.00000000000E+00  0.45593999997E+02  0.45594000000E+02  0.51100000000E-03 0.  1.
         11   -1    0    0    0    0 -0.00000000000E+00 -0.00000000000E+00 -0.45593999997E+02  0.45594000000E+02  0.51100000000E-03 0. -1.
    9900012    2    1    2    0    0 -0.21556800312E+02 -0.27674876634E+02  0.25554429616E+02  0.47787270635E+02  0.19999998133E+02 0.  0.
         12    1    1    2    0    0  0.21556800312E+02  0.27674876634E+02 -0.25554429616E+02  0.43400729365E+02  0.00000000000E+00 0. -1.
         11    1    3    3    0    0 -0.20549439610E+01  0.52587735230E+00  0.58910953392E+01  0.62613374154E+01  0.51100000000E-03 0. -1.
        -11    1    3    3    0    0 -0.19989469154E+02 -0.21226649362E+02  0.18236491552E+02  0.34390683979E+02  0.51100000000E-03 0.  1.
        -12    1    3    3    0    0  0.48761280271E+00 -0.69741046242E+01  0.14268427256E+01  0.71352492401E+01  0.00000000000E+00 0.  1.
</event>
<event>
 7    1  0.5426550E-010  0.4778727E+02  0.7816164E-02  0.1312668E+00
        -11   -1    0    0    0    0  0.00000000000E+00  0.00000000000E+00  0.45593999997E+02  0.45594000000E+02  0.51100000000E-03 0. -1.
         11   -1    0    0    0    0 -0.00000000000E+00 -0.00000000000E+00 -0.45593999997E+02  0.45594000000E+02  0.51100000000E-03 0.  1.
    9900012    2    1    2    0    0  0.24402898791E+02 -0.38537929225E+01 -0.35682912124E+02  0.47787269511E+02  0.19999993010E+02 0.  0.
         12    1    1    2    0    0 -0.24402898791E+02  0.38537929225E+01  0.35682912124E+02  0.43400730489E+02  0.00000000000E+00 0. -1.
         11    1    3    3    0    0  0.14124919081E+02 -0.74250933332E+01 -0.11864327522E+02  0.19884859010E+02  0.51100000000E-03 0. -1.
        -11    1    3    3    0    0  0.56358380906E+01  0.21008943913E+00 -0.31624132127E+01  0.64658847921E+01  0.51100000000E-03 0.  1.
         12    1    3    3    0    0  0.46421416199E+01  0.33612109715E+01 -0.20656171389E+02  0.21436525709E+02  0.00000000000E+00 0. -1.
</event>
<event>
 7    1  0.5426550E-010  0.4778728E+02  0.7816164E-02  0.1312668E+00
        -11   -1    0    0    0    0  0.00000000000E+00  0.00000000000E+00  0.45593999997E+02  0.45594000000E+02  0.51100000000E-03 0. -1.
         11   -1    0    0    0    0 -0.00000000000E+00 -0.00000000000E+00 -0.45593999997E+02  0.45594000000E+02  0.51100000000E-03 0.  1.
    9900012    2    1    2    0    0 -0.35188726357E+02  0.47406367357E+00 -0.25399835766E+02  0.47787275859E+02  0.20000021953E+02 0.  0.
         12    1    1    2    0    0  0.35188726357E+02 -0.47406367357E+00  0.25399835766E+02  0.43400724141E+02  0.00000000000E+00 0. -1.
         11    1    3    3    0    0 -0.14823878793E+00  0.11369894376E+01 -0.60742834557E+01  0.61815563963E+01  0.51100000000E-03 0. -1.
        -11    1    3    3    0    0 -0.21793586818E+02 -0.51757330752E+01 -0.86813627823E+01  0.24023211677E+02  0.51100000000E-03 0.  1.
        -12    1    3    3    0    0 -0.13246900751E+02  0.45128073111E+01 -0.10644189528E+02  0.17582507786E+02  0.00000000000E+00 0.  1.
</event>
<event>
 7    1  0.5426550E-010  0.4778727E+02  0.7816164E-02  0.1312668E+00
        -11   -1    0    0    0    0  0.00000000000E+00  0.00000000000E+00  0.45593999997E+02  0.45594000000E+02  0.51100000000E-03 0.  1.
         11   -1    0    0    0    0 -0.00000000000E+00 -0.00000000000E+00 -0.45593999997E+02  0.45594000000E+02  0.51100000000E-03 0. -1.
    9900012    2    1    2    0    0 -0.18843526461E+02 -0.18469252061E+02  0.34459131639E+02  0.47787268272E+02  0.19999987360E+02 0.  0.
         12    1    1    2    0    0  0.18843526461E+02  0.18469252061E+02 -0.34459131639E+02  0.43400731728E+02  0.00000000000E+00 0. -1.
         11    1    3    3    0    0 -0.19200887235E+02 -0.66881299089E+01  0.22528707010E+02  0.30347121644E+02  0.51100000000E-03 0. -1.
        -11    1    3    3    0    0 -0.27452528271E+00 -0.11850779262E+02  0.10349580493E+02  0.15736268614E+02  0.51100000000E-03 0.  1.
         12    1    3    3    0    0  0.63188605702E+00  0.69657109874E-01  0.15808441369E+01  0.17038780142E+01  0.00000000000E+00 0. -1.
</event>
<event>
 7    1  0.5426550E-010  0.4778728E+02  0.7816164E-02  0.1312668E+00
        -11   -1    0    0    0    0  0.00000000000E+00  0.00000000000E+00  0.45593999997E+02  0.45594000000E+02  0.51100000000E-03 0.  1.
         11   -1    0    0    0    0 -0.00000000000E+00 -0.00000000000E+00 -0.45593999997E+02  0.45594000000E+02  0.51100000000E-03 0. -1.
    9900012    2    1    2    0    0 -0.40070654297E+02 -0.17701478326E+01  0.16578052679E+02  0.47787278926E+02  0.20000035934E+02 0.  0.
         12    1    1    2    0    0  0.40070654297E+02  0.17701478326E+01 -0.16578052679E+02  0.43400721074E+02  0.00000000000E+00 0. -1.
         11    1    3    3    0    0 -0.82775129903E+01 -0.79165080504E+01  0.49397467169E+01  0.12473548770E+02  0.51100000000E-03 0.  1.
        -11    1    3    3    0    0 -0.10087167495E+02 -0.15169414073E+01  0.22015097512E+01  0.10435454218E+02  0.51100000000E-03 0. -1.
         12    1    3    3    0    0 -0.21705973812E+02  0.76633016251E+01  0.94367962104E+01  0.24878275938E+02  0.00000000000E+00 0. -1.
</event>
<event>
 7    1  0.5426550E-010  0.4778727E+02  0.7816164E-02  0.1312668E+00
        -11   -1    0    0    0    0  0.00000000000E+00  0.00000000000E+00  0.45593999997E+02  0.45594000000E+02  0.51100000000E-03 0.  1.
         11   -1    0    0    0    0 -0.00000000000E+00 -0.00000000000E+00 -0.45593999997E+02  0.45594000000E+02  0.51100000000E-03 0. -1.
    9900012    2    1    2    0    0 -0.33182495723E+02 -0.17809194873E+02  0.21572621607E+02  0.47787269045E+02  0.19999990885E+02 0.  0.
         12    1    1    2    0    0  0.33182495723E+02  0.17809194873E+02 -0.21572621607E+02  0.43400730955E+02  0.00000000000E+00 0. -1.
         11    1    3    3    0    0 -0.28311749964E+01  0.18338726095E+01  0.80948718748E+01  0.87695833162E+01  0.51100000000E-03 0. -1.
        -11    1    3    3    0    0 -0.15139924019E+02 -0.10717571849E+02  0.98844920692E+01  0.21018725684E+02  0.51100000000E-03 0.  1.
         12    1    3    3    0    0 -0.15211396707E+02 -0.89254956327E+01  0.35932576625E+01  0.17998960045E+02  0.00000000000E+00 0. -1.
</event>
<event>
 7    1  0.5426550E-010  0.4778727E+02  0.7816164E-02  0.1312668E+00
        -11   -1    0    0    0    0  0.00000000000E+00  0.00000000000E+00  0.45593999997E+02  0.45594000000E+02  0.51100000000E-03 0.  1.
         11   -1    0    0    0    0 -0.00000000000E+00 -0.00000000000E+00 -0.45593999997E+02  0.45594000000E+02  0.51100000000E-03 0. -1.
    9900012    2    1    2    0    0  0.24540072319E+02  0.28442552509E+02 -0.21735448815E+02  0.47787266390E+02  0.19999978781E+02 0.  0.
         12    1    1    2    0    0 -0.24540072319E+02 -0.28442552509E+02  0.21735448815E+02  0.43400733610E+02  0.00000000000E+00 0. -1.
         11    1    3    3    0    0 -0.47968491878E+00 -0.15539251793E+01 -0.24108008282E+00  0.16440501670E+01  0.51100000000E-03 0. -1.
        -11    1    3    3    0    0  0.19702882214E+02  0.19215468103E+02 -0.93779063660E+01  0.29075469214E+02  0.51100000000E-03 0.  1.
        -12    1    3    3    0    0  0.53168750236E+01  0.10781009585E+02 -0.12116462366E+02  0.17067747009E+02  0.00000000000E+00 0.  1.
</event>
<event>
 7    1  0.5426550E-010  0.4778726E+02  0.7816164E-02  0.1312668E+00
        -11   -1    0    0    0    0  0.00000000000E+00  0.00000000000E+00  0.45593999997E+02  0.45594000000E+02  0.51100000000E-03 0.  1.
         11   -1    0    0    0    0 -0.00000000000E+00 -0.00000000000E+00 -0.45593999997E+02  0.45594000000E+02  0.51100000000E-03 0. -1.
    9900012    2    1    2    0    0  0.36456530146E+02 -0.15810030810E+02  0.17452461714E+02  0.47787261707E+02  0.19999957428E+02 0.  0.
         12    1    1    2    0    0 -0.36456530146E+02  0.15810030810E+02 -0.17452461714E+02  0.43400738293E+02  0.00000000000E+00 0. -1.
         11    1    3    3    0    0  0.15478957233E+02  0.22036677821E+01  0.61884094087E+01  0.16815191941E+02  0.51100000000E-03 0. -1.
        -11    1    3    3    0    0  0.58635324995E+01 -0.11560373875E+01  0.79931369829E+00  0.60296217513E+01  0.51100000000E-03 0.  1.
         12    1    3    3    0    0  0.15114040413E+02 -0.16857661205E+02  0.10464738607E+02  0.24942448015E+02  0.00000000000E+00 0. -1.
</event>
<event>
 7    1  0.5426550E-010  0.4778728E+02  0.7816164E-02  0.1312668E+00
        -11   -1    0    0    0    0  0.00000000000E+00  0.00000000000E+00  0.45593999997E+02  0.45594000000E+02  0.51100000000E-03 0.  1.
         11   -1    0    0    0    0 -0.00000000000E+00 -0.00000000000E+00 -0.45593999997E+02  0.45594000000E+02  0.51100000000E-03 0. -1.
    9900012    2    1    2    0    0  0.42999398585E+02 -0.58118318179E+01  0.94696193658E+00  0.47787281058E+02  0.20000045658E+02 0.  0.
         12    1    1    2    0    0 -0.42999398585E+02  0.58118318179E+01 -0.94696193658E+00  0.43400718942E+02  0.00000000000E+00 0. -1.
         11    1    3    3    0    0  0.91908103939E+01  0.59396451225E+01  0.41152287127E-02  0.10943052457E+02  0.51100000000E-03 0. -1.
        -11    1    3    3    0    0  0.27961255057E+02 -0.74220689692E+01  0.34817466276E+01  0.29138315874E+02  0.51100000000E-03 0.  1.
        -12    1    3    3    0    0  0.58473331341E+01 -0.43294079711E+01 -0.25388999198E+01  0.77059127275E+01  0.00000000000E+00 0.  1.
</event>
<event>
 7    1  0.5426550E-010  0.4778726E+02  0.7816164E-02  0.1312668E+00
        -11   -1    0    0    0    0  0.00000000000E+00  0.00000000000E+00  0.45593999997E+02  0.45594000000E+02  0.51100000000E-03 0.  1.
         11   -1    0    0    0    0 -0.00000000000E+00 -0.00000000000E+00 -0.45593999997E+02  0.45594000000E+02  0.51100000000E-03 0. -1.
    9900012    2    1    2    0    0 -0.86937054031E+01 -0.22375580001E+02  0.36157669177E+02  0.47787261131E+02  0.19999954801E+02 0.  0.
         12    1    1    2    0    0  0.86937054031E+01  0.22375580001E+02 -0.36157669177E+02  0.43400738869E+02  0.00000000000E+00 0. -1.
         11    1    3    3    0    0 -0.74612544808E+01 -0.15803954899E+02  0.10646307184E+02  0.20464094551E+02  0.51100000000E-03 0. -1.
        -11    1    3    3    0    0 -0.26507485722E+01 -0.28024134014E+01  0.20664863120E+02  0.21021811456E+02  0.51100000000E-03 0.  1.
        -12    1    3    3    0    0  0.14182976498E+01 -0.37692117010E+01  0.48464988734E+01  0.63013551241E+01  0.00000000000E+00 0.  1.
</event>
<event>
 7    1  0.5426550E-010  0.4778727E+02  0.7816164E-02  0.1312668E+00
        -11   -1    0    0    0    0  0.00000000000E+00  0.00000000000E+00  0.45593999997E+02  0.45594000000E+02  0.51100000000E-03 0.  1.
         11   -1    0    0    0    0 -0.00000000000E+00 -0.00000000000E+00 -0.45593999997E+02  0.45594000000E+02  0.51100000000E-03 0. -1.
    9900012    2    1    2    0    0 -0.10168729532E+02  0.36933290878E+02  0.20399801997E+02  0.47787274696E+02  0.20000016651E+02 0.  0.
         12    1    1    2    0    0  0.10168729532E+02 -0.36933290878E+02 -0.20399801997E+02  0.43400725304E+02  0.00000000000E+00 0. -1.
         11    1    3    3    0    0  0.38117782838E+01  0.11837835436E+02  0.80129687042E+01  0.14794312056E+02  0.51100000000E-03 0. -1.
        -11    1    3    3    0    0 -0.35174611979E+01  0.15596242495E+02  0.94076787228E+01  0.18550464480E+02  0.51100000000E-03 0.  1.
         12    1    3    3    0    0 -0.10463046618E+02  0.94992129470E+01  0.29791545700E+01  0.14442498160E+02  0.00000000000E+00 0. -1.
</event>
<event>
 7    1  0.5426550E-010  0.4778727E+02  0.7816164E-02  0.1312668E+00
        -11   -1    0    0    0    0  0.00000000000E+00  0.00000000000E+00  0.45593999997E+02  0.45594000000E+02  0.51100000000E-03 0. -1.
         11   -1    0    0    0    0 -0.00000000000E+00 -0.00000000000E+00 -0.45593999997E+02  0.45594000000E+02  0.51100000000E-03 0.  1.
    9900012    2    1    2    0    0 -0.76374749984E+01 -0.42242255419E+02  0.63940614736E+01  0.47787272018E+02  0.20000004439E+02 0.  0.
         12    1    1    2    0    0  0.76374749984E+01  0.42242255419E+02 -0.63940614736E+01  0.43400727982E+02  0.00000000000E+00 0. -1.
         11    1    3    3    0    0 -0.10229374035E+02 -0.22808198756E+02  0.11027209137E+02  0.27321298748E+02  0.51100000000E-03 0. -1.
        -11    1    3    3    0    0  0.27391398431E+01 -0.78371250175E+01 -0.25299962980E+01  0.86789571464E+01  0.51100000000E-03 0.  1.
        -12    1    3    3    0    0 -0.14724080655E+00 -0.11596931645E+02 -0.21031513656E+01  0.11787016124E+02  0.00000000000E+00 0.  1.
</event>
<event>
 7    1  0.5426550E-010  0.4778727E+02  0.7816164E-02  0.1312668E+00
        -11   -1    0    0    0    0  0.00000000000E+00  0.00000000000E+00  0.45593999997E+02  0.45594000000E+02  0.51100000000E-03 0.  1.
         11   -1    0    0    0    0 -0.00000000000E+00 -0.00000000000E+00 -0.45593999997E+02  0.45594000000E+02  0.51100000000E-03 0. -1.
    9900012    2    1    2    0    0  0.22472345594E+01  0.19027553700E+01  0.43300724047E+02  0.47787271387E+02  0.20000001561E+02 0.  0.
         12    1    1    2    0    0 -0.22472345594E+01 -0.19027553700E+01 -0.43300724047E+02  0.43400728613E+02  0.00000000000E+00 0. -1.
         11    1    3    3    0    0  0.57293447348E+01 -0.20338375102E+01  0.33908682307E+02  0.34449392189E+02  0.51100000000E-03 0.  1.
        -11    1    3    3    0    0 -0.12820887287E+01  0.55089618157E+01  0.89650635577E+01  0.10600225311E+02  0.51100000000E-03 0. -1.
         12    1    3    3    0    0 -0.22000214467E+01 -0.15723689356E+01  0.42697818193E+00  0.27376538867E+01  0.00000000000E+00 0. -1.
</event>
<event>
 7    1  0.5426550E-010  0.4778727E+02  0.7816164E-02  0.1312668E+00
        -11   -1    0    0    0    0  0.00000000000E+00  0.00000000000E+00  0.45593999997E+02  0.45594000000E+02  0.51100000000E-03 0. -1.
         11   -1    0    0    0    0 -0.00000000000E+00 -0.00000000000E+00 -0.45593999997E+02  0.45594000000E+02  0.51100000000E-03 0.  1.
    9900012    2    1    2    0    0 -0.11794765448E+02  0.29914604262E+02 -0.29148303738E+02  0.47787266701E+02  0.19999980195E+02 0.  0.
         12    1    1    2    0    0  0.11794765448E+02 -0.29914604262E+02  0.29148303738E+02  0.43400733299E+02  0.00000000000E+00 0. -1.
         11    1    3    3    0    0 -0.72087995548E+00 -0.28542171702E+01 -0.11848081491E+01  0.31733254129E+01  0.51100000000E-03 0. -1.
        -11    1    3    3    0    0 -0.64393493438E+01  0.14378404024E+02 -0.11589550064E+02  0.19558154135E+02  0.51100000000E-03 0.  1.
         12    1    3    3    0    0 -0.46345361484E+01  0.18390417409E+02 -0.16373945525E+02  0.25055787152E+02  0.00000000000E+00 0. -1.
</event>
<event>
 7    1  0.5426550E-010  0.4778727E+02  0.7816164E-02  0.1312668E+00
        -11   -1    0    0    0    0  0.00000000000E+00  0.00000000000E+00  0.45593999997E+02  0.45594000000E+02  0.51100000000E-03 0.  1.
         11   -1    0    0    0    0 -0.00000000000E+00 -0.00000000000E+00 -0.45593999997E+02  0.45594000000E+02  0.51100000000E-03 0. -1.
    9900012    2    1    2    0    0 -0.23982073237E+02  0.18269737322E+02  0.31220190290E+02  0.47787269358E+02  0.19999992309E+02 0.  0.
         12    1    1    2    0    0  0.23982073237E+02 -0.18269737322E+02 -0.31220190290E+02  0.43400730642E+02  0.00000000000E+00 0. -1.
         11    1    3    3    0    0 -0.74878392136E+00  0.64243250522E+01  0.16254219160E+02  0.17493778051E+02  0.51100000000E-03 0. -1.
        -11    1    3    3    0    0 -0.15900863893E+02  0.98482295200E+01  0.99225354768E+01  0.21172666525E+02  0.51100000000E-03 0.  1.
         12    1    3    3    0    0 -0.73324254227E+01  0.19971827494E+01  0.50434356538E+01  0.91208247822E+01  0.00000000000E+00 0. -1.
</event>
<event>
 7    1  0.5426550E-010  0.4778727E+02  0.7816164E-02  0.1312668E+00
        -11   -1    0    0    0    0  0.00000000000E+00  0.00000000000E+00  0.45593999997E+02  0.45594000000E+02  0.51100000000E-03 0.  1.
         11   -1    0    0    0    0 -0.00000000000E+00 -0.00000000000E+00 -0.45593999997E+02  0.45594000000E+02  0.51100000000E-03 0. -1.
    9900012    2    1    2    0    0  0.25710900828E+02 -0.34950518311E+02 -0.10169046146E+01  0.47787271359E+02  0.20000001433E+02 0.  0.
         12    1    1    2    0    0 -0.25710900828E+02  0.34950518311E+02  0.10169046146E+01  0.43400728641E+02  0.00000000000E+00 0. -1.
         11    1    3    3    0    0  0.81410400654E+00 -0.89371768831E+01 -0.24770531586E+01  0.93097630789E+01  0.51100000000E-03 0. -1.
        -11    1    3    3    0    0  0.13304467857E+02 -0.11381746548E+02  0.72243972247E+01  0.18940563217E+02  0.51100000000E-03 0.  1.
        -12    1    3    3    0    0  0.11592328965E+02 -0.14631594879E+02 -0.57642486807E+01  0.19536945063E+02  0.00000000000E+00 0.  1.
</event>
<event>
 7    1  0.5426550E-010  0.4778727E+02  0.7816164E-02  0.1312668E+00
        -11   -1    0    0    0    0  0.00000000000E+00  0.00000000000E+00  0.45593999997E+02  0.45594000000E+02  0.51100000000E-03 0.  1.
         11   -1    0    0    0    0 -0.00000000000E+00 -0.00000000000E+00 -0.45593999997E+02  0.45594000000E+02  0.51100000000E-03 0. -1.
    9900012    2    1    2    0    0 -0.20592432412E+02 -0.37945759791E+02  0.44378186917E+01  0.47787271970E+02  0.20000004222E+02 0.  0.
         12    1    1    2    0    0  0.20592432412E+02  0.37945759791E+02 -0.44378186917E+01  0.43400728030E+02  0.00000000000E+00 0. -1.
         11    1    3    3    0    0  0.92244601876E+00 -0.15415139289E+02  0.78922775446E+00  0.15462868643E+02  0.51100000000E-03 0.  1.
        -11    1    3    3    0    0 -0.18005693990E+02 -0.13828965828E+02  0.32345191773E+01  0.22932671595E+02  0.51100000000E-03 0. -1.
         12    1    3    3    0    0 -0.35091844408E+01 -0.87016546743E+01  0.41407175992E+00  0.93917317323E+01  0.00000000000E+00 0. -1.
</event>
<event>
 7    1  0.5426550E-010  0.4778727E+02  0.7816164E-02  0.1312668E+00
        -11   -1    0    0    0    0  0.00000000000E+00  0.00000000000E+00  0.45593999997E+02  0.45594000000E+02  0.51100000000E-03 0.  1.
         11   -1    0    0    0    0 -0.00000000000E+00 -0.00000000000E+00 -0.45593999997E+02  0.45594000000E+02  0.51100000000E-03 0. -1.
    9900012    2    1    2    0    0  0.50319930070E+01 -0.43108000682E+02  0.49669028764E-01  0.47787272547E+02  0.20000006850E+02 0.  0.
         12    1    1    2    0    0 -0.50319930070E+01  0.43108000682E+02 -0.49669028764E-01  0.43400727453E+02  0.00000000000E+00 0. -1.
         11    1    3    3    0    0  0.33586706472E+01 -0.53103461692E+00 -0.20190849800E+01  0.39546644230E+01  0.51100000000E-03 0. -1.
        -11    1    3    3    0    0  0.51459705281E+01 -0.35112615193E+02  0.75421577714E+00  0.35495712418E+02  0.51100000000E-03 0.  1.
         12    1    3    3    0    0 -0.34726481683E+01 -0.74643508724E+01  0.13145382316E+01  0.83368957058E+01  0.00000000000E+00 0. -1.
</event>
<event>
 7    1  0.5426550E-010  0.4778727E+02  0.7816164E-02  0.1312668E+00
        -11   -1    0    0    0    0  0.00000000000E+00  0.00000000000E+00  0.45593999997E+02  0.45594000000E+02  0.51100000000E-03 0.  1.
         11   -1    0    0    0    0 -0.00000000000E+00 -0.00000000000E+00 -0.45593999997E+02  0.45594000000E+02  0.51100000000E-03 0. -1.
    9900012    2    1    2    0    0 -0.25956114203E+02 -0.22680513011E+02  0.26372292156E+02  0.47787270415E+02  0.19999997129E+02 0.  0.
         12    1    1    2    0    0  0.25956114203E+02  0.22680513011E+02 -0.26372292156E+02  0.43400729585E+02  0.00000000000E+00 0. -1.
         11    1    3    3    0    0 -0.72862862653E+01 -0.10676929157E+02  0.15691291382E+01  0.13021096354E+02  0.51100000000E-03 0. -1.
        -11    1    3    3    0    0 -0.17884827758E+02 -0.10330647323E+02  0.17009849063E+02  0.26756761827E+02  0.51100000000E-03 0.  1.
         12    1    3    3    0    0 -0.78500017947E+00 -0.16729365305E+01  0.77933139555E+01  0.80094122335E+01  0.00000000000E+00 0. -1.
</event>
<event>
 7    1  0.5426550E-010  0.4778727E+02  0.7816164E-02  0.1312668E+00
        -11   -1    0    0    0    0  0.00000000000E+00  0.00000000000E+00  0.45593999997E+02  0.45594000000E+02  0.51100000000E-03 0.  1.
         11   -1    0    0    0    0 -0.00000000000E+00 -0.00000000000E+00 -0.45593999997E+02  0.45594000000E+02  0.51100000000E-03 0. -1.
    9900012    2    1    2    0    0 -0.71816431906E+01 -0.38191997399E+02  0.19324042424E+02  0.47787270976E+02  0.19999999687E+02 0.  0.
         12    1    1    2    0    0  0.71816431906E+01  0.38191997399E+02 -0.19324042424E+02  0.43400729024E+02  0.00000000000E+00 0. -1.
         11    1    3    3    0    0 -0.16771974860E+01 -0.21918895559E+02  0.16909656400E+02  0.27734228919E+02  0.51100000000E-03 0.  1.
        -11    1    3    3    0    0  0.19247524909E+01 -0.46585230069E+01 -0.22198865871E+01  0.55076678801E+01  0.51100000000E-03 0. -1.
        -12    1    3    3    0    0 -0.74291981955E+01 -0.11614578833E+02  0.46342726114E+01  0.14545374176E+02  0.00000000000E+00 0.  1.
</event>
<event>
 7    1  0.5426550E-010  0.4778724E+02  0.7816164E-02  0.1312668E+00
        -11   -1    0    0    0    0  0.00000000000E+00  0.00000000000E+00  0.45593999997E+02  0.45594000000E+02  0.51100000000E-03 0. -1.
         11   -1    0    0    0    0 -0.00000000000E+00 -0.00000000000E+00 -0.45593999997E+02  0.45594000000E+02  0.51100000000E-03 0.  1.
    9900012    2    1    2    0    0 -0.97918212842E-01 -0.19513393774E+02 -0.38766524837E+02  0.47787244563E+02  0.19999879259E+02 0.  0.
         12    1    1    2    0    0  0.97918212842E-01  0.19513393774E+02  0.38766524837E+02  0.43400755437E+02  0.00000000000E+00 0. -1.
         11    1    3    3    0    0 -0.40919160838E+01 -0.61630270106E+01 -0.23539181769E+02  0.24674273197E+02  0.51100000000E-03 0. -1.
        -11    1    3    3    0    0  0.63128020263E+01 -0.51082570197E+01 -0.41717682602E+01  0.91295897981E+01  0.51100000000E-03 0.  1.
         12    1    3    3    0    0 -0.23188041554E+01 -0.82421097434E+01 -0.11055574808E+02  0.13983381568E+02  0.00000000000E+00 0. -1.
</event>
<event>
 7    1  0.5426550E-010  0.4778723E+02  0.7816164E-02  0.1312668E+00
        -11   -1    0    0    0    0  0.00000000000E+00  0.00000000000E+00  0.45593999997E+02  0.45594000000E+02  0.51100000000E-03 0.  1.
         11   -1    0    0    0    0 -0.00000000000E+00 -0.00000000000E+00 -0.45593999997E+02  0.45594000000E+02  0.51100000000E-03 0. -1.
    9900012    2    1    2    0    0  0.19423022555E+02 -0.28316277928E+01  0.38708585972E+02  0.47787233312E+02  0.19999827963E+02 0.  0.
         12    1    1    2    0    0 -0.19423022555E+02  0.28316277928E+01 -0.38708585972E+02  0.43400766688E+02  0.00000000000E+00 0. -1.
         11    1    3    3    0    0 -0.12063374306E+01  0.19995264438E+01  0.20521596766E+00  0.23442418498E+01  0.51100000000E-03 0. -1.
        -11    1    3    3    0    0  0.16348077355E+02 -0.42331965924E+01  0.37317172749E+02  0.40960358505E+02  0.51100000000E-03 0.  1.
        -12    1    3    3    0    0  0.42812826298E+01 -0.59795764421E+00  0.11861972555E+01  0.44826329573E+01  0.00000000000E+00 0.  1.
</event>
<event>
 7    1  0.5426550E-010  0.4778726E+02  0.7816164E-02  0.1312668E+00
        -11   -1    0    0    0    0  0.00000000000E+00  0.00000000000E+00  0.45593999997E+02  0.45594000000E+02  0.51100000000E-03 0.  1.
         11   -1    0    0    0    0 -0.00000000000E+00 -0.00000000000E+00 -0.45593999997E+02  0.45594000000E+02  0.51100000000E-03 0. -1.
    9900012    2    1    2    0    0  0.41470739532E+01  0.18443996357E+02  0.39067182898E+02  0.47787262637E+02  0.19999961669E+02 0.  0.
         12    1    1    2    0    0 -0.41470739532E+01 -0.18443996357E+02 -0.39067182898E+02  0.43400737363E+02  0.00000000000E+00 0. -1.
         11    1    3    3    0    0  0.44820674525E+01  0.13285945123E+02  0.16755296870E+02  0.21848231963E+02  0.51100000000E-03 0. -1.
        -11    1    3    3    0    0  0.39144998194E+01  0.60741395587E+01  0.71477268402E+01  0.10164077895E+02  0.51100000000E-03 0.  1.
         12    1    3    3    0    0 -0.42494933187E+01 -0.91608832478E+00  0.15164159189E+02  0.15774952779E+02  0.00000000000E+00 0. -1.
</event>
<event>
 7    1  0.5426550E-010  0.4778727E+02  0.7816164E-02  0.1312668E+00
        -11   -1    0    0    0    0  0.00000000000E+00  0.00000000000E+00  0.45593999997E+02  0.45594000000E+02  0.51100000000E-03 0.  1.
         11   -1    0    0    0    0 -0.00000000000E+00 -0.00000000000E+00 -0.45593999997E+02  0.45594000000E+02  0.51100000000E-03 0. -1.
    9900012    2    1    2    0    0  0.94273143478E+01  0.42361078171E+02 -0.53689108567E+00  0.47787268997E+02  0.19999990663E+02 0.  0.
         12    1    1    2    0    0 -0.94273143478E+01 -0.42361078171E+02  0.53689108567E+00  0.43400731003E+02  0.00000000000E+00 0. -1.
         11    1    3    3    0    0 -0.32839876375E+01  0.15044112025E+02  0.40776060412E+01  0.15929116508E+02  0.51100000000E-03 0. -1.
        -11    1    3    3    0    0  0.42920194434E+01  0.91857954520E+01  0.28296663276E+01  0.10526503730E+02  0.51100000000E-03 0.  1.
         12    1    3    3    0    0  0.84192825420E+01  0.18131170693E+02 -0.74441634544E+01  0.21331648759E+02  0.00000000000E+00 0. -1.
</event>
<event>
 7    1  0.5426550E-010  0.4778727E+02  0.7816164E-02  0.1312668E+00
        -11   -1    0    0    0    0  0.00000000000E+00  0.00000000000E+00  0.45593999997E+02  0.45594000000E+02  0.51100000000E-03 0.  1.
         11   -1    0    0    0    0 -0.00000000000E+00 -0.00000000000E+00 -0.45593999997E+02  0.45594000000E+02  0.51100000000E-03 0. -1.
    9900012    2    1    2    0    0 -0.20573537890E+02  0.33894797574E+02 -0.17649231114E+02  0.47787272785E+02  0.20000007935E+02 0.  0.
         12    1    1    2    0    0  0.20573537890E+02 -0.33894797574E+02  0.17649231114E+02  0.43400727215E+02  0.00000000000E+00 0. -1.
         11    1    3    3    0    0 -0.13598510770E+02  0.24068037750E+02 -0.17617253264E+02  0.32780444615E+02  0.51100000000E-03 0. -1.
        -11    1    3    3    0    0 -0.72593029088E+01  0.11245640163E+02 -0.72005491742E+00  0.13404491066E+02  0.51100000000E-03 0.  1.
         12    1    3    3    0    0  0.28427578876E+00 -0.14188803398E+01  0.68807706730E+00  0.16023371035E+01  0.00000000000E+00 0. -1.
</event>
<event>
 7    1  0.5426550E-010  0.4778727E+02  0.7816164E-02  0.1312668E+00
        -11   -1    0    0    0    0  0.00000000000E+00  0.00000000000E+00  0.45593999997E+02  0.45594000000E+02  0.51100000000E-03 0. -1.
         11   -1    0    0    0    0 -0.00000000000E+00 -0.00000000000E+00 -0.45593999997E+02  0.45594000000E+02  0.51100000000E-03 0.  1.
    9900012    2    1    2    0    0  0.15096676478E+02 -0.39655371350E+02 -0.91195013297E+01  0.47787269337E+02  0.19999992216E+02 0.  0.
         12    1    1    2    0    0 -0.15096676478E+02  0.39655371350E+02  0.91195013297E+01  0.43400730663E+02  0.00000000000E+00 0. -1.
         11    1    3    3    0    0  0.87270480588E+01 -0.64448052937E+01 -0.11149828713E+01  0.10905964889E+02  0.51100000000E-03 0. -1.
        -11    1    3    3    0    0  0.50971243979E+01 -0.32239753578E+02 -0.10170584740E+02  0.34188056133E+02  0.51100000000E-03 0.  1.
        -12    1    3    3    0    0  0.12725040217E+01 -0.97081247783E+00  0.21660662818E+01  0.26932483156E+01  0.00000000000E+00 0.  1.
</event>
<event>
 7    1  0.5426550E-010  0.4778728E+02  0.7816164E-02  0.1312668E+00
        -11   -1    0    0    0    0  0.00000000000E+00  0.00000000000E+00  0.45593999997E+02  0.45594000000E+02  0.51100000000E-03 0.  1.
         11   -1    0    0    0    0 -0.00000000000E+00 -0.00000000000E+00 -0.45593999997E+02  0.45594000000E+02  0.51100000000E-03 0. -1.
    9900012    2    1    2    0    0 -0.22397304333E+02 -0.33477549774E+02  0.16162837170E+02  0.47787275517E+02  0.20000020394E+02 0.  0.
         12    1    1    2    0    0  0.22397304333E+02  0.33477549774E+02 -0.16162837170E+02  0.43400724483E+02  0.00000000000E+00 0. -1.
         11    1    3    3    0    0  0.16021562703E+01 -0.81343305616E+01  0.57039651505E+01  0.10063272683E+02  0.51100000000E-03 0. -1.
        -11    1    3    3    0    0 -0.12397281462E+02 -0.62071211611E+01  0.42037564185E+01  0.14487667481E+02  0.51100000000E-03 0.  1.
        -12    1    3    3    0    0 -0.11602179141E+02 -0.19136098051E+02  0.62551156008E+01  0.23236335353E+02  0.00000000000E+00 0.  1.
</event>
<event>
 7    1  0.5426550E-010  0.4778730E+02  0.7816164E-02  0.1312668E+00
        -11   -1    0    0    0    0  0.00000000000E+00  0.00000000000E+00  0.45593999997E+02  0.45594000000E+02  0.51100000000E-03 0. -1.
         11   -1    0    0    0    0 -0.00000000000E+00 -0.00000000000E+00 -0.45593999997E+02  0.45594000000E+02  0.51100000000E-03 0.  1.
    9900012    2    1    2    0    0  0.35917933008E+02 -0.19608773273E+02 -0.14457481737E+02  0.47787300939E+02  0.20000136299E+02 0.  0.
         12    1    1    2    0    0 -0.35917933008E+02  0.19608773273E+02  0.14457481737E+02  0.43400699061E+02  0.00000000000E+00 0. -1.
         11    1    3    3    0    0  0.95250979747E+01 -0.13296686364E+02 -0.23140075592E+00  0.16357961556E+02  0.51100000000E-03 0. -1.
        -11    1    3    3    0    0  0.18668340469E+02 -0.71438491491E+01 -0.12134820498E+02  0.23383656372E+02  0.51100000000E-03 0.  1.
         12    1    3    3    0    0  0.77244945640E+01  0.83176224078E+00 -0.20912604839E+01  0.80456830106E+01  0.00000000000E+00 0. -1.
</event>
<event>
 7    1  0.5426550E-010  0.4778727E+02  0.7816164E-02  0.1312668E+00
        -11   -1    0    0    0    0  0.00000000000E+00  0.00000000000E+00  0.45593999997E+02  0.45594000000E+02  0.51100000000E-03 0.  1.
         11   -1    0    0    0    0 -0.00000000000E+00 -0.00000000000E+00 -0.45593999997E+02  0.45594000000E+02  0.51100000000E-03 0. -1.
    9900012    2    1    2    0    0  0.15735488582E+02 -0.26043291727E+02  0.30947770082E+02  0.47787272841E+02  0.20000008190E+02 0.  0.
         12    1    1    2    0    0 -0.15735488582E+02  0.26043291727E+02 -0.30947770082E+02  0.43400727159E+02  0.00000000000E+00 0. -1.
         11    1    3    3    0    0  0.10789662330E+02 -0.90320912782E+01  0.33750462121E+01  0.14470190850E+02  0.51100000000E-03 0. -1.
        -11    1    3    3    0    0  0.46785121185E+00  0.21381877212E+00  0.26053883934E+01  0.26556829941E+01  0.51100000000E-03 0.  1.
         12    1    3    3    0    0  0.44779750408E+01 -0.17225019220E+02  0.24967335477E+02  0.30661398996E+02  0.00000000000E+00 0. -1.
</event>
<event>
 7    1  0.5426550E-010  0.4778728E+02  0.7816164E-02  0.1312668E+00
        -11   -1    0    0    0    0  0.00000000000E+00  0.00000000000E+00  0.45593999997E+02  0.45594000000E+02  0.51100000000E-03 0. -1.
         11   -1    0    0    0    0 -0.00000000000E+00 -0.00000000000E+00 -0.45593999997E+02  0.45594000000E+02  0.51100000000E-03 0.  1.
    9900012    2    1    2    0    0  0.22673783928E+02 -0.13950150253E+02 -0.34277038759E+02  0.47787279317E+02  0.20000037719E+02 0.  0.
         12    1    1    2    0    0 -0.22673783928E+02  0.13950150253E+02  0.34277038759E+02  0.43400720683E+02  0.00000000000E+00 0. -1.
         11    1    3    3    0    0  0.83056400387E+01 -0.12859377356E+02 -0.80778872049E+01  0.17308942902E+02  0.51100000000E-03 0. -1.
        -11    1    3    3    0    0  0.66460121377E+01  0.23512528511E+01 -0.13353305385E+02  0.15099954711E+02  0.51100000000E-03 0.  1.
         12    1    3    3    0    0  0.77221317514E+01 -0.34420257487E+01 -0.12845846169E+02  0.15378381704E+02  0.00000000000E+00 0. -1.
</event>
<event>
 7    1  0.5426550E-010  0.4778727E+02  0.7816164E-02  0.1312668E+00
        -11   -1    0    0    0    0  0.00000000000E+00  0.00000000000E+00  0.45593999997E+02  0.45594000000E+02  0.51100000000E-03 0.  1.
         11   -1    0    0    0    0 -0.00000000000E+00 -0.00000000000E+00 -0.45593999997E+02  0.45594000000E+02  0.51100000000E-03 0. -1.
    9900012    2    1    2    0    0  0.15433369482E+02  0.40310957478E+02  0.45234208110E+01  0.47787268183E+02  0.19999986955E+02 0.  0.
         12    1    1    2    0    0 -0.15433369482E+02 -0.40310957478E+02 -0.45234208110E+01  0.43400731817E+02  0.00000000000E+00 0. -1.
         11    1    3    3    0    0 -0.13102444363E+01  0.15120032156E+02  0.28600819135E+01  0.15443839603E+02  0.51100000000E-03 0. -1.
        -11    1    3    3    0    0  0.12058374361E+02  0.10899979015E+02 -0.31409323001E+01  0.16555343269E+02  0.51100000000E-03 0.  1.
        -12    1    3    3    0    0  0.46852395574E+01  0.14290946308E+02  0.48042711976E+01  0.15788085312E+02  0.00000000000E+00 0.  1.
</event>
<event>
 7    1  0.5426550E-010  0.4778728E+02  0.7816164E-02  0.1312668E+00
        -11   -1    0    0    0    0  0.00000000000E+00  0.00000000000E+00  0.45593999997E+02  0.45594000000E+02  0.51100000000E-03 0. -1.
         11   -1    0    0    0    0 -0.00000000000E+00 -0.00000000000E+00 -0.45593999997E+02  0.45594000000E+02  0.51100000000E-03 0.  1.
    9900012    2    1    2    0    0  0.10720797655E+02 -0.32618254080E+02 -0.26546879105E+02  0.47787276599E+02  0.20000025324E+02 0.  0.
         12    1    1    2    0    0 -0.10720797655E+02  0.32618254080E+02  0.26546879105E+02  0.43400723401E+02  0.00000000000E+00 0. -1.
         11    1    3    3    0    0  0.43664585625E+01 -0.17038796995E+02 -0.81118420765E+01  0.19369784344E+02  0.51100000000E-03 0. -1.
        -11    1    3    3    0    0  0.87191301777E+01 -0.52882114226E+01 -0.13057386885E+02  0.16567551528E+02  0.51100000000E-03 0.  1.
        -12    1    3    3    0    0 -0.23647910853E+01 -0.10291245662E+02 -0.53776501427E+01  0.11849940726E+02  0.00000000000E+00 0.  1.
</event>
<event>
 7    1  0.5426550E-010  0.4778727E+02  0.7816164E-02  0.1312668E+00
        -11   -1    0    0    0    0  0.00000000000E+00  0.00000000000E+00  0.45593999997E+02  0.45594000000E+02  0.51100000000E-03 0.  1.
         11   -1    0    0    0    0 -0.00000000000E+00 -0.00000000000E+00 -0.45593999997E+02  0.45594000000E+02  0.51100000000E-03 0. -1.
    9900012    2    1    2    0    0 -0.30219098270E+02 -0.92117721298E+01  0.29758569842E+02  0.47787272759E+02  0.20000007818E+02 0.  0.
         12    1    1    2    0    0  0.30219098270E+02  0.92117721298E+01 -0.29758569842E+02  0.43400727241E+02  0.00000000000E+00 0. -1.
         11    1    3    3    0    0 -0.48137917622E+00 -0.98353500993E+00 -0.90384999898E+00  0.14198634120E+01  0.51100000000E-03 0. -1.
        -11    1    3    3    0    0 -0.18359920404E+02 -0.12890624587E+02  0.18579116523E+02  0.29127966810E+02  0.51100000000E-03 0.  1.
        -12    1    3    3    0    0 -0.11377798690E+02  0.46623874667E+01  0.12083303318E+02  0.17239442537E+02  0.00000000000E+00 0.  1.
</event>
<event>
 7    1  0.5426550E-010  0.4778727E+02  0.7816164E-02  0.1312668E+00
        -11   -1    0    0    0    0  0.00000000000E+00  0.00000000000E+00  0.45593999997E+02  0.45594000000E+02  0.51100000000E-03 0.  1.
         11   -1    0    0    0    0 -0.00000000000E+00 -0.00000000000E+00 -0.45593999997E+02  0.45594000000E+02  0.51100000000E-03 0. -1.
    9900012    2    1    2    0    0  0.11229116060E+02 -0.28698334296E+02  0.30560363528E+02  0.47787271230E+02  0.20000000845E+02 0.  0.
         12    1    1    2    0    0 -0.11229116060E+02  0.28698334296E+02 -0.30560363528E+02  0.43400728770E+02  0.00000000000E+00 0. -1.
         11    1    3    3    0    0  0.13884836640E+01 -0.10861404192E+02  0.10285292292E+01  0.10997993478E+02  0.51100000000E-03 0. -1.
        -11    1    3    3    0    0  0.92486187223E+01 -0.18194168130E+02  0.29737615133E+02  0.36067859047E+02  0.51100000000E-03 0.  1.
        -12    1    3    3    0    0  0.59201367357E+00  0.35723802526E+00 -0.20578083410E+00  0.72141870510E+00  0.00000000000E+00 0.  1.
</event>
<event>
 7    1  0.5426550E-010  0.4778726E+02  0.7816164E-02  0.1312668E+00
        -11   -1    0    0    0    0  0.00000000000E+00  0.00000000000E+00  0.45593999997E+02  0.45594000000E+02  0.51100000000E-03 0.  1.
         11   -1    0    0    0    0 -0.00000000000E+00 -0.00000000000E+00 -0.45593999997E+02  0.45594000000E+02  0.51100000000E-03 0. -1.
    9900012    2    1    2    0    0  0.20551712369E+02 -0.97100989029E+01  0.36972488387E+02  0.47787264989E+02  0.19999972390E+02 0.  0.
         12    1    1    2    0    0 -0.20551712369E+02  0.97100989029E+01 -0.36972488387E+02  0.43400735011E+02  0.00000000000E+00 0. -1.
         11    1    3    3    0    0  0.11762741893E+01  0.13529703323E+01  0.17223438544E+02  0.17316494600E+02  0.51100000000E-03 0. -1.
        -11    1    3    3    0    0  0.19770200965E+02 -0.10362339822E+02  0.19469621696E+02  0.29619336624E+02  0.51100000000E-03 0.  1.
        -12    1    3    3    0    0 -0.39476278544E+00 -0.70072941327E+00  0.27942814695E+00  0.85143376531E+00  0.00000000000E+00 0.  1.
</event>
<event>
 7    1  0.5426550E-010  0.4778727E+02  0.7816164E-02  0.1312668E+00
        -11   -1    0    0    0    0  0.00000000000E+00  0.00000000000E+00  0.45593999997E+02  0.45594000000E+02  0.51100000000E-03 0.  1.
         11   -1    0    0    0    0 -0.00000000000E+00 -0.00000000000E+00 -0.45593999997E+02  0.45594000000E+02  0.51100000000E-03 0. -1.
    9900012    2    1    2    0    0  0.14198066310E+00 -0.80719113221E+01  0.42643255811E+02  0.47787272160E+02  0.20000005086E+02 0.  0.
         12    1    1    2    0    0 -0.14198066310E+00  0.80719113221E+01 -0.42643255811E+02  0.43400727840E+02  0.00000000000E+00 0. -1.
         11    1    3    3    0    0  0.21496064751E+01  0.23895505883E+01  0.26742391676E+02  0.26934852381E+02  0.51100000000E-03 0. -1.
        -11    1    3    3    0    0  0.26233232348E+01 -0.26321600941E+01  0.79311934377E+01  0.87586483639E+01  0.51100000000E-03 0.  1.
         12    1    3    3    0    0 -0.46309490468E+01 -0.78293018164E+01  0.79696706974E+01  0.12093771415E+02  0.00000000000E+00 0. -1.
</event>
<event>
 7    1  0.5426550E-010  0.4778727E+02  0.7816164E-02  0.1312668E+00
        -11   -1    0    0    0    0  0.00000000000E+00  0.00000000000E+00  0.45593999997E+02  0.45594000000E+02  0.51100000000E-03 0.  1.
         11   -1    0    0    0    0 -0.00000000000E+00 -0.00000000000E+00 -0.45593999997E+02  0.45594000000E+02  0.51100000000E-03 0. -1.
    9900012    2    1    2    0    0  0.22674369194E+02  0.27757682221E+02  0.24474625449E+02  0.47787271532E+02  0.20000002224E+02 0.  0.
         12    1    1    2    0    0 -0.22674369194E+02 -0.27757682221E+02 -0.24474625449E+02  0.43400728468E+02  0.00000000000E+00 0. -1.
         11    1    3    3    0    0  0.74484120817E+01  0.10714924532E+02 -0.49981152065E+00  0.13059029906E+02  0.51100000000E-03 0. -1.
        -11    1    3    3    0    0  0.13632157046E+02  0.10288769570E+02  0.19232101946E+02  0.25720968693E+02  0.51100000000E-03 0.  1.
         12    1    3    3    0    0  0.15938000667E+01  0.67539881198E+01  0.57423350242E+01  0.90072729339E+01  0.00000000000E+00 0. -1.
</event>
<event>
 7    1  0.5426550E-010  0.4778728E+02  0.7816164E-02  0.1312668E+00
        -11   -1    0    0    0    0  0.00000000000E+00  0.00000000000E+00  0.45593999997E+02  0.45594000000E+02  0.51100000000E-03 0.  1.
         11   -1    0    0    0    0 -0.00000000000E+00 -0.00000000000E+00 -0.45593999997E+02  0.45594000000E+02  0.51100000000E-03 0. -1.
    9900012    2    1    2    0    0 -0.19304832680E+02 -0.21896881482E+02  0.32116551801E+02  0.47787275547E+02  0.20000020529E+02 0.  0.
         12    1    1    2    0    0  0.19304832680E+02  0.21896881482E+02 -0.32116551801E+02  0.43400724453E+02  0.00000000000E+00 0. -1.
         11    1    3    3    0    0  0.17936076309E+01 -0.64544158590E+01  0.12511609164E+02  0.14192141366E+02  0.51100000000E-03 0. -1.
        -11    1    3    3    0    0 -0.18382264060E+02 -0.15657657320E+02  0.19180335785E+02  0.30837560633E+02  0.51100000000E-03 0.  1.
        -12    1    3    3    0    0 -0.27161762506E+01  0.21519169611E+00  0.42460685126E+00  0.27575735473E+01  0.00000000000E+00 0.  1.
</event>
<event>
 7    1  0.5426550E-010  0.4778727E+02  0.7816164E-02  0.1312668E+00
        -11   -1    0    0    0    0  0.00000000000E+00  0.00000000000E+00  0.45593999997E+02  0.45594000000E+02  0.51100000000E-03 0.  1.
         11   -1    0    0    0    0 -0.00000000000E+00 -0.00000000000E+00 -0.45593999997E+02  0.45594000000E+02  0.51100000000E-03 0. -1.
    9900012    2    1    2    0    0 -0.74355867366E+01 -0.78585953552E+01  0.42030673997E+02  0.47787273880E+02  0.20000012930E+02 0.  0.
         12    1    1    2    0    0  0.74355867366E+01  0.78585953552E+01 -0.42030673997E+02  0.43400726120E+02  0.00000000000E+00 0. -1.
         11    1    3    3    0    0 -0.79707987552E+01  0.32829937511E+01  0.16915699088E+02  0.18985588131E+02  0.51100000000E-03 0. -1.
        -11    1    3    3    0    0 -0.20645455918E+00 -0.83981869461E+01  0.24491521892E+02  0.25892215284E+02  0.51100000000E-03 0.  1.
         12    1    3    3    0    0  0.74166657780E+00 -0.27434021602E+01  0.62345301673E+00  0.29094704654E+01  0.00000000000E+00 0. -1.
</event>
<event>
 7    1  0.5426550E-010  0.4778727E+02  0.7816164E-02  0.1312668E+00
        -11   -1    0    0    0    0  0.00000000000E+00  0.00000000000E+00  0.45593999997E+02  0.45594000000E+02  0.51100000000E-03 0. -1.
         11   -1    0    0    0    0 -0.00000000000E+00 -0.00000000000E+00 -0.45593999997E+02  0.45594000000E+02  0.51100000000E-03 0.  1.
    9900012    2    1    2    0    0 -0.10182795093E+02  0.89360434703E+01 -0.41232040856E+02  0.47787269799E+02  0.19999994324E+02 0.  0.
         12    1    1    2    0    0  0.10182795093E+02 -0.89360434703E+01  0.41232040856E+02  0.43400730201E+02  0.00000000000E+00 0. -1.
         11    1    3    3    0    0 -0.59823142782E+01  0.20948902434E+01 -0.33830717348E+02  0.34419385320E+02  0.51100000000E-03 0.  1.
        -11    1    3    3    0    0 -0.56610409750E+01  0.29150937784E+01 -0.23071487264E+01  0.67725986272E+01  0.51100000000E-03 0. -1.
        -12    1    3    3    0    0  0.14605601599E+01  0.39260594485E+01 -0.50941747814E+01  0.65952858526E+01  0.00000000000E+00 0.  1.
</event>
<event>
 7    1  0.5426550E-010  0.4778726E+02  0.7816164E-02  0.1312668E+00
        -11   -1    0    0    0    0  0.00000000000E+00  0.00000000000E+00  0.45593999997E+02  0.45594000000E+02  0.51100000000E-03 0.  1.
         11   -1    0    0    0    0 -0.00000000000E+00 -0.00000000000E+00 -0.45593999997E+02  0.45594000000E+02  0.51100000000E-03 0. -1.
    9900012    2    1    2    0    0  0.32295691934E+02  0.28872600576E+02 -0.26429521309E+01  0.47787262938E+02  0.19999963041E+02 0.  0.
         12    1    1    2    0    0 -0.32295691934E+02 -0.28872600576E+02  0.26429521309E+01  0.43400737062E+02  0.00000000000E+00 0. -1.
         11    1    3    3    0    0  0.55660299107E+01 -0.14222426484E+01  0.32745036558E+01  0.66125515175E+01  0.51100000000E-03 0. -1.
        -11    1    3    3    0    0  0.12241753583E+02  0.17419764854E+02 -0.43366916281E+01  0.21728222037E+02  0.51100000000E-03 0.  1.
         12    1    3    3    0    0  0.14487908440E+02  0.12875078371E+02 -0.15807641586E+01  0.19446489384E+02  0.00000000000E+00 0. -1.
</event>
<event>
 7    1  0.5426550E-010  0.4778727E+02  0.7816164E-02  0.1312668E+00
        -11   -1    0    0    0    0  0.00000000000E+00  0.00000000000E+00  0.45593999997E+02  0.45594000000E+02  0.51100000000E-03 0.  1.
         11   -1    0    0    0    0 -0.00000000000E+00 -0.00000000000E+00 -0.45593999997E+02  0.45594000000E+02  0.51100000000E-03 0. -1.
    9900012    2    1    2    0    0  0.36782400336E+02  0.22541549619E+02  0.47494229898E+01  0.47787268987E+02  0.19999990620E+02 0.  0.
         12    1    1    2    0    0 -0.36782400336E+02 -0.22541549619E+02 -0.47494229898E+01  0.43400731013E+02  0.00000000000E+00 0. -1.
         11    1    3    3    0    0 -0.20106683325E+01 -0.56361497050E+00 -0.63323109896E+00  0.21820703160E+01  0.51100000000E-03 0. -1.
        -11    1    3    3    0    0  0.20576982124E+02  0.13327851924E+02  0.14400946697E+01  0.24558454820E+02  0.51100000000E-03 0.  1.
         12    1    3    3    0    0  0.18216086544E+02  0.97773126655E+01  0.39425594191E+01  0.21046743851E+02  0.00000000000E+00 0. -1.
</event>
<event>
 7    1  0.5426550E-010  0.4778726E+02  0.7816164E-02  0.1312668E+00
        -11   -1    0    0    0    0  0.00000000000E+00  0.00000000000E+00  0.45593999997E+02  0.45594000000E+02  0.51100000000E-03 0. -1.
         11   -1    0    0    0    0 -0.00000000000E+00 -0.00000000000E+00 -0.45593999997E+02  0.45594000000E+02  0.51100000000E-03 0.  1.
    9900012    2    1    2    0    0  0.40948088253E+01  0.31913152609E+02 -0.29127430623E+02  0.47787262870E+02  0.19999962729E+02 0.  0.
         12    1    1    2    0    0 -0.40948088253E+01 -0.31913152609E+02  0.29127430623E+02  0.43400737130E+02  0.00000000000E+00 0. -1.
         11    1    3    3    0    0  0.79231175867E+01  0.85239834197E+01 -0.10119909718E+02  0.15422277996E+02  0.51100000000E-03 0.  1.
        -11    1    3    3    0    0 -0.70934440357E+01  0.91004363883E+01 -0.84135558798E+01  0.14280154535E+02  0.51100000000E-03 0. -1.
         12    1    3    3    0    0  0.32651352744E+01  0.14288732801E+02 -0.10593965025E+02  0.18084830339E+02  0.00000000000E+00 0. -1.
</event>
<event>
 7    1  0.5426550E-010  0.4778727E+02  0.7816164E-02  0.1312668E+00
        -11   -1    0    0    0    0  0.00000000000E+00  0.00000000000E+00  0.45593999997E+02  0.45594000000E+02  0.51100000000E-03 0.  1.
         11   -1    0    0    0    0 -0.00000000000E+00 -0.00000000000E+00 -0.45593999997E+02  0.45594000000E+02  0.51100000000E-03 0. -1.
    9900012    2    1    2    0    0 -0.30121465890E+01  0.33644565426E+02  0.27250571079E+02  0.47787269201E+02  0.19999991595E+02 0.  0.
         12    1    1    2    0    0  0.30121465890E+01 -0.33644565426E+02 -0.27250571079E+02  0.43400730799E+02  0.00000000000E+00 0. -1.
         11    1    3    3    0    0 -0.82522351523E+01  0.18834268533E+02  0.18099481640E+02  0.27393800249E+02  0.51100000000E-03 0. -1.
        -11    1    3    3    0    0  0.64295484237E+01  0.12801003944E+02  0.10440687943E+02  0.17726047497E+02  0.51100000000E-03 0.  1.
         12    1    3    3    0    0 -0.11894598604E+01  0.20092929491E+01 -0.12895985039E+01  0.26674214545E+01  0.00000000000E+00 0. -1.
</event>
<event>
 7    1  0.5426550E-010  0.4778727E+02  0.7816164E-02  0.1312668E+00
        -11   -1    0    0    0    0  0.00000000000E+00  0.00000000000E+00  0.45593999997E+02  0.45594000000E+02  0.51100000000E-03 0.  1.
         11   -1    0    0    0    0 -0.00000000000E+00 -0.00000000000E+00 -0.45593999997E+02  0.45594000000E+02  0.51100000000E-03 0. -1.
    9900012    2    1    2    0    0 -0.25207447080E+02 -0.28819973572E+02  0.20435677959E+02  0.47787271911E+02  0.20000003951E+02 0.  0.
         12    1    1    2    0    0  0.25207447080E+02  0.28819973572E+02 -0.20435677959E+02  0.43400728089E+02  0.00000000000E+00 0. -1.
         11    1    3    3    0    0 -0.15244577727E+02 -0.26434224065E+02  0.15149640023E+02  0.34068709178E+02  0.51100000000E-03 0. -1.
        -11    1    3    3    0    0 -0.89063888739E+01 -0.32695497121E+01  0.67992432159E+01  0.11672335956E+02  0.51100000000E-03 0.  1.
         12    1    3    3    0    0 -0.10564804793E+01  0.88380020483E+00 -0.15132052795E+01  0.20462267771E+01  0.00000000000E+00 0. -1.
</event>
<event>
 7    1  0.5426550E-010  0.4778727E+02  0.7816164E-02  0.1312668E+00
        -11   -1    0    0    0    0  0.00000000000E+00  0.00000000000E+00  0.45593999997E+02  0.45594000000E+02  0.51100000000E-03 0. -1.
         11   -1    0    0    0    0 -0.00000000000E+00 -0.00000000000E+00 -0.45593999997E+02  0.45594000000E+02  0.51100000000E-03 0.  1.
    9900012    2    1    2    0    0  0.27334594485E+02 -0.30310840696E+02  0.14754530016E+02  0.47787271028E+02  0.19999999923E+02 0.  0.
         12    1    1    2    0    0 -0.27334594485E+02  0.30310840696E+02 -0.14754530016E+02  0.43400728972E+02  0.00000000000E+00 0. -1.
         11    1    3    3    0    0  0.14710401779E+01  0.21789838800E-01  0.49968790712E+01  0.52089571620E+01  0.51100000000E-03 0. -1.
        -11    1    3    3    0    0  0.13718768141E+02 -0.21559697105E+02  0.18089547201E+01  0.25618303145E+02  0.51100000000E-03 0.  1.
        -12    1    3    3    0    0  0.12144786166E+02 -0.87729334299E+01  0.79486962248E+01  0.16960010721E+02  0.00000000000E+00 0.  1.
</event>
<event>
 7    1  0.5426550E-010  0.4778727E+02  0.7816164E-02  0.1312668E+00
        -11   -1    0    0    0    0  0.00000000000E+00  0.00000000000E+00  0.45593999997E+02  0.45594000000E+02  0.51100000000E-03 0.  1.
         11   -1    0    0    0    0 -0.00000000000E+00 -0.00000000000E+00 -0.45593999997E+02  0.45594000000E+02  0.51100000000E-03 0. -1.
    9900012    2    1    2    0    0 -0.14866676271E+02  0.14823225444E+02  0.37985225129E+02  0.47787269545E+02  0.19999993163E+02 0.  0.
         12    1    1    2    0    0  0.14866676271E+02 -0.14823225444E+02 -0.37985225129E+02  0.43400730455E+02  0.00000000000E+00 0. -1.
         11    1    3    3    0    0  0.16058079633E+01  0.31195154856E+01  0.73443945981E+01  0.81394181828E+01  0.51100000000E-03 0. -1.
        -11    1    3    3    0    0 -0.18462473748E+02  0.83403608000E+01  0.20688755718E+02  0.28955986749E+02  0.51100000000E-03 0.  1.
        -12    1    3    3    0    0  0.19899895137E+01  0.33633491589E+01  0.99520748130E+01  0.10691864613E+02  0.00000000000E+00 0.  1.
</event>
<event>
 7    1  0.5426550E-010  0.4778728E+02  0.7816164E-02  0.1312668E+00
        -11   -1    0    0    0    0  0.00000000000E+00  0.00000000000E+00  0.45593999997E+02  0.45594000000E+02  0.51100000000E-03 0.  1.
         11   -1    0    0    0    0 -0.00000000000E+00 -0.00000000000E+00 -0.45593999997E+02  0.45594000000E+02  0.51100000000E-03 0. -1.
    9900012    2    1    2    0    0  0.33807569891E+02 -0.64553641982E+01  0.26438594213E+02  0.47787276816E+02  0.20000026316E+02 0.  0.
         12    1    1    2    0    0 -0.33807569891E+02  0.64553641982E+01 -0.26438594213E+02  0.43400723184E+02  0.00000000000E+00 0. -1.
         11    1    3    3    0    0  0.29619731646E+02 -0.55436090133E+01  0.20456527318E+02  0.36421554248E+02  0.51100000000E-03 0. -1.
        -11    1    3    3    0    0  0.48428376305E+01 -0.33592125744E+01  0.65058264751E+01  0.87785627423E+01  0.51100000000E-03 0.  1.
         12    1    3    3    0    0 -0.65499938469E+00  0.24474573895E+01 -0.52375957999E+00  0.25871598260E+01  0.00000000000E+00 0. -1.
</event>
<event>
 7    1  0.5426550E-010  0.4778727E+02  0.7816164E-02  0.1312668E+00
        -11   -1    0    0    0    0  0.00000000000E+00  0.00000000000E+00  0.45593999997E+02  0.45594000000E+02  0.51100000000E-03 0.  1.
         11   -1    0    0    0    0 -0.00000000000E+00 -0.00000000000E+00 -0.45593999997E+02  0.45594000000E+02  0.51100000000E-03 0. -1.
    9900012    2    1    2    0    0 -0.17358048344E+02 -0.34568467814E+02  0.19681010213E+02  0.47787274518E+02  0.20000015839E+02 0.  0.
         12    1    1    2    0    0  0.17358048344E+02  0.34568467814E+02 -0.19681010213E+02  0.43400725482E+02  0.00000000000E+00 0. -1.
         11    1    3    3    0    0 -0.47476251620E+01 -0.82477229470E+00 -0.14078208831E+01  0.50201746899E+01  0.51100000000E-03 0. -1.
        -11    1    3    3    0    0 -0.33473632416E+01 -0.83175428012E+01  0.91195848554E+00  0.90121044968E+01  0.51100000000E-03 0.  1.
         12    1    3    3    0    0 -0.92630599401E+01 -0.25426152718E+02  0.20176872610E+02  0.33754995332E+02  0.00000000000E+00 0. -1.
</event>
<event>
 7    1  0.5426550E-010  0.4778727E+02  0.7816164E-02  0.1312668E+00
        -11   -1    0    0    0    0  0.00000000000E+00  0.00000000000E+00  0.45593999997E+02  0.45594000000E+02  0.51100000000E-03 0.  1.
         11   -1    0    0    0    0 -0.00000000000E+00 -0.00000000000E+00 -0.45593999997E+02  0.45594000000E+02  0.51100000000E-03 0. -1.
    9900012    2    1    2    0    0 -0.17198791096E+02  0.24866122393E+02  0.31136808601E+02  0.47787270652E+02  0.19999998212E+02 0.  0.
         12    1    1    2    0    0  0.17198791096E+02 -0.24866122393E+02 -0.31136808601E+02  0.43400729348E+02  0.00000000000E+00 0. -1.
         11    1    3    3    0    0 -0.72229725846E+01  0.10687448780E+01  0.13661280586E+01  0.74283143919E+01  0.51100000000E-03 0. -1.
        -11    1    3    3    0    0 -0.10251375377E+01  0.13472875987E+02  0.16286438486E+02  0.21161695895E+02  0.51100000000E-03 0.  1.
         12    1    3    3    0    0 -0.89506809738E+01  0.10324501528E+02  0.13484242057E+02  0.19197260366E+02  0.00000000000E+00 0. -1.
</event>
<event>
 7    1  0.5871885E-010  0.4778729E+02  0.7816164E-02  0.1312668E+00
        -11   -1    0    0    0    0  0.00000000000E+00  0.00000000000E+00  0.45593999997E+02  0.45594000000E+02  0.51100000000E-03 0.  1.
         11   -1    0    0    0    0 -0.00000000000E+00 -0.00000000000E+00 -0.45593999997E+02  0.45594000000E+02  0.51100000000E-03 0. -1.
    9900012    2    1    2    0    0  0.30704323264E+02 -0.11222136621E+02 -0.28546979110E+02  0.47787287636E+02  0.20000075647E+02 0.  0.
         12    1    1    2    0    0 -0.30704323264E+02  0.11222136621E+02  0.28546979110E+02  0.43400712364E+02  0.00000000000E+00 0. -1.
         11    1    3    3    0    0  0.41895703348E+01  0.14144318428E+01  0.17311659695E+01  0.47486895985E+01  0.51100000000E-03 0.  1.
        -11    1    3    3    0    0  0.18445034299E+02 -0.11527007933E+02 -0.17648659866E+02  0.28010112415E+02  0.51100000000E-03 0. -1.
        -12    1    3    3    0    0  0.80697186302E+01 -0.11095605300E+01 -0.12629485214E+02  0.15028485622E+02  0.00000000000E+00 0.  1.
</event>
<event>
 7    1  0.5426550E-010  0.4778727E+02  0.7816164E-02  0.1312668E+00
        -11   -1    0    0    0    0  0.00000000000E+00  0.00000000000E+00  0.45593999997E+02  0.45594000000E+02  0.51100000000E-03 0.  1.
         11   -1    0    0    0    0 -0.00000000000E+00 -0.00000000000E+00 -0.45593999997E+02  0.45594000000E+02  0.51100000000E-03 0. -1.
    9900012    2    1    2    0    0  0.19036856910E+02  0.23836586106E+02  0.30871321401E+02  0.47787271398E+02  0.20000001611E+02 0.  0.
         12    1    1    2    0    0 -0.19036856910E+02 -0.23836586106E+02 -0.30871321401E+02  0.43400728602E+02  0.00000000000E+00 0. -1.
         11    1    3    3    0    0  0.22073964465E+01  0.12048380940E+01 -0.30238102245E+00  0.25329169841E+01  0.51100000000E-03 0. -1.
        -11    1    3    3    0    0  0.89813646653E+01  0.19904528877E+01  0.34833695898E+01  0.98367005601E+01  0.51100000000E-03 0.  1.
        -12    1    3    3    0    0  0.78480957980E+01  0.20641295124E+02  0.27690332834E+02  0.35417653853E+02  0.00000000000E+00 0.  1.
</event>
<event>
 7    1  0.5426550E-010  0.4778728E+02  0.7816164E-02  0.1312668E+00
        -11   -1    0    0    0    0  0.00000000000E+00  0.00000000000E+00  0.45593999997E+02  0.45594000000E+02  0.51100000000E-03 0. -1.
         11   -1    0    0    0    0 -0.00000000000E+00 -0.00000000000E+00 -0.45593999997E+02  0.45594000000E+02  0.51100000000E-03 0.  1.
    9900012    2    1    2    0    0  0.19601929952E+02  0.29736587258E+02 -0.24801664320E+02  0.47787276128E+02  0.20000023177E+02 0.  0.
         12    1    1    2    0    0 -0.19601929952E+02 -0.29736587258E+02  0.24801664320E+02  0.43400723872E+02  0.00000000000E+00 0. -1.
         11    1    3    3    0    0 -0.86045134461E+00  0.45888337585E+00 -0.80455311945E+01  0.81044137932E+01  0.51100000000E-03 0. -1.
        -11    1    3    3    0    0  0.10631323285E+02  0.18379736710E+02 -0.11044114193E+02  0.23933495668E+02  0.51100000000E-03 0.  1.
         12    1    3    3    0    0  0.98310580113E+01  0.10897967172E+02 -0.57120189324E+01  0.15749366667E+02  0.00000000000E+00 0. -1.
</event>
<event>
 7    1  0.5426550E-010  0.4778727E+02  0.7816164E-02  0.1312668E+00
        -11   -1    0    0    0    0  0.00000000000E+00  0.00000000000E+00  0.45593999997E+02  0.45594000000E+02  0.51100000000E-03 0.  1.
         11   -1    0    0    0    0 -0.00000000000E+00 -0.00000000000E+00 -0.45593999997E+02  0.45594000000E+02  0.51100000000E-03 0. -1.
    9900012    2    1    2    0    0  0.30914480608E+01 -0.13466418509E+02  0.41142701675E+02  0.47787269826E+02  0.19999994443E+02 0.  0.
         12    1    1    2    0    0 -0.30914480608E+01  0.13466418509E+02 -0.41142701675E+02  0.43400730174E+02  0.00000000000E+00 0. -1.
         11    1    3    3    0    0 -0.27852707193E+00  0.43513669064E+00  0.90583970980E+01  0.90731185110E+01  0.51100000000E-03 0. -1.
        -11    1    3    3    0    0  0.73201080477E+01 -0.12925562535E+01  0.63105496062E+01  0.97507804863E+01  0.51100000000E-03 0.  1.
        -12    1    3    3    0    0 -0.39501329150E+01 -0.12608998946E+02  0.25773754971E+02  0.28963370828E+02  0.00000000000E+00 0.  1.
</event>
<event>
 7    1  0.5426550E-010  0.4778727E+02  0.7816164E-02  0.1312668E+00
        -11   -1    0    0    0    0  0.00000000000E+00  0.00000000000E+00  0.45593999997E+02  0.45594000000E+02  0.51100000000E-03 0.  1.
         11   -1    0    0    0    0 -0.00000000000E+00 -0.00000000000E+00 -0.45593999997E+02  0.45594000000E+02  0.51100000000E-03 0. -1.
    9900012    2    1    2    0    0  0.27819253649E+02  0.13599059268E+02  0.30410165681E+02  0.47787268862E+02  0.19999990051E+02 0.  0.
         12    1    1    2    0    0 -0.27819253649E+02 -0.13599059268E+02 -0.30410165681E+02  0.43400731138E+02  0.00000000000E+00 0. -1.
         11    1    3    3    0    0  0.45516068466E+01  0.10157676530E+02  0.76637247828E+01  0.13513999970E+02  0.51100000000E-03 0. -1.
        -11    1    3    3    0    0  0.94249863766E+01 -0.28755293714E+01  0.55414870083E+01  0.11305180931E+02  0.51100000000E-03 0.  1.
         12    1    3    3    0    0  0.13842660425E+02  0.63169121095E+01  0.17204953890E+02  0.22968087962E+02  0.00000000000E+00 0. -1.
</event>
<event>
 7    1  0.5426550E-010  0.4778727E+02  0.7816164E-02  0.1312668E+00
        -11   -1    0    0    0    0  0.00000000000E+00  0.00000000000E+00  0.45593999997E+02  0.45594000000E+02  0.51100000000E-03 0. -1.
         11   -1    0    0    0    0 -0.00000000000E+00 -0.00000000000E+00 -0.45593999997E+02  0.45594000000E+02  0.51100000000E-03 0.  1.
    9900012    2    1    2    0    0  0.42734916976E+02  0.29872685823E+01 -0.69588816579E+01  0.47787274931E+02  0.20000017722E+02 0.  0.
         12    1    1    2    0    0 -0.42734916976E+02 -0.29872685823E+01  0.69588816579E+01  0.43400725069E+02  0.00000000000E+00 0. -1.
         11    1    3    3    0    0  0.87692061880E+01 -0.40198075742E+01  0.17267561554E-01  0.96466641141E+01  0.51100000000E-03 0. -1.
        -11    1    3    3    0    0  0.71774210385E+01  0.73099821119E+01 -0.46478919943E+01  0.11249627171E+02  0.51100000000E-03 0.  1.
        -12    1    3    3    0    0  0.26788289750E+02 -0.30290595540E+00 -0.23282572251E+01  0.26890983646E+02  0.00000000000E+00 0.  1.
</event>
<event>
 7    1  0.5426550E-010  0.4778727E+02  0.7816164E-02  0.1312668E+00
        -11   -1    0    0    0    0  0.00000000000E+00  0.00000000000E+00  0.45593999997E+02  0.45594000000E+02  0.51100000000E-03 0.  1.
         11   -1    0    0    0    0 -0.00000000000E+00 -0.00000000000E+00 -0.45593999997E+02  0.45594000000E+02  0.51100000000E-03 0. -1.
    9900012    2    1    2    0    0  0.11837175545E+02  0.14441319534E+02  0.39178471295E+02  0.47787273649E+02  0.20000011877E+02 0.  0.
         12    1    1    2    0    0 -0.11837175545E+02 -0.14441319534E+02 -0.39178471295E+02  0.43400726351E+02  0.00000000000E+00 0. -1.
         11    1    3    3    0    0  0.94625545272E+01  0.88825146389E+01  0.87773964179E+01  0.15667855393E+02  0.51100000000E-03 0. -1.
        -11    1    3    3    0    0  0.36231671327E+01  0.18917469511E+01  0.25722780562E+02  0.26045488798E+02  0.51100000000E-03 0.  1.
        -12    1    3    3    0    0 -0.12485461154E+01  0.36670579441E+01  0.46782943146E+01  0.60739294581E+01  0.00000000000E+00 0.  1.
</event>
<event>
 7    1  0.5426550E-010  0.4778726E+02  0.7816164E-02  0.1312668E+00
        -11   -1    0    0    0    0  0.00000000000E+00  0.00000000000E+00  0.45593999997E+02  0.45594000000E+02  0.51100000000E-03 0.  1.
         11   -1    0    0    0    0 -0.00000000000E+00 -0.00000000000E+00 -0.45593999997E+02  0.45594000000E+02  0.51100000000E-03 0. -1.
    9900012    2    1    2    0    0 -0.27253624265E+02 -0.18247902627E+02  0.28423204178E+02  0.47787256670E+02  0.19999934459E+02 0.  0.
         12    1    1    2    0    0  0.27253624265E+02  0.18247902627E+02 -0.28423204178E+02  0.43400743330E+02  0.00000000000E+00 0. -1.
         11    1    3    3    0    0 -0.27353133407E+01  0.10588561081E+00  0.88792384964E+01  0.92916105908E+01  0.51100000000E-03 0. -1.
        -11    1    3    3    0    0 -0.22339891133E+02 -0.10127219302E+02  0.15948106424E+02  0.29257023181E+02  0.51100000000E-03 0.  1.
        -12    1    3    3    0    0 -0.21784197909E+01 -0.82265689359E+01  0.35958592584E+01  0.92386228978E+01  0.00000000000E+00 0.  1.
</event>
<event>
 7    1  0.5426550E-010  0.4778727E+02  0.7816164E-02  0.1312668E+00
        -11   -1    0    0    0    0  0.00000000000E+00  0.00000000000E+00  0.45593999997E+02  0.45594000000E+02  0.51100000000E-03 0.  1.
         11   -1    0    0    0    0 -0.00000000000E+00 -0.00000000000E+00 -0.45593999997E+02  0.45594000000E+02  0.51100000000E-03 0. -1.
    9900012    2    1    2    0    0 -0.37423370252E+02  0.29214838391E+01  0.21784848466E+02  0.47787270380E+02  0.19999996970E+02 0.  0.
         12    1    1    2    0    0  0.37423370252E+02 -0.29214838391E+01 -0.21784848466E+02  0.43400729620E+02  0.00000000000E+00 0. -1.
         11    1    3    3    0    0 -0.10156316927E+01  0.46383642525E+00  0.26944476642E+01  0.29166248372E+01  0.51100000000E-03 0. -1.
        -11    1    3    3    0    0 -0.10246541163E+01  0.20691514453E+01 -0.25124371281E+01  0.34122784683E+01  0.51100000000E-03 0.  1.
        -12    1    3    3    0    0 -0.35383084443E+02  0.38849596847E+00  0.21602837930E+02  0.41458367074E+02  0.00000000000E+00 0.  1.
</event>
<event>
 7    1  0.5426550E-010  0.4778729E+02  0.7816164E-02  0.1312668E+00
        -11   -1    0    0    0    0  0.00000000000E+00  0.00000000000E+00  0.45593999997E+02  0.45594000000E+02  0.51100000000E-03 0.  1.
         11   -1    0    0    0    0 -0.00000000000E+00 -0.00000000000E+00 -0.45593999997E+02  0.45594000000E+02  0.51100000000E-03 0. -1.
    9900012    2    1    2    0    0  0.23672597802E+01  0.17251429839E+02  0.39754313726E+02  0.47787294819E+02  0.20000108398E+02 0.  0.
         12    1    1    2    0    0 -0.23672597802E+01 -0.17251429839E+02 -0.39754313726E+02  0.43400705181E+02  0.00000000000E+00 0. -1.
         11    1    3    3    0    0 -0.67058396318E+01  0.40170639089E+00  0.15007267648E+02  0.16442254581E+02  0.51100000000E-03 0. -1.
        -11    1    3    3    0    0  0.24367785724E+01  0.65112790132E+01  0.88432509585E+01  0.11248899145E+02  0.51100000000E-03 0.  1.
         12    1    3    3    0    0  0.66363208396E+01  0.10338444435E+02  0.15903795120E+02  0.20096141093E+02  0.00000000000E+00 0. -1.
</event>
<event>
 7    1  0.5426550E-010  0.4778727E+02  0.7816164E-02  0.1312668E+00
        -11   -1    0    0    0    0  0.00000000000E+00  0.00000000000E+00  0.45593999997E+02  0.45594000000E+02  0.51100000000E-03 0.  1.
         11   -1    0    0    0    0 -0.00000000000E+00 -0.00000000000E+00 -0.45593999997E+02  0.45594000000E+02  0.51100000000E-03 0. -1.
    9900012    2    1    2    0    0  0.80460148256E+01  0.35482269787E+02  0.23662070925E+02  0.47787269312E+02  0.19999992103E+02 0.  0.
         12    1    1    2    0    0 -0.80460148256E+01 -0.35482269787E+02 -0.23662070925E+02  0.43400730688E+02  0.00000000000E+00 0. -1.
         11    1    3    3    0    0  0.17732078761E+01  0.24938661528E+01 -0.26736225633E+01  0.40634827958E+01  0.51100000000E-03 0. -1.
        -11    1    3    3    0    0  0.10584510454E+01  0.24626479378E+02  0.15700201054E+02  0.29224649161E+02  0.51100000000E-03 0.  1.
        -12    1    3    3    0    0  0.52143559041E+01  0.83619242561E+01  0.10635492434E+02  0.14499137356E+02  0.00000000000E+00 0.  1.
</event>
<event>
 7    1  0.5426550E-010  0.4778726E+02  0.7816164E-02  0.1312668E+00
        -11   -1    0    0    0    0  0.00000000000E+00  0.00000000000E+00  0.45593999997E+02  0.45594000000E+02  0.51100000000E-03 0.  1.
         11   -1    0    0    0    0 -0.00000000000E+00 -0.00000000000E+00 -0.45593999997E+02  0.45594000000E+02  0.51100000000E-03 0. -1.
    9900012    2    1    2    0    0  0.20045416031E+02 -0.53186364334E+01  0.38125024096E+02  0.47787261992E+02  0.19999958724E+02 0.  0.
         12    1    1    2    0    0 -0.20045416031E+02  0.53186364334E+01 -0.38125024096E+02  0.43400738008E+02  0.00000000000E+00 0. -1.
         11    1    3    3    0    0  0.59301368829E+01 -0.97244962741E+01  0.15312099101E+02  0.19083834268E+02  0.51100000000E-03 0.  1.
        -11    1    3    3    0    0  0.34204620810E+01  0.56884813455E+01  0.82078041664E+01  0.10555871843E+02  0.51100000000E-03 0. -1.
         12    1    3    3    0    0  0.10694817068E+02 -0.12826215048E+01  0.14605120828E+02  0.18147555881E+02  0.00000000000E+00 0. -1.
</event>
<event>
 7    1  0.5426550E-010  0.4778727E+02  0.7816164E-02  0.1312668E+00
        -11   -1    0    0    0    0  0.00000000000E+00  0.00000000000E+00  0.45593999997E+02  0.45594000000E+02  0.51100000000E-03 0.  1.
         11   -1    0    0    0    0 -0.00000000000E+00 -0.00000000000E+00 -0.45593999997E+02  0.45594000000E+02  0.51100000000E-03 0. -1.
    9900012    2    1    2    0    0 -0.12269872008E+02  0.27333992629E+02  0.31399466449E+02  0.47787269529E+02  0.19999993091E+02 0.  0.
         12    1    1    2    0    0  0.12269872008E+02 -0.27333992629E+02 -0.31399466449E+02  0.43400730471E+02  0.00000000000E+00 0. -1.
         11    1    3    3    0    0 -0.61329499426E+01  0.19694432374E+01  0.83750390663E+01  0.10565654797E+02  0.51100000000E-03 0. -1.
        -11    1    3    3    0    0 -0.64184158829E+00  0.22932060347E+02  0.20261403098E+02  0.30607446939E+02  0.51100000000E-03 0.  1.
         12    1    3    3    0    0 -0.54950804767E+01  0.24324890450E+01  0.27630242852E+01  0.66141677935E+01  0.00000000000E+00 0. -1.
</event>
<event>
 7    1  0.5426550E-010  0.4778728E+02  0.7816164E-02  0.1312668E+00
        -11   -1    0    0    0    0  0.00000000000E+00  0.00000000000E+00  0.45593999997E+02  0.45594000000E+02  0.51100000000E-03 0. -1.
         11   -1    0    0    0    0 -0.00000000000E+00 -0.00000000000E+00 -0.45593999997E+02  0.45594000000E+02  0.51100000000E-03 0.  1.
    9900012    2    1    2    0    0 -0.40948608287E+02  0.92792692221E+01 -0.10987670466E+02  0.47787282723E+02  0.20000053246E+02 0.  0.
         12    1    1    2    0    0  0.40948608287E+02 -0.92792692221E+01  0.10987670466E+02  0.43400717277E+02  0.00000000000E+00 0. -1.
         11    1    3    3    0    0 -0.10786300446E+02 -0.11537103209E+01  0.44660258632E+01  0.11731185452E+02  0.51100000000E-03 0. -1.
        -11    1    3    3    0    0 -0.29634404331E+02  0.97992062628E+01 -0.13638264114E+02  0.34062069986E+02  0.51100000000E-03 0.  1.
        -12    1    3    3    0    0 -0.52790350958E+00  0.63377328024E+00 -0.18154322157E+01  0.19940272856E+01  0.00000000000E+00 0.  1.
</event>
<event>
 7    1  0.5426550E-010  0.4778727E+02  0.7816164E-02  0.1312668E+00
        -11   -1    0    0    0    0  0.00000000000E+00  0.00000000000E+00  0.45593999997E+02  0.45594000000E+02  0.51100000000E-03 0.  1.
         11   -1    0    0    0    0 -0.00000000000E+00 -0.00000000000E+00 -0.45593999997E+02  0.45594000000E+02  0.51100000000E-03 0. -1.
    9900012    2    1    2    0    0  0.22169801514E+02  0.35656460050E+02  0.10988176550E+02  0.47787271131E+02  0.20000000393E+02 0.  0.
         12    1    1    2    0    0 -0.22169801514E+02 -0.35656460050E+02 -0.10988176550E+02  0.43400728869E+02  0.00000000000E+00 0. -1.
         11    1    3    3    0    0  0.15821567913E+02  0.22436531035E+02  0.14029375787E+02  0.30830882591E+02  0.51100000000E-03 0. -1.
        -11    1    3    3    0    0  0.13450573672E+01  0.56381512771E+01  0.25036824835E+01  0.63139809458E+01  0.51100000000E-03 0.  1.
         12    1    3    3    0    0  0.50031762338E+01  0.75817777379E+01 -0.55448817203E+01  0.10642407593E+02  0.00000000000E+00 0. -1.
</event>
<event>
 7    1  0.5426550E-010  0.4778727E+02  0.7816164E-02  0.1312668E+00
        -11   -1    0    0    0    0  0.00000000000E+00  0.00000000000E+00  0.45593999997E+02  0.45594000000E+02  0.51100000000E-03 0.  1.
         11   -1    0    0    0    0 -0.00000000000E+00 -0.00000000000E+00 -0.45593999997E+02  0.45594000000E+02  0.51100000000E-03 0. -1.
    9900012    2    1    2    0    0  0.41265469512E+02 -0.99008282616E+01  0.90971458675E+01  0.47787269162E+02  0.19999991418E+02 0.  0.
         12    1    1    2    0    0 -0.41265469512E+02  0.99008282616E+01 -0.90971458675E+01  0.43400730838E+02  0.00000000000E+00 0. -1.
         11    1    3    3    0    0  0.16416647424E+02  0.53269257537E+00 -0.51401430587E+01  0.17210785715E+02  0.51100000000E-03 0. -1.
        -11    1    3    3    0    0  0.18450711423E+02 -0.65758829969E+01  0.10421771353E+02  0.22187480875E+02  0.51100000000E-03 0.  1.
         12    1    3    3    0    0  0.63981106659E+01 -0.38576378400E+01  0.38155175728E+01  0.83890025716E+01  0.00000000000E+00 0. -1.
</event>
<event>
 7    1  0.5426550E-010  0.4778727E+02  0.7816164E-02  0.1312668E+00
        -11   -1    0    0    0    0  0.00000000000E+00  0.00000000000E+00  0.45593999997E+02  0.45594000000E+02  0.51100000000E-03 0.  1.
         11   -1    0    0    0    0 -0.00000000000E+00 -0.00000000000E+00 -0.45593999997E+02  0.45594000000E+02  0.51100000000E-03 0. -1.
    9900012    2    1    2    0    0  0.35926159317E+02  0.68979427026E+01  0.23352784914E+02  0.47787273047E+02  0.20000009131E+02 0.  0.
         12    1    1    2    0    0 -0.35926159317E+02 -0.68979427026E+01 -0.23352784914E+02  0.43400726953E+02  0.00000000000E+00 0. -1.
         11    1    3    3    0    0 -0.47344529180E+00  0.22238567161E+01 -0.78887834696E+00  0.24066612653E+01  0.51100000000E-03 0. -1.
        -11    1    3    3    0    0  0.30378259695E+02  0.64098318599E+01  0.23772620805E+02  0.39103223739E+02  0.51100000000E-03 0.  1.
        -12    1    3    3    0    0  0.60213449136E+01 -0.17357458735E+01  0.36904245552E+00  0.62773880428E+01  0.00000000000E+00 0.  1.
</event>
<event>
 7    1  0.5426550E-010  0.4778728E+02  0.7816164E-02  0.1312668E+00
        -11   -1    0    0    0    0  0.00000000000E+00  0.00000000000E+00  0.45593999997E+02  0.45594000000E+02  0.51100000000E-03 0.  1.
         11   -1    0    0    0    0 -0.00000000000E+00 -0.00000000000E+00 -0.45593999997E+02  0.45594000000E+02  0.51100000000E-03 0. -1.
    9900012    2    1    2    0    0 -0.22565227794E+02  0.28868492415E+02  0.23260332819E+02  0.47787280621E+02  0.20000043665E+02 0.  0.
         12    1    1    2    0    0  0.22565227794E+02 -0.28868492415E+02 -0.23260332819E+02  0.43400719379E+02  0.00000000000E+00 0. -1.
         11    1    3    3    0    0 -0.55032091720E+01  0.10978326285E+02 -0.61544095925E-01  0.12280584153E+02  0.51100000000E-03 0. -1.
        -11    1    3    3    0    0 -0.14148995380E+02  0.75739441553E+01  0.14323098938E+02  0.21510691848E+02  0.51100000000E-03 0.  1.
         12    1    3    3    0    0 -0.29130232425E+01  0.10316221975E+02  0.89987779765E+01  0.13996004620E+02  0.00000000000E+00 0. -1.
</event>
<event>
 7    1  0.5426550E-010  0.4778728E+02  0.7816164E-02  0.1312668E+00
        -11   -1    0    0    0    0  0.00000000000E+00  0.00000000000E+00  0.45593999997E+02  0.45594000000E+02  0.51100000000E-03 0.  1.
         11   -1    0    0    0    0 -0.00000000000E+00 -0.00000000000E+00 -0.45593999997E+02  0.45594000000E+02  0.51100000000E-03 0. -1.
    9900012    2    1    2    0    0 -0.66420078560E+00  0.99181177792E-01  0.43395522209E+02  0.47787281718E+02  0.20000048663E+02 0.  0.
         12    1    1    2    0    0  0.66420078560E+00 -0.99181177792E-01 -0.43395522209E+02  0.43400718282E+02  0.00000000000E+00 0. -1.
         11    1    3    3    0    0 -0.20783595024E+01 -0.99383702694E+00  0.30781531190E+02  0.30867619813E+02  0.51100000000E-03 0. -1.
        -11    1    3    3    0    0  0.14639145485E+01  0.51647968697E+01  0.23173913306E+01  0.58470911872E+01  0.51100000000E-03 0.  1.
         12    1    3    3    0    0 -0.49755831710E-01 -0.40717786650E+01  0.10296599689E+02  0.11072570717E+02  0.00000000000E+00 0. -1.
</event>
<event>
 7    1  0.5426550E-010  0.4778727E+02  0.7816164E-02  0.1312668E+00
        -11   -1    0    0    0    0  0.00000000000E+00  0.00000000000E+00  0.45593999997E+02  0.45594000000E+02  0.51100000000E-03 0. -1.
         11   -1    0    0    0    0 -0.00000000000E+00 -0.00000000000E+00 -0.45593999997E+02  0.45594000000E+02  0.51100000000E-03 0.  1.
    9900012    2    1    2    0    0  0.56847524947E+01  0.39492330751E+02 -0.17078135138E+02  0.47787270757E+02  0.19999998687E+02 0.  0.
         12    1    1    2    0    0 -0.56847524947E+01 -0.39492330751E+02  0.17078135138E+02  0.43400729243E+02  0.00000000000E+00 0. -1.
         11    1    3    3    0    0 -0.17303395602E+01  0.61701885675E+01  0.14677616699E+01  0.65741635615E+01  0.51100000000E-03 0. -1.
        -11    1    3    3    0    0  0.94709787942E+01  0.31486816190E+02 -0.13662926207E+02  0.35606103212E+02  0.51100000000E-03 0.  1.
        -12    1    3    3    0    0 -0.20558867393E+01  0.18353259934E+01 -0.48829706002E+01  0.56070039833E+01  0.00000000000E+00 0.  1.
</event>
<event>
 7    1  0.5426550E-010  0.4778727E+02  0.7816164E-02  0.1312668E+00
        -11   -1    0    0    0    0  0.00000000000E+00  0.00000000000E+00  0.45593999997E+02  0.45594000000E+02  0.51100000000E-03 0. -1.
         11   -1    0    0    0    0 -0.00000000000E+00 -0.00000000000E+00 -0.45593999997E+02  0.45594000000E+02  0.51100000000E-03 0.  1.
    9900012    2    1    2    0    0 -0.94327084363E+01 -0.38417128260E+02 -0.17854178543E+02  0.47787269319E+02  0.19999992133E+02 0.  0.
         12    1    1    2    0    0  0.94327084363E+01  0.38417128260E+02  0.17854178543E+02  0.43400730681E+02  0.00000000000E+00 0. -1.
         11    1    3    3    0    0 -0.13931571417E+02 -0.20955175673E+02 -0.84123019354E+01  0.26532525205E+02  0.51100000000E-03 0. -1.
        -11    1    3    3    0    0  0.41967996708E+01 -0.66801803571E+01 -0.60697999648E+01  0.99539142529E+01  0.51100000000E-03 0.  1.
         12    1    3    3    0    0  0.30206331015E+00 -0.10781772230E+02 -0.33720766427E+01  0.11300829861E+02  0.00000000000E+00 0. -1.
</event>
<event>
 7    1  0.5426550E-010  0.4778727E+02  0.7816164E-02  0.1312668E+00
        -11   -1    0    0    0    0  0.00000000000E+00  0.00000000000E+00  0.45593999997E+02  0.45594000000E+02  0.51100000000E-03 0.  1.
         11   -1    0    0    0    0 -0.00000000000E+00 -0.00000000000E+00 -0.45593999997E+02  0.45594000000E+02  0.51100000000E-03 0. -1.
    9900012    2    1    2    0    0 -0.15196994699E+02  0.32660510857E+02  0.24206730295E+02  0.47787269489E+02  0.19999992909E+02 0.  0.
         12    1    1    2    0    0  0.15196994699E+02 -0.32660510857E+02 -0.24206730295E+02  0.43400730511E+02  0.00000000000E+00 0. -1.
         11    1    3    3    0    0  0.21622622709E+01  0.29355288934E+01  0.11536530114E+01  0.38240846675E+01  0.51100000000E-03 0. -1.
        -11    1    3    3    0    0 -0.19767760182E+02  0.23357367373E+02  0.19488611661E+02  0.36278601653E+02  0.51100000000E-03 0.  1.
        -12    1    3    3    0    0  0.24085032118E+01  0.63676145909E+01  0.35644656221E+01  0.76845831683E+01  0.00000000000E+00 0.  1.
</event>
<event>
 7    1  0.5426550E-010  0.4778725E+02  0.7816164E-02  0.1312668E+00
        -11   -1    0    0    0    0  0.00000000000E+00  0.00000000000E+00  0.45593999997E+02  0.45594000000E+02  0.51100000000E-03 0.  1.
         11   -1    0    0    0    0 -0.00000000000E+00 -0.00000000000E+00 -0.45593999997E+02  0.45594000000E+02  0.51100000000E-03 0. -1.
    9900012    2    1    2    0    0  0.22179222182E+01  0.43318191205E+02 -0.14966265766E+01  0.47787253931E+02  0.19999921973E+02 0.  0.
         12    1    1    2    0    0 -0.22179222182E+01 -0.43318191205E+02  0.14966265766E+01  0.43400746069E+02  0.00000000000E+00 0. -1.
         11    1    3    3    0    0  0.52077116959E+01  0.24244323708E+02 -0.96357640733E+01  0.26603673481E+02  0.51100000000E-03 0. -1.
        -11    1    3    3    0    0 -0.16010842254E+01  0.12953261621E+02  0.39450456949E+01  0.13635022667E+02  0.51100000000E-03 0.  1.
         12    1    3    3    0    0 -0.13887052523E+01  0.61206058756E+01  0.41940918018E+01  0.75485577831E+01  0.00000000000E+00 0. -1.
</event>
<event>
 7    1  0.5426550E-010  0.4778727E+02  0.7816164E-02  0.1312668E+00
        -11   -1    0    0    0    0  0.00000000000E+00  0.00000000000E+00  0.45593999997E+02  0.45594000000E+02  0.51100000000E-03 0.  1.
         11   -1    0    0    0    0 -0.00000000000E+00 -0.00000000000E+00 -0.45593999997E+02  0.45594000000E+02  0.51100000000E-03 0. -1.
    9900012    2    1    2    0    0 -0.36371694207E+02  0.22437065745E+02  0.75697560250E+01  0.47787271147E+02  0.20000000466E+02 0.  0.
         12    1    1    2    0    0  0.36371694207E+02 -0.22437065745E+02 -0.75697560250E+01  0.43400728853E+02  0.00000000000E+00 0. -1.
         11    1    3    3    0    0 -0.82882147002E+01  0.14705312946E+02  0.68808239612E+01  0.18228726516E+02  0.51100000000E-03 0.  1.
        -11    1    3    3    0    0 -0.17534923465E+02  0.23432863504E+01  0.86729812178E+00  0.17712050647E+02  0.51100000000E-03 0. -1.
        -12    1    3    3    0    0 -0.10548556042E+02  0.53884664483E+01 -0.17836605795E+00  0.11846493983E+02  0.00000000000E+00 0.  1.
</event>
<event>
 7    1  0.5426550E-010  0.4778729E+02  0.7816164E-02  0.1312668E+00
        -11   -1    0    0    0    0  0.00000000000E+00  0.00000000000E+00  0.45593999997E+02  0.45594000000E+02  0.51100000000E-03 0.  1.
         11   -1    0    0    0    0 -0.00000000000E+00 -0.00000000000E+00 -0.45593999997E+02  0.45594000000E+02  0.51100000000E-03 0. -1.
    9900012    2    1    2    0    0 -0.22373317046E+02  0.11336445241E+02  0.35419507164E+02  0.47787288092E+02  0.20000077727E+02 0.  0.
         12    1    1    2    0    0  0.22373317046E+02 -0.11336445241E+02 -0.35419507164E+02  0.43400711908E+02  0.00000000000E+00 0. -1.
         11    1    3    3    0    0 -0.17334910662E+02  0.80806870669E+01  0.12292421695E+02  0.22735440672E+02  0.51100000000E-03 0. -1.
        -11    1    3    3    0    0 -0.55111277844E+01  0.48321015341E+01  0.21589067071E+02  0.22799332270E+02  0.51100000000E-03 0.  1.
         12    1    3    3    0    0  0.47272140035E+00 -0.15763433601E+01  0.15380183973E+01  0.22525151501E+01  0.00000000000E+00 0. -1.
</event>
<event>
 7    1  0.5426550E-010  0.4778727E+02  0.7816164E-02  0.1312668E+00
        -11   -1    0    0    0    0  0.00000000000E+00  0.00000000000E+00  0.45593999997E+02  0.45594000000E+02  0.51100000000E-03 0. -1.
         11   -1    0    0    0    0 -0.00000000000E+00 -0.00000000000E+00 -0.45593999997E+02  0.45594000000E+02  0.51100000000E-03 0.  1.
    9900012    2    1    2    0    0  0.10472619826E+02  0.40468073108E+02 -0.11674002789E+02  0.47787273645E+02  0.20000011855E+02 0.  0.
         12    1    1    2    0    0 -0.10472619826E+02 -0.40468073108E+02  0.11674002789E+02  0.43400726355E+02  0.00000000000E+00 0. -1.
         11    1    3    3    0    0  0.67012371756E+01  0.23640959215E+02  0.10826218232E+01  0.24596211142E+02  0.51100000000E-03 0.  1.
        -11    1    3    3    0    0  0.40019764840E+01  0.56170313754E+01 -0.90569740435E+01  0.11384007921E+02  0.51100000000E-03 0. -1.
         12    1    3    3    0    0 -0.23059383376E+00  0.11210082517E+02 -0.36996505685E+01  0.11807054582E+02  0.00000000000E+00 0. -1.
</event>
<event>
 7    1  0.5426550E-010  0.4778727E+02  0.7816164E-02  0.1312668E+00
        -11   -1    0    0    0    0  0.00000000000E+00  0.00000000000E+00  0.45593999997E+02  0.45594000000E+02  0.51100000000E-03 0. -1.
         11   -1    0    0    0    0 -0.00000000000E+00 -0.00000000000E+00 -0.45593999997E+02  0.45594000000E+02  0.51100000000E-03 0.  1.
    9900012    2    1    2    0    0 -0.38065406105E+01 -0.37090789799E+02 -0.22212772877E+02  0.47787265925E+02  0.19999976660E+02 0.  0.
         12    1    1    2    0    0  0.38065406105E+01  0.37090789799E+02  0.22212772877E+02  0.43400734075E+02  0.00000000000E+00 0. -1.
         11    1    3    3    0    0  0.31967636133E+01 -0.12402148684E+02 -0.15989055988E+01  0.12906939566E+02  0.51100000000E-03 0. -1.
        -11    1    3    3    0    0  0.27326022531E+01 -0.50919377232E+01 -0.18872450422E+01  0.60791972300E+01  0.51100000000E-03 0.  1.
         12    1    3    3    0    0 -0.97359064770E+01 -0.19596703391E+02 -0.18726622236E+02  0.28801129129E+02  0.00000000000E+00 0. -1.
</event>
<event>
 7    1  0.5426550E-010  0.4778727E+02  0.7816164E-02  0.1312668E+00
        -11   -1    0    0    0    0  0.00000000000E+00  0.00000000000E+00  0.45593999997E+02  0.45594000000E+02  0.51100000000E-03 0.  1.
         11   -1    0    0    0    0 -0.00000000000E+00 -0.00000000000E+00 -0.45593999997E+02  0.45594000000E+02  0.51100000000E-03 0. -1.
    9900012    2    1    2    0    0 -0.11037871301E+02  0.10940576746E+02  0.40522737019E+02  0.47787273763E+02  0.20000012395E+02 0.  0.
         12    1    1    2    0    0  0.11037871301E+02 -0.10940576746E+02 -0.40522737019E+02  0.43400726237E+02  0.00000000000E+00 0. -1.
         11    1    3    3    0    0 -0.25945447322E+01 -0.47261740207E+01  0.76047390595E+01  0.93220405312E+01  0.51100000000E-03 0. -1.
        -11    1    3    3    0    0 -0.98042568777E+01  0.11445303692E+02  0.28297791728E+02  0.32060621430E+02  0.51100000000E-03 0.  1.
        -12    1    3    3    0    0  0.13609303089E+01  0.42214470751E+01  0.46202062312E+01  0.64046118018E+01  0.00000000000E+00 0.  1.
</event>
<event>
 7    1  0.5426550E-010  0.4778727E+02  0.7816164E-02  0.1312668E+00
        -11   -1    0    0    0    0  0.00000000000E+00  0.00000000000E+00  0.45593999997E+02  0.45594000000E+02  0.51100000000E-03 0.  1.
         11   -1    0    0    0    0 -0.00000000000E+00 -0.00000000000E+00 -0.45593999997E+02  0.45594000000E+02  0.51100000000E-03 0. -1.
    9900012    2    1    2    0    0  0.83292926694E+01 -0.32398458166E+02  0.27651145824E+02  0.47787273356E+02  0.20000010538E+02 0.  0.
         12    1    1    2    0    0 -0.83292926694E+01  0.32398458166E+02 -0.27651145824E+02  0.43400726644E+02  0.00000000000E+00 0. -1.
         11    1    3    3    0    0  0.10704352557E+02 -0.24918611690E+02  0.16832626501E+02  0.31919550238E+02  0.51100000000E-03 0. -1.
        -11    1    3    3    0    0  0.10912238109E+01 -0.79262585086E+01  0.64755542707E+01  0.10293160191E+02  0.51100000000E-03 0.  1.
         12    1    3    3    0    0 -0.34662836980E+01  0.44641203266E+00  0.43429650520E+01  0.55745629265E+01  0.00000000000E+00 0. -1.
</event>
<event>
 7    1  0.5426550E-010  0.4778728E+02  0.7816164E-02  0.1312668E+00
        -11   -1    0    0    0    0  0.00000000000E+00  0.00000000000E+00  0.45593999997E+02  0.45594000000E+02  0.51100000000E-03 0.  1.
         11   -1    0    0    0    0 -0.00000000000E+00 -0.00000000000E+00 -0.45593999997E+02  0.45594000000E+02  0.51100000000E-03 0. -1.
    9900012    2    1    2    0    0 -0.14046772072E+02 -0.18522105816E+02  0.36650274202E+02  0.47787276405E+02  0.20000024440E+02 0.  0.
         12    1    1    2    0    0  0.14046772072E+02  0.18522105816E+02 -0.36650274202E+02  0.43400723595E+02  0.00000000000E+00 0. -1.
         11    1    3    3    0    0  0.45013912583E+00 -0.47068623195E+01 -0.11885759103E+01  0.48754375274E+01  0.51100000000E-03 0. -1.
        -11    1    3    3    0    0 -0.48661162719E+00 -0.46602429098E-02  0.16638206592E+01  0.17335258985E+01  0.51100000000E-03 0.  1.
         12    1    3    3    0    0 -0.14010299571E+02 -0.13810583254E+02  0.36175029453E+02  0.41178312979E+02  0.00000000000E+00 0. -1.
</event>
<event>
 7    1  0.5426550E-010  0.4778727E+02  0.7816164E-02  0.1312668E+00
        -11   -1    0    0    0    0  0.00000000000E+00  0.00000000000E+00  0.45593999997E+02  0.45594000000E+02  0.51100000000E-03 0.  1.
         11   -1    0    0    0    0 -0.00000000000E+00 -0.00000000000E+00 -0.45593999997E+02  0.45594000000E+02  0.51100000000E-03 0. -1.
    9900012    2    1    2    0    0 -0.89685386492E+00  0.14888510443E+02  0.40757222544E+02  0.47787270979E+02  0.19999999701E+02 0.  0.
         12    1    1    2    0    0  0.89685386492E+00 -0.14888510443E+02 -0.40757222544E+02  0.43400729021E+02  0.00000000000E+00 0. -1.
         11    1    3    3    0    0  0.30431196756E+01  0.15461049548E+01  0.48519818121E+01  0.59323473986E+01  0.51100000000E-03 0. -1.
        -11    1    3    3    0    0  0.52218551495E+01  0.41438653390E+01  0.21274526991E+02  0.22294503585E+02  0.51100000000E-03 0.  1.
        -12    1    3    3    0    0 -0.91618286900E+01  0.91985401489E+01  0.14630713741E+02  0.19560419995E+02  0.00000000000E+00 0.  1.
</event>
<event>
 7    1  0.5426550E-010  0.4778727E+02  0.7816164E-02  0.1312668E+00
        -11   -1    0    0    0    0  0.00000000000E+00  0.00000000000E+00  0.45593999997E+02  0.45594000000E+02  0.51100000000E-03 0.  1.
         11   -1    0    0    0    0 -0.00000000000E+00 -0.00000000000E+00 -0.45593999997E+02  0.45594000000E+02  0.51100000000E-03 0. -1.
    9900012    2    1    2    0    0  0.29026803898E+02  0.29414536818E+02  0.13260944188E+02  0.47787274643E+02  0.20000016406E+02 0.  0.
         12    1    1    2    0    0 -0.29026803898E+02 -0.29414536818E+02 -0.13260944188E+02  0.43400725357E+02  0.00000000000E+00 0. -1.
         11    1    3    3    0    0  0.12046446475E+02  0.19234362372E+02  0.10398708421E+02  0.24964188463E+02  0.51100000000E-03 0.  1.
        -11    1    3    3    0    0  0.63380246746E+01  0.58959040025E+01 -0.39128070353E+01  0.94995947250E+01  0.51100000000E-03 0. -1.
        -12    1    3    3    0    0  0.10642332748E+02  0.42842704435E+01  0.67750428027E+01  0.13323491454E+02  0.00000000000E+00 0.  1.
</event>
<event>
 7    1  0.5426550E-010  0.4778727E+02  0.7816164E-02  0.1312668E+00
        -11   -1    0    0    0    0  0.00000000000E+00  0.00000000000E+00  0.45593999997E+02  0.45594000000E+02  0.51100000000E-03 0.  1.
         11   -1    0    0    0    0 -0.00000000000E+00 -0.00000000000E+00 -0.45593999997E+02  0.45594000000E+02  0.51100000000E-03 0. -1.
    9900012    2    1    2    0    0 -0.32790589592E+02 -0.90862222413E+01  0.26941440140E+02  0.47787269624E+02  0.19999993523E+02 0.  0.
         12    1    1    2    0    0  0.32790589592E+02  0.90862222413E+01 -0.26941440140E+02  0.43400730376E+02  0.00000000000E+00 0. -1.
         11    1    3    3    0    0 -0.16760527095E+02  0.49928927113E+00  0.53829833353E+01  0.17610822472E+02  0.51100000000E-03 0. -1.
        -11    1    3    3    0    0 -0.74952024916E+01  0.34349686679E-01  0.12018107667E+02  0.14163832548E+02  0.51100000000E-03 0.  1.
         12    1    3    3    0    0 -0.85348600045E+01 -0.96198611991E+01  0.95403491370E+01  0.16012614604E+02  0.00000000000E+00 0. -1.
</event>
<event>
 7    1  0.5426550E-010  0.4778727E+02  0.7816164E-02  0.1312668E+00
        -11   -1    0    0    0    0  0.00000000000E+00  0.00000000000E+00  0.45593999997E+02  0.45594000000E+02  0.51100000000E-03 0.  1.
         11   -1    0    0    0    0 -0.00000000000E+00 -0.00000000000E+00 -0.45593999997E+02  0.45594000000E+02  0.51100000000E-03 0. -1.
    9900012    2    1    2    0    0  0.23310541279E+02 -0.78936416025E-01  0.36609226134E+02  0.47787274155E+02  0.20000014185E+02 0.  0.
         12    1    1    2    0    0 -0.23310541279E+02  0.78936416025E-01 -0.36609226134E+02  0.43400725845E+02  0.00000000000E+00 0. -1.
         11    1    3    3    0    0  0.89928028517E+01  0.72199719664E+01  0.10657919397E+02  0.15703176254E+02  0.51100000000E-03 0.  1.
        -11    1    3    3    0    0  0.44609545181E+01 -0.32048027898E+01  0.17874147895E+02  0.18699091940E+02  0.51100000000E-03 0. -1.
        -12    1    3    3    0    0  0.98567839095E+01 -0.40941055926E+01  0.80771588418E+01  0.13385005962E+02  0.00000000000E+00 0.  1.
</event>
<event>
 7    1  0.5426550E-010  0.4778727E+02  0.7816164E-02  0.1312668E+00
        -11   -1    0    0    0    0  0.00000000000E+00  0.00000000000E+00  0.45593999997E+02  0.45594000000E+02  0.51100000000E-03 0. -1.
         11   -1    0    0    0    0 -0.00000000000E+00 -0.00000000000E+00 -0.45593999997E+02  0.45594000000E+02  0.51100000000E-03 0.  1.
    9900012    2    1    2    0    0 -0.89085398150E+01  0.34243153174E+02 -0.25133000313E+02  0.47787270448E+02  0.19999997280E+02 0.  0.
         12    1    1    2    0    0  0.89085398150E+01 -0.34243153174E+02  0.25133000313E+02  0.43400729552E+02  0.00000000000E+00 0. -1.
         11    1    3    3    0    0  0.45841250761E+01  0.55792865190E+01 -0.67086447102E+01  0.98563966480E+01  0.51100000000E-03 0. -1.
        -11    1    3    3    0    0 -0.58499189501E+01  0.14776690986E+02 -0.37478832003E+01  0.16328465236E+02  0.51100000000E-03 0.  1.
         12    1    3    3    0    0 -0.76427459409E+01  0.13887175669E+02 -0.14676472402E+02  0.21602408564E+02  0.00000000000E+00 0. -1.
</event>
<event>
 7    1  0.5426550E-010  0.4778728E+02  0.7816164E-02  0.1312668E+00
        -11   -1    0    0    0    0  0.00000000000E+00  0.00000000000E+00  0.45593999997E+02  0.45594000000E+02  0.51100000000E-03 0.  1.
         11   -1    0    0    0    0 -0.00000000000E+00 -0.00000000000E+00 -0.45593999997E+02  0.45594000000E+02  0.51100000000E-03 0. -1.
    9900012    2    1    2    0    0  0.31608620842E+02 -0.26729149919E+02  0.13041091084E+02  0.47787280840E+02  0.20000044663E+02 0.  0.
         12    1    1    2    0    0 -0.31608620842E+02  0.26729149919E+02 -0.13041091084E+02  0.43400719160E+02  0.00000000000E+00 0. -1.
         11    1    3    3    0    0  0.12696488149E+02 -0.85601033460E+01  0.65507554520E+01  0.16654986576E+02  0.51100000000E-03 0. -1.
        -11    1    3    3    0    0  0.79707035056E+01 -0.13421904209E+02  0.10193578277E+02  0.18643729920E+02  0.51100000000E-03 0.  1.
        -12    1    3    3    0    0  0.10941429187E+02 -0.47471423639E+01 -0.37032426449E+01  0.12488564344E+02  0.00000000000E+00 0.  1.
</event>
<event>
 7    1  0.5426550E-010  0.4778727E+02  0.7816164E-02  0.1312668E+00
        -11   -1    0    0    0    0  0.00000000000E+00  0.00000000000E+00  0.45593999997E+02  0.45594000000E+02  0.51100000000E-03 0.  1.
         11   -1    0    0    0    0 -0.00000000000E+00 -0.00000000000E+00 -0.45593999997E+02  0.45594000000E+02  0.51100000000E-03 0. -1.
    9900012    2    1    2    0    0  0.35305473175E+01  0.43125655343E+02 -0.33669637763E+01  0.47787270073E+02  0.19999995569E+02 0.  0.
         12    1    1    2    0    0 -0.35305473175E+01 -0.43125655343E+02  0.33669637763E+01  0.43400729927E+02  0.00000000000E+00 0. -1.
         11    1    3    3    0    0  0.52245476246E+01  0.52723251769E+01 -0.22840928648E+01  0.77659765084E+01  0.51100000000E-03 0. -1.
        -11    1    3    3    0    0  0.17412358170E+01  0.33723648682E+02  0.20001195982E+01  0.33827752826E+02  0.51100000000E-03 0.  1.
        -12    1    3    3    0    0 -0.34352361242E+01  0.41296814844E+01 -0.30829905097E+01  0.61935407381E+01  0.00000000000E+00 0.  1.
</event>
<event>
 7    1  0.5426550E-010  0.4778727E+02  0.7816164E-02  0.1312668E+00
        -11   -1    0    0    0    0  0.00000000000E+00  0.00000000000E+00  0.45593999997E+02  0.45594000000E+02  0.51100000000E-03 0.  1.
         11   -1    0    0    0    0 -0.00000000000E+00 -0.00000000000E+00 -0.45593999997E+02  0.45594000000E+02  0.51100000000E-03 0. -1.
    9900012    2    1    2    0    0  0.27545074134E+02  0.31241516686E+02  0.12200813642E+02  0.47787270428E+02  0.19999997189E+02 0.  0.
         12    1    1    2    0    0 -0.27545074134E+02 -0.31241516686E+02 -0.12200813642E+02  0.43400729572E+02  0.00000000000E+00 0. -1.
         11    1    3    3    0    0  0.14591956050E+02  0.15033348990E+02  0.12869358010E+02  0.24587540322E+02  0.51100000000E-03 0. -1.
        -11    1    3    3    0    0  0.11303167220E+02  0.59718352883E+01  0.29015730851E+00  0.12787048035E+02  0.51100000000E-03 0.  1.
         12    1    3    3    0    0  0.16499508633E+01  0.10236332407E+02 -0.95870167699E+00  0.10412682071E+02  0.00000000000E+00 0. -1.
</event>
<event>
 7    1  0.5426550E-010  0.4778727E+02  0.7816164E-02  0.1312668E+00
        -11   -1    0    0    0    0  0.00000000000E+00  0.00000000000E+00  0.45593999997E+02  0.45594000000E+02  0.51100000000E-03 0.  1.
         11   -1    0    0    0    0 -0.00000000000E+00 -0.00000000000E+00 -0.45593999997E+02  0.45594000000E+02  0.51100000000E-03 0. -1.
    9900012    2    1    2    0    0 -0.38379337676E+02  0.18826357352E+02 -0.74978632107E+01  0.47787271385E+02  0.20000001553E+02 0.  0.
         12    1    1    2    0    0  0.38379337676E+02 -0.18826357352E+02  0.74978632107E+01  0.43400728615E+02  0.00000000000E+00 0. -1.
         11    1    3    3    0    0  0.15687674303E+01  0.35783398219E+01 -0.79084558330E+00  0.39863497249E+01  0.51100000000E-03 0. -1.
        -11    1    3    3    0    0 -0.29944884602E+02  0.93053056633E+01 -0.71306626445E+01  0.32157910027E+02  0.51100000000E-03 0.  1.
        -12    1    3    3    0    0 -0.10003220504E+02  0.59427118664E+01  0.42364501716E+00  0.11643011633E+02  0.00000000000E+00 0.  1.
</event>
<event>
 7    1  0.5426550E-010  0.4778727E+02  0.7816164E-02  0.1312668E+00
        -11   -1    0    0    0    0  0.00000000000E+00  0.00000000000E+00  0.45593999997E+02  0.45594000000E+02  0.51100000000E-03 0. -1.
         11   -1    0    0    0    0 -0.00000000000E+00 -0.00000000000E+00 -0.45593999997E+02  0.45594000000E+02  0.51100000000E-03 0.  1.
    9900012    2    1    2    0    0 -0.45609147066E+01  0.15429352318E+02 -0.40308269099E+02  0.47787269434E+02  0.19999992657E+02 0.  0.
         12    1    1    2    0    0  0.45609147066E+01 -0.15429352318E+02  0.40308269099E+02  0.43400730566E+02  0.00000000000E+00 0. -1.
         11    1    3    3    0    0 -0.71313798853E+01  0.89250735691E+01 -0.99102864568E+01  0.15123732846E+02  0.51100000000E-03 0. -1.
        -11    1    3    3    0    0  0.46420998047E+01  0.57156784558E+01 -0.29259163210E+02  0.30171455100E+02  0.51100000000E-03 0.  1.
         12    1    3    3    0    0 -0.20716346260E+01  0.78860029338E+00 -0.11388194320E+01  0.24920814884E+01  0.00000000000E+00 0. -1.
</event>
<event>
 7    1  0.5426550E-010  0.4778727E+02  0.7816164E-02  0.1312668E+00
        -11   -1    0    0    0    0  0.00000000000E+00  0.00000000000E+00  0.45593999997E+02  0.45594000000E+02  0.51100000000E-03 0.  1.
         11   -1    0    0    0    0 -0.00000000000E+00 -0.00000000000E+00 -0.45593999997E+02  0.45594000000E+02  0.51100000000E-03 0. -1.
    9900012    2    1    2    0    0 -0.41767403438E+02 -0.11773904189E+02  0.69466397344E+00  0.47787269962E+02  0.19999995064E+02 0.  0.
         12    1    1    2    0    0  0.41767403438E+02  0.11773904189E+02 -0.69466397344E+00  0.43400730038E+02  0.00000000000E+00 0. -1.
         11    1    3    3    0    0 -0.17966414121E+01 -0.33739495132E+01  0.43316995832E+01  0.57771166876E+01  0.51100000000E-03 0. -1.
        -11    1    3    3    0    0 -0.27827834529E+02 -0.32498491694E+01  0.98381777152E+00  0.28034225366E+02  0.51100000000E-03 0.  1.
         12    1    3    3    0    0 -0.12142927496E+02 -0.51501055068E+01 -0.46208533813E+01  0.13975927908E+02  0.00000000000E+00 0. -1.
</event>
<event>
 7    1  0.5426550E-010  0.4778727E+02  0.7816164E-02  0.1312668E+00
        -11   -1    0    0    0    0  0.00000000000E+00  0.00000000000E+00  0.45593999997E+02  0.45594000000E+02  0.51100000000E-03 0.  1.
         11   -1    0    0    0    0 -0.00000000000E+00 -0.00000000000E+00 -0.45593999997E+02  0.45594000000E+02  0.51100000000E-03 0. -1.
    9900012    2    1    2    0    0 -0.66825346580E+01 -0.39062560475E+02  0.17694167565E+02  0.47787268830E+02  0.19999989902E+02 0.  0.
         12    1    1    2    0    0  0.66825346580E+01  0.39062560475E+02 -0.17694167565E+02  0.43400731170E+02  0.00000000000E+00 0. -1.
         11    1    3    3    0    0 -0.16910081671E+01 -0.13452656558E+01 -0.33666392644E+01  0.40004385389E+01  0.51100000000E-03 0. -1.
        -11    1    3    3    0    0 -0.20463604768E+01 -0.21550442047E+02  0.14695191995E+02  0.26164055719E+02  0.51100000000E-03 0.  1.
        -12    1    3    3    0    0 -0.29451660142E+01 -0.16166852772E+02  0.63656148339E+01  0.17622774572E+02  0.00000000000E+00 0.  1.
</event>
<event>
 7    1  0.5426550E-010  0.4778728E+02  0.7816164E-02  0.1312668E+00
        -11   -1    0    0    0    0  0.00000000000E+00  0.00000000000E+00  0.45593999997E+02  0.45594000000E+02  0.51100000000E-03 0. -1.
         11   -1    0    0    0    0 -0.00000000000E+00 -0.00000000000E+00 -0.45593999997E+02  0.45594000000E+02  0.51100000000E-03 0.  1.
    9900012    2    1    2    0    0 -0.34869020694E+02  0.16171846883E+02 -0.20155533306E+02  0.47787276981E+02  0.20000027066E+02 0.  0.
         12    1    1    2    0    0  0.34869020694E+02 -0.16171846883E+02  0.20155533306E+02  0.43400723019E+02  0.00000000000E+00 0. -1.
         11    1    3    3    0    0  0.86947842982E-01 -0.97766155366E+00 -0.36836343081E+01  0.38121573968E+01  0.51100000000E-03 0. -1.
        -11    1    3    3    0    0 -0.34585465593E+02  0.14676054145E+02 -0.13125220016E+02  0.39797140554E+02  0.51100000000E-03 0.  1.
        -12    1    3    3    0    0 -0.37050294356E+00  0.24734542923E+01 -0.33466789817E+01  0.41779790298E+01  0.00000000000E+00 0.  1.
</event>
<event>
 7    1  0.5426550E-010  0.4778727E+02  0.7816164E-02  0.1312668E+00
        -11   -1    0    0    0    0  0.00000000000E+00  0.00000000000E+00  0.45593999997E+02  0.45594000000E+02  0.51100000000E-03 0. -1.
         11   -1    0    0    0    0 -0.00000000000E+00 -0.00000000000E+00 -0.45593999997E+02  0.45594000000E+02  0.51100000000E-03 0.  1.
    9900012    2    1    2    0    0  0.25458632256E+02  0.17949496084E+02 -0.30220797233E+02  0.47787274759E+02  0.20000016937E+02 0.  0.
         12    1    1    2    0    0 -0.25458632256E+02 -0.17949496084E+02  0.30220797233E+02  0.43400725241E+02  0.00000000000E+00 0. -1.
         11    1    3    3    0    0  0.18257101041E+02  0.54881845910E+01 -0.15337171859E+02  0.24467749169E+02  0.51100000000E-03 0. -1.
        -11    1    3    3    0    0  0.39059747729E+01  0.13390998583E+02 -0.14043430013E+02  0.19793771969E+02  0.51100000000E-03 0.  1.
         12    1    3    3    0    0  0.32955564421E+01 -0.92968708998E+00 -0.84019536118E+00  0.35257536207E+01  0.00000000000E+00 0. -1.
</event>
<event>
 7    1  0.5426550E-010  0.4778727E+02  0.7816164E-02  0.1312668E+00
        -11   -1    0    0    0    0  0.00000000000E+00  0.00000000000E+00  0.45593999997E+02  0.45594000000E+02  0.51100000000E-03 0.  1.
         11   -1    0    0    0    0 -0.00000000000E+00 -0.00000000000E+00 -0.45593999997E+02  0.45594000000E+02  0.51100000000E-03 0. -1.
    9900012    2    1    2    0    0 -0.21622804906E+02 -0.33398272647E+02  0.17338779094E+02  0.47787267652E+02  0.19999984534E+02 0.  0.
         12    1    1    2    0    0  0.21622804906E+02  0.33398272647E+02 -0.17338779094E+02  0.43400732348E+02  0.00000000000E+00 0. -1.
         11    1    3    3    0    0 -0.63626718137E+01 -0.12061735106E+01  0.68909509634E+01  0.94564080172E+01  0.51100000000E-03 0. -1.
        -11    1    3    3    0    0 -0.12768320806E+02 -0.18965374010E+02  0.33267394318E+01  0.23103736128E+02  0.51100000000E-03 0.  1.
         12    1    3    3    0    0 -0.24918122866E+01 -0.13226725127E+02  0.71210886993E+01  0.15227123507E+02  0.00000000000E+00 0. -1.
</event>
<event>
 7    1  0.5426550E-010  0.4778727E+02  0.7816164E-02  0.1312668E+00
        -11   -1    0    0    0    0  0.00000000000E+00  0.00000000000E+00  0.45593999997E+02  0.45594000000E+02  0.51100000000E-03 0.  1.
         11   -1    0    0    0    0 -0.00000000000E+00 -0.00000000000E+00 -0.45593999997E+02  0.45594000000E+02  0.51100000000E-03 0. -1.
    9900012    2    1    2    0    0  0.15482587357E+02  0.32057088714E+02  0.24824499249E+02  0.47787271768E+02  0.20000003299E+02 0.  0.
         12    1    1    2    0    0 -0.15482587357E+02 -0.32057088714E+02 -0.24824499249E+02  0.43400728232E+02  0.00000000000E+00 0. -1.
         11    1    3    3    0    0  0.13714216796E+02  0.14079888796E+02  0.21506703549E+02  0.29135224534E+02  0.51100000000E-03 0. -1.
        -11    1    3    3    0    0  0.15837376658E+01  0.18048829764E+02  0.31447830931E+01  0.18389076698E+02  0.51100000000E-03 0.  1.
         12    1    3    3    0    0  0.18463289575E+00 -0.71629845579E-01  0.17301260663E+00  0.26297053642E+00  0.00000000000E+00 0. -1.
</event>
<event>
 7    1  0.5426550E-010  0.4778727E+02  0.7816164E-02  0.1312668E+00
        -11   -1    0    0    0    0  0.00000000000E+00  0.00000000000E+00  0.45593999997E+02  0.45594000000E+02  0.51100000000E-03 0.  1.
         11   -1    0    0    0    0 -0.00000000000E+00 -0.00000000000E+00 -0.45593999997E+02  0.45594000000E+02  0.51100000000E-03 0. -1.
    9900012    2    1    2    0    0 -0.22663001267E+01  0.41431203929E+02 -0.12725660094E+02  0.47787271894E+02  0.20000003875E+02 0.  0.
         12    1    1    2    0    0  0.22663001267E+01 -0.41431203929E+02  0.12725660094E+02  0.43400728106E+02  0.00000000000E+00 0. -1.
         11    1    3    3    0    0  0.75752710917E+01  0.87925619072E+01 -0.13272768915E+01  0.11681418630E+02  0.51100000000E-03 0. -1.
        -11    1    3    3    0    0 -0.65316438929E+01  0.24129282869E+02 -0.69291053530E+01  0.25940261467E+02  0.51100000000E-03 0.  1.
         12    1    3    3    0    0 -0.33099273255E+01  0.85093591531E+01 -0.44692778499E+01  0.10165591798E+02  0.00000000000E+00 0. -1.
</event>
<event>
 7    1  0.5426550E-010  0.4778727E+02  0.7816164E-02  0.1312668E+00
        -11   -1    0    0    0    0  0.00000000000E+00  0.00000000000E+00  0.45593999997E+02  0.45594000000E+02  0.51100000000E-03 0.  1.
         11   -1    0    0    0    0 -0.00000000000E+00 -0.00000000000E+00 -0.45593999997E+02  0.45594000000E+02  0.51100000000E-03 0. -1.
    9900012    2    1    2    0    0  0.62069076406E+01 -0.31640744257E+02  0.29051004049E+02  0.47787271483E+02  0.20000001998E+02 0.  0.
         12    1    1    2    0    0 -0.62069076406E+01  0.31640744257E+02 -0.29051004049E+02  0.43400728517E+02  0.00000000000E+00 0. -1.
         11    1    3    3    0    0  0.76249858757E+01 -0.80870526935E+01  0.19503635854E+01  0.11284713078E+02  0.51100000000E-03 0. -1.
        -11    1    3    3    0    0 -0.87478900570E+00 -0.17560273634E+02  0.23946853642E+02  0.29708252482E+02  0.51100000000E-03 0.  1.
         12    1    3    3    0    0 -0.54328922936E+00 -0.59934179294E+01  0.31537868210E+01  0.67943059230E+01  0.00000000000E+00 0. -1.
</event>
<event>
 7    1  0.5426550E-010  0.4778727E+02  0.7816164E-02  0.1312668E+00
        -11   -1    0    0    0    0  0.00000000000E+00  0.00000000000E+00  0.45593999997E+02  0.45594000000E+02  0.51100000000E-03 0.  1.
         11   -1    0    0    0    0 -0.00000000000E+00 -0.00000000000E+00 -0.45593999997E+02  0.45594000000E+02  0.51100000000E-03 0. -1.
    9900012    2    1    2    0    0 -0.14804566042E+02  0.16090766239E+02  0.37490468054E+02  0.47787272716E+02  0.20000007623E+02 0.  0.
         12    1    1    2    0    0  0.14804566042E+02 -0.16090766239E+02 -0.37490468054E+02  0.43400727284E+02  0.00000000000E+00 0. -1.
         11    1    3    3    0    0 -0.89543048883E+01  0.70548365748E+01  0.96699073182E+01  0.14948491661E+02  0.51100000000E-03 0.  1.
        -11    1    3    3    0    0 -0.22185578855E+01  0.94862186646E+00  0.22224288304E+02  0.22354884778E+02  0.51100000000E-03 0. -1.
         12    1    3    3    0    0 -0.36317032681E+01  0.80873077973E+01  0.55962724314E+01  0.10483896278E+02  0.00000000000E+00 0. -1.
</event>
<event>
 7    1  0.5426550E-010  0.4778727E+02  0.7816164E-02  0.1312668E+00
        -11   -1    0    0    0    0  0.00000000000E+00  0.00000000000E+00  0.45593999997E+02  0.45594000000E+02  0.51100000000E-03 0.  1.
         11   -1    0    0    0    0 -0.00000000000E+00 -0.00000000000E+00 -0.45593999997E+02  0.45594000000E+02  0.51100000000E-03 0. -1.
    9900012    2    1    2    0    0  0.31063490083E+02 -0.22284266347E+02  0.20544933658E+02  0.47787271414E+02  0.20000001686E+02 0.  0.
         12    1    1    2    0    0 -0.31063490083E+02  0.22284266347E+02 -0.20544933658E+02  0.43400728586E+02  0.00000000000E+00 0. -1.
         11    1    3    3    0    0  0.15858060959E+02 -0.55187294771E+01  0.28767953956E+01  0.17035563520E+02  0.51100000000E-03 0. -1.
        -11    1    3    3    0    0  0.89045484251E+01 -0.66678726579E+01  0.23789920189E+01  0.11375900480E+02  0.51100000000E-03 0.  1.
         12    1    3    3    0    0  0.63008806990E+01 -0.10097664212E+02  0.15289146243E+02  0.19375807415E+02  0.00000000000E+00 0. -1.
</event>
<event>
 7    1  0.5426550E-010  0.4778727E+02  0.7816164E-02  0.1312668E+00
        -11   -1    0    0    0    0  0.00000000000E+00  0.00000000000E+00  0.45593999997E+02  0.45594000000E+02  0.51100000000E-03 0. -1.
         11   -1    0    0    0    0 -0.00000000000E+00 -0.00000000000E+00 -0.45593999997E+02  0.45594000000E+02  0.51100000000E-03 0.  1.
    9900012    2    1    2    0    0 -0.42805340241E+02  0.25387045096E+01  0.66993691815E+01  0.47787265891E+02  0.19999976503E+02 0.  0.
         12    1    1    2    0    0  0.42805340241E+02 -0.25387045096E+01 -0.66993691815E+01  0.43400734109E+02  0.00000000000E+00 0. -1.
         11    1    3    3    0    0 -0.22422134540E+02  0.63749999924E+01 -0.36072764370E+00  0.23313576880E+02  0.51100000000E-03 0. -1.
        -11    1    3    3    0    0 -0.58362755065E+01 -0.62843896363E+01  0.14862599419E+01  0.87042882400E+01  0.51100000000E-03 0.  1.
        -12    1    3    3    0    0 -0.14546930195E+02  0.24480941535E+01  0.55738368832E+01  0.15769400771E+02  0.00000000000E+00 0.  1.
</event>
<event>
 7    1  0.5426550E-010  0.4778727E+02  0.7816164E-02  0.1312668E+00
        -11   -1    0    0    0    0  0.00000000000E+00  0.00000000000E+00  0.45593999997E+02  0.45594000000E+02  0.51100000000E-03 0.  1.
         11   -1    0    0    0    0 -0.00000000000E+00 -0.00000000000E+00 -0.45593999997E+02  0.45594000000E+02  0.51100000000E-03 0. -1.
    9900012    2    1    2    0    0  0.85372387492E+01  0.70976572045E+01  0.41956671307E+02  0.47787269010E+02  0.19999990726E+02 0.  0.
         12    1    1    2    0    0 -0.85372387492E+01 -0.70976572045E+01 -0.41956671307E+02  0.43400730990E+02  0.00000000000E+00 0. -1.
         11    1    3    3    0    0  0.62214720063E+01 -0.25548425170E+01  0.93643703441E+01  0.11529326364E+02  0.51100000000E-03 0. -1.
        -11    1    3    3    0    0  0.54345738759E+01  0.10640580541E+02  0.20469158970E+02  0.23701118469E+02  0.51100000000E-03 0.  1.
        -12    1    3    3    0    0 -0.31188071330E+01 -0.98808081989E+00  0.12123141993E+02  0.12556824177E+02  0.00000000000E+00 0.  1.
</event>
<event>
 7    1  0.5426550E-010  0.4778727E+02  0.7816164E-02  0.1312668E+00
        -11   -1    0    0    0    0  0.00000000000E+00  0.00000000000E+00  0.45593999997E+02  0.45594000000E+02  0.51100000000E-03 0. -1.
         11   -1    0    0    0    0 -0.00000000000E+00 -0.00000000000E+00 -0.45593999997E+02  0.45594000000E+02  0.51100000000E-03 0.  1.
    9900012    2    1    2    0    0 -0.11131398539E+02  0.28643398945E+02 -0.30647526691E+02  0.47787271564E+02  0.20000002367E+02 0.  0.
         12    1    1    2    0    0  0.11131398539E+02 -0.28643398945E+02  0.30647526691E+02  0.43400728436E+02  0.00000000000E+00 0. -1.
         11    1    3    3    0    0  0.44725620770E+01  0.54448893535E+01 -0.26891235996E+01  0.75420168124E+01  0.51100000000E-03 0. -1.
        -11    1    3    3    0    0 -0.78685346874E+01  0.13574718375E+02 -0.20517186901E+02  0.25829087783E+02  0.51100000000E-03 0.  1.
        -12    1    3    3    0    0 -0.77354259284E+01  0.96237912167E+01 -0.74412161900E+01  0.14416166969E+02  0.00000000000E+00 0.  1.
</event>
<event>
 7    1  0.5426550E-010  0.4778727E+02  0.7816164E-02  0.1312668E+00
        -11   -1    0    0    0    0  0.00000000000E+00  0.00000000000E+00  0.45593999997E+02  0.45594000000E+02  0.51100000000E-03 0.  1.
         11   -1    0    0    0    0 -0.00000000000E+00 -0.00000000000E+00 -0.45593999997E+02  0.45594000000E+02  0.51100000000E-03 0. -1.
    9900012    2    1    2    0    0  0.22676342909E+02 -0.27327430400E+02  0.24952320327E+02  0.47787271093E+02  0.20000000220E+02 0.  0.
         12    1    1    2    0    0 -0.22676342909E+02  0.27327430400E+02 -0.24952320327E+02  0.43400728907E+02  0.00000000000E+00 0. -1.
         11    1    3    3    0    0 -0.15817798300E+01 -0.13745568882E+01  0.62785879744E+01  0.66190710287E+01  0.51100000000E-03 0. -1.
        -11    1    3    3    0    0  0.21085835857E+02 -0.21030693812E+02  0.18961991363E+02  0.35305235769E+02  0.51100000000E-03 0.  1.
         12    1    3    3    0    0  0.31722868816E+01 -0.49221797005E+01 -0.28825901121E+00  0.58629642947E+01  0.00000000000E+00 0. -1.
</event>
<event>
 7    1  0.5426550E-010  0.4778727E+02  0.7816164E-02  0.1312668E+00
        -11   -1    0    0    0    0  0.00000000000E+00  0.00000000000E+00  0.45593999997E+02  0.45594000000E+02  0.51100000000E-03 0.  1.
         11   -1    0    0    0    0 -0.00000000000E+00 -0.00000000000E+00 -0.45593999997E+02  0.45594000000E+02  0.51100000000E-03 0. -1.
    9900012    2    1    2    0    0  0.29223196771E+02  0.22930579118E+02 -0.22445854561E+02  0.47787273334E+02  0.20000010438E+02 0.  0.
         12    1    1    2    0    0 -0.29223196771E+02 -0.22930579118E+02  0.22445854561E+02  0.43400726666E+02  0.00000000000E+00 0. -1.
         11    1    3    3    0    0  0.16867185504E+01  0.24862198718E+01 -0.76132255412E+01  0.81845899178E+01  0.51100000000E-03 0. -1.
        -11    1    3    3    0    0  0.20180115463E+02  0.17524061578E+02 -0.53607984957E+01  0.27259272827E+02  0.51100000000E-03 0.  1.
        -12    1    3    3    0    0  0.73563627581E+01  0.29202976679E+01 -0.94718305240E+01  0.12343410589E+02  0.00000000000E+00 0.  1.
</event>
<event>
 7    1  0.5426550E-010  0.4778729E+02  0.7816164E-02  0.1312668E+00
        -11   -1    0    0    0    0  0.00000000000E+00  0.00000000000E+00  0.45593999997E+02  0.45594000000E+02  0.51100000000E-03 0.  1.
         11   -1    0    0    0    0 -0.00000000000E+00 -0.00000000000E+00 -0.45593999997E+02  0.45594000000E+02  0.51100000000E-03 0. -1.
    9900012    2    1    2    0    0 -0.16222668829E+02 -0.28285001797E+02  0.28642719197E+02  0.47787289481E+02  0.20000084059E+02 0.  0.
         12    1    1    2    0    0  0.16222668829E+02  0.28285001797E+02 -0.28642719197E+02  0.43400710519E+02  0.00000000000E+00 0. -1.
         11    1    3    3    0    0 -0.88965420544E+01 -0.21187856395E+02  0.92841836262E+01  0.24784466608E+02  0.51100000000E-03 0. -1.
        -11    1    3    3    0    0 -0.29751005661E+01 -0.56128302775E+01  0.16265303256E+02  0.17461820563E+02  0.51100000000E-03 0.  1.
        -12    1    3    3    0    0 -0.43510262081E+01 -0.14843151240E+01  0.30932323148E+01  0.55410023104E+01  0.00000000000E+00 0.  1.
</event>
<event>
 7    1  0.5426550E-010  0.4778727E+02  0.7816164E-02  0.1312668E+00
        -11   -1    0    0    0    0  0.00000000000E+00  0.00000000000E+00  0.45593999997E+02  0.45594000000E+02  0.51100000000E-03 0.  1.
         11   -1    0    0    0    0 -0.00000000000E+00 -0.00000000000E+00 -0.45593999997E+02  0.45594000000E+02  0.51100000000E-03 0. -1.
    9900012    2    1    2    0    0 -0.24059091503E+02 -0.20004539184E+02  0.30076600631E+02  0.47787269852E+02  0.19999994562E+02 0.  0.
         12    1    1    2    0    0  0.24059091503E+02  0.20004539184E+02 -0.30076600631E+02  0.43400730148E+02  0.00000000000E+00 0. -1.
         11    1    3    3    0    0  0.23320223131E+00 -0.85176222889E+01  0.45630971163E+01  0.96657192330E+01  0.51100000000E-03 0. -1.
        -11    1    3    3    0    0 -0.13011060915E+02 -0.99172023373E+01  0.11185845706E+02  0.19818217699E+02  0.51100000000E-03 0.  1.
         12    1    3    3    0    0 -0.11281232820E+02 -0.15697145578E+01  0.14327657808E+02  0.18303332920E+02  0.00000000000E+00 0. -1.
</event>
<event>
 7    1  0.5426550E-010  0.4778727E+02  0.7816164E-02  0.1312668E+00
        -11   -1    0    0    0    0  0.00000000000E+00  0.00000000000E+00  0.45593999997E+02  0.45594000000E+02  0.51100000000E-03 0.  1.
         11   -1    0    0    0    0 -0.00000000000E+00 -0.00000000000E+00 -0.45593999997E+02  0.45594000000E+02  0.51100000000E-03 0. -1.
    9900012    2    1    2    0    0 -0.26205441506E+02 -0.29910188308E+02  0.17386161809E+02  0.47787272453E+02  0.20000006422E+02 0.  0.
         12    1    1    2    0    0  0.26205441506E+02  0.29910188308E+02 -0.17386161809E+02  0.43400727547E+02  0.00000000000E+00 0. -1.
         11    1    3    3    0    0 -0.53416470306E+01 -0.14431828097E+02  0.13288925509E+02  0.20332397711E+02  0.51100000000E-03 0. -1.
        -11    1    3    3    0    0 -0.20944410839E+02 -0.13026572071E+02  0.40899407304E+01  0.25001750754E+02  0.51100000000E-03 0.  1.
        -12    1    3    3    0    0  0.80616362870E-01 -0.24517881393E+01  0.72955697933E-02  0.24531239886E+01  0.00000000000E+00 0.  1.
</event>
<event>
 7    1  0.5426550E-010  0.4778727E+02  0.7816164E-02  0.1312668E+00
        -11   -1    0    0    0    0  0.00000000000E+00  0.00000000000E+00  0.45593999997E+02  0.45594000000E+02  0.51100000000E-03 0.  1.
         11   -1    0    0    0    0 -0.00000000000E+00 -0.00000000000E+00 -0.45593999997E+02  0.45594000000E+02  0.51100000000E-03 0. -1.
    9900012    2    1    2    0    0  0.19494630209E+02 -0.33484381102E+02 -0.19554510297E+02  0.47787271230E+02  0.20000000848E+02 0.  0.
         12    1    1    2    0    0 -0.19494630209E+02  0.33484381102E+02  0.19554510297E+02  0.43400728770E+02  0.00000000000E+00 0. -1.
         11    1    3    3    0    0 -0.26028964010E+00 -0.27898787860E+00  0.11731474052E+00  0.39918409614E+00  0.51100000000E-03 0. -1.
        -11    1    3    3    0    0  0.17011275757E+01  0.25163565626E+01 -0.19924509991E+01  0.36325950261E+01  0.51100000000E-03 0.  1.
        -12    1    3    3    0    0  0.18053792274E+02 -0.35721749786E+02 -0.17679374039E+02  0.43755492108E+02  0.00000000000E+00 0.  1.
</event>
<event>
 7    1  0.5426550E-010  0.4778727E+02  0.7816164E-02  0.1312668E+00
        -11   -1    0    0    0    0  0.00000000000E+00  0.00000000000E+00  0.45593999997E+02  0.45594000000E+02  0.51100000000E-03 0. -1.
         11   -1    0    0    0    0 -0.00000000000E+00 -0.00000000000E+00 -0.45593999997E+02  0.45594000000E+02  0.51100000000E-03 0.  1.
    9900012    2    1    2    0    0  0.13750848714E+02 -0.28505159990E+02 -0.29698368858E+02  0.47787273056E+02  0.20000009173E+02 0.  0.
         12    1    1    2    0    0 -0.13750848714E+02  0.28505159990E+02  0.29698368858E+02  0.43400726944E+02  0.00000000000E+00 0. -1.
         11    1    3    3    0    0  0.20005402201E+00 -0.11675321353E+01 -0.10159670869E+02  0.10228492817E+02  0.51100000000E-03 0. -1.
        -11    1    3    3    0    0  0.63561905073E+01 -0.95735554033E+01 -0.12899390554E+02  0.17275659112E+02  0.51100000000E-03 0.  1.
         12    1    3    3    0    0  0.71946041849E+01 -0.17764072452E+02 -0.66393074357E+01  0.20283121127E+02  0.00000000000E+00 0. -1.
</event>
<event>
 7    1  0.5426550E-010  0.4778727E+02  0.7816164E-02  0.1312668E+00
        -11   -1    0    0    0    0  0.00000000000E+00  0.00000000000E+00  0.45593999997E+02  0.45594000000E+02  0.51100000000E-03 0.  1.
         11   -1    0    0    0    0 -0.00000000000E+00 -0.00000000000E+00 -0.45593999997E+02  0.45594000000E+02  0.51100000000E-03 0. -1.
    9900012    2    1    2    0    0 -0.17458239009E+01 -0.45893678145E+01  0.43122074550E+02  0.47787268307E+02  0.19999987517E+02 0.  0.
         12    1    1    2    0    0  0.17458239009E+01  0.45893678145E+01 -0.43122074550E+02  0.43400731693E+02  0.00000000000E+00 0. -1.
         11    1    3    3    0    0  0.35611389555E+01 -0.94405035613E+01  0.14167312376E+02  0.17393031891E+02  0.51100000000E-03 0. -1.
        -11    1    3    3    0    0 -0.50930292438E+01  0.11928586671E+01  0.20906846880E+02  0.21551290110E+02  0.51100000000E-03 0.  1.
         12    1    3    3    0    0 -0.21393361265E+00  0.36582770797E+01  0.80479152936E+01  0.88429463051E+01  0.00000000000E+00 0. -1.
</event>
<event>
 7    1  0.5426550E-010  0.4778727E+02  0.7816164E-02  0.1312668E+00
        -11   -1    0    0    0    0  0.00000000000E+00  0.00000000000E+00  0.45593999997E+02  0.45594000000E+02  0.51100000000E-03 0.  1.
         11   -1    0    0    0    0 -0.00000000000E+00 -0.00000000000E+00 -0.45593999997E+02  0.45594000000E+02  0.51100000000E-03 0. -1.
    9900012    2    1    2    0    0 -0.11870530831E+02  0.35160060944E+02  0.22505193976E+02  0.47787272544E+02  0.20000006839E+02 0.  0.
         12    1    1    2    0    0  0.11870530831E+02 -0.35160060944E+02 -0.22505193976E+02  0.43400727456E+02  0.00000000000E+00 0. -1.
         11    1    3    3    0    0  0.40517630842E+01  0.98185226698E+01  0.11388799504E+01  0.10682566139E+02  0.51100000000E-03 0. -1.
        -11    1    3    3    0    0 -0.11488375677E+02  0.21735018672E+02  0.18023582316E+02  0.30483492781E+02  0.51100000000E-03 0.  1.
         12    1    3    3    0    0 -0.44339182382E+01  0.36065196023E+01  0.33427317091E+01  0.66212136247E+01  0.00000000000E+00 0. -1.
</event>
<event>
 7    1  0.5426550E-010  0.4778726E+02  0.7816164E-02  0.1312668E+00
        -11   -1    0    0    0    0  0.00000000000E+00  0.00000000000E+00  0.45593999997E+02  0.45594000000E+02  0.51100000000E-03 0.  1.
         11   -1    0    0    0    0 -0.00000000000E+00 -0.00000000000E+00 -0.45593999997E+02  0.45594000000E+02  0.51100000000E-03 0. -1.
    9900012    2    1    2    0    0  0.36993029789E+02  0.13954017344E+02  0.17900422310E+02  0.47787263003E+02  0.19999963334E+02 0.  0.
         12    1    1    2    0    0 -0.36993029789E+02 -0.13954017344E+02 -0.17900422310E+02  0.43400736997E+02  0.00000000000E+00 0. -1.
         11    1    3    3    0    0  0.30035826496E+02  0.13578455300E+02  0.67541092612E+01  0.33647337396E+02  0.51100000000E-03 0. -1.
        -11    1    3    3    0    0  0.43454249744E+01  0.30925568575E+00  0.10614528537E+02  0.11473734075E+02  0.51100000000E-03 0.  1.
         12    1    3    3    0    0  0.26117783186E+01  0.66306358151E-01  0.53178451165E+00  0.26661915320E+01  0.00000000000E+00 0. -1.
</event>
<event>
 7    1  0.5426550E-010  0.4778727E+02  0.7816164E-02  0.1312668E+00
        -11   -1    0    0    0    0  0.00000000000E+00  0.00000000000E+00  0.45593999997E+02  0.45594000000E+02  0.51100000000E-03 0. -1.
         11   -1    0    0    0    0 -0.00000000000E+00 -0.00000000000E+00 -0.45593999997E+02  0.45594000000E+02  0.51100000000E-03 0.  1.
    9900012    2    1    2    0    0 -0.21365500617E+02 -0.25957076874E+02 -0.27447563700E+02  0.47787271786E+02  0.20000003379E+02 0.  0.
         12    1    1    2    0    0  0.21365500617E+02  0.25957076874E+02  0.27447563700E+02  0.43400728214E+02  0.00000000000E+00 0. -1.
         11    1    3    3    0    0 -0.11994969338E+02 -0.31576268560E+01 -0.88634646480E+01  0.15245028784E+02  0.51100000000E-03 0.  1.
        -11    1    3    3    0    0 -0.11424194564E+01 -0.15493322966E+02 -0.12689174154E+02  0.20058995979E+02  0.51100000000E-03 0. -1.
         12    1    3    3    0    0 -0.82281118222E+01 -0.73061270527E+01 -0.58949248984E+01  0.12483247023E+02  0.00000000000E+00 0. -1.
</event>
<event>
 7    1  0.5426550E-010  0.4778727E+02  0.7816164E-02  0.1312668E+00
        -11   -1    0    0    0    0  0.00000000000E+00  0.00000000000E+00  0.45593999997E+02  0.45594000000E+02  0.51100000000E-03 0. -1.
         11   -1    0    0    0    0 -0.00000000000E+00 -0.00000000000E+00 -0.45593999997E+02  0.45594000000E+02  0.51100000000E-03 0.  1.
    9900012    2    1    2    0    0 -0.17273639393E+02 -0.14378086703E+02 -0.37128363835E+02  0.47787269635E+02  0.19999993575E+02 0.  0.
         12    1    1    2    0    0  0.17273639393E+02  0.14378086703E+02  0.37128363835E+02  0.43400730365E+02  0.00000000000E+00 0. -1.
         11    1    3    3    0    0  0.32292380277E+00  0.26555055728E+01 -0.61730018523E+01  0.67276995889E+01  0.51100000000E-03 0.  1.
        -11    1    3    3    0    0 -0.17793415671E+02 -0.18175018808E+02 -0.27709363608E+02  0.37613106515E+02  0.51100000000E-03 0. -1.
         12    1    3    3    0    0  0.19685247496E+00  0.11414265317E+01 -0.32459983747E+01  0.34464635313E+01  0.00000000000E+00 0. -1.
</event>
<event>
 7    1  0.5426550E-010  0.4778727E+02  0.7816164E-02  0.1312668E+00
        -11   -1    0    0    0    0  0.00000000000E+00  0.00000000000E+00  0.45593999997E+02  0.45594000000E+02  0.51100000000E-03 0.  1.
         11   -1    0    0    0    0 -0.00000000000E+00 -0.00000000000E+00 -0.45593999997E+02  0.45594000000E+02  0.51100000000E-03 0. -1.
    9900012    2    1    2    0    0  0.32740213592E+02  0.75637153448E+01  0.27468017640E+02  0.47787269950E+02  0.19999995008E+02 0.  0.
         12    1    1    2    0    0 -0.32740213592E+02 -0.75637153448E+01 -0.27468017640E+02  0.43400730050E+02  0.00000000000E+00 0. -1.
         11    1    3    3    0    0  0.13891416198E+02  0.50932079214E+00  0.12777071480E+02  0.18880794674E+02  0.51100000000E-03 0.  1.
        -11    1    3    3    0    0  0.10082940188E+02 -0.60428315478E+00 -0.78536858702E-01  0.10101337004E+02  0.51100000000E-03 0. -1.
        -12    1    3    3    0    0  0.87658572058E+01  0.76586777074E+01  0.14769483019E+02  0.18805138272E+02  0.00000000000E+00 0.  1.
</event>
<event>
 7    1  0.5539704E-010  0.4778727E+02  0.7816164E-02  0.1312668E+00
        -11   -1    0    0    0    0  0.00000000000E+00  0.00000000000E+00  0.45593999997E+02  0.45594000000E+02  0.51100000000E-03 0.  1.
         11   -1    0    0    0    0 -0.00000000000E+00 -0.00000000000E+00 -0.45593999997E+02  0.45594000000E+02  0.51100000000E-03 0. -1.
    9900012    2    1    2    0    0 -0.11076733163E+02  0.41717990927E+02  0.45319258947E+01  0.47787272623E+02  0.20000007197E+02 0.  0.
         12    1    1    2    0    0  0.11076733163E+02 -0.41717990927E+02 -0.45319258947E+01  0.43400727377E+02  0.00000000000E+00 0. -1.
         11    1    3    3    0    0 -0.85662057166E+01  0.94622387072E+01 -0.51440352163E+00  0.12774132181E+02  0.51100000000E-03 0. -1.
        -11    1    3    3    0    0  0.13042827548E+01  0.30358542698E+02  0.43644855753E+01  0.30698387626E+02  0.51100000000E-03 0.  1.
        -12    1    3    3    0    0 -0.38148102011E+01  0.18972095218E+01  0.68184384107E+00  0.43147528160E+01  0.00000000000E+00 0.  1.
</event>
<event>
 7    1  0.5426550E-010  0.4778727E+02  0.7816164E-02  0.1312668E+00
        -11   -1    0    0    0    0  0.00000000000E+00  0.00000000000E+00  0.45593999997E+02  0.45594000000E+02  0.51100000000E-03 0.  1.
         11   -1    0    0    0    0 -0.00000000000E+00 -0.00000000000E+00 -0.45593999997E+02  0.45594000000E+02  0.51100000000E-03 0. -1.
    9900012    2    1    2    0    0 -0.18457602252E+02  0.37492472583E+02  0.11715578308E+02  0.47787270094E+02  0.19999995667E+02 0.  0.
         12    1    1    2    0    0  0.18457602252E+02 -0.37492472583E+02 -0.11715578308E+02  0.43400729906E+02  0.00000000000E+00 0. -1.
         11    1    3    3    0    0  0.15592510497E+00  0.83831825697E+00 -0.11221503662E+01  0.14093657594E+01  0.51100000000E-03 0. -1.
        -11    1    3    3    0    0 -0.11164499574E+02  0.87482557240E+01 -0.12570114201E+01  0.14239315535E+02  0.51100000000E-03 0.  1.
        -12    1    3    3    0    0 -0.74490277839E+01  0.27905898602E+02  0.14094740094E+02  0.32138588799E+02  0.00000000000E+00 0.  1.
</event>
<event>
 7    1  0.5426550E-010  0.4778727E+02  0.7816164E-02  0.1312668E+00
        -11   -1    0    0    0    0  0.00000000000E+00  0.00000000000E+00  0.45593999997E+02  0.45594000000E+02  0.51100000000E-03 0.  1.
         11   -1    0    0    0    0 -0.00000000000E+00 -0.00000000000E+00 -0.45593999997E+02  0.45594000000E+02  0.51100000000E-03 0. -1.
    9900012    2    1    2    0    0  0.88749559340E+01 -0.68925322104E+01  0.41920775727E+02  0.47787270966E+02  0.19999999642E+02 0.  0.
         12    1    1    2    0    0 -0.88749559340E+01  0.68925322104E+01 -0.41920775727E+02  0.43400729034E+02  0.00000000000E+00 0. -1.
         11    1    3    3    0    0  0.13395342723E+02 -0.81780391642E+01  0.26474406206E+02  0.30776772337E+02  0.51100000000E-03 0. -1.
        -11    1    3    3    0    0 -0.24162448602E+01  0.20165486354E+01  0.14012054293E+02  0.14361141090E+02  0.51100000000E-03 0.  1.
         12    1    3    3    0    0 -0.21041419293E+01 -0.73104168158E+00  0.14343152284E+01  0.26493575397E+01  0.00000000000E+00 0. -1.
</event>
<event>
 7    1  0.5426550E-010  0.4778727E+02  0.7816164E-02  0.1312668E+00
        -11   -1    0    0    0    0  0.00000000000E+00  0.00000000000E+00  0.45593999997E+02  0.45594000000E+02  0.51100000000E-03 0. -1.
         11   -1    0    0    0    0 -0.00000000000E+00 -0.00000000000E+00 -0.45593999997E+02  0.45594000000E+02  0.51100000000E-03 0.  1.
    9900012    2    1    2    0    0  0.18795974000E+02 -0.39056718449E+02 -0.22152444618E+01  0.47787271865E+02  0.20000003742E+02 0.  0.
         12    1    1    2    0    0 -0.18795974000E+02  0.39056718449E+02  0.22152444618E+01  0.43400728135E+02  0.00000000000E+00 0. -1.
         11    1    3    3    0    0  0.10657224068E+01 -0.11331751599E+02  0.32625287967E+01  0.11840120479E+02  0.51100000000E-03 0. -1.
        -11    1    3    3    0    0  0.77371679782E+01 -0.72437532844E+01 -0.76257157393E+01  0.13057077420E+02  0.51100000000E-03 0.  1.
        -12    1    3    3    0    0  0.99930836152E+01 -0.20481213566E+02  0.21479424808E+01  0.22890073966E+02  0.00000000000E+00 0.  1.
</event>
<event>
 7    1  0.5426550E-010  0.4778727E+02  0.7816164E-02  0.1312668E+00
        -11   -1    0    0    0    0  0.00000000000E+00  0.00000000000E+00  0.45593999997E+02  0.45594000000E+02  0.51100000000E-03 0. -1.
         11   -1    0    0    0    0 -0.00000000000E+00 -0.00000000000E+00 -0.45593999997E+02  0.45594000000E+02  0.51100000000E-03 0.  1.
    9900012    2    1    2    0    0 -0.23068164631E+02 -0.33712896323E+02 -0.14660283479E+02  0.47787268328E+02  0.19999987616E+02 0.  0.
         12    1    1    2    0    0  0.23068164631E+02  0.33712896323E+02  0.14660283479E+02  0.43400731672E+02  0.00000000000E+00 0. -1.
         11    1    3    3    0    0 -0.56919586737E+01 -0.17353496480E+02  0.49014345238E-01  0.18263204437E+02  0.51100000000E-03 0. -1.
        -11    1    3    3    0    0 -0.15045509622E+02 -0.12608189810E+02 -0.73885408533E+01  0.20974373561E+02  0.51100000000E-03 0.  1.
         12    1    3    3    0    0 -0.23306963354E+01 -0.37512100329E+01 -0.73207569710E+01  0.85496903305E+01  0.00000000000E+00 0. -1.
</event>
<event>
 7    1  0.5426550E-010  0.4778727E+02  0.7816164E-02  0.1312668E+00
        -11   -1    0    0    0    0  0.00000000000E+00  0.00000000000E+00  0.45593999997E+02  0.45594000000E+02  0.51100000000E-03 0. -1.
         11   -1    0    0    0    0 -0.00000000000E+00 -0.00000000000E+00 -0.45593999997E+02  0.45594000000E+02  0.51100000000E-03 0.  1.
    9900012    2    1    2    0    0 -0.16663393440E+02 -0.31545000336E+02 -0.24715733061E+02  0.47787272035E+02  0.20000004519E+02 0.  0.
         12    1    1    2    0    0  0.16663393440E+02  0.31545000336E+02  0.24715733061E+02  0.43400727965E+02  0.00000000000E+00 0. -1.
         11    1    3    3    0    0 -0.13363965611E+02 -0.24560850157E+02 -0.86434991646E+01  0.29266721979E+02  0.51100000000E-03 0. -1.
        -11    1    3    3    0    0 -0.21493393052E+00 -0.59189233825E+01 -0.10890640564E+02  0.12397011848E+02  0.51100000000E-03 0.  1.
         12    1    3    3    0    0 -0.30844938989E+01 -0.10652267959E+01 -0.51815933317E+01  0.61235382088E+01  0.00000000000E+00 0. -1.
</event>
<event>
 7    1  0.5426550E-010  0.4778727E+02  0.7816164E-02  0.1312668E+00
        -11   -1    0    0    0    0  0.00000000000E+00  0.00000000000E+00  0.45593999997E+02  0.45594000000E+02  0.51100000000E-03 0.  1.
         11   -1    0    0    0    0 -0.00000000000E+00 -0.00000000000E+00 -0.45593999997E+02  0.45594000000E+02  0.51100000000E-03 0. -1.
    9900012    2    1    2    0    0 -0.38061510570E+02  0.53806602785E+01  0.20149275618E+02  0.47787269593E+02  0.19999993382E+02 0.  0.
         12    1    1    2    0    0  0.38061510570E+02 -0.53806602785E+01 -0.20149275618E+02  0.43400730407E+02  0.00000000000E+00 0. -1.
         11    1    3    3    0    0 -0.10049751870E+02 -0.60751305059E+01  0.48945176832E+01  0.12722461512E+02  0.51100000000E-03 0. -1.
        -11    1    3    3    0    0 -0.20478030110E+02  0.10790540437E+02  0.77495183081E+01  0.24409844620E+02  0.51100000000E-03 0.  1.
        -12    1    3    3    0    0 -0.75337285911E+01  0.66525034700E+00  0.75052396266E+01  0.10654963461E+02  0.00000000000E+00 0.  1.
</event>
<event>
 7    1  0.5426550E-010  0.4778726E+02  0.7816164E-02  0.1312668E+00
        -11   -1    0    0    0    0  0.00000000000E+00  0.00000000000E+00  0.45593999997E+02  0.45594000000E+02  0.51100000000E-03 0. -1.
         11   -1    0    0    0    0 -0.00000000000E+00 -0.00000000000E+00 -0.45593999997E+02  0.45594000000E+02  0.51100000000E-03 0.  1.
    9900012    2    1    2    0    0 -0.42164673193E+02 -0.27065162236E+01 -0.99216807390E+01  0.47787255257E+02  0.19999928018E+02 0.  0.
         12    1    1    2    0    0  0.42164673193E+02  0.27065162236E+01  0.99216807390E+01  0.43400744743E+02  0.00000000000E+00 0. -1.
         11    1    3    3    0    0  0.32192768619E+00 -0.30463715644E+00 -0.98928285721E+00  0.10840304723E+01  0.51100000000E-03 0. -1.
        -11    1    3    3    0    0 -0.22799662521E+02  0.50270423387E+01 -0.10506649993E+02  0.25602450275E+02  0.51100000000E-03 0.  1.
        -12    1    3    3    0    0 -0.19686938359E+02 -0.74289214059E+01  0.15742521117E+01  0.21100774510E+02  0.00000000000E+00 0.  1.
</event>
<event>
 7    1  0.5426550E-010  0.4778727E+02  0.7816164E-02  0.1312668E+00
        -11   -1    0    0    0    0  0.00000000000E+00  0.00000000000E+00  0.45593999997E+02  0.45594000000E+02  0.51100000000E-03 0.  1.
         11   -1    0    0    0    0 -0.00000000000E+00 -0.00000000000E+00 -0.45593999997E+02  0.45594000000E+02  0.51100000000E-03 0. -1.
    9900012    2    1    2    0    0 -0.40065274908E+02  0.66367758110E+01  0.15308501004E+02  0.47787271324E+02  0.20000001273E+02 0.  0.
         12    1    1    2    0    0  0.40065274908E+02 -0.66367758110E+01 -0.15308501004E+02  0.43400728676E+02  0.00000000000E+00 0. -1.
         11    1    3    3    0    0 -0.30993658429E+01  0.11901417933E+01 -0.50654177361E+00  0.33584357886E+01  0.51100000000E-03 0. -1.
        -11    1    3    3    0    0 -0.21150738412E+02 -0.88811761845E+00 -0.20149092672E-01  0.21169385785E+02  0.51100000000E-03 0.  1.
        -12    1    3    3    0    0 -0.15815170653E+02  0.63347516361E+01  0.15835191871E+02  0.23259449750E+02  0.00000000000E+00 0.  1.
</event>
<event>
 7    1  0.5426550E-010  0.4778727E+02  0.7816164E-02  0.1312668E+00
        -11   -1    0    0    0    0  0.00000000000E+00  0.00000000000E+00  0.45593999997E+02  0.45594000000E+02  0.51100000000E-03 0.  1.
         11   -1    0    0    0    0 -0.00000000000E+00 -0.00000000000E+00 -0.45593999997E+02  0.45594000000E+02  0.51100000000E-03 0. -1.
    9900012    2    1    2    0    0 -0.27524197478E+02  0.11335877781E+02  0.31583853258E+02  0.47787270070E+02  0.19999995555E+02 0.  0.
         12    1    1    2    0    0  0.27524197478E+02 -0.11335877781E+02 -0.31583853258E+02  0.43400729930E+02  0.00000000000E+00 0. -1.
         11    1    3    3    0    0 -0.15300460796E+02  0.12750899193E+02  0.15031797489E+02  0.24952844864E+02  0.51100000000E-03 0.  1.
        -11    1    3    3    0    0  0.49570572821E+00 -0.91486659678E+00  0.65865549191E+01  0.66682389746E+01  0.51100000000E-03 0. -1.
        -12    1    3    3    0    0 -0.12719442410E+02 -0.50015481513E+00  0.99655008501E+01  0.16166186231E+02  0.00000000000E+00 0.  1.
</event>
<event>
 7    1  0.5426550E-010  0.4778727E+02  0.7816164E-02  0.1312668E+00
        -11   -1    0    0    0    0  0.00000000000E+00  0.00000000000E+00  0.45593999997E+02  0.45594000000E+02  0.51100000000E-03 0. -1.
         11   -1    0    0    0    0 -0.00000000000E+00 -0.00000000000E+00 -0.45593999997E+02  0.45594000000E+02  0.51100000000E-03 0.  1.
    9900012    2    1    2    0    0  0.26618435522E+02  0.32197171401E+02 -0.11765384084E+02  0.47787271683E+02  0.20000002909E+02 0.  0.
         12    1    1    2    0    0 -0.26618435522E+02 -0.32197171401E+02  0.11765384084E+02  0.43400728317E+02  0.00000000000E+00 0. -1.
         11    1    3    3    0    0  0.40774233649E+01  0.13248627675E+01  0.29652948072E+01  0.52128318795E+01  0.51100000000E-03 0. -1.
        -11    1    3    3    0    0  0.13989111524E+02  0.25863785888E+02 -0.14189036509E+02  0.32649033967E+02  0.51100000000E-03 0.  1.
        -12    1    3    3    0    0  0.85519006336E+01  0.50085227449E+01 -0.54164238238E+00  0.99254058357E+01  0.00000000000E+00 0.  1.
</event>
<event>
 7    1  0.5426550E-010  0.4778727E+02  0.7816164E-02  0.1312668E+00
        -11   -1    0    0    0    0  0.00000000000E+00  0.00000000000E+00  0.45593999997E+02  0.45594000000E+02  0.51100000000E-03 0. -1.
         11   -1    0    0    0    0 -0.00000000000E+00 -0.00000000000E+00 -0.45593999997E+02  0.45594000000E+02  0.51100000000E-03 0.  1.
    9900012    2    1    2    0    0 -0.21908387422E+02  0.23378517415E+02 -0.29276111352E+02  0.47787271759E+02  0.20000003259E+02 0.  0.
         12    1    1    2    0    0  0.21908387422E+02 -0.23378517415E+02  0.29276111352E+02  0.43400728241E+02  0.00000000000E+00 0. -1.
         11    1    3    3    0    0 -0.12517544369E+02  0.56838329069E+01 -0.63917874357E+01  0.15160798806E+02  0.51100000000E-03 0. -1.
        -11    1    3    3    0    0 -0.20782618082E+01  0.15436731892E+02 -0.16057474440E+02  0.22370837027E+02  0.51100000000E-03 0.  1.
        -12    1    3    3    0    0 -0.73125812448E+01  0.22579526155E+01 -0.68268494759E+01  0.10255635926E+02  0.00000000000E+00 0.  1.
</event>
<event>
 7    1  0.5426550E-010  0.4778727E+02  0.7816164E-02  0.1312668E+00
        -11   -1    0    0    0    0  0.00000000000E+00  0.00000000000E+00  0.45593999997E+02  0.45594000000E+02  0.51100000000E-03 0.  1.
         11   -1    0    0    0    0 -0.00000000000E+00 -0.00000000000E+00 -0.45593999997E+02  0.45594000000E+02  0.51100000000E-03 0. -1.
    9900012    2    1    2    0    0 -0.16298295006E+02 -0.21187253829E+02  0.34191941606E+02  0.47787274019E+02  0.20000013562E+02 0.  0.
         12    1    1    2    0    0  0.16298295006E+02  0.21187253829E+02 -0.34191941606E+02  0.43400725981E+02  0.00000000000E+00 0. -1.
         11    1    3    3    0    0  0.22472601495E+01  0.40879444623E-01 -0.70943517159E+00  0.23569361112E+01  0.51100000000E-03 0. -1.
        -11    1    3    3    0    0 -0.11304649859E+02 -0.11540372136E+02  0.25162746060E+02  0.29902158567E+02  0.51100000000E-03 0.  1.
         12    1    3    3    0    0 -0.72409052965E+01 -0.96877611375E+01  0.97386307177E+01  0.15528179340E+02  0.00000000000E+00 0. -1.
</event>
<event>
 7    1  0.5426550E-010  0.4778727E+02  0.7816164E-02  0.1312668E+00
        -11   -1    0    0    0    0  0.00000000000E+00  0.00000000000E+00  0.45593999997E+02  0.45594000000E+02  0.51100000000E-03 0.  1.
         11   -1    0    0    0    0 -0.00000000000E+00 -0.00000000000E+00 -0.45593999997E+02  0.45594000000E+02  0.51100000000E-03 0. -1.
    9900012    2    1    2    0    0  0.47512224844E+01 -0.24308125244E+02  0.35639360747E+02  0.47787273020E+02  0.20000009006E+02 0.  0.
         12    1    1    2    0    0 -0.47512224844E+01  0.24308125244E+02 -0.35639360747E+02  0.43400726980E+02  0.00000000000E+00 0. -1.
         11    1    3    3    0    0 -0.27923635882E+01  0.17701178635E+01  0.48983725709E+01  0.59097094483E+01  0.51100000000E-03 0. -1.
        -11    1    3    3    0    0  0.47794879155E+01 -0.20293219064E+02  0.17711639511E+02  0.27356176983E+02  0.51100000000E-03 0.  1.
         12    1    3    3    0    0  0.27640981571E+01 -0.57850240437E+01  0.13029348665E+02  0.14521386588E+02  0.00000000000E+00 0. -1.
</event>
<event>
 7    1  0.5426550E-010  0.4778727E+02  0.7816164E-02  0.1312668E+00
        -11   -1    0    0    0    0  0.00000000000E+00  0.00000000000E+00  0.45593999997E+02  0.45594000000E+02  0.51100000000E-03 0.  1.
         11   -1    0    0    0    0 -0.00000000000E+00 -0.00000000000E+00 -0.45593999997E+02  0.45594000000E+02  0.51100000000E-03 0. -1.
    9900012    2    1    2    0    0 -0.27503847564E+02 -0.30106101201E+02  0.14858811860E+02  0.47787271316E+02  0.20000001240E+02 0.  0.
         12    1    1    2    0    0  0.27503847564E+02  0.30106101201E+02 -0.14858811860E+02  0.43400728684E+02  0.00000000000E+00 0. -1.
         11    1    3    3    0    0 -0.14061401574E+01 -0.44492725507E+01 -0.30455949251E+01  0.55721544381E+01  0.51100000000E-03 0. -1.
        -11    1    3    3    0    0 -0.20582675411E+02 -0.23545387690E+02  0.18406910216E+02  0.36288374895E+02  0.51100000000E-03 0.  1.
        -12    1    3    3    0    0 -0.55150319955E+01 -0.21114409602E+01 -0.50250343056E+00  0.59267419834E+01  0.00000000000E+00 0.  1.
</event>
<event>
 7    1  0.5426550E-010  0.4778727E+02  0.7816164E-02  0.1312668E+00
        -11   -1    0    0    0    0  0.00000000000E+00  0.00000000000E+00  0.45593999997E+02  0.45594000000E+02  0.51100000000E-03 0.  1.
         11   -1    0    0    0    0 -0.00000000000E+00 -0.00000000000E+00 -0.45593999997E+02  0.45594000000E+02  0.51100000000E-03 0. -1.
    9900012    2    1    2    0    0  0.29972486566E+02 -0.31055912089E+02 -0.45610906182E+01  0.47787272192E+02  0.20000005231E+02 0.  0.
         12    1    1    2    0    0 -0.29972486566E+02  0.31055912089E+02  0.45610906182E+01  0.43400727808E+02  0.00000000000E+00 0. -1.
         11    1    3    3    0    0  0.87980295502E+00 -0.10594199164E+01  0.23176639050E+01  0.26959209997E+01  0.51100000000E-03 0. -1.
        -11    1    3    3    0    0  0.21409581774E+02 -0.22037937050E+02  0.21671741807E+01  0.30801582839E+02  0.51100000000E-03 0.  1.
        -12    1    3    3    0    0  0.76831018370E+01 -0.79585551228E+01 -0.90459287040E+01  0.14289768354E+02  0.00000000000E+00 0.  1.
</event>
<event>
 7    1  0.5426550E-010  0.4778727E+02  0.7816164E-02  0.1312668E+00
        -11   -1    0    0    0    0  0.00000000000E+00  0.00000000000E+00  0.45593999997E+02  0.45594000000E+02  0.51100000000E-03 0.  1.
         11   -1    0    0    0    0 -0.00000000000E+00 -0.00000000000E+00 -0.45593999997E+02  0.45594000000E+02  0.51100000000E-03 0. -1.
    9900012    2    1    2    0    0 -0.37355455545E+01  0.15959897796E+02  0.40186451122E+02  0.47787268531E+02  0.19999988542E+02 0.  0.
         12    1    1    2    0    0  0.37355455545E+01 -0.15959897796E+02 -0.40186451122E+02  0.43400731469E+02  0.00000000000E+00 0. -1.
         11    1    3    3    0    0 -0.18441948147E+00 -0.12093828912E+00  0.13989988047E+01  0.14162748786E+01  0.51100000000E-03 0. -1.
        -11    1    3    3    0    0 -0.23821787841E+01  0.16121575836E+02  0.13795588149E+02  0.21351773599E+02  0.51100000000E-03 0.  1.
        -12    1    3    3    0    0 -0.11689472889E+01 -0.40739750983E-01  0.24991864168E+02  0.25019220054E+02  0.00000000000E+00 0.  1.
</event>
<event>
 7    1  0.5426550E-010  0.4778727E+02  0.7816164E-02  0.1312668E+00
        -11   -1    0    0    0    0  0.00000000000E+00  0.00000000000E+00  0.45593999997E+02  0.45594000000E+02  0.51100000000E-03 0.  1.
         11   -1    0    0    0    0 -0.00000000000E+00 -0.00000000000E+00 -0.45593999997E+02  0.45594000000E+02  0.51100000000E-03 0. -1.
    9900012    2    1    2    0    0  0.39208125639E+02 -0.96273985472E+01  0.15926693570E+02  0.47787268589E+02  0.19999988805E+02 0.  0.
         12    1    1    2    0    0 -0.39208125639E+02  0.96273985472E+01 -0.15926693570E+02  0.43400731411E+02  0.00000000000E+00 0. -1.
         11    1    3    3    0    0 -0.17388703222E+01 -0.17272708784E+01  0.27785362036E+01  0.37050503885E+01  0.51100000000E-03 0. -1.
        -11    1    3    3    0    0  0.16445420797E+02 -0.41279182421E+00  0.54758855970E+01  0.17338038690E+02  0.51100000000E-03 0.  1.
         12    1    3    3    0    0  0.24501575165E+02 -0.74873358445E+01  0.76722717692E+01  0.26744179511E+02  0.00000000000E+00 0. -1.
</event>
<event>
 7    1  0.7829996E-010  0.4778727E+02  0.7816164E-02  0.1312668E+00
        -11   -1    0    0    0    0  0.00000000000E+00  0.00000000000E+00  0.45593999997E+02  0.45594000000E+02  0.51100000000E-03 0. -1.
         11   -1    0    0    0    0 -0.00000000000E+00 -0.00000000000E+00 -0.45593999997E+02  0.45594000000E+02  0.51100000000E-03 0.  1.
    9900012    2    1    2    0    0  0.23257921233E+02  0.27041219937E+02 -0.24727812078E+02  0.47787272288E+02  0.20000005669E+02 0.  0.
         12    1    1    2    0    0 -0.23257921233E+02 -0.27041219937E+02  0.24727812078E+02  0.43400727712E+02  0.00000000000E+00 0. -1.
         11    1    3    3    0    0 -0.12896045058E+01  0.87419209262E+00 -0.47599820420E+00  0.16290691046E+01  0.51100000000E-03 0. -1.
        -11    1    3    3    0    0  0.11724420461E+02  0.77245836273E+01 -0.13916655845E+01  0.14109144578E+02  0.51100000000E-03 0.  1.
        -12    1    3    3    0    0  0.12823105278E+02  0.18442444217E+02 -0.22860148289E+02  0.32049058605E+02  0.00000000000E+00 0.  1.
</event>
<event>
 7    1  0.5426550E-010  0.4778727E+02  0.7816164E-02  0.1312668E+00
        -11   -1    0    0    0    0  0.00000000000E+00  0.00000000000E+00  0.45593999997E+02  0.45594000000E+02  0.51100000000E-03 0.  1.
         11   -1    0    0    0    0 -0.00000000000E+00 -0.00000000000E+00 -0.45593999997E+02  0.45594000000E+02  0.51100000000E-03 0. -1.
    9900012    2    1    2    0    0 -0.95627215655E+01  0.14386858669E+02  0.39814521658E+02  0.47787268658E+02  0.19999989120E+02 0.  0.
         12    1    1    2    0    0  0.95627215655E+01 -0.14386858669E+02 -0.39814521658E+02  0.43400731342E+02  0.00000000000E+00 0. -1.
         11    1    3    3    0    0 -0.16454762556E+00  0.55732752351E+01  0.61724749272E+00  0.56097653691E+01  0.51100000000E-03 0. -1.
        -11    1    3    3    0    0 -0.23752391055E+01  0.59307899287E+01  0.89770073260E+01  0.11018288922E+02  0.51100000000E-03 0.  1.
         12    1    3    3    0    0 -0.70229348345E+01  0.28827935056E+01  0.30220266840E+02  0.31159214367E+02  0.00000000000E+00 0. -1.
</event>
<event>
 7    1  0.5426550E-010  0.4778727E+02  0.7816164E-02  0.1312668E+00
        -11   -1    0    0    0    0  0.00000000000E+00  0.00000000000E+00  0.45593999997E+02  0.45594000000E+02  0.51100000000E-03 0. -1.
         11   -1    0    0    0    0 -0.00000000000E+00 -0.00000000000E+00 -0.45593999997E+02  0.45594000000E+02  0.51100000000E-03 0.  1.
    9900012    2    1    2    0    0  0.21474981954E+02 -0.30733744393E+02 -0.21860595248E+02  0.47787268221E+02  0.19999987127E+02 0.  0.
         12    1    1    2    0    0 -0.21474981954E+02  0.30733744393E+02  0.21860595248E+02  0.43400731779E+02  0.00000000000E+00 0. -1.
         11    1    3    3    0    0  0.82781557694E+00  0.56900715315E+00  0.22778345900E+01  0.24894936132E+01  0.51100000000E-03 0. -1.
        -11    1    3    3    0    0  0.13385113633E+02 -0.13602815310E+02 -0.13805143695E+02  0.23553764965E+02  0.51100000000E-03 0.  1.
         12    1    3    3    0    0  0.72620527440E+01 -0.17699936237E+02 -0.10333286142E+02  0.21744009643E+02  0.00000000000E+00 0. -1.
</event>
<event>
 7    1  0.5426550E-010  0.4778728E+02  0.7816164E-02  0.1312668E+00
        -11   -1    0    0    0    0  0.00000000000E+00  0.00000000000E+00  0.45593999997E+02  0.45594000000E+02  0.51100000000E-03 0. -1.
         11   -1    0    0    0    0 -0.00000000000E+00 -0.00000000000E+00 -0.45593999997E+02  0.45594000000E+02  0.51100000000E-03 0.  1.
    9900012    2    1    2    0    0  0.14109547053E+02  0.34781674347E+02 -0.21789415428E+02  0.47787276352E+02  0.20000024201E+02 0.  0.
         12    1    1    2    0    0 -0.14109547053E+02 -0.34781674347E+02  0.21789415428E+02  0.43400723648E+02  0.00000000000E+00 0. -1.
         11    1    3    3    0    0  0.16297384375E+01  0.79660632377E+01 -0.11780116365E+01  0.82159553650E+01  0.51100000000E-03 0. -1.
        -11    1    3    3    0    0  0.14863690873E+02  0.22990095012E+02 -0.12081813653E+02  0.29923970266E+02  0.51100000000E-03 0.  1.
        -12    1    3    3    0    0 -0.23838822569E+01  0.38255160972E+01 -0.85295901382E+01  0.96473507219E+01  0.00000000000E+00 0.  1.
</event>
<event>
 7    1  0.5426550E-010  0.4778727E+02  0.7816164E-02  0.1312668E+00
        -11   -1    0    0    0    0  0.00000000000E+00  0.00000000000E+00  0.45593999997E+02  0.45594000000E+02  0.51100000000E-03 0. -1.
         11   -1    0    0    0    0 -0.00000000000E+00 -0.00000000000E+00 -0.45593999997E+02  0.45594000000E+02  0.51100000000E-03 0.  1.
    9900012    2    1    2    0    0  0.37461436105E+01 -0.29796389214E+02 -0.31333125802E+02  0.47787272188E+02  0.20000005212E+02 0.  0.
         12    1    1    2    0    0 -0.37461436105E+01  0.29796389214E+02  0.31333125802E+02  0.43400727812E+02  0.00000000000E+00 0. -1.
         11    1    3    3    0    0 -0.72566594745E+01 -0.94405080034E+01 -0.11572584506E+02  0.16604427436E+02  0.51100000000E-03 0. -1.
        -11    1    3    3    0    0  0.41143449235E+01 -0.10818664867E+02 -0.13745148561E+02  0.17969431067E+02  0.51100000000E-03 0.  1.
         12    1    3    3    0    0  0.68884581615E+01 -0.95372163438E+01 -0.60153927350E+01  0.13213413684E+02  0.00000000000E+00 0. -1.
</event>
<event>
 7    1  0.5426550E-010  0.4778727E+02  0.7816164E-02  0.1312668E+00
        -11   -1    0    0    0    0  0.00000000000E+00  0.00000000000E+00  0.45593999997E+02  0.45594000000E+02  0.51100000000E-03 0.  1.
         11   -1    0    0    0    0 -0.00000000000E+00 -0.00000000000E+00 -0.45593999997E+02  0.45594000000E+02  0.51100000000E-03 0. -1.
    9900012    2    1    2    0    0  0.12730641756E+02  0.89467452585E+01  0.40515554464E+02  0.47787266783E+02  0.19999980570E+02 0.  0.
         12    1    1    2    0    0 -0.12730641756E+02 -0.89467452585E+01 -0.40515554464E+02  0.43400733217E+02  0.00000000000E+00 0. -1.
         11    1    3    3    0    0  0.38121052967E+01  0.11810881511E+02  0.26803507245E+02  0.29537384274E+02  0.51100000000E-03 0.  1.
        -11    1    3    3    0    0  0.81093018566E+01 -0.50603139134E+01  0.12042277650E+02  0.15374784706E+02  0.51100000000E-03 0. -1.
         12    1    3    3    0    0  0.80923460251E+00  0.21961776614E+01  0.16697695695E+01  0.28750978032E+01  0.00000000000E+00 0. -1.
</event>
<event>
 7    1  0.5426550E-010  0.4778728E+02  0.7816164E-02  0.1312668E+00
        -11   -1    0    0    0    0  0.00000000000E+00  0.00000000000E+00  0.45593999997E+02  0.45594000000E+02  0.51100000000E-03 0. -1.
         11   -1    0    0    0    0 -0.00000000000E+00 -0.00000000000E+00 -0.45593999997E+02  0.45594000000E+02  0.51100000000E-03 0.  1.
    9900012    2    1    2    0    0 -0.25962643798E+02 -0.30103596232E+02  0.17416578289E+02  0.47787279057E+02  0.20000036531E+02 0.  0.
         12    1    1    2    0    0  0.25962643798E+02  0.30103596232E+02 -0.17416578289E+02  0.43400720943E+02  0.00000000000E+00 0. -1.
         11    1    3    3    0    0 -0.45521826759E+01 -0.54286464450E+00  0.63716955752E+01  0.78495588348E+01  0.51100000000E-03 0. -1.
        -11    1    3    3    0    0 -0.13759628515E+02 -0.26998023571E+02  0.83621431469E+01  0.31434791106E+02  0.51100000000E-03 0.  1.
         12    1    3    3    0    0 -0.76508326073E+01 -0.25627080166E+01  0.26827395672E+01  0.85029291158E+01  0.00000000000E+00 0. -1.
</event>
<event>
 7    1  0.5426550E-010  0.4778727E+02  0.7816164E-02  0.1312668E+00
        -11   -1    0    0    0    0  0.00000000000E+00  0.00000000000E+00  0.45593999997E+02  0.45594000000E+02  0.51100000000E-03 0.  1.
         11   -1    0    0    0    0 -0.00000000000E+00 -0.00000000000E+00 -0.45593999997E+02  0.45594000000E+02  0.51100000000E-03 0. -1.
    9900012    2    1    2    0    0  0.29366503629E+02  0.19248715321E+02 -0.25509185617E+02  0.47787272728E+02  0.20000007675E+02 0.  0.
         12    1    1    2    0    0 -0.29366503629E+02 -0.19248715321E+02  0.25509185617E+02  0.43400727272E+02  0.00000000000E+00 0. -1.
         11    1    3    3    0    0  0.77444985325E+01  0.90580453363E+01 -0.10533428461E+02  0.15905299690E+02  0.51100000000E-03 0. -1.
        -11    1    3    3    0    0  0.23622472765E+02  0.78375586627E+01 -0.14354706187E+02  0.28731622566E+02  0.51100000000E-03 0.  1.
        -12    1    3    3    0    0 -0.20004676685E+01  0.23531113223E+01 -0.62105097005E+00  0.31503504718E+01  0.00000000000E+00 0.  1.
</event>
<event>
 7    1  0.5426550E-010  0.4778727E+02  0.7816164E-02  0.1312668E+00
        -11   -1    0    0    0    0  0.00000000000E+00  0.00000000000E+00  0.45593999997E+02  0.45594000000E+02  0.51100000000E-03 0.  1.
         11   -1    0    0    0    0 -0.00000000000E+00 -0.00000000000E+00 -0.45593999997E+02  0.45594000000E+02  0.51100000000E-03 0. -1.
    9900012    2    1    2    0    0 -0.31429775825E+02  0.64445236829E+01  0.29227739311E+02  0.47787269140E+02  0.19999991318E+02 0.  0.
         12    1    1    2    0    0  0.31429775825E+02 -0.64445236829E+01 -0.29227739311E+02  0.43400730860E+02  0.00000000000E+00 0. -1.
         11    1    3    3    0    0 -0.10699575368E+02 -0.57104685376E+01  0.12105704127E+02  0.17135881555E+02  0.51100000000E-03 0. -1.
        -11    1    3    3    0    0 -0.19503133151E+01  0.49027637795E+01  0.31302455567E+01  0.61350837167E+01  0.51100000000E-03 0.  1.
         12    1    3    3    0    0 -0.18779887142E+02  0.72522284410E+01  0.13991789627E+02  0.24516303869E+02  0.00000000000E+00 0. -1.
</event>
<event>
 7    1  0.5426550E-010  0.4778727E+02  0.7816164E-02  0.1312668E+00
        -11   -1    0    0    0    0  0.00000000000E+00  0.00000000000E+00  0.45593999997E+02  0.45594000000E+02  0.51100000000E-03 0. -1.
         11   -1    0    0    0    0 -0.00000000000E+00 -0.00000000000E+00 -0.45593999997E+02  0.45594000000E+02  0.51100000000E-03 0.  1.
    9900012    2    1    2    0    0  0.91744950008E+01  0.41708858003E+02 -0.77345446542E+01  0.47787269874E+02  0.19999994663E+02 0.  0.
         12    1    1    2    0    0 -0.91744950008E+01 -0.41708858003E+02  0.77345446542E+01  0.43400730126E+02  0.00000000000E+00 0. -1.
         11    1    3    3    0    0  0.18975694111E+01 -0.19489694624E+00 -0.41217835901E+01  0.45417898140E+01  0.51100000000E-03 0.  1.
        -11    1    3    3    0    0  0.37095806503E+01  0.22328476890E+02  0.15543696272E+01  0.22687836697E+02  0.51100000000E-03 0. -1.
        -12    1    3    3    0    0  0.35673449394E+01  0.19575278060E+02 -0.51671306913E+01  0.20557643363E+02  0.00000000000E+00 0.  1.
</event>
<event>
 7    1  0.5426550E-010  0.4778727E+02  0.7816164E-02  0.1312668E+00
        -11   -1    0    0    0    0  0.00000000000E+00  0.00000000000E+00  0.45593999997E+02  0.45594000000E+02  0.51100000000E-03 0. -1.
         11   -1    0    0    0    0 -0.00000000000E+00 -0.00000000000E+00 -0.45593999997E+02  0.45594000000E+02  0.51100000000E-03 0.  1.
    9900012    2    1    2    0    0  0.29067104301E+02 -0.31877059852E+02  0.47518202652E+01  0.47787270823E+02  0.19999998991E+02 0.  0.
         12    1    1    2    0    0 -0.29067104301E+02  0.31877059852E+02 -0.47518202652E+01  0.43400729177E+02  0.00000000000E+00 0. -1.
         11    1    3    3    0    0  0.76280838917E+01 -0.88041627582E+00  0.25036355713E+01  0.80765703124E+01  0.51100000000E-03 0. -1.
        -11    1    3    3    0    0  0.16260494615E+02 -0.23389686835E+02 -0.37408875819E+01  0.28731087267E+02  0.51100000000E-03 0.  1.
        -12    1    3    3    0    0  0.51785257949E+01 -0.76069567408E+01  0.59890722759E+01  0.10979613244E+02  0.00000000000E+00 0.  1.
</event>
<event>
 7    1  0.5426550E-010  0.4778727E+02  0.7816164E-02  0.1312668E+00
        -11   -1    0    0    0    0  0.00000000000E+00  0.00000000000E+00  0.45593999997E+02  0.45594000000E+02  0.51100000000E-03 0. -1.
         11   -1    0    0    0    0 -0.00000000000E+00 -0.00000000000E+00 -0.45593999997E+02  0.45594000000E+02  0.51100000000E-03 0.  1.
    9900012    2    1    2    0    0 -0.14564592832E+02  0.14556917457E+02 -0.38204612028E+02  0.47787267397E+02  0.19999983372E+02 0.  0.
         12    1    1    2    0    0  0.14564592832E+02 -0.14556917457E+02  0.38204612028E+02  0.43400732603E+02  0.00000000000E+00 0. -1.
         11    1    3    3    0    0 -0.42449214025E-01  0.50416524681E+01 -0.23790356553E+02  0.24318740237E+02  0.51100000000E-03 0.  1.
        -11    1    3    3    0    0 -0.97678770604E+01  0.26349125931E+01 -0.71197709444E+01  0.12371148904E+02  0.51100000000E-03 0. -1.
        -12    1    3    3    0    0 -0.47542665573E+01  0.68803523959E+01 -0.72944845309E+01  0.11097378256E+02  0.00000000000E+00 0.  1.
</event>
<event>
 7    1  0.5426550E-010  0.4778727E+02  0.7816164E-02  0.1312668E+00
        -11   -1    0    0    0    0  0.00000000000E+00  0.00000000000E+00  0.45593999997E+02  0.45594000000E+02  0.51100000000E-03 0.  1.
         11   -1    0    0    0    0 -0.00000000000E+00 -0.00000000000E+00 -0.45593999997E+02  0.45594000000E+02  0.51100000000E-03 0. -1.
    9900012    2    1    2    0    0  0.63394745564E+01 -0.40881265335E+02  0.13120849084E+02  0.47787268742E+02  0.19999989502E+02 0.  0.
         12    1    1    2    0    0 -0.63394745564E+01  0.40881265335E+02 -0.13120849084E+02  0.43400731258E+02  0.00000000000E+00 0. -1.
         11    1    3    3    0    0  0.33866672948E+01 -0.34899037339E+02  0.72677316725E+01  0.35808270644E+02  0.51100000000E-03 0. -1.
        -11    1    3    3    0    0  0.13640324789E+01 -0.64685321287E+01  0.79914853558E+00  0.66589136611E+01  0.51100000000E-03 0.  1.
         12    1    3    3    0    0  0.15887747826E+01  0.48630413308E+00  0.50539688757E+01  0.53200844369E+01  0.00000000000E+00 0. -1.
</event>
<event>
 7    1  0.5426550E-010  0.4778728E+02  0.7816164E-02  0.1312668E+00
        -11   -1    0    0    0    0  0.00000000000E+00  0.00000000000E+00  0.45593999997E+02  0.45594000000E+02  0.51100000000E-03 0.  1.
         11   -1    0    0    0    0 -0.00000000000E+00 -0.00000000000E+00 -0.45593999997E+02  0.45594000000E+02  0.51100000000E-03 0. -1.
    9900012    2    1    2    0    0  0.27098442969E+02  0.10988709082E+02  0.32070942898E+02  0.47787277459E+02  0.20000029249E+02 0.  0.
         12    1    1    2    0    0 -0.27098442969E+02 -0.10988709082E+02 -0.32070942898E+02  0.43400722541E+02  0.00000000000E+00 0. -1.
         11    1    3    3    0    0  0.65472425839E+01 -0.13548846035E+01  0.18828064306E+01  0.69460102259E+01  0.51100000000E-03 0. -1.
        -11    1    3    3    0    0  0.10646053245E+02  0.13702245859E+02  0.21212691108E+02  0.27405624524E+02  0.51100000000E-03 0.  1.
        -12    1    3    3    0    0  0.99051471405E+01 -0.13586521733E+01  0.89754453597E+01  0.13435642709E+02  0.00000000000E+00 0.  1.
</event>
<event>
 7    1  0.5426550E-010  0.4778727E+02  0.7816164E-02  0.1312668E+00
        -11   -1    0    0    0    0  0.00000000000E+00  0.00000000000E+00  0.45593999997E+02  0.45594000000E+02  0.51100000000E-03 0.  1.
         11   -1    0    0    0    0 -0.00000000000E+00 -0.00000000000E+00 -0.45593999997E+02  0.45594000000E+02  0.51100000000E-03 0. -1.
    9900012    2    1    2    0    0 -0.12418250286E+02 -0.30688869261E+02  0.28064272575E+02  0.47787273833E+02  0.20000012714E+02 0.  0.
         12    1    1    2    0    0  0.12418250286E+02  0.30688869261E+02 -0.28064272575E+02  0.43400726167E+02  0.00000000000E+00 0. -1.
         11    1    3    3    0    0  0.12318794158E+01 -0.15100024401E+02  0.68073506509E+01  0.16609283155E+02  0.51100000000E-03 0. -1.
        -11    1    3    3    0    0 -0.88732531088E+01 -0.34528165375E+01  0.11254216866E+02  0.14741572518E+02  0.51100000000E-03 0.  1.
        -12    1    3    3    0    0 -0.47768765930E+01 -0.12136028323E+02  0.10002705058E+02  0.16436418160E+02  0.00000000000E+00 0.  1.
</event>
<event>
 7    1  0.5426550E-010  0.4778727E+02  0.7816164E-02  0.1312668E+00
        -11   -1    0    0    0    0  0.00000000000E+00  0.00000000000E+00  0.45593999997E+02  0.45594000000E+02  0.51100000000E-03 0. -1.
         11   -1    0    0    0    0 -0.00000000000E+00 -0.00000000000E+00 -0.45593999997E+02  0.45594000000E+02  0.51100000000E-03 0.  1.
    9900012    2    1    2    0    0 -0.77192259229E+00 -0.24208069052E+02 -0.36013844648E+02  0.47787268692E+02  0.19999989276E+02 0.  0.
         12    1    1    2    0    0  0.77192259229E+00  0.24208069052E+02  0.36013844648E+02  0.43400731308E+02  0.00000000000E+00 0. -1.
         11    1    3    3    0    0 -0.15078212509E+01 -0.48564041158E+00 -0.59386675545E+01  0.61463114238E+01  0.51100000000E-03 0. -1.
        -11    1    3    3    0    0 -0.30856206390E+01 -0.16671301661E+02 -0.28940301189E+02  0.33540935988E+02  0.51100000000E-03 0.  1.
        -12    1    3    3    0    0  0.38215192976E+01 -0.70511269796E+01 -0.11348759042E+01  0.81000212803E+01  0.00000000000E+00 0.  1.
</event>
<event>
 7    1  0.5426550E-010  0.4778728E+02  0.7816164E-02  0.1312668E+00
        -11   -1    0    0    0    0  0.00000000000E+00  0.00000000000E+00  0.45593999997E+02  0.45594000000E+02  0.51100000000E-03 0.  1.
         11   -1    0    0    0    0 -0.00000000000E+00 -0.00000000000E+00 -0.45593999997E+02  0.45594000000E+02  0.51100000000E-03 0. -1.
    9900012    2    1    2    0    0  0.98948213504E+00  0.43369843090E+02 -0.13040362805E+01  0.47787275638E+02  0.20000020944E+02 0.  0.
         12    1    1    2    0    0 -0.98948213504E+00 -0.43369843090E+02  0.13040362805E+01  0.43400724362E+02  0.00000000000E+00 0. -1.
         11    1    3    3    0    0  0.79486756073E-02  0.81863562718E+01 -0.68759486458E+01  0.10690891555E+02  0.51100000000E-03 0. -1.
        -11    1    3    3    0    0  0.33039940611E+01  0.32797870776E+02  0.34399477950E+01  0.33142871712E+02  0.51100000000E-03 0.  1.
        -12    1    3    3    0    0 -0.23224606016E+01  0.23856160416E+01  0.21319645703E+01  0.39535123717E+01  0.00000000000E+00 0.  1.
</event>
<event>
 7    1  0.5426550E-010  0.4778727E+02  0.7816164E-02  0.1312668E+00
        -11   -1    0    0    0    0  0.00000000000E+00  0.00000000000E+00  0.45593999997E+02  0.45594000000E+02  0.51100000000E-03 0.  1.
         11   -1    0    0    0    0 -0.00000000000E+00 -0.00000000000E+00 -0.45593999997E+02  0.45594000000E+02  0.51100000000E-03 0. -1.
    9900012    2    1    2    0    0 -0.32808165067E+02  0.27704310590E+02 -0.63022853824E+01  0.47787270497E+02  0.19999997505E+02 0.  0.
         12    1    1    2    0    0  0.32808165067E+02 -0.27704310590E+02  0.63022853824E+01  0.43400729503E+02  0.00000000000E+00 0. -1.
         11    1    3    3    0    0 -0.10132844349E+01 -0.19905333313E+01  0.22271961772E+01  0.31542624117E+01  0.51100000000E-03 0. -1.
        -11    1    3    3    0    0 -0.17574341687E+02  0.16172356090E+02 -0.20652470967E+01  0.23972230457E+02  0.51100000000E-03 0.  1.
         12    1    3    3    0    0 -0.14220538944E+02  0.13522487832E+02 -0.64642344629E+01  0.20660777629E+02  0.00000000000E+00 0. -1.
</event>
<event>
 7    1  0.5426550E-010  0.4778727E+02  0.7816164E-02  0.1312668E+00
        -11   -1    0    0    0    0  0.00000000000E+00  0.00000000000E+00  0.45593999997E+02  0.45594000000E+02  0.51100000000E-03 0.  1.
         11   -1    0    0    0    0 -0.00000000000E+00 -0.00000000000E+00 -0.45593999997E+02  0.45594000000E+02  0.51100000000E-03 0. -1.
    9900012    2    1    2    0    0  0.66210721342E+01  0.32659786464E+02  0.27805089110E+02  0.47787271567E+02  0.20000002384E+02 0.  0.
         12    1    1    2    0    0 -0.66210721342E+01 -0.32659786464E+02 -0.27805089110E+02  0.43400728433E+02  0.00000000000E+00 0. -1.
         11    1    3    3    0    0  0.28573741863E+01 -0.98915913627E+00  0.15396851875E+01  0.33931775337E+01  0.51100000000E-03 0. -1.
        -11    1    3    3    0    0  0.44245555336E+01  0.34306055582E+02  0.26312938424E+02  0.43460934988E+02  0.51100000000E-03 0.  1.
        -12    1    3    3    0    0 -0.66085758569E+00 -0.65710998127E+00 -0.47534501645E-01  0.93315904587E+00  0.00000000000E+00 0.  1.
</event>
<event>
 7    1  0.5426550E-010  0.4778727E+02  0.7816164E-02  0.1312668E+00
        -11   -1    0    0    0    0  0.00000000000E+00  0.00000000000E+00  0.45593999997E+02  0.45594000000E+02  0.51100000000E-03 0.  1.
         11   -1    0    0    0    0 -0.00000000000E+00 -0.00000000000E+00 -0.45593999997E+02  0.45594000000E+02  0.51100000000E-03 0. -1.
    9900012    2    1    2    0    0  0.25153550371E+02  0.34245432799E+02  0.88415234939E+01  0.47787270726E+02  0.19999998546E+02 0.  0.
         12    1    1    2    0    0 -0.25153550371E+02 -0.34245432799E+02 -0.88415234939E+01  0.43400729274E+02  0.00000000000E+00 0. -1.
         11    1    3    3    0    0 -0.33316787831E+00  0.61824908205E+00 -0.46016342744E+00  0.83963289816E+00  0.51100000000E-03 0. -1.
        -11    1    3    3    0    0  0.13299663477E+02  0.14587204257E+02 -0.47848794423E+01  0.20311638245E+02  0.51100000000E-03 0.  1.
        -12    1    3    3    0    0  0.12187054772E+02  0.19039979460E+02  0.14086566364E+02  0.26635999583E+02  0.00000000000E+00 0.  1.
</event>
<event>
 7    1  0.5426550E-010  0.4778727E+02  0.7816164E-02  0.1312668E+00
        -11   -1    0    0    0    0  0.00000000000E+00  0.00000000000E+00  0.45593999997E+02  0.45594000000E+02  0.51100000000E-03 0.  1.
         11   -1    0    0    0    0 -0.00000000000E+00 -0.00000000000E+00 -0.45593999997E+02  0.45594000000E+02  0.51100000000E-03 0. -1.
    9900012    2    1    2    0    0 -0.20501410349E+02 -0.21818041551E+02  0.31421147406E+02  0.47787271115E+02  0.20000000321E+02 0.  0.
         12    1    1    2    0    0  0.20501410349E+02  0.21818041551E+02 -0.31421147406E+02  0.43400728885E+02  0.00000000000E+00 0. -1.
         11    1    3    3    0    0 -0.82037946458E+01 -0.18088952344E+01  0.14109327976E+02  0.16420946524E+02  0.51100000000E-03 0. -1.
        -11    1    3    3    0    0 -0.87240940663E+01 -0.15867113094E+02  0.64807596330E+01  0.19232143430E+02  0.51100000000E-03 0.  1.
        -12    1    3    3    0    0 -0.35735216371E+01 -0.41420332225E+01  0.10831059797E+02  0.12134181161E+02  0.00000000000E+00 0.  1.
</event>
<event>
 7    1  0.5426550E-010  0.4778728E+02  0.7816164E-02  0.1312668E+00
        -11   -1    0    0    0    0  0.00000000000E+00  0.00000000000E+00  0.45593999997E+02  0.45594000000E+02  0.51100000000E-03 0.  1.
         11   -1    0    0    0    0 -0.00000000000E+00 -0.00000000000E+00 -0.45593999997E+02  0.45594000000E+02  0.51100000000E-03 0. -1.
    9900012    2    1    2    0    0 -0.39859116980E+02  0.22343224646E+01  0.17025899377E+02  0.47787278198E+02  0.20000032617E+02 0.  0.
         12    1    1    2    0    0  0.39859116980E+02 -0.22343224646E+01 -0.17025899377E+02  0.43400721802E+02  0.00000000000E+00 0. -1.
         11    1    3    3    0    0 -0.91816757927E+01 -0.68425035296E+00  0.77445875340E+01  0.12031209633E+02  0.51100000000E-03 0.  1.
        -11    1    3    3    0    0  0.92114863132E+00 -0.20937744985E+01 -0.41620145378E+00  0.23250011533E+01  0.51100000000E-03 0. -1.
        -12    1    3    3    0    0 -0.31598589819E+02  0.50123473161E+01  0.96975132971E+01  0.33431067412E+02  0.00000000000E+00 0.  1.
</event>
<event>
 7    1  0.5426550E-010  0.4778727E+02  0.7816164E-02  0.1312668E+00
        -11   -1    0    0    0    0  0.00000000000E+00  0.00000000000E+00  0.45593999997E+02  0.45594000000E+02  0.51100000000E-03 0.  1.
         11   -1    0    0    0    0 -0.00000000000E+00 -0.00000000000E+00 -0.45593999997E+02  0.45594000000E+02  0.51100000000E-03 0. -1.
    9900012    2    1    2    0    0 -0.27264855444E+02  0.30246594019E+02  0.15013138852E+02  0.47787272698E+02  0.20000007541E+02 0.  0.
         12    1    1    2    0    0  0.27264855444E+02 -0.30246594019E+02 -0.15013138852E+02  0.43400727302E+02  0.00000000000E+00 0. -1.
         11    1    3    3    0    0 -0.22399703639E+01  0.12567006011E+01 -0.13990597311E+01  0.29247447794E+01  0.51100000000E-03 0. -1.
        -11    1    3    3    0    0  0.21699528432E+01  0.95978799308E+00  0.23882314212E+01  0.33665320310E+01  0.51100000000E-03 0.  1.
        -12    1    3    3    0    0 -0.27194837923E+02  0.28030105425E+02  0.14023967162E+02  0.41495995888E+02  0.00000000000E+00 0.  1.
</event>
<event>
 7    1  0.5426550E-010  0.4778727E+02  0.7816164E-02  0.1312668E+00
        -11   -1    0    0    0    0  0.00000000000E+00  0.00000000000E+00  0.45593999997E+02  0.45594000000E+02  0.51100000000E-03 0.  1.
         11   -1    0    0    0    0 -0.00000000000E+00 -0.00000000000E+00 -0.45593999997E+02  0.45594000000E+02  0.51100000000E-03 0. -1.
    9900012    2    1    2    0    0 -0.40588330950E+02 -0.54403035207E+01  0.14374063399E+02  0.47787271777E+02  0.20000003339E+02 0.  0.
         12    1    1    2    0    0  0.40588330950E+02  0.54403035207E+01 -0.14374063399E+02  0.43400728223E+02  0.00000000000E+00 0. -1.
         11    1    3    3    0    0 -0.16415176692E+02 -0.31979171117E+01 -0.10874302931E+01  0.16759093192E+02  0.51100000000E-03 0. -1.
        -11    1    3    3    0    0 -0.53278726410E+01 -0.33109328538E+01  0.92120492311E+01  0.11144969921E+02  0.51100000000E-03 0.  1.
        -12    1    3    3    0    0 -0.18845281617E+02  0.10685464448E+01  0.62494444606E+01  0.19883208664E+02  0.00000000000E+00 0.  1.
</event>
<event>
 7    1  0.5426550E-010  0.4778728E+02  0.7816164E-02  0.1312668E+00
        -11   -1    0    0    0    0  0.00000000000E+00  0.00000000000E+00  0.45593999997E+02  0.45594000000E+02  0.51100000000E-03 0.  1.
         11   -1    0    0    0    0 -0.00000000000E+00 -0.00000000000E+00 -0.45593999997E+02  0.45594000000E+02  0.51100000000E-03 0. -1.
    9900012    2    1    2    0    0  0.32266995267E+02 -0.12228672525E+02  0.26323425195E+02  0.47787284230E+02  0.20000060120E+02 0.  0.
         12    1    1    2    0    0 -0.32266995267E+02  0.12228672525E+02 -0.26323425195E+02  0.43400715770E+02  0.00000000000E+00 0. -1.
         11    1    3    3    0    0  0.24996772906E+02 -0.12777639668E+02  0.16913590826E+02  0.32774628695E+02  0.51100000000E-03 0.  1.
        -11    1    3    3    0    0  0.14934277388E+01 -0.38249928652E+01  0.17348536773E+01  0.44576467304E+01  0.51100000000E-03 0. -1.
         12    1    3    3    0    0  0.57767946224E+01  0.43739600077E+01  0.76749806915E+01  0.10555008805E+02  0.00000000000E+00 0. -1.
</event>
<event>
 7    1  0.5426550E-010  0.4778727E+02  0.7816164E-02  0.1312668E+00
        -11   -1    0    0    0    0  0.00000000000E+00  0.00000000000E+00  0.45593999997E+02  0.45594000000E+02  0.51100000000E-03 0.  1.
         11   -1    0    0    0    0 -0.00000000000E+00 -0.00000000000E+00 -0.45593999997E+02  0.45594000000E+02  0.51100000000E-03 0. -1.
    9900012    2    1    2    0    0  0.35039083948E+02 -0.24929148893E+02 -0.58671470265E+01  0.47787270943E+02  0.19999999536E+02 0.  0.
         12    1    1    2    0    0 -0.35039083948E+02  0.24929148893E+02  0.58671470265E+01  0.43400729057E+02  0.00000000000E+00 0. -1.
         11    1    3    3    0    0  0.12920036313E+02 -0.38303209580E+01 -0.98522779095E+01  0.16693294379E+02  0.51100000000E-03 0. -1.
        -11    1    3    3    0    0  0.11949687122E+02 -0.12425796948E+02  0.34992502387E+00  0.17242908684E+02  0.51100000000E-03 0.  1.
         12    1    3    3    0    0  0.10169360514E+02 -0.86730309871E+01  0.36352058591E+01  0.13851067879E+02  0.00000000000E+00 0. -1.
</event>
<event>
 7    1  0.5426550E-010  0.4778727E+02  0.7816164E-02  0.1312668E+00
        -11   -1    0    0    0    0  0.00000000000E+00  0.00000000000E+00  0.45593999997E+02  0.45594000000E+02  0.51100000000E-03 0. -1.
         11   -1    0    0    0    0 -0.00000000000E+00 -0.00000000000E+00 -0.45593999997E+02  0.45594000000E+02  0.51100000000E-03 0.  1.
    9900012    2    1    2    0    0  0.40113070878E+02 -0.13456529551E+02 -0.96688482066E+01  0.47787271106E+02  0.20000000282E+02 0.  0.
         12    1    1    2    0    0 -0.40113070878E+02  0.13456529551E+02  0.96688482066E+01  0.43400728894E+02  0.00000000000E+00 0. -1.
         11    1    3    3    0    0  0.23729316911E+01 -0.14002574111E+01  0.28953171173E+01  0.39967971050E+01  0.51100000000E-03 0. -1.
        -11    1    3    3    0    0  0.25507996187E+02 -0.77705293208E+01 -0.15011266932E+02  0.30600279910E+02  0.51100000000E-03 0.  1.
        -12    1    3    3    0    0  0.12232143001E+02 -0.42857428195E+01  0.24471016079E+01  0.13190194092E+02  0.00000000000E+00 0.  1.
</event>
<event>
 7    1  0.5426550E-010  0.4778728E+02  0.7816164E-02  0.1312668E+00
        -11   -1    0    0    0    0  0.00000000000E+00  0.00000000000E+00  0.45593999997E+02  0.45594000000E+02  0.51100000000E-03 0. -1.
         11   -1    0    0    0    0 -0.00000000000E+00 -0.00000000000E+00 -0.45593999997E+02  0.45594000000E+02  0.51100000000E-03 0.  1.
    9900012    2    1    2    0    0  0.33317940311E+02  0.83565347489E+01 -0.26527456063E+02  0.47787277141E+02  0.20000027795E+02 0.  0.
         12    1    1    2    0    0 -0.33317940311E+02 -0.83565347489E+01  0.26527456063E+02  0.43400722859E+02  0.00000000000E+00 0. -1.
         11    1    3    3    0    0  0.80310877122E+01 -0.38961653277E+01 -0.33496796554E+01  0.95340876940E+01  0.51100000000E-03 0. -1.
        -11    1    3    3    0    0  0.21300133568E+02  0.10230665882E+02 -0.24030905182E+02  0.33702323637E+02  0.51100000000E-03 0.  1.
         12    1    3    3    0    0  0.39867190300E+01  0.20220341946E+01  0.85312877478E+00  0.45508658093E+01  0.00000000000E+00 0. -1.
</event>
<event>
 7    1  0.5426550E-010  0.4778727E+02  0.7816164E-02  0.1312668E+00
        -11   -1    0    0    0    0  0.00000000000E+00  0.00000000000E+00  0.45593999997E+02  0.45594000000E+02  0.51100000000E-03 0.  1.
         11   -1    0    0    0    0 -0.00000000000E+00 -0.00000000000E+00 -0.45593999997E+02  0.45594000000E+02  0.51100000000E-03 0. -1.
    9900012    2    1    2    0    0  0.32678852113E+02  0.84065487735E+01  0.27295528608E+02  0.47787270517E+02  0.19999997594E+02 0.  0.
         12    1    1    2    0    0 -0.32678852113E+02 -0.84065487735E+01 -0.27295528608E+02  0.43400729483E+02  0.00000000000E+00 0. -1.
         11    1    3    3    0    0  0.18015467959E+01 -0.14418590778E+01 -0.43778277568E+00  0.23486554617E+01  0.51100000000E-03 0.  1.
        -11    1    3    3    0    0  0.23781482326E+02  0.23609292257E+01  0.12307278708E+02  0.26881257372E+02  0.51100000000E-03 0. -1.
        -12    1    3    3    0    0  0.70958229913E+01  0.74874786256E+01  0.15426032675E+02  0.18557357683E+02  0.00000000000E+00 0.  1.
</event>
<event>
 7    1  0.5426550E-010  0.4778729E+02  0.7816164E-02  0.1312668E+00
        -11   -1    0    0    0    0  0.00000000000E+00  0.00000000000E+00  0.45593999997E+02  0.45594000000E+02  0.51100000000E-03 0. -1.
         11   -1    0    0    0    0 -0.00000000000E+00 -0.00000000000E+00 -0.45593999997E+02  0.45594000000E+02  0.51100000000E-03 0.  1.
    9900012    2    1    2    0    0  0.25556462097E+02 -0.12583962083E+02 -0.32743432298E+02  0.47787294761E+02  0.20000108131E+02 0.  0.
         12    1    1    2    0    0 -0.25556462097E+02  0.12583962083E+02  0.32743432298E+02  0.43400705239E+02  0.00000000000E+00 0. -1.
         11    1    3    3    0    0 -0.32889827708E+00  0.42478551015E+00 -0.76307739149E+01  0.76496619276E+01  0.51100000000E-03 0. -1.
        -11    1    3    3    0    0  0.24103996510E+02 -0.10202207161E+02 -0.25789949750E+02  0.36745192707E+02  0.51100000000E-03 0.  1.
         12    1    3    3    0    0  0.17813638637E+01 -0.28065404317E+01  0.67729136686E+00  0.33924401256E+01  0.00000000000E+00 0. -1.
</event>
<event>
 7    1  0.5426550E-010  0.4778724E+02  0.7816164E-02  0.1312668E+00
        -11   -1    0    0    0    0  0.00000000000E+00  0.00000000000E+00  0.45593999997E+02  0.45594000000E+02  0.51100000000E-03 0.  1.
         11   -1    0    0    0    0 -0.00000000000E+00 -0.00000000000E+00 -0.45593999997E+02  0.45594000000E+02  0.51100000000E-03 0. -1.
    9900012    2    1    2    0    0  0.29993321994E+02  0.23482649973E+02  0.20798840650E+02  0.47787239795E+02  0.19999857520E+02 0.  0.
         12    1    1    2    0    0 -0.29993321994E+02 -0.23482649973E+02 -0.20798840650E+02  0.43400760205E+02  0.00000000000E+00 0. -1.
         11    1    3    3    0    0  0.19154953788E+02  0.13825913011E+02  0.71856398676E+01  0.24692135302E+02  0.51100000000E-03 0. -1.
        -11    1    3    3    0    0  0.32536705637E+01  0.17416676496E+01  0.11305170300E+02  0.11892293897E+02  0.51100000000E-03 0.  1.
        -12    1    3    3    0    0  0.75846976421E+01  0.79150693122E+01  0.23080304824E+01  0.11202810596E+02  0.00000000000E+00 0.  1.
</event>
<event>
 7    1  0.5426550E-010  0.4778726E+02  0.7816164E-02  0.1312668E+00
        -11   -1    0    0    0    0  0.00000000000E+00  0.00000000000E+00  0.45593999997E+02  0.45594000000E+02  0.51100000000E-03 0.  1.
         11   -1    0    0    0    0 -0.00000000000E+00 -0.00000000000E+00 -0.45593999997E+02  0.45594000000E+02  0.51100000000E-03 0. -1.
    9900012    2    1    2    0    0  0.37364797250E+02 -0.14366674757E+02  0.16765870390E+02  0.47787264672E+02  0.19999970944E+02 0.  0.
         12    1    1    2    0    0 -0.37364797250E+02  0.14366674757E+02 -0.16765870390E+02  0.43400735328E+02  0.00000000000E+00 0. -1.
         11    1    3    3    0    0  0.27638752088E+01 -0.59136863917E+01  0.82286692365E+01  0.10503413282E+02  0.51100000000E-03 0. -1.
        -11    1    3    3    0    0  0.28331547742E+02 -0.70473117733E+01  0.41136116201E+01  0.29483266466E+02  0.51100000000E-03 0.  1.
         12    1    3    3    0    0  0.62693742991E+01 -0.14056765917E+01  0.44235895337E+01  0.78005849232E+01  0.00000000000E+00 0. -1.
</event>
<event>
 7    1  0.5426550E-010  0.4778727E+02  0.7816164E-02  0.1312668E+00
        -11   -1    0    0    0    0  0.00000000000E+00  0.00000000000E+00  0.45593999997E+02  0.45594000000E+02  0.51100000000E-03 0.  1.
         11   -1    0    0    0    0 -0.00000000000E+00 -0.00000000000E+00 -0.45593999997E+02  0.45594000000E+02  0.51100000000E-03 0. -1.
    9900012    2    1    2    0    0 -0.77965682703E+01 -0.10699885711E+02  0.41332183577E+02  0.47787269243E+02  0.19999991787E+02 0.  0.
         12    1    1    2    0    0  0.77965682703E+01  0.10699885711E+02 -0.41332183577E+02  0.43400730757E+02  0.00000000000E+00 0. -1.
         11    1    3    3    0    0 -0.94283788120E+01 -0.58492911971E+00  0.18134122534E+02  0.20447074838E+02  0.51100000000E-03 0. -1.
        -11    1    3    3    0    0  0.33086934716E+01 -0.69402305471E+01  0.22371597911E+02  0.23655922004E+02  0.51100000000E-03 0.  1.
        -12    1    3    3    0    0 -0.16768829299E+01 -0.31747260441E+01  0.82646313242E+00  0.36842724010E+01  0.00000000000E+00 0.  1.
</event>
<event>
 7    1  0.5426550E-010  0.4778727E+02  0.7816164E-02  0.1312668E+00
        -11   -1    0    0    0    0  0.00000000000E+00  0.00000000000E+00  0.45593999997E+02  0.45594000000E+02  0.51100000000E-03 0.  1.
         11   -1    0    0    0    0 -0.00000000000E+00 -0.00000000000E+00 -0.45593999997E+02  0.45594000000E+02  0.51100000000E-03 0. -1.
    9900012    2    1    2    0    0 -0.15325858424E+02 -0.40480178650E+02 -0.31774555992E+01  0.47787273923E+02  0.20000013123E+02 0.  0.
         12    1    1    2    0    0  0.15325858424E+02  0.40480178650E+02  0.31774555992E+01  0.43400726077E+02  0.00000000000E+00 0. -1.
         11    1    3    3    0    0  0.41585345381E+01 -0.10179087160E+02  0.14989104666E+01  0.11097475288E+02  0.51100000000E-03 0. -1.
        -11    1    3    3    0    0 -0.11043124704E+02 -0.18233065380E+02 -0.27286303079E+00  0.21318295684E+02  0.51100000000E-03 0.  1.
         12    1    3    3    0    0 -0.84412682576E+01 -0.12068026110E+02 -0.44035030350E+01  0.15371502951E+02  0.00000000000E+00 0. -1.
</event>
<event>
 7    1  0.5426550E-010  0.4778727E+02  0.7816164E-02  0.1312668E+00
        -11   -1    0    0    0    0  0.00000000000E+00  0.00000000000E+00  0.45593999997E+02  0.45594000000E+02  0.51100000000E-03 0. -1.
         11   -1    0    0    0    0 -0.00000000000E+00 -0.00000000000E+00 -0.45593999997E+02  0.45594000000E+02  0.51100000000E-03 0.  1.
    9900012    2    1    2    0    0  0.37010766953E+02  0.20799304270E+01 -0.22572109945E+02  0.47787272721E+02  0.20000007643E+02 0.  0.
         12    1    1    2    0    0 -0.37010766953E+02 -0.20799304270E+01  0.22572109945E+02  0.43400727279E+02  0.00000000000E+00 0. -1.
         11    1    3    3    0    0  0.47712172947E+01  0.28219164283E+01 -0.54693923820E+01  0.77872960706E+01  0.51100000000E-03 0. -1.
        -11    1    3    3    0    0  0.28114382619E+02  0.22871128821E+01 -0.19557231989E+02  0.34323967118E+02  0.51100000000E-03 0.  1.
        -12    1    3    3    0    0  0.41251670391E+01 -0.30290988834E+01  0.24545144259E+01  0.56760095325E+01  0.00000000000E+00 0.  1.
</event>
<event>
 7    1  0.5426550E-010  0.4778727E+02  0.7816164E-02  0.1312668E+00
        -11   -1    0    0    0    0  0.00000000000E+00  0.00000000000E+00  0.45593999997E+02  0.45594000000E+02  0.51100000000E-03 0. -1.
         11   -1    0    0    0    0 -0.00000000000E+00 -0.00000000000E+00 -0.45593999997E+02  0.45594000000E+02  0.51100000000E-03 0.  1.
    9900012    2    1    2    0    0  0.37902398211E+02 -0.21009308056E+02  0.23749319908E+01  0.47787272850E+02  0.20000008233E+02 0.  0.
         12    1    1    2    0    0 -0.37902398211E+02  0.21009308056E+02 -0.23749319908E+01  0.43400727150E+02  0.00000000000E+00 0. -1.
         11    1    3    3    0    0  0.85487138478E+01 -0.47319526121E+01  0.31302461678E+01  0.10260132811E+02  0.51100000000E-03 0. -1.
        -11    1    3    3    0    0  0.28305681956E+02 -0.16112477271E+02  0.38538159862E+01  0.32797491562E+02  0.51100000000E-03 0.  1.
        -12    1    3    3    0    0  0.10480024074E+01 -0.16487817297E+00 -0.46091301631E+01  0.47296484773E+01  0.00000000000E+00 0.  1.
</event>
<event>
 7    1  0.5426550E-010  0.4778728E+02  0.7816164E-02  0.1312668E+00
        -11   -1    0    0    0    0  0.00000000000E+00  0.00000000000E+00  0.45593999997E+02  0.45594000000E+02  0.51100000000E-03 0.  1.
         11   -1    0    0    0    0 -0.00000000000E+00 -0.00000000000E+00 -0.45593999997E+02  0.45594000000E+02  0.51100000000E-03 0. -1.
    9900012    2    1    2    0    0  0.16953593917E+02 -0.16225164567E+02  0.36509484189E+02  0.47787277106E+02  0.20000027639E+02 0.  0.
         12    1    1    2    0    0 -0.16953593917E+02  0.16225164567E+02 -0.36509484189E+02  0.43400722894E+02  0.00000000000E+00 0. -1.
         11    1    3    3    0    0  0.75571312601E+01 -0.13268153409E+02  0.18149859840E+02  0.23718590604E+02  0.51100000000E-03 0. -1.
        -11    1    3    3    0    0 -0.52256926944E+00 -0.53365924430E+01  0.61952993084E+01  0.81935359477E+01  0.51100000000E-03 0.  1.
         12    1    3    3    0    0  0.99190319262E+01  0.23795812848E+01  0.12164325041E+02  0.15875150555E+02  0.00000000000E+00 0. -1.
</event>
<event>
 7    1  0.5426550E-010  0.4778727E+02  0.7816164E-02  0.1312668E+00
        -11   -1    0    0    0    0  0.00000000000E+00  0.00000000000E+00  0.45593999997E+02  0.45594000000E+02  0.51100000000E-03 0. -1.
         11   -1    0    0    0    0 -0.00000000000E+00 -0.00000000000E+00 -0.45593999997E+02  0.45594000000E+02  0.51100000000E-03 0.  1.
    9900012    2    1    2    0    0  0.34837219627E+02 -0.22741938453E+02 -0.12361051450E+02  0.47787271563E+02  0.20000002362E+02 0.  0.
         12    1    1    2    0    0 -0.34837219627E+02  0.22741938453E+02  0.12361051450E+02  0.43400728437E+02  0.00000000000E+00 0. -1.
         11    1    3    3    0    0  0.40300556677E+01 -0.19401573740E+01 -0.37657689486E+01  0.58469287114E+01  0.51100000000E-03 0. -1.
        -11    1    3    3    0    0  0.19157698068E+02 -0.16895423740E+02 -0.13281409622E+02  0.28790077812E+02  0.51100000000E-03 0.  1.
        -12    1    3    3    0    0  0.11649465891E+02 -0.39063573383E+01  0.46861271200E+01  0.13150265039E+02  0.00000000000E+00 0.  1.
</event>
<event>
 7    1  0.5426550E-010  0.4778727E+02  0.7816164E-02  0.1312668E+00
        -11   -1    0    0    0    0  0.00000000000E+00  0.00000000000E+00  0.45593999997E+02  0.45594000000E+02  0.51100000000E-03 0.  1.
         11   -1    0    0    0    0 -0.00000000000E+00 -0.00000000000E+00 -0.45593999997E+02  0.45594000000E+02  0.51100000000E-03 0. -1.
    9900012    2    1    2    0    0 -0.24735447520E+02 -0.35654999670E+02  0.70882206240E+00  0.47787265050E+02  0.19999972669E+02 0.  0.
         12    1    1    2    0    0  0.24735447520E+02  0.35654999670E+02 -0.70882206240E+00  0.43400734950E+02  0.00000000000E+00 0. -1.
         11    1    3    3    0    0 -0.62351812509E+01 -0.24283124708E+02  0.12665543022E+01  0.25102824361E+02  0.51100000000E-03 0. -1.
        -11    1    3    3    0    0 -0.18305331895E+02 -0.11818843797E+02  0.19201429927E+00  0.21790069166E+02  0.51100000000E-03 0.  1.
        -12    1    3    3    0    0 -0.19493437379E+00  0.44696883508E+00 -0.74974653907E+00  0.89437152373E+00  0.00000000000E+00 0.  1.
</event>
<event>
 7    1  0.5426550E-010  0.4778727E+02  0.7816164E-02  0.1312668E+00
        -11   -1    0    0    0    0  0.00000000000E+00  0.00000000000E+00  0.45593999997E+02  0.45594000000E+02  0.51100000000E-03 0.  1.
         11   -1    0    0    0    0 -0.00000000000E+00 -0.00000000000E+00 -0.45593999997E+02  0.45594000000E+02  0.51100000000E-03 0. -1.
    9900012    2    1    2    0    0  0.32741720570E+01  0.29107764155E+01  0.43179049750E+02  0.47787272364E+02  0.20000006017E+02 0.  0.
         12    1    1    2    0    0 -0.32741720570E+01 -0.29107764155E+01 -0.43179049750E+02  0.43400727636E+02  0.00000000000E+00 0. -1.
         11    1    3    3    0    0 -0.76892869415E+00  0.13351952475E+01  0.31084183370E+01  0.34693317086E+01  0.51100000000E-03 0. -1.
        -11    1    3    3    0    0 -0.40111480680E+01  0.63603591613E+01  0.83222531108E+01  0.11216210349E+02  0.51100000000E-03 0.  1.
        -12    1    3    3    0    0  0.80542488191E+01 -0.47847779934E+01  0.31748378302E+02  0.33101730307E+02  0.00000000000E+00 0.  1.
</event>
<event>
 7    1  0.5426550E-010  0.4778727E+02  0.7816164E-02  0.1312668E+00
        -11   -1    0    0    0    0  0.00000000000E+00  0.00000000000E+00  0.45593999997E+02  0.45594000000E+02  0.51100000000E-03 0.  1.
         11   -1    0    0    0    0 -0.00000000000E+00 -0.00000000000E+00 -0.45593999997E+02  0.45594000000E+02  0.51100000000E-03 0. -1.
    9900012    2    1    2    0    0  0.93077155597E+01 -0.13165253684E+02  0.40294736489E+02  0.47787271179E+02  0.20000000613E+02 0.  0.
         12    1    1    2    0    0 -0.93077155597E+01  0.13165253684E+02 -0.40294736489E+02  0.43400728821E+02  0.00000000000E+00 0. -1.
         11    1    3    3    0    0  0.66579615773E+01  0.11302978918E+01  0.55060641445E+01  0.87133672201E+01  0.51100000000E-03 0. -1.
        -11    1    3    3    0    0  0.36513675606E+01 -0.26485876378E+00  0.85959941885E+01  0.93431125209E+01  0.51100000000E-03 0.  1.
         12    1    3    3    0    0 -0.10016135781E+01 -0.14030692812E+02  0.26192678156E+02  0.29730791438E+02  0.00000000000E+00 0. -1.
</event>
<event>
 7    1  0.5426550E-010  0.4778727E+02  0.7816164E-02  0.1312668E+00
        -11   -1    0    0    0    0  0.00000000000E+00  0.00000000000E+00  0.45593999997E+02  0.45594000000E+02  0.51100000000E-03 0.  1.
         11   -1    0    0    0    0 -0.00000000000E+00 -0.00000000000E+00 -0.45593999997E+02  0.45594000000E+02  0.51100000000E-03 0. -1.
    9900012    2    1    2    0    0  0.51050490678E+01  0.27848187752E+02  0.32894380195E+02  0.47787270335E+02  0.19999996764E+02 0.  0.
         12    1    1    2    0    0 -0.51050490678E+01 -0.27848187752E+02 -0.32894380195E+02  0.43400729665E+02  0.00000000000E+00 0. -1.
         11    1    3    3    0    0 -0.27090773192E+01 -0.97832738733E+00  0.26961322334E+01  0.39452951322E+01  0.51100000000E-03 0. -1.
        -11    1    3    3    0    0  0.31615432021E+01  0.20343156298E+02  0.26327033803E+02  0.33420832915E+02  0.51100000000E-03 0.  1.
        -12    1    3    3    0    0  0.46525831850E+01  0.84833588411E+01  0.38712141590E+01  0.10421142288E+02  0.00000000000E+00 0.  1.
</event>
<event>
 7    1  0.5426550E-010  0.4778727E+02  0.7816164E-02  0.1312668E+00
        -11   -1    0    0    0    0  0.00000000000E+00  0.00000000000E+00  0.45593999997E+02  0.45594000000E+02  0.51100000000E-03 0.  1.
         11   -1    0    0    0    0 -0.00000000000E+00 -0.00000000000E+00 -0.45593999997E+02  0.45594000000E+02  0.51100000000E-03 0. -1.
    9900012    2    1    2    0    0 -0.72491499029E+01 -0.38162657437E+02  0.19356771045E+02  0.47787272100E+02  0.20000004812E+02 0.  0.
         12    1    1    2    0    0  0.72491499029E+01  0.38162657437E+02 -0.19356771045E+02  0.43400727900E+02  0.00000000000E+00 0. -1.
         11    1    3    3    0    0 -0.10452252633E+02 -0.21729422291E+02  0.12509042751E+02  0.27164195718E+02  0.51100000000E-03 0.  1.
        -11    1    3    3    0    0  0.54393831557E+01 -0.96469864666E+01  0.53342640765E+00  0.11087640912E+02  0.51100000000E-03 0. -1.
         12    1    3    3    0    0 -0.22362804257E+01 -0.67862486798E+01  0.63143018862E+01  0.95354354697E+01  0.00000000000E+00 0. -1.
</event>
<event>
 7    1  0.5426550E-010  0.4778727E+02  0.7816164E-02  0.1312668E+00
        -11   -1    0    0    0    0  0.00000000000E+00  0.00000000000E+00  0.45593999997E+02  0.45594000000E+02  0.51100000000E-03 0. -1.
         11   -1    0    0    0    0 -0.00000000000E+00 -0.00000000000E+00 -0.45593999997E+02  0.45594000000E+02  0.51100000000E-03 0.  1.
    9900012    2    1    2    0    0 -0.29002590727E+02 -0.12515381245E+02 -0.29763031684E+02  0.47787273145E+02  0.20000009576E+02 0.  0.
         12    1    1    2    0    0  0.29002590727E+02  0.12515381245E+02  0.29763031684E+02  0.43400726855E+02  0.00000000000E+00 0. -1.
         11    1    3    3    0    0 -0.53215986659E+01  0.34284356307E+01 -0.39928121712E+01  0.74843925959E+01  0.51100000000E-03 0. -1.
        -11    1    3    3    0    0 -0.16264960225E+02 -0.16662597003E+02 -0.17212903387E+02  0.28956434747E+02  0.51100000000E-03 0.  1.
        -12    1    3    3    0    0 -0.74160318362E+01  0.71878012720E+00 -0.85573161252E+01  0.11346445802E+02  0.00000000000E+00 0.  1.
</event>
<event>
 7    1  0.5426550E-010  0.4778728E+02  0.7816164E-02  0.1312668E+00
        -11   -1    0    0    0    0  0.00000000000E+00  0.00000000000E+00  0.45593999997E+02  0.45594000000E+02  0.51100000000E-03 0.  1.
         11   -1    0    0    0    0 -0.00000000000E+00 -0.00000000000E+00 -0.45593999997E+02  0.45594000000E+02  0.51100000000E-03 0. -1.
    9900012    2    1    2    0    0 -0.28014226339E+02 -0.15405580085E+02  0.29351217400E+02  0.47787277218E+02  0.20000028147E+02 0.  0.
         12    1    1    2    0    0  0.28014226339E+02  0.15405580085E+02 -0.29351217400E+02  0.43400722782E+02  0.00000000000E+00 0. -1.
         11    1    3    3    0    0  0.68074102289E+00  0.62576194384E+00 -0.13649146943E+01  0.16486293502E+01  0.51100000000E-03 0. -1.
        -11    1    3    3    0    0 -0.87292952708E+01 -0.38644257761E+01  0.15625041856E+02  0.18310552034E+02  0.51100000000E-03 0.  1.
         12    1    3    3    0    0 -0.19965672092E+02 -0.12166916253E+02  0.15091090238E+02  0.27828095834E+02  0.00000000000E+00 0. -1.
</event>
<event>
 7    1  0.5426550E-010  0.4778728E+02  0.7816164E-02  0.1312668E+00
        -11   -1    0    0    0    0  0.00000000000E+00  0.00000000000E+00  0.45593999997E+02  0.45594000000E+02  0.51100000000E-03 0.  1.
         11   -1    0    0    0    0 -0.00000000000E+00 -0.00000000000E+00 -0.45593999997E+02  0.45594000000E+02  0.51100000000E-03 0. -1.
    9900012    2    1    2    0    0  0.13646528527E+01 -0.21631101603E+02  0.37601271613E+02  0.47787280411E+02  0.20000042705E+02 0.  0.
         12    1    1    2    0    0 -0.13646528527E+01  0.21631101603E+02 -0.37601271613E+02  0.43400719589E+02  0.00000000000E+00 0. -1.
         11    1    3    3    0    0  0.21254396076E+01 -0.18948136041E+01 -0.19538370276E+01  0.34533015379E+01  0.51100000000E-03 0. -1.
        -11    1    3    3    0    0 -0.19088155283E+01 -0.98166160901E+01  0.21120706249E+02  0.23368649103E+02  0.51100000000E-03 0.  1.
         12    1    3    3    0    0  0.11480287734E+01 -0.99196719088E+01  0.18434402391E+02  0.20965329770E+02  0.00000000000E+00 0. -1.
</event>
<event>
 7    1  0.5426550E-010  0.4778727E+02  0.7816164E-02  0.1312668E+00
        -11   -1    0    0    0    0  0.00000000000E+00  0.00000000000E+00  0.45593999997E+02  0.45594000000E+02  0.51100000000E-03 0. -1.
         11   -1    0    0    0    0 -0.00000000000E+00 -0.00000000000E+00 -0.45593999997E+02  0.45594000000E+02  0.51100000000E-03 0.  1.
    9900012    2    1    2    0    0  0.13740718057E+01  0.43293309101E+02  0.27248185629E+01  0.47787270485E+02  0.19999997447E+02 0.  0.
         12    1    1    2    0    0 -0.13740718057E+01 -0.43293309101E+02 -0.27248185629E+01  0.43400729515E+02  0.00000000000E+00 0. -1.
         11    1    3    3    0    0  0.16029550253E+01  0.23926036830E+02  0.82547523876E+01  0.25360710567E+02  0.51100000000E-03 0. -1.
        -11    1    3    3    0    0  0.42425606435E+01  0.47443819648E+01 -0.24998930772E+01  0.68379782611E+01  0.51100000000E-03 0.  1.
         12    1    3    3    0    0 -0.44714438631E+01  0.14622890307E+02 -0.30300407475E+01  0.15588581657E+02  0.00000000000E+00 0. -1.
</event>
<event>
 7    1  0.5426550E-010  0.4778726E+02  0.7816164E-02  0.1312668E+00
        -11   -1    0    0    0    0  0.00000000000E+00  0.00000000000E+00  0.45593999997E+02  0.45594000000E+02  0.51100000000E-03 0. -1.
         11   -1    0    0    0    0 -0.00000000000E+00 -0.00000000000E+00 -0.45593999997E+02  0.45594000000E+02  0.51100000000E-03 0.  1.
    9900012    2    1    2    0    0  0.11651480570E+02  0.41684915170E+02  0.31992185687E+01  0.47787260932E+02  0.19999953893E+02 0.  0.
         12    1    1    2    0    0 -0.11651480570E+02 -0.41684915170E+02 -0.31992185687E+01  0.43400739068E+02  0.00000000000E+00 0. -1.
         11    1    3    3    0    0  0.10132356326E+00  0.11741441947E+02  0.66422762610E+01  0.13490424739E+02  0.51100000000E-03 0.  1.
        -11    1    3    3    0    0  0.12605751798E+02  0.17824904807E+02 -0.78870045702E+00  0.21846149739E+02  0.51100000000E-03 0. -1.
         12    1    3    3    0    0 -0.10555947910E+01  0.12118568417E+02 -0.26543572353E+01  0.12450686454E+02  0.00000000000E+00 0. -1.
</event>
<event>
 7    1  0.5426550E-010  0.4778727E+02  0.7816164E-02  0.1312668E+00
        -11   -1    0    0    0    0  0.00000000000E+00  0.00000000000E+00  0.45593999997E+02  0.45594000000E+02  0.51100000000E-03 0.  1.
         11   -1    0    0    0    0 -0.00000000000E+00 -0.00000000000E+00 -0.45593999997E+02  0.45594000000E+02  0.51100000000E-03 0. -1.
    9900012    2    1    2    0    0 -0.17489659743E+02  0.33240820862E+01  0.39581377148E+02  0.47787272626E+02  0.20000007211E+02 0.  0.
         12    1    1    2    0    0  0.17489659743E+02 -0.33240820862E+01 -0.39581377148E+02  0.43400727374E+02  0.00000000000E+00 0. -1.
         11    1    3    3    0    0 -0.62462631428E+01 -0.65871762755E+01  0.11227831881E+02  0.14438521515E+02  0.51100000000E-03 0. -1.
        -11    1    3    3    0    0 -0.97600302712E+01  0.69485761181E+01  0.13154433738E+02  0.17792695922E+02  0.51100000000E-03 0.  1.
         12    1    3    3    0    0 -0.14833663288E+01  0.29626822436E+01  0.15199111529E+02  0.15556055188E+02  0.00000000000E+00 0. -1.
</event>
<event>
 7    1  0.5426550E-010  0.4778727E+02  0.7816164E-02  0.1312668E+00
        -11   -1    0    0    0    0  0.00000000000E+00  0.00000000000E+00  0.45593999997E+02  0.45594000000E+02  0.51100000000E-03 0. -1.
         11   -1    0    0    0    0 -0.00000000000E+00 -0.00000000000E+00 -0.45593999997E+02  0.45594000000E+02  0.51100000000E-03 0.  1.
    9900012    2    1    2    0    0 -0.11590563508E+02 -0.40158543534E+01 -0.41631178798E+02  0.47787270781E+02  0.19999998801E+02 0.  0.
         12    1    1    2    0    0  0.11590563508E+02  0.40158543534E+01  0.41631178798E+02  0.43400729219E+02  0.00000000000E+00 0. -1.
         11    1    3    3    0    0 -0.52021016177E+01  0.66199114963E+01 -0.14981693361E+02  0.17185349158E+02  0.51100000000E-03 0. -1.
        -11    1    3    3    0    0 -0.54468976115E+00 -0.83207368416E+01 -0.18643256793E+02  0.20423084308E+02  0.51100000000E-03 0.  1.
        -12    1    3    3    0    0 -0.58437721294E+01 -0.23150290081E+01 -0.80062286438E+01  0.10178837316E+02  0.00000000000E+00 0.  1.
</event>
<event>
 7    1  0.5426550E-010  0.4778727E+02  0.7816164E-02  0.1312668E+00
        -11   -1    0    0    0    0  0.00000000000E+00  0.00000000000E+00  0.45593999997E+02  0.45594000000E+02  0.51100000000E-03 0. -1.
         11   -1    0    0    0    0 -0.00000000000E+00 -0.00000000000E+00 -0.45593999997E+02  0.45594000000E+02  0.51100000000E-03 0.  1.
    9900012    2    1    2    0    0 -0.76958781538E+00 -0.26979303462E+02 -0.33987470150E+02  0.47787271804E+02  0.20000003464E+02 0.  0.
         12    1    1    2    0    0  0.76958781538E+00  0.26979303462E+02  0.33987470150E+02  0.43400728196E+02  0.00000000000E+00 0. -1.
         11    1    3    3    0    0  0.48653381349E+01 -0.12710707526E+02 -0.22987923073E+02  0.26714756380E+02  0.51100000000E-03 0. -1.
        -11    1    3    3    0    0 -0.44088224198E+01 -0.90893042299E+01 -0.11969131335E+02  0.15662479743E+02  0.51100000000E-03 0.  1.
         12    1    3    3    0    0 -0.12261035305E+01 -0.51792917057E+01  0.96958425751E+00  0.54100356813E+01  0.00000000000E+00 0. -1.
</event>
<event>
 7    1  0.5426550E-010  0.4778726E+02  0.7816164E-02  0.1312668E+00
        -11   -1    0    0    0    0  0.00000000000E+00  0.00000000000E+00  0.45593999997E+02  0.45594000000E+02  0.51100000000E-03 0. -1.
         11   -1    0    0    0    0 -0.00000000000E+00 -0.00000000000E+00 -0.45593999997E+02  0.45594000000E+02  0.51100000000E-03 0.  1.
    9900012    2    1    2    0    0  0.23676349460E+02  0.35717326198E+02 -0.68794538481E+01  0.47787264986E+02  0.19999972377E+02 0.  0.
         12    1    1    2    0    0 -0.23676349460E+02 -0.35717326198E+02  0.68794538481E+01  0.43400735014E+02  0.00000000000E+00 0. -1.
         11    1    3    3    0    0  0.98673976916E+01  0.17404830914E+02  0.10467897869E+01  0.20034706024E+02  0.51100000000E-03 0. -1.
        -11    1    3    3    0    0  0.32499948963E+01  0.64024980383E+01 -0.93312941939E+01  0.11774017987E+02  0.51100000000E-03 0.  1.
        -12    1    3    3    0    0  0.10558956872E+02  0.11909997246E+02  0.14050505589E+01  0.15978540975E+02  0.00000000000E+00 0.  1.
</event>
<event>
 7    1  0.5426550E-010  0.4778726E+02  0.7816164E-02  0.1312668E+00
        -11   -1    0    0    0    0  0.00000000000E+00  0.00000000000E+00  0.45593999997E+02  0.45594000000E+02  0.51100000000E-03 0. -1.
         11   -1    0    0    0    0 -0.00000000000E+00 -0.00000000000E+00 -0.45593999997E+02  0.45594000000E+02  0.51100000000E-03 0.  1.
    9900012    2    1    2    0    0  0.27669597696E+02  0.15384870114E+02 -0.29687085120E+02  0.47787263970E+02  0.19999967743E+02 0.  0.
         12    1    1    2    0    0 -0.27669597696E+02 -0.15384870114E+02  0.29687085120E+02  0.43400736030E+02  0.00000000000E+00 0. -1.
         11    1    3    3    0    0  0.26563337086E+02  0.12975933914E+02 -0.24119068244E+02  0.38153835866E+02  0.51100000000E-03 0. -1.
        -11    1    3    3    0    0 -0.20268412376E+01  0.38970881326E+01 -0.30880510722E+01  0.53694916893E+01  0.51100000000E-03 0.  1.
        -12    1    3    3    0    0  0.31331018475E+01 -0.14881519317E+01 -0.24799658038E+01  0.42639364144E+01  0.00000000000E+00 0.  1.
</event>
<event>
 7    1  0.5426550E-010  0.4778727E+02  0.7816164E-02  0.1312668E+00
        -11   -1    0    0    0    0  0.00000000000E+00  0.00000000000E+00  0.45593999997E+02  0.45594000000E+02  0.51100000000E-03 0. -1.
         11   -1    0    0    0    0 -0.00000000000E+00 -0.00000000000E+00 -0.45593999997E+02  0.45594000000E+02  0.51100000000E-03 0.  1.
    9900012    2    1    2    0    0  0.39224524516E+01  0.15084598990E+02 -0.40505462852E+02  0.47787270964E+02  0.19999999635E+02 0.  0.
         12    1    1    2    0    0 -0.39224524516E+01 -0.15084598990E+02  0.40505462852E+02  0.43400729036E+02  0.00000000000E+00 0. -1.
         11    1    3    3    0    0 -0.21400955388E+01  0.47774247600E+01 -0.84239834862E+00  0.53022100572E+01  0.51100000000E-03 0. -1.
        -11    1    3    3    0    0  0.81856580988E+01  0.78552945990E+01 -0.35091350648E+02  0.36879717221E+02  0.51100000000E-03 0.  1.
        -12    1    3    3    0    0 -0.21231101083E+01  0.24518796314E+01 -0.45717138554E+01  0.56053436857E+01  0.00000000000E+00 0.  1.
</event>
<event>
 7    1  0.5426550E-010  0.4778727E+02  0.7816164E-02  0.1312668E+00
        -11   -1    0    0    0    0  0.00000000000E+00  0.00000000000E+00  0.45593999997E+02  0.45594000000E+02  0.51100000000E-03 0. -1.
         11   -1    0    0    0    0 -0.00000000000E+00 -0.00000000000E+00 -0.45593999997E+02  0.45594000000E+02  0.51100000000E-03 0.  1.
    9900012    2    1    2    0    0 -0.24607034839E+02 -0.50266659497E+01 -0.35395619233E+02  0.47787269649E+02  0.19999993636E+02 0.  0.
         12    1    1    2    0    0  0.24607034839E+02  0.50266659497E+01  0.35395619233E+02  0.43400730351E+02  0.00000000000E+00 0. -1.
         11    1    3    3    0    0  0.27188571758E+01  0.38068659998E+00 -0.14931497311E+01  0.31251564777E+01  0.51100000000E-03 0. -1.
        -11    1    3    3    0    0 -0.24012529671E+01 -0.99992031635E+00 -0.81424477245E+01  0.85478249666E+01  0.51100000000E-03 0.  1.
         12    1    3    3    0    0 -0.24924639047E+02 -0.44074322333E+01 -0.25760021778E+02  0.36114288204E+02  0.00000000000E+00 0. -1.
</event>
<event>
 7    1  0.5426550E-010  0.4778727E+02  0.7816164E-02  0.1312668E+00
        -11   -1    0    0    0    0  0.00000000000E+00  0.00000000000E+00  0.45593999997E+02  0.45594000000E+02  0.51100000000E-03 0.  1.
         11   -1    0    0    0    0 -0.00000000000E+00 -0.00000000000E+00 -0.45593999997E+02  0.45594000000E+02  0.51100000000E-03 0. -1.
    9900012    2    1    2    0    0  0.24621536400E+02 -0.11996588616E+02  0.33667270956E+02  0.47787270436E+02  0.19999997225E+02 0.  0.
         12    1    1    2    0    0 -0.24621536400E+02  0.11996588616E+02 -0.33667270956E+02  0.43400729564E+02  0.00000000000E+00 0. -1.
         11    1    3    3    0    0  0.46064742751E+01 -0.49123421454E+01  0.19844039220E+02  0.20955586449E+02  0.51100000000E-03 0. -1.
        -11    1    3    3    0    0  0.88421665201E+01 -0.32490931281E+01  0.11228606741E+01  0.94869031448E+01  0.51100000000E-03 0.  1.
        -12    1    3    3    0    0  0.11172895605E+02 -0.38351533424E+01  0.12700371062E+02  0.17344780842E+02  0.00000000000E+00 0.  1.
</event>
<event>
 7    1  0.5426550E-010  0.4778727E+02  0.7816164E-02  0.1312668E+00
        -11   -1    0    0    0    0  0.00000000000E+00  0.00000000000E+00  0.45593999997E+02  0.45594000000E+02  0.51100000000E-03 0.  1.
         11   -1    0    0    0    0 -0.00000000000E+00 -0.00000000000E+00 -0.45593999997E+02  0.45594000000E+02  0.51100000000E-03 0. -1.
    9900012    2    1    2    0    0 -0.33033534324E+02  0.12713393017E+02  0.25115302648E+02  0.47787272137E+02  0.20000004983E+02 0.  0.
         12    1    1    2    0    0  0.33033534324E+02 -0.12713393017E+02 -0.25115302648E+02  0.43400727863E+02  0.00000000000E+00 0. -1.
         11    1    3    3    0    0 -0.19078841377E+02 -0.33994578830E+00  0.15830060271E+02  0.24793316839E+02  0.51100000000E-03 0. -1.
        -11    1    3    3    0    0 -0.14336736528E+02  0.13921211338E+02  0.83368511678E+01  0.21652834157E+02  0.51100000000E-03 0.  1.
        -12    1    3    3    0    0  0.38204358126E+00 -0.86787253242E+00  0.94839120896E+00  0.13411211413E+01  0.00000000000E+00 0.  1.
</event>
<event>
 7    1  0.5426550E-010  0.4778727E+02  0.7816164E-02  0.1312668E+00
        -11   -1    0    0    0    0  0.00000000000E+00  0.00000000000E+00  0.45593999997E+02  0.45594000000E+02  0.51100000000E-03 0. -1.
         11   -1    0    0    0    0 -0.00000000000E+00 -0.00000000000E+00 -0.45593999997E+02  0.45594000000E+02  0.51100000000E-03 0.  1.
    9900012    2    1    2    0    0  0.13225685884E+02  0.41320934157E+02 -0.11334237892E+01  0.47787274013E+02  0.20000013534E+02 0.  0.
         12    1    1    2    0    0 -0.13225685884E+02 -0.41320934157E+02  0.11334237892E+01  0.43400725987E+02  0.00000000000E+00 0. -1.
         11    1    3    3    0    0 -0.45622690564E+01  0.45796559587E+01  0.10485129460E+00  0.64651791698E+01  0.51100000000E-03 0. -1.
        -11    1    3    3    0    0  0.16317214265E+02  0.27797808121E+02 -0.12788308800E+01  0.32258410166E+02  0.51100000000E-03 0.  1.
        -12    1    3    3    0    0  0.14707406745E+01  0.89434700773E+01  0.40555796210E-01  0.90636846772E+01  0.00000000000E+00 0.  1.
</event>
<event>
 7    1  0.5426550E-010  0.4778727E+02  0.7816164E-02  0.1312668E+00
        -11   -1    0    0    0    0  0.00000000000E+00  0.00000000000E+00  0.45593999997E+02  0.45594000000E+02  0.51100000000E-03 0.  1.
         11   -1    0    0    0    0 -0.00000000000E+00 -0.00000000000E+00 -0.45593999997E+02  0.45594000000E+02  0.51100000000E-03 0. -1.
    9900012    2    1    2    0    0  0.12565317333E+02 -0.25257645134E+02  0.32981620836E+02  0.47787272468E+02  0.20000006490E+02 0.  0.
         12    1    1    2    0    0 -0.12565317333E+02  0.25257645134E+02 -0.32981620836E+02  0.43400727532E+02  0.00000000000E+00 0. -1.
         11    1    3    3    0    0 -0.11439346329E-01  0.21438025105E+01  0.66817851626E+01  0.70172838964E+01  0.51100000000E-03 0. -1.
        -11    1    3    3    0    0  0.10077772201E+02 -0.13432068446E+02  0.16358457530E+02  0.23443145870E+02  0.51100000000E-03 0.  1.
         12    1    3    3    0    0  0.24989844783E+01 -0.13969379199E+02  0.99413781434E+01  0.17326842702E+02  0.00000000000E+00 0. -1.
</event>
<event>
 7    1  0.5426550E-010  0.4778732E+02  0.7816164E-02  0.1312668E+00
        -11   -1    0    0    0    0  0.00000000000E+00  0.00000000000E+00  0.45593999997E+02  0.45594000000E+02  0.51100000000E-03 0. -1.
         11   -1    0    0    0    0 -0.00000000000E+00 -0.00000000000E+00 -0.45593999997E+02  0.45594000000E+02  0.51100000000E-03 0.  1.
    9900012    2    1    2    0    0  0.30938215211E+01 -0.36194316858E+02 -0.23749077515E+02  0.47787320429E+02  0.20000225163E+02 0.  0.
         12    1    1    2    0    0 -0.30938215211E+01  0.36194316858E+02  0.23749077515E+02  0.43400679571E+02  0.00000000000E+00 0. -1.
         11    1    3    3    0    0 -0.47396947753E+01 -0.81448660779E+01 -0.21454669915E+01  0.96647079036E+01  0.51100000000E-03 0. -1.
        -11    1    3    3    0    0  0.91635231641E+01 -0.13468532164E+02 -0.14671037125E+02  0.21922838457E+02  0.51100000000E-03 0.  1.
        -12    1    3    3    0    0 -0.13300068677E+01 -0.14580918615E+02 -0.69325733986E+01  0.16199774068E+02  0.00000000000E+00 0.  1.
</event>
<event>
 7    1  0.5426550E-010  0.4778726E+02  0.7816164E-02  0.1312668E+00
        -11   -1    0    0    0    0  0.00000000000E+00  0.00000000000E+00  0.45593999997E+02  0.45594000000E+02  0.51100000000E-03 0.  1.
         11   -1    0    0    0    0 -0.00000000000E+00 -0.00000000000E+00 -0.45593999997E+02  0.45594000000E+02  0.51100000000E-03 0. -1.
    9900012    2    1    2    0    0  0.20003920036E+02 -0.11601760219E+02  0.36726913655E+02  0.47787264481E+02  0.19999970074E+02 0.  0.
         12    1    1    2    0    0 -0.20003920036E+02  0.11601760219E+02 -0.36726913655E+02  0.43400735519E+02  0.00000000000E+00 0. -1.
         11    1    3    3    0    0  0.15907603879E+02 -0.12981991069E+02  0.15892281552E+02  0.25964371098E+02  0.51100000000E-03 0. -1.
        -11    1    3    3    0    0 -0.92275463182E+00  0.25789756610E+00  0.69616898118E+01  0.70273119016E+01  0.51100000000E-03 0.  1.
         12    1    3    3    0    0  0.50190707889E+01  0.11223332842E+01  0.13872942290E+02  0.14795581482E+02  0.00000000000E+00 0. -1.
</event>
<event>
 7    1  0.5426550E-010  0.4778727E+02  0.7816164E-02  0.1312668E+00
        -11   -1    0    0    0    0  0.00000000000E+00  0.00000000000E+00  0.45593999997E+02  0.45594000000E+02  0.51100000000E-03 0.  1.
         11   -1    0    0    0    0 -0.00000000000E+00 -0.00000000000E+00 -0.45593999997E+02  0.45594000000E+02  0.51100000000E-03 0. -1.
    9900012    2    1    2    0    0  0.56281466444E+01 -0.42032400977E+02  0.92316938669E+01  0.47787274911E+02  0.20000017631E+02 0.  0.
         12    1    1    2    0    0 -0.56281466444E+01  0.42032400977E+02 -0.92316938669E+01  0.43400725089E+02  0.00000000000E+00 0. -1.
         11    1    3    3    0    0  0.49851230518E+01 -0.13212633971E+02 -0.42751455164E+01  0.14754728657E+02  0.51100000000E-03 0. -1.
        -11    1    3    3    0    0 -0.12710794968E+01 -0.14446342063E+02  0.22500134751E+01  0.14675660224E+02  0.51100000000E-03 0.  1.
         12    1    3    3    0    0  0.19141030894E+01 -0.14373424943E+02  0.11256825908E+02  0.18356886031E+02  0.00000000000E+00 0. -1.
</event>
<event>
 7    1  0.5426550E-010  0.4778727E+02  0.7816164E-02  0.1312668E+00
        -11   -1    0    0    0    0  0.00000000000E+00  0.00000000000E+00  0.45593999997E+02  0.45594000000E+02  0.51100000000E-03 0.  1.
         11   -1    0    0    0    0 -0.00000000000E+00 -0.00000000000E+00 -0.45593999997E+02  0.45594000000E+02  0.51100000000E-03 0. -1.
    9900012    2    1    2    0    0  0.23325692205E+02 -0.36450503399E+02  0.33009179685E+01  0.47787272191E+02  0.20000005229E+02 0.  0.
         12    1    1    2    0    0 -0.23325692205E+02  0.36450503399E+02 -0.33009179685E+01  0.43400727809E+02  0.00000000000E+00 0. -1.
         11    1    3    3    0    0  0.33468782990E+01 -0.93205580854E+00 -0.36491321019E+00  0.34933485785E+01  0.51100000000E-03 0. -1.
        -11    1    3    3    0    0 -0.89355909935E+00  0.13490167583E+01 -0.57292415588E+00  0.17165478228E+01  0.51100000000E-03 0.  1.
        -12    1    3    3    0    0  0.20872373005E+02 -0.36867464349E+02  0.42387553346E+01  0.42577375790E+02  0.00000000000E+00 0.  1.
</event>
<event>
 7    1  0.5426550E-010  0.4778727E+02  0.7816164E-02  0.1312668E+00
        -11   -1    0    0    0    0  0.00000000000E+00  0.00000000000E+00  0.45593999997E+02  0.45594000000E+02  0.51100000000E-03 0.  1.
         11   -1    0    0    0    0 -0.00000000000E+00 -0.00000000000E+00 -0.45593999997E+02  0.45594000000E+02  0.51100000000E-03 0. -1.
    9900012    2    1    2    0    0  0.38644897095E+02 -0.14551779828E+02  0.13358183170E+02  0.47787269300E+02  0.19999992047E+02 0.  0.
         12    1    1    2    0    0 -0.38644897095E+02  0.14551779828E+02 -0.13358183170E+02  0.43400730700E+02  0.00000000000E+00 0. -1.
         11    1    3    3    0    0  0.18951465657E+02 -0.21678976670E+01  0.10633009293E+02  0.21838468759E+02  0.51100000000E-03 0. -1.
        -11    1    3    3    0    0  0.20286477815E+02 -0.10993909846E+02  0.28157920315E+00  0.23075669501E+02  0.51100000000E-03 0.  1.
        -12    1    3    3    0    0 -0.59304637628E+00 -0.13899723151E+01  0.24435946743E+01  0.28731310400E+01  0.00000000000E+00 0.  1.
</event>
<event>
 7    1  0.5426550E-010  0.4778727E+02  0.7816164E-02  0.1312668E+00
        -11   -1    0    0    0    0  0.00000000000E+00  0.00000000000E+00  0.45593999997E+02  0.45594000000E+02  0.51100000000E-03 0.  1.
         11   -1    0    0    0    0 -0.00000000000E+00 -0.00000000000E+00 -0.45593999997E+02  0.45594000000E+02  0.51100000000E-03 0. -1.
    9900012    2    1    2    0    0  0.14562548362E+01 -0.32101200658E+02  0.29172171591E+02  0.47787270085E+02  0.19999995627E+02 0.  0.
         12    1    1    2    0    0 -0.14562548362E+01  0.32101200658E+02 -0.29172171591E+02  0.43400729915E+02  0.00000000000E+00 0. -1.
         11    1    3    3    0    0  0.16049520546E+01 -0.24280817295E+01  0.29716460947E+01  0.41595832431E+01  0.51100000000E-03 0.  1.
        -11    1    3    3    0    0  0.63811896302E+01 -0.47622748266E+01  0.18257269859E+01  0.81689731245E+01  0.51100000000E-03 0. -1.
        -12    1    3    3    0    0 -0.65298868487E+01 -0.24910844101E+02  0.24374798510E+02  0.35458713718E+02  0.00000000000E+00 0.  1.
</event>
<event>
 7    1  0.5426550E-010  0.4778727E+02  0.7816164E-02  0.1312668E+00
        -11   -1    0    0    0    0  0.00000000000E+00  0.00000000000E+00  0.45593999997E+02  0.45594000000E+02  0.51100000000E-03 0.  1.
         11   -1    0    0    0    0 -0.00000000000E+00 -0.00000000000E+00 -0.45593999997E+02  0.45594000000E+02  0.51100000000E-03 0. -1.
    9900012    2    1    2    0    0  0.58322610471E+01 -0.20340324546E+02  0.37892997207E+02  0.47787270641E+02  0.19999998162E+02 0.  0.
         12    1    1    2    0    0 -0.58322610471E+01  0.20340324546E+02 -0.37892997207E+02  0.43400729359E+02  0.00000000000E+00 0. -1.
         11    1    3    3    0    0  0.25459656896E+01 -0.65954112254E+01  0.22779545053E+02  0.23851395422E+02  0.51100000000E-03 0. -1.
        -11    1    3    3    0    0  0.68423693923E+01 -0.10481133055E+02  0.66025489981E+01  0.14151530750E+02  0.51100000000E-03 0.  1.
        -12    1    3    3    0    0 -0.35560740348E+01 -0.32637802652E+01  0.85109031561E+01  0.97843444692E+01  0.00000000000E+00 0.  1.
</event>
<event>
 7    1  0.5426550E-010  0.4778728E+02  0.7816164E-02  0.1312668E+00
        -11   -1    0    0    0    0  0.00000000000E+00  0.00000000000E+00  0.45593999997E+02  0.45594000000E+02  0.51100000000E-03 0.  1.
         11   -1    0    0    0    0 -0.00000000000E+00 -0.00000000000E+00 -0.45593999997E+02  0.45594000000E+02  0.51100000000E-03 0. -1.
    9900012    2    1    2    0    0  0.16154186860E+02 -0.28474978083E+02  0.28492819540E+02  0.47787275406E+02  0.20000019888E+02 0.  0.
         12    1    1    2    0    0 -0.16154186860E+02  0.28474978083E+02 -0.28492819540E+02  0.43400724594E+02  0.00000000000E+00 0. -1.
         11    1    3    3    0    0  0.55861384201E+01 -0.21968603951E+02  0.11910352633E+02  0.25606268805E+02  0.51100000000E-03 0. -1.
        -11    1    3    3    0    0  0.12673764622E+01  0.18387789520E+01  0.26645736830E+01  0.34766800693E+01  0.51100000000E-03 0.  1.
         12    1    3    3    0    0  0.93006719776E+01 -0.83451530840E+01  0.13917893224E+02  0.18704326532E+02  0.00000000000E+00 0. -1.
</event>
<event>
 7    1  0.5426550E-010  0.4778727E+02  0.7816164E-02  0.1312668E+00
        -11   -1    0    0    0    0  0.00000000000E+00  0.00000000000E+00  0.45593999997E+02  0.45594000000E+02  0.51100000000E-03 0.  1.
         11   -1    0    0    0    0 -0.00000000000E+00 -0.00000000000E+00 -0.45593999997E+02  0.45594000000E+02  0.51100000000E-03 0. -1.
    9900012    2    1    2    0    0 -0.34070507365E+02  0.26032694793E+01  0.26759052255E+02  0.47787270033E+02  0.19999995390E+02 0.  0.
         12    1    1    2    0    0  0.34070507365E+02 -0.26032694793E+01 -0.26759052255E+02  0.43400729967E+02  0.00000000000E+00 0. -1.
         11    1    3    3    0    0 -0.42467453649E+01  0.19821333021E+01  0.84788404571E+01  0.96878498326E+01  0.51100000000E-03 0. -1.
        -11    1    3    3    0    0 -0.19540477773E+02  0.11355121430E+01  0.31906125837E+01  0.19831784296E+02  0.51100000000E-03 0.  1.
        -12    1    3    3    0    0 -0.10283284227E+02 -0.51437596579E+00  0.15089599214E+02  0.18267635905E+02  0.00000000000E+00 0.  1.
</event>
<event>
 7    1  0.5426550E-010  0.4778727E+02  0.7816164E-02  0.1312668E+00
        -11   -1    0    0    0    0  0.00000000000E+00  0.00000000000E+00  0.45593999997E+02  0.45594000000E+02  0.51100000000E-03 0. -1.
         11   -1    0    0    0    0 -0.00000000000E+00 -0.00000000000E+00 -0.45593999997E+02  0.45594000000E+02  0.51100000000E-03 0.  1.
    9900012    2    1    2    0    0  0.20902192284E+02  0.25569703063E+02 -0.28158692641E+02  0.47787270417E+02  0.19999997141E+02 0.  0.
         12    1    1    2    0    0 -0.20902192284E+02 -0.25569703063E+02  0.28158692641E+02  0.43400729583E+02  0.00000000000E+00 0. -1.
         11    1    3    3    0    0  0.73303813854E+01  0.13567817152E+02 -0.23301912044E+01  0.15596472192E+02  0.51100000000E-03 0. -1.
        -11    1    3    3    0    0  0.51847678192E+01  0.10051404380E+01 -0.86784186025E+01  0.10159088263E+02  0.51100000000E-03 0.  1.
         12    1    3    3    0    0  0.83870430796E+01  0.10996745474E+02 -0.17150082835E+02  0.22031709962E+02  0.00000000000E+00 0. -1.
</event>
<event>
 7    1  0.5426550E-010  0.4778727E+02  0.7816164E-02  0.1312668E+00
        -11   -1    0    0    0    0  0.00000000000E+00  0.00000000000E+00  0.45593999997E+02  0.45594000000E+02  0.51100000000E-03 0.  1.
         11   -1    0    0    0    0 -0.00000000000E+00 -0.00000000000E+00 -0.45593999997E+02  0.45594000000E+02  0.51100000000E-03 0. -1.
    9900012    2    1    2    0    0  0.40624469038E+02 -0.11238588752E+02  0.10342625780E+02  0.47787271092E+02  0.20000000215E+02 0.  0.
         12    1    1    2    0    0 -0.40624469038E+02  0.11238588752E+02 -0.10342625780E+02  0.43400728908E+02  0.00000000000E+00 0. -1.
         11    1    3    3    0    0  0.35330097709E+01  0.19479377338E+00 -0.79692867055E+00  0.36270095427E+01  0.51100000000E-03 0. -1.
        -11    1    3    3    0    0  0.99620146416E+01 -0.11692930714E+02  0.17964902046E+01  0.15465889619E+02  0.51100000000E-03 0.  1.
        -12    1    3    3    0    0  0.27129444625E+02  0.25954818817E+00  0.93430642457E+01  0.28694371930E+02  0.00000000000E+00 0.  1.
</event>
<event>
 7    1  0.5426550E-010  0.4778728E+02  0.7816164E-02  0.1312668E+00
        -11   -1    0    0    0    0  0.00000000000E+00  0.00000000000E+00  0.45593999997E+02  0.45594000000E+02  0.51100000000E-03 0. -1.
         11   -1    0    0    0    0 -0.00000000000E+00 -0.00000000000E+00 -0.45593999997E+02  0.45594000000E+02  0.51100000000E-03 0.  1.
    9900012    2    1    2    0    0  0.31203041854E+02  0.53120081560E+00 -0.30161407840E+02  0.47787279751E+02  0.20000039697E+02 0.  0.
         12    1    1    2    0    0 -0.31203041854E+02 -0.53120081560E+00  0.30161407840E+02  0.43400720249E+02  0.00000000000E+00 0. -1.
         11    1    3    3    0    0  0.54422574594E+01  0.48022171274E+00  0.20100681343E+01  0.58214391102E+01  0.51100000000E-03 0. -1.
        -11    1    3    3    0    0  0.10953285097E+02  0.78991203103E+00 -0.79134136107E+01  0.13535897852E+02  0.51100000000E-03 0.  1.
         12    1    3    3    0    0  0.14807499298E+02 -0.73893292817E+00 -0.24258062364E+02  0.28429942789E+02  0.00000000000E+00 0. -1.
</event>
<event>
 7    1  0.5426550E-010  0.4778727E+02  0.7816164E-02  0.1312668E+00
        -11   -1    0    0    0    0  0.00000000000E+00  0.00000000000E+00  0.45593999997E+02  0.45594000000E+02  0.51100000000E-03 0.  1.
         11   -1    0    0    0    0 -0.00000000000E+00 -0.00000000000E+00 -0.45593999997E+02  0.45594000000E+02  0.51100000000E-03 0. -1.
    9900012    2    1    2    0    0  0.66738416049E+01  0.47061167589E+01  0.42625531433E+02  0.47787266980E+02  0.19999981470E+02 0.  0.
         12    1    1    2    0    0 -0.66738416049E+01 -0.47061167589E+01 -0.42625531433E+02  0.43400733020E+02  0.00000000000E+00 0. -1.
         11    1    3    3    0    0 -0.31825611192E+01  0.35456133928E-03  0.17701312532E+02  0.17985137225E+02  0.51100000000E-03 0. -1.
        -11    1    3    3    0    0  0.97842725837E+01 -0.97048166287E+00  0.20004562583E+02  0.22290274764E+02  0.51100000000E-03 0.  1.
        -12    1    3    3    0    0  0.72130140299E-01  0.56762438604E+01  0.49196563184E+01  0.75118549913E+01  0.00000000000E+00 0.  1.
</event>
<event>
 7    1  0.5426550E-010  0.4778731E+02  0.7816164E-02  0.1312668E+00
        -11   -1    0    0    0    0  0.00000000000E+00  0.00000000000E+00  0.45593999997E+02  0.45594000000E+02  0.51100000000E-03 0.  1.
         11   -1    0    0    0    0 -0.00000000000E+00 -0.00000000000E+00 -0.45593999997E+02  0.45594000000E+02  0.51100000000E-03 0. -1.
    9900012    2    1    2    0    0 -0.78805945090E+01 -0.60408288055E+01  0.42249552395E+02  0.47787308070E+02  0.20000168812E+02 0.  0.
         12    1    1    2    0    0  0.78805945090E+01  0.60408288055E+01 -0.42249552395E+02  0.43400691930E+02  0.00000000000E+00 0. -1.
         11    1    3    3    0    0 -0.31039603437E+01  0.52132753768E+01  0.40504945697E+01  0.72951570573E+01  0.51100000000E-03 0. -1.
        -11    1    3    3    0    0 -0.21416718303E+01 -0.70340392273E+00  0.38351247091E+01  0.44485634875E+01  0.51100000000E-03 0.  1.
         12    1    3    3    0    0 -0.26349623350E+01 -0.10550700260E+02  0.34363933116E+02  0.36043587525E+02  0.00000000000E+00 0. -1.
</event>
<event>
 7    1  0.5426550E-010  0.4778727E+02  0.7816164E-02  0.1312668E+00
        -11   -1    0    0    0    0  0.00000000000E+00  0.00000000000E+00  0.45593999997E+02  0.45594000000E+02  0.51100000000E-03 0.  1.
         11   -1    0    0    0    0 -0.00000000000E+00 -0.00000000000E+00 -0.45593999997E+02  0.45594000000E+02  0.51100000000E-03 0. -1.
    9900012    2    1    2    0    0 -0.27448300726E+02  0.19085739601E+02  0.27675783463E+02  0.47787266606E+02  0.19999979764E+02 0.  0.
         12    1    1    2    0    0  0.27448300726E+02 -0.19085739601E+02 -0.27675783463E+02  0.43400733394E+02  0.00000000000E+00 0. -1.
         11    1    3    3    0    0 -0.14918913696E+02  0.23162170742E+01  0.95763435208E+01  0.17878624189E+02  0.51100000000E-03 0. -1.
        -11    1    3    3    0    0 -0.12852888378E+02  0.13961160692E+02  0.19086080752E+02  0.26914479862E+02  0.51100000000E-03 0.  1.
         12    1    3    3    0    0  0.32350134840E+00  0.28083618350E+01 -0.98664080981E+00  0.29941625551E+01  0.00000000000E+00 0. -1.
</event>
<event>
 7    1  0.5426550E-010  0.4778727E+02  0.7816164E-02  0.1312668E+00
        -11   -1    0    0    0    0  0.00000000000E+00  0.00000000000E+00  0.45593999997E+02  0.45594000000E+02  0.51100000000E-03 0. -1.
         11   -1    0    0    0    0 -0.00000000000E+00 -0.00000000000E+00 -0.45593999997E+02  0.45594000000E+02  0.51100000000E-03 0.  1.
    9900012    2    1    2    0    0 -0.14820667696E+02 -0.17839444562E+02 -0.36684135413E+02  0.47787265395E+02  0.19999974241E+02 0.  0.
         12    1    1    2    0    0  0.14820667696E+02  0.17839444562E+02  0.36684135413E+02  0.43400734605E+02  0.00000000000E+00 0. -1.
         11    1    3    3    0    0 -0.83361691645E+01 -0.25596738973E+01 -0.26208567892E+01  0.91056321785E+01  0.51100000000E-03 0. -1.
        -11    1    3    3    0    0 -0.64279580033E+01 -0.80627561661E+01 -0.25353579285E+02  0.27370251441E+02  0.51100000000E-03 0.  1.
         12    1    3    3    0    0 -0.56540528638E-01 -0.72170144984E+01 -0.87096993387E+01  0.11311381776E+02  0.00000000000E+00 0. -1.
</event>
<event>
 7    1  0.5426550E-010  0.4778727E+02  0.7816164E-02  0.1312668E+00
        -11   -1    0    0    0    0  0.00000000000E+00  0.00000000000E+00  0.45593999997E+02  0.45594000000E+02  0.51100000000E-03 0.  1.
         11   -1    0    0    0    0 -0.00000000000E+00 -0.00000000000E+00 -0.45593999997E+02  0.45594000000E+02  0.51100000000E-03 0. -1.
    9900012    2    1    2    0    0  0.41741369578E+02 -0.37908767295E+01  0.11265465097E+02  0.47787269770E+02  0.19999994189E+02 0.  0.
         12    1    1    2    0    0 -0.41741369578E+02  0.37908767295E+01 -0.11265465097E+02  0.43400730230E+02  0.00000000000E+00 0. -1.
         11    1    3    3    0    0 -0.43390568155E+00 -0.81010600177E+00 -0.47979805144E+00  0.10367026121E+01  0.51100000000E-03 0. -1.
        -11    1    3    3    0    0  0.20933221368E+02 -0.48792521172E+01  0.13450266354E+02  0.25355798614E+02  0.51100000000E-03 0.  1.
        -12    1    3    3    0    0  0.21242053892E+02  0.18984813895E+01 -0.17050032061E+01  0.21394768544E+02  0.00000000000E+00 0.  1.
</event>
<event>
 7    1  0.5426550E-010  0.4778728E+02  0.7816164E-02  0.1312668E+00
        -11   -1    0    0    0    0  0.00000000000E+00  0.00000000000E+00  0.45593999997E+02  0.45594000000E+02  0.51100000000E-03 0.  1.
         11   -1    0    0    0    0 -0.00000000000E+00 -0.00000000000E+00 -0.45593999997E+02  0.45594000000E+02  0.51100000000E-03 0. -1.
    9900012    2    1    2    0    0  0.22500064639E+02  0.10947897866E+02  0.35461433406E+02  0.47787278397E+02  0.20000033524E+02 0.  0.
         12    1    1    2    0    0 -0.22500064639E+02 -0.10947897866E+02 -0.35461433406E+02  0.43400721603E+02  0.00000000000E+00 0. -1.
         11    1    3    3    0    0  0.20032370524E+00  0.51931680659E+01  0.18078202021E+02  0.18810383109E+02  0.51100000000E-03 0. -1.
        -11    1    3    3    0    0  0.18925770591E+01  0.82319720698E+00  0.25010413131E+01  0.32426392765E+01  0.51100000000E-03 0.  1.
         12    1    3    3    0    0  0.20407163875E+02  0.49315325927E+01  0.14882190072E+02  0.25734256011E+02  0.00000000000E+00 0. -1.
</event>
<event>
 7    1  0.5426550E-010  0.4778727E+02  0.7816164E-02  0.1312668E+00
        -11   -1    0    0    0    0  0.00000000000E+00  0.00000000000E+00  0.45593999997E+02  0.45594000000E+02  0.51100000000E-03 0.  1.
         11   -1    0    0    0    0 -0.00000000000E+00 -0.00000000000E+00 -0.45593999997E+02  0.45594000000E+02  0.51100000000E-03 0. -1.
    9900012    2    1    2    0    0  0.56787141153E+00 -0.21506479988E+02  0.37693129254E+02  0.47787272445E+02  0.20000006384E+02 0.  0.
         12    1    1    2    0    0 -0.56787141153E+00  0.21506479988E+02 -0.37693129254E+02  0.43400727555E+02  0.00000000000E+00 0. -1.
         11    1    3    3    0    0  0.29054588216E+01 -0.10182786051E+02  0.10972139398E+02  0.15248562751E+02  0.51100000000E-03 0. -1.
        -11    1    3    3    0    0 -0.34917399861E+01  0.23979988237E+01  0.10115097440E+02  0.10966213703E+02  0.51100000000E-03 0.  1.
        -12    1    3    3    0    0  0.11541525760E+01 -0.13721692760E+02  0.16605892416E+02  0.21572495991E+02  0.00000000000E+00 0.  1.
</event>
<event>
 7    1  0.5426550E-010  0.4778727E+02  0.7816164E-02  0.1312668E+00
        -11   -1    0    0    0    0  0.00000000000E+00  0.00000000000E+00  0.45593999997E+02  0.45594000000E+02  0.51100000000E-03 0.  1.
         11   -1    0    0    0    0 -0.00000000000E+00 -0.00000000000E+00 -0.45593999997E+02  0.45594000000E+02  0.51100000000E-03 0. -1.
    9900012    2    1    2    0    0 -0.97744836775E+00  0.30273049600E+02  0.31083923002E+02  0.47787271820E+02  0.20000003536E+02 0.  0.
         12    1    1    2    0    0  0.97744836775E+00 -0.30273049600E+02 -0.31083923002E+02  0.43400728180E+02  0.00000000000E+00 0. -1.
         11    1    3    3    0    0 -0.70095503104E+01  0.70076957458E+01  0.15618047271E+02  0.18497702453E+02  0.51100000000E-03 0. -1.
        -11    1    3    3    0    0  0.21141999330E+01  0.16814234545E+02  0.12968776300E+02  0.21339575527E+02  0.51100000000E-03 0.  1.
         12    1    3    3    0    0  0.39179020097E+01  0.64511193086E+01  0.24970994314E+01  0.79499938403E+01  0.00000000000E+00 0. -1.
</event>
<event>
 7    1  0.5426550E-010  0.4778727E+02  0.7816164E-02  0.1312668E+00
        -11   -1    0    0    0    0  0.00000000000E+00  0.00000000000E+00  0.45593999997E+02  0.45594000000E+02  0.51100000000E-03 0.  1.
         11   -1    0    0    0    0 -0.00000000000E+00 -0.00000000000E+00 -0.45593999997E+02  0.45594000000E+02  0.51100000000E-03 0. -1.
    9900012    2    1    2    0    0  0.29639769156E+02 -0.13447300651E+02  0.28710241728E+02  0.47787265093E+02  0.19999972864E+02 0.  0.
         12    1    1    2    0    0 -0.29639769156E+02  0.13447300651E+02 -0.28710241728E+02  0.43400734907E+02  0.00000000000E+00 0. -1.
         11    1    3    3    0    0  0.96114714917E+00 -0.13662560903E+01 -0.26600865533E+01  0.31411017619E+01  0.51100000000E-03 0. -1.
        -11    1    3    3    0    0  0.78799869448E+01 -0.48648871945E+00  0.90330615228E+01  0.11996960709E+02  0.51100000000E-03 0.  1.
         12    1    3    3    0    0  0.20798635062E+02 -0.11594555841E+02  0.22337266759E+02  0.32649202622E+02  0.00000000000E+00 0. -1.
</event>
<event>
 7    1  0.5426550E-010  0.4778727E+02  0.7816164E-02  0.1312668E+00
        -11   -1    0    0    0    0  0.00000000000E+00  0.00000000000E+00  0.45593999997E+02  0.45594000000E+02  0.51100000000E-03 0.  1.
         11   -1    0    0    0    0 -0.00000000000E+00 -0.00000000000E+00 -0.45593999997E+02  0.45594000000E+02  0.51100000000E-03 0. -1.
    9900012    2    1    2    0    0  0.34658896506E+02  0.25161687084E+02  0.70195218359E+01  0.47787270850E+02  0.19999999113E+02 0.  0.
         12    1    1    2    0    0 -0.34658896506E+02 -0.25161687084E+02 -0.70195218359E+01  0.43400729150E+02  0.00000000000E+00 0. -1.
         11    1    3    3    0    0  0.18265041972E+02  0.49816042025E+01  0.25344085610E+01  0.19101082841E+02  0.51100000000E-03 0. -1.
        -11    1    3    3    0    0  0.47204710020E+00  0.61311685802E+01  0.42066895965E+01  0.74505230854E+01  0.51100000000E-03 0.  1.
        -12    1    3    3    0    0  0.15921807434E+02  0.14048914301E+02  0.27842367849E+00  0.21235664924E+02  0.00000000000E+00 0.  1.
</event>
<event>
 7    1  0.5426550E-010  0.4778727E+02  0.7816164E-02  0.1312668E+00
        -11   -1    0    0    0    0  0.00000000000E+00  0.00000000000E+00  0.45593999997E+02  0.45594000000E+02  0.51100000000E-03 0.  1.
         11   -1    0    0    0    0 -0.00000000000E+00 -0.00000000000E+00 -0.45593999997E+02  0.45594000000E+02  0.51100000000E-03 0. -1.
    9900012    2    1    2    0    0  0.22161567214E+02 -0.34406789087E+01  0.37157096443E+02  0.47787272485E+02  0.20000006570E+02 0.  0.
         12    1    1    2    0    0 -0.22161567214E+02  0.34406789087E+01 -0.37157096443E+02  0.43400727515E+02  0.00000000000E+00 0. -1.
         11    1    3    3    0    0 -0.62326549319E+00  0.18908794684E+01  0.66619593480E+01  0.69530991403E+01  0.51100000000E-03 0. -1.
        -11    1    3    3    0    0  0.66792824483E+01  0.46596267428E+01  0.10432256274E+02  0.13234685740E+02  0.51100000000E-03 0.  1.
        -12    1    3    3    0    0  0.16105550259E+02 -0.99911851199E+01  0.20062880821E+02  0.27599487606E+02  0.00000000000E+00 0.  1.
</event>
<event>
 7    1  0.5426550E-010  0.4778727E+02  0.7816164E-02  0.1312668E+00
        -11   -1    0    0    0    0  0.00000000000E+00  0.00000000000E+00  0.45593999997E+02  0.45594000000E+02  0.51100000000E-03 0. -1.
         11   -1    0    0    0    0 -0.00000000000E+00 -0.00000000000E+00 -0.45593999997E+02  0.45594000000E+02  0.51100000000E-03 0.  1.
    9900012    2    1    2    0    0 -0.17084687808E+02 -0.37741995583E+01 -0.39717654030E+02  0.47787272110E+02  0.20000004857E+02 0.  0.
         12    1    1    2    0    0  0.17084687808E+02  0.37741995583E+01  0.39717654030E+02  0.43400727890E+02  0.00000000000E+00 0. -1.
         11    1    3    3    0    0 -0.22143181507E+01  0.18182936104E+01 -0.56313229512E+01  0.63183221640E+01  0.51100000000E-03 0. -1.
        -11    1    3    3    0    0 -0.17342230903E+02  0.16096441346E+00 -0.25636678739E+02  0.30951868752E+02  0.51100000000E-03 0.  1.
        -12    1    3    3    0    0  0.24718612459E+01 -0.57534575822E+01 -0.84496523394E+01  0.10517081193E+02  0.00000000000E+00 0.  1.
</event>
<event>
 7    1  0.5426550E-010  0.4778727E+02  0.7816164E-02  0.1312668E+00
        -11   -1    0    0    0    0  0.00000000000E+00  0.00000000000E+00  0.45593999997E+02  0.45594000000E+02  0.51100000000E-03 0.  1.
         11   -1    0    0    0    0 -0.00000000000E+00 -0.00000000000E+00 -0.45593999997E+02  0.45594000000E+02  0.51100000000E-03 0. -1.
    9900012    2    1    2    0    0  0.27602525499E+02  0.31517400003E+02  0.11330365149E+02  0.47787273148E+02  0.20000009590E+02 0.  0.
         12    1    1    2    0    0 -0.27602525499E+02 -0.31517400003E+02 -0.11330365149E+02  0.43400726852E+02  0.00000000000E+00 0. -1.
         11    1    3    3    0    0  0.26141792304E+01  0.23527384302E+01 -0.40639088153E+01  0.53744456728E+01  0.51100000000E-03 0. -1.
        -11    1    3    3    0    0  0.71097504811E+01  0.13212442297E+02  0.94289411792E+01  0.17720669157E+02  0.51100000000E-03 0.  1.
         12    1    3    3    0    0  0.17878595787E+02  0.15952219276E+02  0.59653327856E+01  0.24692158318E+02  0.00000000000E+00 0. -1.
</event>
<event>
 7    1  0.5426550E-010  0.4778726E+02  0.7816164E-02  0.1312668E+00
        -11   -1    0    0    0    0  0.00000000000E+00  0.00000000000E+00  0.45593999997E+02  0.45594000000E+02  0.51100000000E-03 0.  1.
         11   -1    0    0    0    0 -0.00000000000E+00 -0.00000000000E+00 -0.45593999997E+02  0.45594000000E+02  0.51100000000E-03 0. -1.
    9900012    2    1    2    0    0 -0.10042667348E+02  0.12684402085E+02  0.40272505938E+02  0.47787263160E+02  0.19999964051E+02 0.  0.
         12    1    1    2    0    0  0.10042667348E+02 -0.12684402085E+02 -0.40272505938E+02  0.43400736840E+02  0.00000000000E+00 0. -1.
         11    1    3    3    0    0 -0.19873230589E+01  0.26946709537E+01 -0.11202952439E+01  0.35306891939E+01  0.51100000000E-03 0. -1.
        -11    1    3    3    0    0 -0.40344409723E+01  0.71688219178E+00  0.48875344427E+01  0.63779798703E+01  0.51100000000E-03 0.  1.
         12    1    3    3    0    0 -0.40209033163E+01  0.92728489400E+01  0.36505266739E+02  0.37878594096E+02  0.00000000000E+00 0. -1.
</event>
<event>
 7    1  0.5426550E-010  0.4778727E+02  0.7816164E-02  0.1312668E+00
        -11   -1    0    0    0    0  0.00000000000E+00  0.00000000000E+00  0.45593999997E+02  0.45594000000E+02  0.51100000000E-03 0.  1.
         11   -1    0    0    0    0 -0.00000000000E+00 -0.00000000000E+00 -0.45593999997E+02  0.45594000000E+02  0.51100000000E-03 0. -1.
    9900012    2    1    2    0    0  0.19985789367E+01 -0.26161743370E+02  0.34571553382E+02  0.47787269163E+02  0.19999991424E+02 0.  0.
         12    1    1    2    0    0 -0.19985789367E+01  0.26161743370E+02 -0.34571553382E+02  0.43400730837E+02  0.00000000000E+00 0. -1.
         11    1    3    3    0    0  0.36655793203E+01 -0.19885588152E+01 -0.70497684287E+00  0.42294007289E+01  0.51100000000E-03 0. -1.
        -11    1    3    3    0    0  0.65287251080E+00 -0.17539691030E+02  0.19206121053E+02  0.26018110810E+02  0.51100000000E-03 0.  1.
         12    1    3    3    0    0 -0.23198728945E+01 -0.66334935246E+01  0.16070409172E+02  0.17539757625E+02  0.00000000000E+00 0. -1.
</event>
<event>
 7    1  0.5426550E-010  0.4778727E+02  0.7816164E-02  0.1312668E+00
        -11   -1    0    0    0    0  0.00000000000E+00  0.00000000000E+00  0.45593999997E+02  0.45594000000E+02  0.51100000000E-03 0.  1.
         11   -1    0    0    0    0 -0.00000000000E+00 -0.00000000000E+00 -0.45593999997E+02  0.45594000000E+02  0.51100000000E-03 0. -1.
    9900012    2    1    2    0    0 -0.10148121122E+02 -0.12345744054E+02  0.40351226993E+02  0.47787270992E+02  0.19999999761E+02 0.  0.
         12    1    1    2    0    0  0.10148121122E+02  0.12345744054E+02 -0.40351226993E+02  0.43400729008E+02  0.00000000000E+00 0. -1.
         11    1    3    3    0    0 -0.29304822552E+00 -0.40885081331E+01  0.45941272968E+01  0.61569295836E+01  0.51100000000E-03 0. -1.
        -11    1    3    3    0    0 -0.12228948155E+02 -0.95995150067E+01  0.18526671888E+02  0.24185438446E+02  0.51100000000E-03 0.  1.
        -12    1    3    3    0    0  0.23738752582E+01  0.13422790856E+01  0.17230427809E+02  0.17444902962E+02  0.00000000000E+00 0.  1.
</event>
<event>
 7    1  0.5426550E-010  0.4778727E+02  0.7816164E-02  0.1312668E+00
        -11   -1    0    0    0    0  0.00000000000E+00  0.00000000000E+00  0.45593999997E+02  0.45594000000E+02  0.51100000000E-03 0. -1.
         11   -1    0    0    0    0 -0.00000000000E+00 -0.00000000000E+00 -0.45593999997E+02  0.45594000000E+02  0.51100000000E-03 0.  1.
    9900012    2    1    2    0    0  0.22407041959E+02 -0.21043697629E+02 -0.30638382395E+02  0.47787271722E+02  0.20000003089E+02 0.  0.
         12    1    1    2    0    0 -0.22407041959E+02  0.21043697629E+02  0.30638382395E+02  0.43400728278E+02  0.00000000000E+00 0. -1.
         11    1    3    3    0    0  0.16823348623E+02 -0.15991559399E+02 -0.12828389480E+02  0.26520230162E+02  0.51100000000E-03 0.  1.
        -11    1    3    3    0    0  0.69382402108E+01 -0.59047062162E+01 -0.17358368046E+02  0.19604021888E+02  0.51100000000E-03 0. -1.
        -12    1    3    3    0    0 -0.13545468746E+01  0.85256798679E+00 -0.45162486982E+00  0.16630196723E+01  0.00000000000E+00 0.  1.
</event>
<event>
 7    1  0.5426550E-010  0.4778727E+02  0.7816164E-02  0.1312668E+00
        -11   -1    0    0    0    0  0.00000000000E+00  0.00000000000E+00  0.45593999997E+02  0.45594000000E+02  0.51100000000E-03 0.  1.
         11   -1    0    0    0    0 -0.00000000000E+00 -0.00000000000E+00 -0.45593999997E+02  0.45594000000E+02  0.51100000000E-03 0. -1.
    9900012    2    1    2    0    0  0.13932305098E+02  0.34175700507E+02  0.22837158667E+02  0.47787269056E+02  0.19999990932E+02 0.  0.
         12    1    1    2    0    0 -0.13932305098E+02 -0.34175700507E+02 -0.22837158667E+02  0.43400730944E+02  0.00000000000E+00 0. -1.
         11    1    3    3    0    0 -0.50654608371E+00 -0.59245649077E+00  0.44857736291E+01  0.45529945026E+01  0.51100000000E-03 0. -1.
        -11    1    3    3    0    0  0.10545502253E+02  0.22952678561E+02  0.17570483889E+02  0.30769383732E+02  0.51100000000E-03 0.  1.
        -12    1    3    3    0    0  0.38933489289E+01  0.11815478437E+02  0.78090114922E+00  0.12464890821E+02  0.00000000000E+00 0.  1.
</event>
<event>
 7    1  0.5426550E-010  0.4778727E+02  0.7816164E-02  0.1312668E+00
        -11   -1    0    0    0    0  0.00000000000E+00  0.00000000000E+00  0.45593999997E+02  0.45594000000E+02  0.51100000000E-03 0. -1.
         11   -1    0    0    0    0 -0.00000000000E+00 -0.00000000000E+00 -0.45593999997E+02  0.45594000000E+02  0.51100000000E-03 0.  1.
    9900012    2    1    2    0    0 -0.17305204713E+02  0.30679134524E+02 -0.25356337840E+02  0.47787271044E+02  0.19999999996E+02 0.  0.
         12    1    1    2    0    0  0.17305204713E+02 -0.30679134524E+02  0.25356337840E+02  0.43400728956E+02  0.00000000000E+00 0. -1.
         11    1    3    3    0    0 -0.78457611451E+00  0.31473497140E+01  0.22268338930E+01  0.39344833651E+01  0.51100000000E-03 0. -1.
        -11    1    3    3    0    0 -0.14391798969E+02  0.26513102508E+02 -0.28323063483E+02  0.41379516763E+02  0.51100000000E-03 0.  1.
        -12    1    3    3    0    0 -0.21288296293E+01  0.10186823011E+01  0.73989174968E+00  0.24732709157E+01  0.00000000000E+00 0.  1.
</event>
<event>
 7    1  0.5426550E-010  0.4778728E+02  0.7816164E-02  0.1312668E+00
        -11   -1    0    0    0    0  0.00000000000E+00  0.00000000000E+00  0.45593999997E+02  0.45594000000E+02  0.51100000000E-03 0. -1.
         11   -1    0    0    0    0 -0.00000000000E+00 -0.00000000000E+00 -0.45593999997E+02  0.45594000000E+02  0.51100000000E-03 0.  1.
    9900012    2    1    2    0    0 -0.18271255171E+02  0.15580068114E+02 -0.36153074420E+02  0.47787284822E+02  0.20000062817E+02 0.  0.
         12    1    1    2    0    0  0.18271255171E+02 -0.15580068114E+02  0.36153074420E+02  0.43400715178E+02  0.00000000000E+00 0. -1.
         11    1    3    3    0    0  0.22587339619E+01  0.97901473518E+00  0.78859519824E-02  0.24617902859E+01  0.51100000000E-03 0. -1.
        -11    1    3    3    0    0 -0.19617171145E+02  0.12100545657E+02 -0.35884592665E+02  0.42649274319E+02  0.51100000000E-03 0.  1.
        -12    1    3    3    0    0 -0.91281798803E+00  0.25005077210E+01 -0.27636770723E+00  0.26762202173E+01  0.00000000000E+00 0.  1.
</event>
<event>
 7    1  0.5426550E-010  0.4778727E+02  0.7816164E-02  0.1312668E+00
        -11   -1    0    0    0    0  0.00000000000E+00  0.00000000000E+00  0.45593999997E+02  0.45594000000E+02  0.51100000000E-03 0. -1.
         11   -1    0    0    0    0 -0.00000000000E+00 -0.00000000000E+00 -0.45593999997E+02  0.45594000000E+02  0.51100000000E-03 0.  1.
    9900012    2    1    2    0    0 -0.35142087459E+02  0.20700498872E+02  0.14837326407E+02  0.47787271672E+02  0.20000002859E+02 0.  0.
         12    1    1    2    0    0  0.35142087459E+02 -0.20700498872E+02 -0.14837326407E+02  0.43400728328E+02  0.00000000000E+00 0. -1.
         11    1    3    3    0    0 -0.68554356034E+01  0.43187386197E+01 -0.29106435389E+01  0.86093174323E+01  0.51100000000E-03 0.  1.
        -11    1    3    3    0    0 -0.24102779234E+02  0.11359293765E+02  0.18727244770E+02  0.32568193358E+02  0.51100000000E-03 0. -1.
        -12    1    3    3    0    0 -0.41838726212E+01  0.50224664874E+01 -0.97927482423E+00  0.66097608814E+01  0.00000000000E+00 0.  1.
</event>
<event>
 7    1  0.5426550E-010  0.4778728E+02  0.7816164E-02  0.1312668E+00
        -11   -1    0    0    0    0  0.00000000000E+00  0.00000000000E+00  0.45593999997E+02  0.45594000000E+02  0.51100000000E-03 0. -1.
         11   -1    0    0    0    0 -0.00000000000E+00 -0.00000000000E+00 -0.45593999997E+02  0.45594000000E+02  0.51100000000E-03 0.  1.
    9900012    2    1    2    0    0 -0.76789601680E+01 -0.35042851011E+02 -0.24426514936E+02  0.47787280326E+02  0.20000042319E+02 0.  0.
         12    1    1    2    0    0  0.76789601680E+01  0.35042851011E+02  0.24426514936E+02  0.43400719674E+02  0.00000000000E+00 0. -1.
         11    1    3    3    0    0 -0.37573672075E+01 -0.42424184493E+01 -0.24414087739E+01  0.61706077248E+01  0.51100000000E-03 0. -1.
        -11    1    3    3    0    0 -0.42015089788E+01  0.30253179720E+00 -0.21891222323E+01  0.47472581135E+01  0.51100000000E-03 0.  1.
        -12    1    3    3    0    0  0.27991601839E+00 -0.31102964359E+02 -0.19795983930E+02  0.36869414488E+02  0.00000000000E+00 0.  1.
</event>
<event>
 7    1  0.5426550E-010  0.4778728E+02  0.7816164E-02  0.1312668E+00
        -11   -1    0    0    0    0  0.00000000000E+00  0.00000000000E+00  0.45593999997E+02  0.45594000000E+02  0.51100000000E-03 0.  1.
         11   -1    0    0    0    0 -0.00000000000E+00 -0.00000000000E+00 -0.45593999997E+02  0.45594000000E+02  0.51100000000E-03 0. -1.
    9900012    2    1    2    0    0 -0.16452373173E+02 -0.19570342833E+02  0.35070556662E+02  0.47787275971E+02  0.20000022463E+02 0.  0.
         12    1    1    2    0    0  0.16452373173E+02  0.19570342833E+02 -0.35070556662E+02  0.43400724029E+02  0.00000000000E+00 0. -1.
         11    1    3    3    0    0 -0.11474154148E+01 -0.73912285626E+01  0.10865254261E+01  0.75582643220E+01  0.51100000000E-03 0. -1.
        -11    1    3    3    0    0 -0.11241851970E+02 -0.10471618019E+02  0.31785650279E+02  0.35303846583E+02  0.51100000000E-03 0.  1.
        -12    1    3    3    0    0 -0.40631057880E+01 -0.17074962518E+01  0.21983809573E+01  0.49251650661E+01  0.00000000000E+00 0.  1.
</event>
<event>
 7    1  0.5426550E-010  0.4778727E+02  0.7816164E-02  0.1312668E+00
        -11   -1    0    0    0    0  0.00000000000E+00  0.00000000000E+00  0.45593999997E+02  0.45594000000E+02  0.51100000000E-03 0.  1.
         11   -1    0    0    0    0 -0.00000000000E+00 -0.00000000000E+00 -0.45593999997E+02  0.45594000000E+02  0.51100000000E-03 0. -1.
    9900012    2    1    2    0    0  0.88226838758E+01 -0.31237359862E+02  0.28809909298E+02  0.47787271024E+02  0.19999999906E+02 0.  0.
         12    1    1    2    0    0 -0.88226838758E+01  0.31237359862E+02 -0.28809909298E+02  0.43400728976E+02  0.00000000000E+00 0. -1.
         11    1    3    3    0    0  0.48696435746E+01 -0.22755573494E+02  0.76411101594E+01  0.24493185140E+02  0.51100000000E-03 0. -1.
        -11    1    3    3    0    0  0.97157804027E+00 -0.49538815712E+01  0.12270089644E+02  0.13268006883E+02  0.51100000000E-03 0.  1.
         12    1    3    3    0    0  0.29814622610E+01 -0.35279047970E+01  0.88987094938E+01  0.10026079001E+02  0.00000000000E+00 0. -1.
</event>
<event>
 7    1  0.5426550E-010  0.4778727E+02  0.7816164E-02  0.1312668E+00
        -11   -1    0    0    0    0  0.00000000000E+00  0.00000000000E+00  0.45593999997E+02  0.45594000000E+02  0.51100000000E-03 0.  1.
         11   -1    0    0    0    0 -0.00000000000E+00 -0.00000000000E+00 -0.45593999997E+02  0.45594000000E+02  0.51100000000E-03 0. -1.
    9900012    2    1    2    0    0 -0.84014478919E+01  0.18239921509E+02  0.38475240788E+02  0.47787271700E+02  0.20000002987E+02 0.  0.
         12    1    1    2    0    0  0.84014478919E+01 -0.18239921509E+02 -0.38475240788E+02  0.43400728300E+02  0.00000000000E+00 0. -1.
         11    1    3    3    0    0  0.97099200935E+00  0.10230416376E+01  0.13771083142E+01  0.19712603188E+01  0.51100000000E-03 0. -1.
        -11    1    3    3    0    0  0.26928039168E+01  0.10279170631E+02  0.25756487773E+02  0.27862325898E+02  0.51100000000E-03 0.  1.
        -12    1    3    3    0    0 -0.12065243818E+02  0.69377092400E+01  0.11341644701E+02  0.17953685483E+02  0.00000000000E+00 0.  1.
</event>
<event>
 7    1  0.5426550E-010  0.4778726E+02  0.7816164E-02  0.1312668E+00
        -11   -1    0    0    0    0  0.00000000000E+00  0.00000000000E+00  0.45593999997E+02  0.45594000000E+02  0.51100000000E-03 0.  1.
         11   -1    0    0    0    0 -0.00000000000E+00 -0.00000000000E+00 -0.45593999997E+02  0.45594000000E+02  0.51100000000E-03 0. -1.
    9900012    2    1    2    0    0  0.34556814284E+02 -0.26150665717E+02  0.23650994266E+01  0.47787257770E+02  0.19999939474E+02 0.  0.
         12    1    1    2    0    0 -0.34556814284E+02  0.26150665717E+02 -0.23650994266E+01  0.43400742230E+02  0.00000000000E+00 0. -1.
         11    1    3    3    0    0  0.23392130989E+02 -0.23883772445E+02 -0.22883707040E+01  0.33509148290E+02  0.51100000000E-03 0. -1.
        -11    1    3    3    0    0  0.51489808947E+01 -0.37561116513E+01  0.49558183061E+01  0.80734450104E+01  0.51100000000E-03 0.  1.
         12    1    3    3    0    0  0.60157024002E+01  0.14892183799E+01 -0.30234817546E+00  0.62046644688E+01  0.00000000000E+00 0. -1.
</event>
<event>
 7    1  0.5426550E-010  0.4778727E+02  0.7816164E-02  0.1312668E+00
        -11   -1    0    0    0    0  0.00000000000E+00  0.00000000000E+00  0.45593999997E+02  0.45594000000E+02  0.51100000000E-03 0. -1.
         11   -1    0    0    0    0 -0.00000000000E+00 -0.00000000000E+00 -0.45593999997E+02  0.45594000000E+02  0.51100000000E-03 0.  1.
    9900012    2    1    2    0    0 -0.10006571283E+02  0.24997338149E+02 -0.34038578288E+02  0.47787271950E+02  0.20000004130E+02 0.  0.
         12    1    1    2    0    0  0.10006571283E+02 -0.24997338149E+02  0.34038578288E+02  0.43400728050E+02  0.00000000000E+00 0. -1.
         11    1    3    3    0    0  0.17330910987E+01 -0.96895781499E-01  0.66288040726E+00  0.18580646502E+01  0.51100000000E-03 0. -1.
        -11    1    3    3    0    0 -0.66556164632E+01  0.23973598931E+02 -0.28885657822E+02  0.38123639704E+02  0.51100000000E-03 0.  1.
        -12    1    3    3    0    0 -0.50840459181E+01  0.11206349998E+01 -0.58158008734E+01  0.78055675962E+01  0.00000000000E+00 0.  1.
</event>
<event>
 7    1  0.5426550E-010  0.4778728E+02  0.7816164E-02  0.1312668E+00
        -11   -1    0    0    0    0  0.00000000000E+00  0.00000000000E+00  0.45593999997E+02  0.45594000000E+02  0.51100000000E-03 0. -1.
         11   -1    0    0    0    0 -0.00000000000E+00 -0.00000000000E+00 -0.45593999997E+02  0.45594000000E+02  0.51100000000E-03 0.  1.
    9900012    2    1    2    0    0  0.39219065230E+02  0.16971466803E+02  0.75800038641E+01  0.47787283168E+02  0.20000055278E+02 0.  0.
         12    1    1    2    0    0 -0.39219065230E+02 -0.16971466803E+02 -0.75800038641E+01  0.43400716832E+02  0.00000000000E+00 0. -1.
         11    1    3    3    0    0  0.16254504366E+02  0.66707352996E+01  0.10034854493E+02  0.20233781816E+02  0.51100000000E-03 0. -1.
        -11    1    3    3    0    0  0.12215708014E+02  0.93170010436E+01 -0.55332505215E+01  0.16329326144E+02  0.51100000000E-03 0.  1.
        -12    1    3    3    0    0  0.10748852850E+02  0.98373045979E+00  0.30783998922E+01  0.11224175208E+02  0.00000000000E+00 0.  1.
</event>
<event>
 7    1  0.5426550E-010  0.4778727E+02  0.7816164E-02  0.1312668E+00
        -11   -1    0    0    0    0  0.00000000000E+00  0.00000000000E+00  0.45593999997E+02  0.45594000000E+02  0.51100000000E-03 0. -1.
         11   -1    0    0    0    0 -0.00000000000E+00 -0.00000000000E+00 -0.45593999997E+02  0.45594000000E+02  0.51100000000E-03 0.  1.
    9900012    2    1    2    0    0 -0.32232347037E+02 -0.83436091548E+01 -0.27840316166E+02  0.47787271740E+02  0.20000003173E+02 0.  0.
         12    1    1    2    0    0  0.32232347037E+02  0.83436091548E+01  0.27840316166E+02  0.43400728260E+02  0.00000000000E+00 0. -1.
         11    1    3    3    0    0  0.92270946367E+00 -0.99910567256E+00  0.17580772905E+01  0.22227102644E+01  0.51100000000E-03 0. -1.
        -11    1    3    3    0    0 -0.31043908283E+02 -0.49890840382E+01 -0.26262422639E+02  0.40967426624E+02  0.51100000000E-03 0.  1.
        -12    1    3    3    0    0 -0.21111482176E+01 -0.23554194441E+01 -0.33359708168E+01  0.45971348517E+01  0.00000000000E+00 0.  1.
</event>
<event>
 7    1  0.5426550E-010  0.4778727E+02  0.7816164E-02  0.1312668E+00
        -11   -1    0    0    0    0  0.00000000000E+00  0.00000000000E+00  0.45593999997E+02  0.45594000000E+02  0.51100000000E-03 0. -1.
         11   -1    0    0    0    0 -0.00000000000E+00 -0.00000000000E+00 -0.45593999997E+02  0.45594000000E+02  0.51100000000E-03 0.  1.
    9900012    2    1    2    0    0 -0.38810866529E+01  0.25178096311E+02 -0.35137217474E+02  0.47787269370E+02  0.19999992364E+02 0.  0.
         12    1    1    2    0    0  0.38810866529E+01 -0.25178096311E+02  0.35137217474E+02  0.43400730630E+02  0.00000000000E+00 0. -1.
         11    1    3    3    0    0 -0.29264774673E+01  0.25038066176E+01 -0.42323881245E-01  0.38516372515E+01  0.51100000000E-03 0. -1.
        -11    1    3    3    0    0  0.53585795854E+01  0.88546109087E+01 -0.19995405848E+02  0.22515211853E+02  0.51100000000E-03 0.  1.
        -12    1    3    3    0    0 -0.63131887709E+01  0.13819678784E+02 -0.15099487745E+02  0.21420420265E+02  0.00000000000E+00 0.  1.
</event>
<event>
 7    1  0.5426550E-010  0.4778727E+02  0.7816164E-02  0.1312668E+00
        -11   -1    0    0    0    0  0.00000000000E+00  0.00000000000E+00  0.45593999997E+02  0.45594000000E+02  0.51100000000E-03 0.  1.
         11   -1    0    0    0    0 -0.00000000000E+00 -0.00000000000E+00 -0.45593999997E+02  0.45594000000E+02  0.51100000000E-03 0. -1.
    9900012    2    1    2    0    0  0.30764761014E+02 -0.22742239785E+02  0.20492515357E+02  0.47787272169E+02  0.20000005125E+02 0.  0.
         12    1    1    2    0    0 -0.30764761014E+02  0.22742239785E+02 -0.20492515357E+02  0.43400727831E+02  0.00000000000E+00 0. -1.
         11    1    3    3    0    0  0.78599192396E+01 -0.86153183055E+01 -0.20598647706E+01  0.11842511689E+02  0.51100000000E-03 0. -1.
        -11    1    3    3    0    0  0.17125574278E+02 -0.13185014097E+02  0.14654168462E+02  0.26112727638E+02  0.51100000000E-03 0.  1.
         12    1    3    3    0    0  0.57792674963E+01 -0.94190738195E+00  0.78982116649E+01  0.98320328424E+01  0.00000000000E+00 0. -1.
</event>
<event>
 7    1  0.5426550E-010  0.4778727E+02  0.7816164E-02  0.1312668E+00
        -11   -1    0    0    0    0  0.00000000000E+00  0.00000000000E+00  0.45593999997E+02  0.45594000000E+02  0.51100000000E-03 0. -1.
         11   -1    0    0    0    0 -0.00000000000E+00 -0.00000000000E+00 -0.45593999997E+02  0.45594000000E+02  0.51100000000E-03 0.  1.
    9900012    2    1    2    0    0 -0.35411887071E+02 -0.19460666502E+02 -0.15839942815E+02  0.47787273335E+02  0.20000010444E+02 0.  0.
         12    1    1    2    0    0  0.35411887071E+02  0.19460666502E+02  0.15839942815E+02  0.43400726665E+02  0.00000000000E+00 0. -1.
         11    1    3    3    0    0 -0.56909732681E+01 -0.24066852136E+01  0.80430640593E+00  0.62310688900E+01  0.51100000000E-03 0. -1.
        -11    1    3    3    0    0 -0.25358210955E+02 -0.65687812293E+01 -0.14688844869E+02  0.30032480975E+02  0.51100000000E-03 0.  1.
        -12    1    3    3    0    0 -0.43627028486E+01 -0.10485200060E+02 -0.19554043513E+01  0.11523723470E+02  0.00000000000E+00 0.  1.
</event>
<event>
 7    1  0.5426550E-010  0.4778726E+02  0.7816164E-02  0.1312668E+00
        -11   -1    0    0    0    0  0.00000000000E+00  0.00000000000E+00  0.45593999997E+02  0.45594000000E+02  0.51100000000E-03 0. -1.
         11   -1    0    0    0    0 -0.00000000000E+00 -0.00000000000E+00 -0.45593999997E+02  0.45594000000E+02  0.51100000000E-03 0.  1.
    9900012    2    1    2    0    0  0.37386337976E+02 -0.20186533094E+02 -0.88537830260E+01  0.47787264298E+02  0.19999969242E+02 0.  0.
         12    1    1    2    0    0 -0.37386337976E+02  0.20186533094E+02  0.88537830260E+01  0.43400735702E+02  0.00000000000E+00 0. -1.
         11    1    3    3    0    0  0.33615009334E+01  0.84126835690E+00 -0.60981736364E+01  0.70139249308E+01  0.51100000000E-03 0. -1.
        -11    1    3    3    0    0  0.40251481655E+01  0.30376395309E-01 -0.15064364384E+00  0.40280807153E+01  0.51100000000E-03 0.  1.
         12    1    3    3    0    0  0.29999688877E+02 -0.21058177846E+02 -0.26049657458E+01  0.36745258652E+02  0.00000000000E+00 0. -1.
</event>
<event>
 7    1  0.5426550E-010  0.4778727E+02  0.7816164E-02  0.1312668E+00
        -11   -1    0    0    0    0  0.00000000000E+00  0.00000000000E+00  0.45593999997E+02  0.45594000000E+02  0.51100000000E-03 0.  1.
         11   -1    0    0    0    0 -0.00000000000E+00 -0.00000000000E+00 -0.45593999997E+02  0.45594000000E+02  0.51100000000E-03 0. -1.
    9900012    2    1    2    0    0  0.11742648533E+02 -0.78618432282E+01  0.41035652540E+02  0.47787272438E+02  0.20000006356E+02 0.  0.
         12    1    1    2    0    0 -0.11742648533E+02  0.78618432282E+01 -0.41035652540E+02  0.43400727562E+02  0.00000000000E+00 0. -1.
         11    1    3    3    0    0  0.10067883725E+02  0.29253936846E+01  0.20748484881E+02  0.23246931755E+02  0.51100000000E-03 0. -1.
        -11    1    3    3    0    0  0.28244205129E+01 -0.29370553181E+01  0.13493090130E+02  0.14094932660E+02  0.51100000000E-03 0.  1.
         12    1    3    3    0    0 -0.11496557047E+01 -0.78501815947E+01  0.67940775290E+01  0.10445408024E+02  0.00000000000E+00 0. -1.
</event>
<event>
 7    1  0.5426550E-010  0.4778727E+02  0.7816164E-02  0.1312668E+00
        -11   -1    0    0    0    0  0.00000000000E+00  0.00000000000E+00  0.45593999997E+02  0.45594000000E+02  0.51100000000E-03 0. -1.
         11   -1    0    0    0    0 -0.00000000000E+00 -0.00000000000E+00 -0.45593999997E+02  0.45594000000E+02  0.51100000000E-03 0.  1.
    9900012    2    1    2    0    0  0.27676385165E+02  0.32483324921E+02 -0.79040894379E+01  0.47787270472E+02  0.19999997390E+02 0.  0.
         12    1    1    2    0    0 -0.27676385165E+02 -0.32483324921E+02  0.79040894379E+01  0.43400729528E+02  0.00000000000E+00 0. -1.
         11    1    3    3    0    0 -0.58764982074E+00  0.68284076567E+01  0.29433697477E+01  0.74589482617E+01  0.51100000000E-03 0. -1.
        -11    1    3    3    0    0  0.15202724739E+02  0.97654473249E+01 -0.71380437525E+01  0.19427775730E+02  0.51100000000E-03 0.  1.
         12    1    3    3    0    0  0.13061310246E+02  0.15889469940E+02 -0.37094154331E+01  0.20900546480E+02  0.00000000000E+00 0. -1.
</event>
<event>
 7    1  0.5426550E-010  0.4778727E+02  0.7816164E-02  0.1312668E+00
        -11   -1    0    0    0    0  0.00000000000E+00  0.00000000000E+00  0.45593999997E+02  0.45594000000E+02  0.51100000000E-03 0.  1.
         11   -1    0    0    0    0 -0.00000000000E+00 -0.00000000000E+00 -0.45593999997E+02  0.45594000000E+02  0.51100000000E-03 0. -1.
    9900012    2    1    2    0    0  0.19689559238E+02  0.20186015097E-01  0.38677437391E+02  0.47787270587E+02  0.19999997913E+02 0.  0.
         12    1    1    2    0    0 -0.19689559238E+02 -0.20186015097E-01 -0.38677437391E+02  0.43400729413E+02  0.00000000000E+00 0. -1.
         11    1    3    3    0    0  0.13907292521E+02  0.64485026633E+01  0.19119578662E+02  0.24506208608E+02  0.51100000000E-03 0. -1.
        -11    1    3    3    0    0  0.29658965411E+01  0.94392391177E+00  0.11841309721E+02  0.12243535062E+02  0.51100000000E-03 0.  1.
         12    1    3    3    0    0  0.28163701763E+01 -0.73722405600E+01  0.77165490075E+01  0.11037526916E+02  0.00000000000E+00 0. -1.
</event>
<event>
 7    1  0.5426550E-010  0.4778727E+02  0.7816164E-02  0.1312668E+00
        -11   -1    0    0    0    0  0.00000000000E+00  0.00000000000E+00  0.45593999997E+02  0.45594000000E+02  0.51100000000E-03 0.  1.
         11   -1    0    0    0    0 -0.00000000000E+00 -0.00000000000E+00 -0.45593999997E+02  0.45594000000E+02  0.51100000000E-03 0. -1.
    9900012    2    1    2    0    0 -0.38173152472E+02  0.64407947402E+01  0.19620140395E+02  0.47787270563E+02  0.19999997804E+02 0.  0.
         12    1    1    2    0    0  0.38173152472E+02 -0.64407947402E+01 -0.19620140395E+02  0.43400729437E+02  0.00000000000E+00 0. -1.
         11    1    3    3    0    0 -0.60310455737E+01  0.51753950181E+01  0.10877448269E+02  0.13471343861E+02  0.51100000000E-03 0. -1.
        -11    1    3    3    0    0 -0.23517127664E+02 -0.10799643192E+00  0.98801733414E+01  0.25508523719E+02  0.51100000000E-03 0.  1.
         12    1    3    3    0    0 -0.86249792343E+01  0.13733961540E+01 -0.11374812154E+01  0.88074029829E+01  0.00000000000E+00 0. -1.
</event>
<event>
 7    1  0.5426550E-010  0.4778728E+02  0.7816164E-02  0.1312668E+00
        -11   -1    0    0    0    0  0.00000000000E+00  0.00000000000E+00  0.45593999997E+02  0.45594000000E+02  0.51100000000E-03 0. -1.
         11   -1    0    0    0    0 -0.00000000000E+00 -0.00000000000E+00 -0.45593999997E+02  0.45594000000E+02  0.51100000000E-03 0.  1.
    9900012    2    1    2    0    0 -0.37146250947E+02  0.11572731459E+02 -0.19231500057E+02  0.47787278033E+02  0.20000031864E+02 0.  0.
         12    1    1    2    0    0  0.37146250947E+02 -0.11572731459E+02  0.19231500057E+02  0.43400721967E+02  0.00000000000E+00 0. -1.
         11    1    3    3    0    0 -0.22952246083E+02  0.60716074572E+01 -0.18726557910E+02  0.30238286803E+02  0.51100000000E-03 0. -1.
        -11    1    3    3    0    0 -0.39795322640E+01 -0.18949165865E+01 -0.20178425802E+01  0.48475844345E+01  0.51100000000E-03 0.  1.
         12    1    3    3    0    0 -0.10214472599E+02  0.73960405884E+01  0.15129004329E+01  0.12701406796E+02  0.00000000000E+00 0. -1.
</event>
<event>
 7    1  0.5426550E-010  0.4778727E+02  0.7816164E-02  0.1312668E+00
        -11   -1    0    0    0    0  0.00000000000E+00  0.00000000000E+00  0.45593999997E+02  0.45594000000E+02  0.51100000000E-03 0.  1.
         11   -1    0    0    0    0 -0.00000000000E+00 -0.00000000000E+00 -0.45593999997E+02  0.45594000000E+02  0.51100000000E-03 0. -1.
    9900012    2    1    2    0    0 -0.17770906046E+02 -0.21146965065E+02  0.33475726101E+02  0.47787268772E+02  0.19999989638E+02 0.  0.
         12    1    1    2    0    0  0.17770906046E+02  0.21146965065E+02 -0.33475726101E+02  0.43400731228E+02  0.00000000000E+00 0. -1.
         11    1    3    3    0    0 -0.88562473298E+01 -0.77295833080E+01  0.36598449358E+01  0.12311540931E+02  0.51100000000E-03 0. -1.
        -11    1    3    3    0    0 -0.39433492411E+01 -0.12271915116E+02  0.26272833291E+02  0.29264512182E+02  0.51100000000E-03 0.  1.
        -12    1    3    3    0    0 -0.49713094747E+01 -0.11454666404E+01  0.35430478747E+01  0.62112156588E+01  0.00000000000E+00 0.  1.
</event>
<event>
 7    1  0.5426550E-010  0.4778727E+02  0.7816164E-02  0.1312668E+00
        -11   -1    0    0    0    0  0.00000000000E+00  0.00000000000E+00  0.45593999997E+02  0.45594000000E+02  0.51100000000E-03 0.  1.
         11   -1    0    0    0    0 -0.00000000000E+00 -0.00000000000E+00 -0.45593999997E+02  0.45594000000E+02  0.51100000000E-03 0. -1.
    9900012    2    1    2    0    0  0.27127702410E+02 -0.66195268329E-01  0.33877819427E+02  0.47787271101E+02  0.20000000258E+02 0.  0.
         12    1    1    2    0    0 -0.27127702410E+02  0.66195268329E-01 -0.33877819427E+02  0.43400728899E+02  0.00000000000E+00 0. -1.
         11    1    3    3    0    0 -0.12339239099E+01  0.44779432857E+01  0.69986035195E+01  0.83997021239E+01  0.51100000000E-03 0. -1.
        -11    1    3    3    0    0  0.13681511324E+02 -0.13063654435E+01  0.12230034185E+02  0.18397393273E+02  0.51100000000E-03 0.  1.
         12    1    3    3    0    0  0.14680114995E+02 -0.32377731105E+01  0.14649181722E+02  0.20990175705E+02  0.00000000000E+00 0. -1.
</event>
<event>
 7    1  0.5426550E-010  0.4778727E+02  0.7816164E-02  0.1312668E+00
        -11   -1    0    0    0    0  0.00000000000E+00  0.00000000000E+00  0.45593999997E+02  0.45594000000E+02  0.51100000000E-03 0. -1.
         11   -1    0    0    0    0 -0.00000000000E+00 -0.00000000000E+00 -0.45593999997E+02  0.45594000000E+02  0.51100000000E-03 0.  1.
    9900012    2    1    2    0    0 -0.28372636671E+02  0.23932870979E+02 -0.22490774615E+02  0.47787265355E+02  0.19999974061E+02 0.  0.
         12    1    1    2    0    0  0.28372636671E+02 -0.23932870979E+02  0.22490774615E+02  0.43400734645E+02  0.00000000000E+00 0. -1.
         11    1    3    3    0    0 -0.24035372774E+02  0.20865620676E+02 -0.14355584313E+02  0.34916415506E+02  0.51100000000E-03 0. -1.
        -11    1    3    3    0    0 -0.65980564725E+01  0.20688813358E+01 -0.77213297673E+01  0.10365015814E+02  0.51100000000E-03 0.  1.
         12    1    3    3    0    0  0.22607925761E+01  0.99836896690E+00 -0.41386053467E+00  0.25058340345E+01  0.00000000000E+00 0. -1.
</event>
<event>
 7    1  0.5426550E-010  0.4778727E+02  0.7816164E-02  0.1312668E+00
        -11   -1    0    0    0    0  0.00000000000E+00  0.00000000000E+00  0.45593999997E+02  0.45594000000E+02  0.51100000000E-03 0.  1.
         11   -1    0    0    0    0 -0.00000000000E+00 -0.00000000000E+00 -0.45593999997E+02  0.45594000000E+02  0.51100000000E-03 0. -1.
    9900012    2    1    2    0    0 -0.15240657404E+02 -0.23695189376E+02  0.33013384112E+02  0.47787272262E+02  0.20000005551E+02 0.  0.
         12    1    1    2    0    0  0.15240657404E+02  0.23695189376E+02 -0.33013384112E+02  0.43400727738E+02  0.00000000000E+00 0. -1.
         11    1    3    3    0    0 -0.72359811581E+01 -0.22654938477E+01  0.20236123181E+01  0.78477316958E+01  0.51100000000E-03 0. -1.
        -11    1    3    3    0    0 -0.53111352980E+01 -0.20406108192E+02  0.21887663050E+02  0.30392222751E+02  0.51100000000E-03 0.  1.
        -12    1    3    3    0    0 -0.26935409476E+01 -0.10235873358E+01  0.91021087439E+01  0.95473178148E+01  0.00000000000E+00 0.  1.
</event>
<event>
 7    1  0.5426550E-010  0.4778726E+02  0.7816164E-02  0.1312668E+00
        -11   -1    0    0    0    0  0.00000000000E+00  0.00000000000E+00  0.45593999997E+02  0.45594000000E+02  0.51100000000E-03 0.  1.
         11   -1    0    0    0    0 -0.00000000000E+00 -0.00000000000E+00 -0.45593999997E+02  0.45594000000E+02  0.51100000000E-03 0. -1.
    9900012    2    1    2    0    0 -0.13671195713E+02  0.23033381642E+02  0.34149468510E+02  0.47787257362E+02  0.19999937615E+02 0.  0.
         12    1    1    2    0    0  0.13671195713E+02 -0.23033381642E+02 -0.34149468510E+02  0.43400742638E+02  0.00000000000E+00 0. -1.
         11    1    3    3    0    0 -0.41135666252E+01  0.20045775155E+02  0.16337716532E+02  0.26185406502E+02  0.51100000000E-03 0. -1.
        -11    1    3    3    0    0 -0.55595949356E+01  0.25777138515E+01  0.16112282097E+02  0.17238310218E+02  0.51100000000E-03 0.  1.
         12    1    3    3    0    0 -0.39980341520E+01  0.40989263560E+00  0.16994698801E+01  0.43635406412E+01  0.00000000000E+00 0. -1.
</event>
<event>
 7    1  0.5426550E-010  0.4778727E+02  0.7816164E-02  0.1312668E+00
        -11   -1    0    0    0    0  0.00000000000E+00  0.00000000000E+00  0.45593999997E+02  0.45594000000E+02  0.51100000000E-03 0.  1.
         11   -1    0    0    0    0 -0.00000000000E+00 -0.00000000000E+00 -0.45593999997E+02  0.45594000000E+02  0.51100000000E-03 0. -1.
    9900012    2    1    2    0    0  0.31587442677E+02 -0.29441698582E+02 -0.43638131628E+01  0.47787274019E+02  0.20000013564E+02 0.  0.
         12    1    1    2    0    0 -0.31587442677E+02  0.29441698582E+02  0.43638131628E+01  0.43400725981E+02  0.00000000000E+00 0. -1.
         11    1    3    3    0    0  0.23810947597E+01 -0.41522613361E+01 -0.33351254466E+01  0.58338622253E+01  0.51100000000E-03 0. -1.
        -11    1    3    3    0    0 -0.66014727948E+00 -0.56396785268E+01 -0.24273359396E+01  0.61752512776E+01  0.51100000000E-03 0.  1.
        -12    1    3    3    0    0  0.29866495197E+02 -0.19649758720E+02  0.13986482234E+01  0.35778160517E+02  0.00000000000E+00 0.  1.
</event>
<event>
 7    1  0.5426550E-010  0.4778727E+02  0.7816164E-02  0.1312668E+00
        -11   -1    0    0    0    0  0.00000000000E+00  0.00000000000E+00  0.45593999997E+02  0.45594000000E+02  0.51100000000E-03 0.  1.
         11   -1    0    0    0    0 -0.00000000000E+00 -0.00000000000E+00 -0.45593999997E+02  0.45594000000E+02  0.51100000000E-03 0. -1.
    9900012    2    1    2    0    0  0.35858244081E+02  0.20886247992E+02  0.12711182458E+02  0.47787272088E+02  0.20000004760E+02 0.  0.
         12    1    1    2    0    0 -0.35858244081E+02 -0.20886247992E+02 -0.12711182458E+02  0.43400727912E+02  0.00000000000E+00 0. -1.
         11    1    3    3    0    0  0.36325328130E+01 -0.69180995371E+00  0.48387966600E+00  0.37293478575E+01  0.51100000000E-03 0. -1.
        -11    1    3    3    0    0 -0.95277233243E-01  0.12672177598E+01  0.50609833795E+01  0.52180908032E+01  0.51100000000E-03 0.  1.
        -12    1    3    3    0    0  0.32320988501E+02  0.20310840186E+02  0.71663194120E+01  0.38839833428E+02  0.00000000000E+00 0.  1.
</event>
<event>
 7    1  0.6724054E-010  0.4778726E+02  0.7816164E-02  0.1312668E+00
        -11   -1    0    0    0    0  0.00000000000E+00  0.00000000000E+00  0.45593999997E+02  0.45594000000E+02  0.51100000000E-03 0. -1.
         11   -1    0    0    0    0 -0.00000000000E+00 -0.00000000000E+00 -0.45593999997E+02  0.45594000000E+02  0.51100000000E-03 0.  1.
    9900012    2    1    2    0    0  0.10177481455E+02 -0.37447982941E+02 -0.19434299980E+02  0.47787256102E+02  0.19999931873E+02 0.  0.
         12    1    1    2    0    0 -0.10177481455E+02  0.37447982941E+02  0.19434299980E+02  0.43400743898E+02  0.00000000000E+00 0. -1.
         11    1    3    3    0    0 -0.13260677734E+01 -0.11477082807E+01  0.76431847826E+00  0.19130794637E+01  0.51100000000E-03 0. -1.
        -11    1    3    3    0    0  0.79820135303E+01 -0.25003015555E+02 -0.51777593956E+01  0.26752056360E+02  0.51100000000E-03 0.  1.
        -12    1    3    3    0    0  0.35215356978E+01 -0.11297259105E+02 -0.15020859063E+02  0.19122120279E+02  0.00000000000E+00 0.  1.
</event>
<event>
 7    1  0.5426550E-010  0.4778727E+02  0.7816164E-02  0.1312668E+00
        -11   -1    0    0    0    0  0.00000000000E+00  0.00000000000E+00  0.45593999997E+02  0.45594000000E+02  0.51100000000E-03 0.  1.
         11   -1    0    0    0    0 -0.00000000000E+00 -0.00000000000E+00 -0.45593999997E+02  0.45594000000E+02  0.51100000000E-03 0. -1.
    9900012    2    1    2    0    0 -0.17246549898E+01 -0.30587826964E+02  0.30741399081E+02  0.47787271773E+02  0.20000003321E+02 0.  0.
         12    1    1    2    0    0  0.17246549898E+01  0.30587826964E+02 -0.30741399081E+02  0.43400728227E+02  0.00000000000E+00 0. -1.
         11    1    3    3    0    0  0.51729980969E+01 -0.13003206098E+01  0.40650526228E+01  0.67063698143E+01  0.51100000000E-03 0. -1.
        -11    1    3    3    0    0 -0.65325962799E+01 -0.25070352974E+02  0.26158135258E+02  0.36816374792E+02  0.51100000000E-03 0.  1.
         12    1    3    3    0    0 -0.36505680681E+00 -0.42171533802E+01  0.51821119983E+00  0.42645271662E+01  0.00000000000E+00 0. -1.
</event>
<event>
 7    1  0.5426550E-010  0.4778727E+02  0.7816164E-02  0.1312668E+00
        -11   -1    0    0    0    0  0.00000000000E+00  0.00000000000E+00  0.45593999997E+02  0.45594000000E+02  0.51100000000E-03 0.  1.
         11   -1    0    0    0    0 -0.00000000000E+00 -0.00000000000E+00 -0.45593999997E+02  0.45594000000E+02  0.51100000000E-03 0. -1.
    9900012    2    1    2    0    0 -0.20404508190E+01  0.35894325059E+02  0.24311671120E+02  0.47787270010E+02  0.19999995285E+02 0.  0.
         12    1    1    2    0    0  0.20404508190E+01 -0.35894325059E+02 -0.24311671120E+02  0.43400729990E+02  0.00000000000E+00 0. -1.
         11    1    3    3    0    0 -0.77652916321E+01  0.17745715078E+02  0.74969615774E+01  0.20770522162E+02  0.51100000000E-03 0. -1.
        -11    1    3    3    0    0 -0.14724424897E+01  0.10630483796E+02  0.81991023525E+01  0.13505574859E+02  0.51100000000E-03 0.  1.
         12    1    3    3    0    0  0.71972833027E+01  0.75181261849E+01  0.86156071903E+01  0.13511172989E+02  0.00000000000E+00 0. -1.
</event>
<event>
 7    1  0.5426550E-010  0.4778728E+02  0.7816164E-02  0.1312668E+00
        -11   -1    0    0    0    0  0.00000000000E+00  0.00000000000E+00  0.45593999997E+02  0.45594000000E+02  0.51100000000E-03 0.  1.
         11   -1    0    0    0    0 -0.00000000000E+00 -0.00000000000E+00 -0.45593999997E+02  0.45594000000E+02  0.51100000000E-03 0. -1.
    9900012    2    1    2    0    0 -0.31507898905E+02  0.26611535842E+02  0.13516695010E+02  0.47787279070E+02  0.20000036591E+02 0.  0.
         12    1    1    2    0    0  0.31507898905E+02 -0.26611535842E+02 -0.13516695010E+02  0.43400720930E+02  0.00000000000E+00 0. -1.
         11    1    3    3    0    0 -0.18871548384E+02  0.55206155873E+01  0.50278962054E+01  0.20295129352E+02  0.51100000000E-03 0. -1.
        -11    1    3    3    0    0 -0.90975087598E+01  0.15273487555E+02  0.16703833952E+01  0.17855930911E+02  0.51100000000E-03 0.  1.
        -12    1    3    3    0    0 -0.35388417604E+01  0.58174326998E+01  0.68184154089E+01  0.96362188077E+01  0.00000000000E+00 0.  1.
</event>
<event>
 7    1  0.5426550E-010  0.4778726E+02  0.7816164E-02  0.1312668E+00
        -11   -1    0    0    0    0  0.00000000000E+00  0.00000000000E+00  0.45593999997E+02  0.45594000000E+02  0.51100000000E-03 0.  1.
         11   -1    0    0    0    0 -0.00000000000E+00 -0.00000000000E+00 -0.45593999997E+02  0.45594000000E+02  0.51100000000E-03 0. -1.
    9900012    2    1    2    0    0  0.22859144458E+02 -0.94493004579E+01  0.35662227187E+02  0.47787260231E+02  0.19999950699E+02 0.  0.
         12    1    1    2    0    0 -0.22859144458E+02  0.94493004579E+01 -0.35662227187E+02  0.43400739769E+02  0.00000000000E+00 0. -1.
         11    1    3    3    0    0 -0.16062240292E+01 -0.25502399895E+01  0.93251162205E+00  0.31548784164E+01  0.51100000000E-03 0. -1.
        -11    1    3    3    0    0  0.20184915901E+02 -0.48500872824E+01  0.33992049273E+02  0.39829807816E+02  0.51100000000E-03 0.  1.
        -12    1    3    3    0    0  0.42804525861E+01 -0.20489731861E+01  0.73766629211E+00  0.48025739992E+01  0.00000000000E+00 0.  1.
</event>
<event>
 7    1  0.5426550E-010  0.4778727E+02  0.7816164E-02  0.1312668E+00
        -11   -1    0    0    0    0  0.00000000000E+00  0.00000000000E+00  0.45593999997E+02  0.45594000000E+02  0.51100000000E-03 0.  1.
         11   -1    0    0    0    0 -0.00000000000E+00 -0.00000000000E+00 -0.45593999997E+02  0.45594000000E+02  0.51100000000E-03 0. -1.
    9900012    2    1    2    0    0 -0.54423810887E+01  0.69227186594E+01  0.42497995159E+02  0.47787272609E+02  0.20000007132E+02 0.  0.
         12    1    1    2    0    0  0.54423810887E+01 -0.69227186594E+01 -0.42497995159E+02  0.43400727391E+02  0.00000000000E+00 0. -1.
         11    1    3    3    0    0  0.68922929135E+01  0.16771252007E+01  0.17180702919E+02  0.18587442094E+02  0.51100000000E-03 0. -1.
        -11    1    3    3    0    0 -0.10592891487E+02  0.42483741755E+01  0.24509116160E+02  0.27036175920E+02  0.51100000000E-03 0.  1.
         12    1    3    3    0    0 -0.17417825149E+01  0.99721928322E+00  0.80817608065E+00  0.21636545948E+01  0.00000000000E+00 0. -1.
</event>
<event>
 7    1  0.5426550E-010  0.4778727E+02  0.7816164E-02  0.1312668E+00
        -11   -1    0    0    0    0  0.00000000000E+00  0.00000000000E+00  0.45593999997E+02  0.45594000000E+02  0.51100000000E-03 0. -1.
         11   -1    0    0    0    0 -0.00000000000E+00 -0.00000000000E+00 -0.45593999997E+02  0.45594000000E+02  0.51100000000E-03 0.  1.
    9900012    2    1    2    0    0 -0.37837173446E+02 -0.11554352712E+02 -0.17845691925E+02  0.47787268655E+02  0.19999989105E+02 0.  0.
         12    1    1    2    0    0  0.37837173446E+02  0.11554352712E+02  0.17845691925E+02  0.43400731345E+02  0.00000000000E+00 0. -1.
         11    1    3    3    0    0  0.22787230168E+01 -0.80502278158E+00 -0.38628101706E+00  0.24474177313E+01  0.51100000000E-03 0. -1.
        -11    1    3    3    0    0 -0.17102289021E+02 -0.40808662900E+01 -0.10089950860E+02  0.20271873817E+02  0.51100000000E-03 0.  1.
         12    1    3    3    0    0 -0.23013607442E+02 -0.66684636399E+01 -0.73694600483E+01  0.25067977107E+02  0.00000000000E+00 0. -1.
</event>
<event>
 7    1  0.5426550E-010  0.4778727E+02  0.7816164E-02  0.1312668E+00
        -11   -1    0    0    0    0  0.00000000000E+00  0.00000000000E+00  0.45593999997E+02  0.45594000000E+02  0.51100000000E-03 0.  1.
         11   -1    0    0    0    0 -0.00000000000E+00 -0.00000000000E+00 -0.45593999997E+02  0.45594000000E+02  0.51100000000E-03 0. -1.
    9900012    2    1    2    0    0  0.26235316155E+02  0.20541036048E+02  0.27810019510E+02  0.47787272347E+02  0.20000005939E+02 0.  0.
         12    1    1    2    0    0 -0.26235316155E+02 -0.20541036048E+02 -0.27810019510E+02  0.43400727653E+02  0.00000000000E+00 0. -1.
         11    1    3    3    0    0  0.15789025568E+02  0.18309396681E+02  0.12946314384E+02  0.27425068671E+02  0.51100000000E-03 0. -1.
        -11    1    3    3    0    0  0.94792860204E+01  0.49530350649E+01  0.96659421122E+01  0.14415958414E+02  0.51100000000E-03 0.  1.
         12    1    3    3    0    0  0.96700456654E+00 -0.27213956980E+01  0.51977630132E+01  0.59462452622E+01  0.00000000000E+00 0. -1.
</event>
<event>
 7    1  0.5426550E-010  0.4778726E+02  0.7816164E-02  0.1312668E+00
        -11   -1    0    0    0    0  0.00000000000E+00  0.00000000000E+00  0.45593999997E+02  0.45594000000E+02  0.51100000000E-03 0. -1.
         11   -1    0    0    0    0 -0.00000000000E+00 -0.00000000000E+00 -0.45593999997E+02  0.45594000000E+02  0.51100000000E-03 0.  1.
    9900012    2    1    2    0    0 -0.14879169418E+02  0.19350713971E+02 -0.35885714811E+02  0.47787258748E+02  0.19999943935E+02 0.  0.
         12    1    1    2    0    0  0.14879169418E+02 -0.19350713971E+02  0.35885714811E+02  0.43400741252E+02  0.00000000000E+00 0. -1.
         11    1    3    3    0    0 -0.12833125182E+01  0.39976090419E+01 -0.50863979463E+01  0.65953933469E+01  0.51100000000E-03 0. -1.
        -11    1    3    3    0    0 -0.22896800514E+01  0.19683528956E+01 -0.20800832415E+02  0.21018841007E+02  0.51100000000E-03 0.  1.
        -12    1    3    3    0    0 -0.11306176848E+02  0.13384752033E+02 -0.99984844494E+01  0.20173024394E+02  0.00000000000E+00 0.  1.
</event>
<event>
 7    1  0.5426550E-010  0.4778727E+02  0.7816164E-02  0.1312668E+00
        -11   -1    0    0    0    0  0.00000000000E+00  0.00000000000E+00  0.45593999997E+02  0.45594000000E+02  0.51100000000E-03 0. -1.
         11   -1    0    0    0    0 -0.00000000000E+00 -0.00000000000E+00 -0.45593999997E+02  0.45594000000E+02  0.51100000000E-03 0.  1.
    9900012    2    1    2    0    0 -0.62462801419E+00 -0.29726896694E+02 -0.31615576238E+02  0.47787271803E+02  0.20000003457E+02 0.  0.
         12    1    1    2    0    0  0.62462801419E+00  0.29726896694E+02  0.31615576238E+02  0.43400728197E+02  0.00000000000E+00 0. -1.
         11    1    3    3    0    0  0.16907817885E+01  0.13908769797E+01 -0.21108333186E+00  0.21995086413E+01  0.51100000000E-03 0. -1.
        -11    1    3    3    0    0 -0.58280806163E+00 -0.19372540014E+02 -0.26286949439E+02  0.32659434822E+02  0.51100000000E-03 0.  1.
         12    1    3    3    0    0 -0.17326017411E+01 -0.11745233660E+02 -0.51175434677E+01  0.12928328340E+02  0.00000000000E+00 0. -1.
</event>
<event>
 7    1  0.5426550E-010  0.4778727E+02  0.7816164E-02  0.1312668E+00
        -11   -1    0    0    0    0  0.00000000000E+00  0.00000000000E+00  0.45593999997E+02  0.45594000000E+02  0.51100000000E-03 0.  1.
         11   -1    0    0    0    0 -0.00000000000E+00 -0.00000000000E+00 -0.45593999997E+02  0.45594000000E+02  0.51100000000E-03 0. -1.
    9900012    2    1    2    0    0  0.31515105617E+02 -0.21208373809E+02  0.20991099274E+02  0.47787271315E+02  0.20000001236E+02 0.  0.
         12    1    1    2    0    0 -0.31515105617E+02  0.21208373809E+02 -0.20991099274E+02  0.43400728685E+02  0.00000000000E+00 0. -1.
         11    1    3    3    0    0 -0.21646574892E+01 -0.22455229149E+01  0.16404992834E+01  0.35241102943E+01  0.51100000000E-03 0. -1.
        -11    1    3    3    0    0  0.27115651316E+02 -0.17769384897E+02  0.19012139571E+02  0.37582855629E+02  0.51100000000E-03 0.  1.
         12    1    3    3    0    0  0.65641117897E+01 -0.11934659964E+01  0.33846041937E+00  0.66803053918E+01  0.00000000000E+00 0. -1.
</event>
<event>
 7    1  0.5426550E-010  0.4778727E+02  0.7816164E-02  0.1312668E+00
        -11   -1    0    0    0    0  0.00000000000E+00  0.00000000000E+00  0.45593999997E+02  0.45594000000E+02  0.51100000000E-03 0.  1.
         11   -1    0    0    0    0 -0.00000000000E+00 -0.00000000000E+00 -0.45593999997E+02  0.45594000000E+02  0.51100000000E-03 0. -1.
    9900012    2    1    2    0    0  0.15079380386E+02  0.31678572082E+02  0.25548070435E+02  0.47787267922E+02  0.19999985764E+02 0.  0.
         12    1    1    2    0    0 -0.15079380386E+02 -0.31678572082E+02 -0.25548070435E+02  0.43400732078E+02  0.00000000000E+00 0. -1.
         11    1    3    3    0    0 -0.12690588447E+01 -0.15638869669E+01  0.69058878800E+00  0.21291232778E+01  0.51100000000E-03 0. -1.
        -11    1    3    3    0    0  0.52953529225E+01  0.21255249138E+02  0.15773419443E+02  0.26993094296E+02  0.51100000000E-03 0.  1.
        -12    1    3    3    0    0  0.11053086308E+02  0.11987209911E+02  0.90840622038E+01  0.18665050348E+02  0.00000000000E+00 0.  1.
</event>
<event>
 7    1  0.5426550E-010  0.4778727E+02  0.7816164E-02  0.1312668E+00
        -11   -1    0    0    0    0  0.00000000000E+00  0.00000000000E+00  0.45593999997E+02  0.45594000000E+02  0.51100000000E-03 0.  1.
         11   -1    0    0    0    0 -0.00000000000E+00 -0.00000000000E+00 -0.45593999997E+02  0.45594000000E+02  0.51100000000E-03 0. -1.
    9900012    2    1    2    0    0 -0.18355571001E+02  0.20932938719E+02  0.33294267093E+02  0.47787272685E+02  0.20000007482E+02 0.  0.
         12    1    1    2    0    0  0.18355571001E+02 -0.20932938719E+02 -0.33294267093E+02  0.43400727315E+02  0.00000000000E+00 0. -1.
         11    1    3    3    0    0 -0.11666893741E+02  0.56019587088E+01  0.13964519700E+02  0.19039594577E+02  0.51100000000E-03 0.  1.
        -11    1    3    3    0    0 -0.56730048585E+00  0.14296537279E+02  0.16739049626E+02  0.22020640105E+02  0.51100000000E-03 0. -1.
         12    1    3    3    0    0 -0.61213767744E+01  0.10344427310E+01  0.25906977670E+01  0.67270380033E+01  0.00000000000E+00 0. -1.
</event>
<event>
 7    1  0.5426550E-010  0.4778727E+02  0.7816164E-02  0.1312668E+00
        -11   -1    0    0    0    0  0.00000000000E+00  0.00000000000E+00  0.45593999997E+02  0.45594000000E+02  0.51100000000E-03 0.  1.
         11   -1    0    0    0    0 -0.00000000000E+00 -0.00000000000E+00 -0.45593999997E+02  0.45594000000E+02  0.51100000000E-03 0. -1.
    9900012    2    1    2    0    0  0.18603668936E+02  0.37389001576E+02  0.11814779369E+02  0.47787274796E+02  0.20000017103E+02 0.  0.
         12    1    1    2    0    0 -0.18603668936E+02 -0.37389001576E+02 -0.11814779369E+02  0.43400725204E+02  0.00000000000E+00 0. -1.
         11    1    3    3    0    0  0.31777404502E+01 -0.22474006454E+00  0.86900844892E+00  0.33020778929E+01  0.51100000000E-03 0. -1.
        -11    1    3    3    0    0  0.99417341303E+01  0.29463541333E+02  0.19363912437E+01  0.31155865526E+02  0.51100000000E-03 0.  1.
        -12    1    3    3    0    0  0.54841943560E+01  0.81502003074E+01  0.90093796767E+01  0.13329331376E+02  0.00000000000E+00 0.  1.
</event>
<event>
 7    1  0.5426550E-010  0.4778727E+02  0.7816164E-02  0.1312668E+00
        -11   -1    0    0    0    0  0.00000000000E+00  0.00000000000E+00  0.45593999997E+02  0.45594000000E+02  0.51100000000E-03 0. -1.
         11   -1    0    0    0    0 -0.00000000000E+00 -0.00000000000E+00 -0.45593999997E+02  0.45594000000E+02  0.51100000000E-03 0.  1.
    9900012    2    1    2    0    0  0.22434356257E+02  0.20589460192E+02 -0.30925670209E+02  0.47787270864E+02  0.19999999178E+02 0.  0.
         12    1    1    2    0    0 -0.22434356257E+02 -0.20589460192E+02  0.30925670209E+02  0.43400729136E+02  0.00000000000E+00 0. -1.
         11    1    3    3    0    0 -0.25982708274E+01  0.30788643709E+01 -0.20933373805E+01  0.45400967783E+01  0.51100000000E-03 0. -1.
        -11    1    3    3    0    0  0.20475690801E+02  0.88439237417E+01 -0.18145723921E+02  0.28753020673E+02  0.51100000000E-03 0.  1.
        -12    1    3    3    0    0  0.45569362833E+01  0.86666720789E+01 -0.10686608908E+02  0.14494153413E+02  0.00000000000E+00 0.  1.
</event>
<event>
 7    1  0.5426550E-010  0.4778727E+02  0.7816164E-02  0.1312668E+00
        -11   -1    0    0    0    0  0.00000000000E+00  0.00000000000E+00  0.45593999997E+02  0.45594000000E+02  0.51100000000E-03 0. -1.
         11   -1    0    0    0    0 -0.00000000000E+00 -0.00000000000E+00 -0.45593999997E+02  0.45594000000E+02  0.51100000000E-03 0.  1.
    9900012    2    1    2    0    0 -0.78914417131E+01 -0.34092232473E+02 -0.25672325255E+02  0.47787269000E+02  0.19999990680E+02 0.  0.
         12    1    1    2    0    0  0.78914417131E+01  0.34092232473E+02  0.25672325255E+02  0.43400731000E+02  0.00000000000E+00 0. -1.
         11    1    3    3    0    0 -0.91655205758E+01 -0.88570005659E+01 -0.63998550713E+01  0.14262235857E+02  0.51100000000E-03 0. -1.
        -11    1    3    3    0    0  0.47178690067E+01 -0.10079430411E+02 -0.11997926166E+02  0.16364700973E+02  0.51100000000E-03 0.  1.
        -12    1    3    3    0    0 -0.34437901440E+01 -0.15155801496E+02 -0.72745440175E+01  0.17160332170E+02  0.00000000000E+00 0.  1.
</event>
<event>
 7    1  0.5426550E-010  0.4778727E+02  0.7816164E-02  0.1312668E+00
        -11   -1    0    0    0    0  0.00000000000E+00  0.00000000000E+00  0.45593999997E+02  0.45594000000E+02  0.51100000000E-03 0.  1.
         11   -1    0    0    0    0 -0.00000000000E+00 -0.00000000000E+00 -0.45593999997E+02  0.45594000000E+02  0.51100000000E-03 0. -1.
    9900012    2    1    2    0    0  0.23182598377E+02  0.32277183278E+01  0.36548216567E+02  0.47787272272E+02  0.20000005598E+02 0.  0.
         12    1    1    2    0    0 -0.23182598377E+02 -0.32277183278E+01 -0.36548216567E+02  0.43400727728E+02  0.00000000000E+00 0. -1.
         11    1    3    3    0    0 -0.24663659468E+01 -0.17099072239E+01  0.40140021782E+01  0.50118816272E+01  0.51100000000E-03 0. -1.
        -11    1    3    3    0    0  0.39575824109E+01  0.45468528543E+01  0.60611279667E+01  0.85483098860E+01  0.51100000000E-03 0.  1.
         12    1    3    3    0    0  0.21691381912E+02  0.39077269742E+00  0.26473086422E+02  0.34227080759E+02  0.00000000000E+00 0. -1.
</event>
<event>
 7    1  0.5426550E-010  0.4778727E+02  0.7816164E-02  0.1312668E+00
        -11   -1    0    0    0    0  0.00000000000E+00  0.00000000000E+00  0.45593999997E+02  0.45594000000E+02  0.51100000000E-03 0.  1.
         11   -1    0    0    0    0 -0.00000000000E+00 -0.00000000000E+00 -0.45593999997E+02  0.45594000000E+02  0.51100000000E-03 0. -1.
    9900012    2    1    2    0    0  0.11649262009E+02  0.21273957254E+02  0.35990786159E+02  0.47787271309E+02  0.20000001206E+02 0.  0.
         12    1    1    2    0    0 -0.11649262009E+02 -0.21273957254E+02 -0.35990786159E+02  0.43400728691E+02  0.00000000000E+00 0. -1.
         11    1    3    3    0    0 -0.18286479068E+01  0.77051717871E+01  0.62580305058E+01  0.10093392468E+02  0.51100000000E-03 0. -1.
        -11    1    3    3    0    0  0.56247380127E+01  0.17367852016E+01  0.19006370480E+02  0.19897140992E+02  0.51100000000E-03 0.  1.
        -12    1    3    3    0    0  0.78531719029E+01  0.11832000266E+02  0.10726385173E+02  0.17796737850E+02  0.00000000000E+00 0.  1.
</event>
<event>
 7    1  0.5426550E-010  0.4778727E+02  0.7816164E-02  0.1312668E+00
        -11   -1    0    0    0    0  0.00000000000E+00  0.00000000000E+00  0.45593999997E+02  0.45594000000E+02  0.51100000000E-03 0. -1.
         11   -1    0    0    0    0 -0.00000000000E+00 -0.00000000000E+00 -0.45593999997E+02  0.45594000000E+02  0.51100000000E-03 0.  1.
    9900012    2    1    2    0    0 -0.14248628310E+02  0.16434297331E+02 -0.37556805620E+02  0.47787272059E+02  0.20000004624E+02 0.  0.
         12    1    1    2    0    0  0.14248628310E+02 -0.16434297331E+02  0.37556805620E+02  0.43400727941E+02  0.00000000000E+00 0. -1.
         11    1    3    3    0    0 -0.10138903790E+02  0.10345398607E+02 -0.97886562817E+01  0.17482632367E+02  0.51100000000E-03 0. -1.
        -11    1    3    3    0    0  0.24059939217E+01  0.34020786729E+01 -0.16465739465E+02  0.16984802691E+02  0.51100000000E-03 0.  1.
        -12    1    3    3    0    0 -0.65157184425E+01  0.26868200510E+01 -0.11302409873E+02  0.13319837001E+02  0.00000000000E+00 0.  1.
</event>
<event>
 7    1  0.5426550E-010  0.4778727E+02  0.7816164E-02  0.1312668E+00
        -11   -1    0    0    0    0  0.00000000000E+00  0.00000000000E+00  0.45593999997E+02  0.45594000000E+02  0.51100000000E-03 0.  1.
         11   -1    0    0    0    0 -0.00000000000E+00 -0.00000000000E+00 -0.45593999997E+02  0.45594000000E+02  0.51100000000E-03 0. -1.
    9900012    2    1    2    0    0  0.15804973318E+02  0.24968670357E+01  0.40343424536E+02  0.47787269247E+02  0.19999991807E+02 0.  0.
         12    1    1    2    0    0 -0.15804973318E+02 -0.24968670357E+01 -0.40343424536E+02  0.43400730753E+02  0.00000000000E+00 0. -1.
         11    1    3    3    0    0  0.45796994095E+01 -0.16404965067E+01  0.15491674681E+01  0.51053692888E+01  0.51100000000E-03 0. -1.
        -11    1    3    3    0    0  0.12437401326E+02  0.68860429738E+01  0.35406868139E+02  0.38154329391E+02  0.51100000000E-03 0.  1.
        -12    1    3    3    0    0 -0.12121274177E+01 -0.27486794314E+01  0.33873889289E+01  0.45275705680E+01  0.00000000000E+00 0.  1.
</event>
<event>
 7    1  0.5426550E-010  0.4778727E+02  0.7816164E-02  0.1312668E+00
        -11   -1    0    0    0    0  0.00000000000E+00  0.00000000000E+00  0.45593999997E+02  0.45594000000E+02  0.51100000000E-03 0. -1.
         11   -1    0    0    0    0 -0.00000000000E+00 -0.00000000000E+00 -0.45593999997E+02  0.45594000000E+02  0.51100000000E-03 0.  1.
    9900012    2    1    2    0    0 -0.21920450274E+02  0.66474612908E+01 -0.36863652788E+02  0.47787265229E+02  0.19999973484E+02 0.  0.
         12    1    1    2    0    0  0.21920450274E+02 -0.66474612908E+01  0.36863652788E+02  0.43400734771E+02  0.00000000000E+00 0. -1.
         11    1    3    3    0    0 -0.64903899536E+01  0.50699406013E+01 -0.19459144735E+02  0.21130257299E+02  0.51100000000E-03 0. -1.
        -11    1    3    3    0    0 -0.13770375838E+02  0.42289956026E+01 -0.74398953320E+01  0.16212948447E+02  0.51100000000E-03 0.  1.
        -12    1    3    3    0    0 -0.16596844818E+01 -0.26514749130E+01 -0.99646127205E+01  0.10444059482E+02  0.00000000000E+00 0.  1.
</event>
<event>
 7    1  0.5426550E-010  0.4778727E+02  0.7816164E-02  0.1312668E+00
        -11   -1    0    0    0    0  0.00000000000E+00  0.00000000000E+00  0.45593999997E+02  0.45594000000E+02  0.51100000000E-03 0.  1.
         11   -1    0    0    0    0 -0.00000000000E+00 -0.00000000000E+00 -0.45593999997E+02  0.45594000000E+02  0.51100000000E-03 0. -1.
    9900012    2    1    2    0    0 -0.30585775786E+02  0.26630856498E+02  0.15457399447E+02  0.47787269638E+02  0.19999993589E+02 0.  0.
         12    1    1    2    0    0  0.30585775786E+02 -0.26630856498E+02 -0.15457399447E+02  0.43400730362E+02  0.00000000000E+00 0. -1.
         11    1    3    3    0    0 -0.95099087245E+01  0.14593446144E+02  0.58767469748E-01  0.17418682160E+02  0.51100000000E-03 0. -1.
        -11    1    3    3    0    0 -0.86897711009E+01 -0.13067792984E+00  0.65371677899E+01  0.10874914321E+02  0.51100000000E-03 0.  1.
         12    1    3    3    0    0 -0.12386095961E+02  0.12168088284E+02  0.88614641871E+01  0.19493673158E+02  0.00000000000E+00 0. -1.
</event>
<event>
 7    1  0.5426550E-010  0.4778729E+02  0.7816164E-02  0.1312668E+00
        -11   -1    0    0    0    0  0.00000000000E+00  0.00000000000E+00  0.45593999997E+02  0.45594000000E+02  0.51100000000E-03 0. -1.
         11   -1    0    0    0    0 -0.00000000000E+00 -0.00000000000E+00 -0.45593999997E+02  0.45594000000E+02  0.51100000000E-03 0.  1.
    9900012    2    1    2    0    0 -0.21893815835E+01 -0.40704421449E+02  0.14898948459E+02  0.47787285923E+02  0.20000067839E+02 0.  0.
         12    1    1    2    0    0  0.21893815835E+01  0.40704421449E+02 -0.14898948459E+02  0.43400714077E+02  0.00000000000E+00 0. -1.
         11    1    3    3    0    0 -0.56111284077E+01 -0.21100690804E+02  0.42954052002E+00  0.21838232981E+02  0.51100000000E-03 0. -1.
        -11    1    3    3    0    0  0.38912712867E+01 -0.19396097767E+02  0.11390189448E+02  0.22827330477E+02  0.51100000000E-03 0.  1.
         12    1    3    3    0    0 -0.46952446251E+00 -0.20763287801E+00  0.30792184912E+01  0.31217224651E+01  0.00000000000E+00 0. -1.
</event>
<event>
 7    1  0.5426550E-010  0.4778727E+02  0.7816164E-02  0.1312668E+00
        -11   -1    0    0    0    0  0.00000000000E+00  0.00000000000E+00  0.45593999997E+02  0.45594000000E+02  0.51100000000E-03 0. -1.
         11   -1    0    0    0    0 -0.00000000000E+00 -0.00000000000E+00 -0.45593999997E+02  0.45594000000E+02  0.51100000000E-03 0.  1.
    9900012    2    1    2    0    0  0.29411158338E+02 -0.31846501647E+02  0.20994518026E+01  0.47787267290E+02  0.19999982880E+02 0.  0.
         12    1    1    2    0    0 -0.29411158338E+02  0.31846501647E+02 -0.20994518026E+01  0.43400732710E+02  0.00000000000E+00 0. -1.
         11    1    3    3    0    0  0.23374613679E+02 -0.15385495990E+02  0.11280594208E+01  0.28006402301E+02  0.51100000000E-03 0. -1.
        -11    1    3    3    0    0  0.10400605092E+01 -0.27447492240E+01 -0.34484352177E+01  0.45284743432E+01  0.51100000000E-03 0.  1.
         12    1    3    3    0    0  0.49964841489E+01 -0.13716256433E+02  0.44198275995E+01  0.15252390645E+02  0.00000000000E+00 0. -1.
</event>
<event>
 7    1  0.5426550E-010  0.4778727E+02  0.7816164E-02  0.1312668E+00
        -11   -1    0    0    0    0  0.00000000000E+00  0.00000000000E+00  0.45593999997E+02  0.45594000000E+02  0.51100000000E-03 0.  1.
         11   -1    0    0    0    0 -0.00000000000E+00 -0.00000000000E+00 -0.45593999997E+02  0.45594000000E+02  0.51100000000E-03 0. -1.
    9900012    2    1    2    0    0 -0.42049441154E+02  0.72400331496E+01  0.79403959805E+01  0.47787268789E+02  0.19999989714E+02 0.  0.
         12    1    1    2    0    0  0.42049441154E+02 -0.72400331496E+01 -0.79403959805E+01  0.43400731211E+02  0.00000000000E+00 0. -1.
         11    1    3    3    0    0 -0.27236508196E+01 -0.26937445873E+01  0.19648226749E+01  0.43052365898E+01  0.51100000000E-03 0. -1.
        -11    1    3    3    0    0 -0.38514380858E+02  0.94318564949E+01  0.86997524308E+01  0.40595604965E+02  0.51100000000E-03 0.  1.
        -12    1    3    3    0    0 -0.81140947610E+00  0.50192124200E+00 -0.27241791252E+01  0.28864272340E+01  0.00000000000E+00 0.  1.
</event>
<event>
 7    1  0.5426550E-010  0.4778726E+02  0.7816164E-02  0.1312668E+00
        -11   -1    0    0    0    0  0.00000000000E+00  0.00000000000E+00  0.45593999997E+02  0.45594000000E+02  0.51100000000E-03 0. -1.
         11   -1    0    0    0    0 -0.00000000000E+00 -0.00000000000E+00 -0.45593999997E+02  0.45594000000E+02  0.51100000000E-03 0.  1.
    9900012    2    1    2    0    0 -0.24045172539E+02  0.32866156821E+02 -0.15008999070E+02  0.47787255309E+02  0.19999928257E+02 0.  0.
         12    1    1    2    0    0  0.24045172539E+02 -0.32866156821E+02  0.15008999070E+02  0.43400744691E+02  0.00000000000E+00 0. -1.
         11    1    3    3    0    0 -0.47336086767E+01  0.10670960582E+02 -0.28600220023E+01  0.12018992344E+02  0.51100000000E-03 0. -1.
        -11    1    3    3    0    0 -0.48547205910E+01  0.71241326578E+01  0.38684561331E+01  0.94491550552E+01  0.51100000000E-03 0.  1.
        -12    1    3    3    0    0 -0.14456843272E+02  0.15071063581E+02 -0.16017433201E+02  0.26319107910E+02  0.00000000000E+00 0.  1.
</event>
<event>
 7    1  0.5426550E-010  0.4778727E+02  0.7816164E-02  0.1312668E+00
        -11   -1    0    0    0    0  0.00000000000E+00  0.00000000000E+00  0.45593999997E+02  0.45594000000E+02  0.51100000000E-03 0. -1.
         11   -1    0    0    0    0 -0.00000000000E+00 -0.00000000000E+00 -0.45593999997E+02  0.45594000000E+02  0.51100000000E-03 0.  1.
    9900012    2    1    2    0    0  0.35400091270E+02  0.19036058399E+01 -0.25036638279E+02  0.47787269206E+02  0.19999991617E+02 0.  0.
         12    1    1    2    0    0 -0.35400091270E+02 -0.19036058399E+01  0.25036638279E+02  0.43400730794E+02  0.00000000000E+00 0. -1.
         11    1    3    3    0    0  0.15881954958E+02  0.65539591105E+01 -0.49408894617E+01  0.17877451223E+02  0.51100000000E-03 0. -1.
        -11    1    3    3    0    0  0.99606468561E+01 -0.21353105927E+01 -0.38421139854E+01  0.10887418301E+02  0.51100000000E-03 0.  1.
         12    1    3    3    0    0  0.95574894561E+01 -0.25150426779E+01 -0.16253634832E+02  0.19022399681E+02  0.00000000000E+00 0. -1.
</event>
<event>
 7    1  0.5426550E-010  0.4778728E+02  0.7816164E-02  0.1312668E+00
        -11   -1    0    0    0    0  0.00000000000E+00  0.00000000000E+00  0.45593999997E+02  0.45594000000E+02  0.51100000000E-03 0.  1.
         11   -1    0    0    0    0 -0.00000000000E+00 -0.00000000000E+00 -0.45593999997E+02  0.45594000000E+02  0.51100000000E-03 0. -1.
    9900012    2    1    2    0    0 -0.32614519616E+02 -0.28296540032E+02 -0.43841935442E+01  0.47787283178E+02  0.20000055323E+02 0.  0.
         12    1    1    2    0    0  0.32614519616E+02  0.28296540032E+02  0.43841935442E+01  0.43400716822E+02  0.00000000000E+00 0. -1.
         11    1    3    3    0    0 -0.26380388275E+02 -0.13240500074E+02 -0.68093978309E+01  0.30291972977E+02  0.51100000000E-03 0. -1.
        -11    1    3    3    0    0 -0.58330128428E+01 -0.10209560753E+02  0.39414306353E+01  0.12401372719E+02  0.51100000000E-03 0.  1.
         12    1    3    3    0    0 -0.40111849831E+00 -0.48464792051E+01 -0.15162263485E+01  0.50939374824E+01  0.00000000000E+00 0. -1.
</event>
<event>
 7    1  0.5426550E-010  0.4778727E+02  0.7816164E-02  0.1312668E+00
        -11   -1    0    0    0    0  0.00000000000E+00  0.00000000000E+00  0.45593999997E+02  0.45594000000E+02  0.51100000000E-03 0.  1.
         11   -1    0    0    0    0 -0.00000000000E+00 -0.00000000000E+00 -0.45593999997E+02  0.45594000000E+02  0.51100000000E-03 0. -1.
    9900012    2    1    2    0    0 -0.11035350588E+02  0.12588718682E+02  0.40042084012E+02  0.47787270828E+02  0.19999999012E+02 0.  0.
         12    1    1    2    0    0  0.11035350588E+02 -0.12588718682E+02 -0.40042084012E+02  0.43400729172E+02  0.00000000000E+00 0. -1.
         11    1    3    3    0    0  0.40322456998E+00  0.10788740728E+01 -0.80372021939E+00  0.14044663652E+01  0.51100000000E-03 0. -1.
        -11    1    3    3    0    0 -0.98894379320E+01  0.14851237118E+02  0.36886736493E+02  0.40975499459E+02  0.51100000000E-03 0.  1.
        -12    1    3    3    0    0 -0.15491372264E+01 -0.33413925089E+01  0.39590677385E+01  0.54073050037E+01  0.00000000000E+00 0.  1.
</event>
<event>
 7    1  0.5426550E-010  0.4778727E+02  0.7816164E-02  0.1312668E+00
        -11   -1    0    0    0    0  0.00000000000E+00  0.00000000000E+00  0.45593999997E+02  0.45594000000E+02  0.51100000000E-03 0.  1.
         11   -1    0    0    0    0 -0.00000000000E+00 -0.00000000000E+00 -0.45593999997E+02  0.45594000000E+02  0.51100000000E-03 0. -1.
    9900012    2    1    2    0    0 -0.14845738202E+02  0.33840404292E+02  0.22760805794E+02  0.47787272059E+02  0.20000004626E+02 0.  0.
         12    1    1    2    0    0  0.14845738202E+02 -0.33840404292E+02 -0.22760805794E+02  0.43400727941E+02  0.00000000000E+00 0. -1.
         11    1    3    3    0    0  0.35437799317E+01  0.52349361445E+01  0.31871407127E+01  0.70796044258E+01  0.51100000000E-03 0. -1.
        -11    1    3    3    0    0 -0.13133695148E+02  0.19572424150E+02  0.74909568241E+01  0.24732330455E+02  0.51100000000E-03 0.  1.
        -12    1    3    3    0    0 -0.52558229859E+01  0.90330439972E+01  0.12082708257E+02  0.15975337178E+02  0.00000000000E+00 0.  1.
</event>
<event>
 7    1  0.5426550E-010  0.4778727E+02  0.7816164E-02  0.1312668E+00
        -11   -1    0    0    0    0  0.00000000000E+00  0.00000000000E+00  0.45593999997E+02  0.45594000000E+02  0.51100000000E-03 0. -1.
         11   -1    0    0    0    0 -0.00000000000E+00 -0.00000000000E+00 -0.45593999997E+02  0.45594000000E+02  0.51100000000E-03 0.  1.
    9900012    2    1    2    0    0 -0.36503300020E+02  0.44717375881E+00 -0.23471951021E+02  0.47787270035E+02  0.19999995397E+02 0.  0.
         12    1    1    2    0    0  0.36503300020E+02 -0.44717375881E+00  0.23471951021E+02  0.43400729965E+02  0.00000000000E+00 0. -1.
         11    1    3    3    0    0 -0.17883917891E+02 -0.77017819243E+01 -0.14569329041E+02  0.24319073028E+02  0.51100000000E-03 0. -1.
        -11    1    3    3    0    0 -0.18624897429E+02  0.65447054035E+01 -0.92897791260E+01  0.21817881876E+02  0.51100000000E-03 0.  1.
         12    1    3    3    0    0  0.55153001053E-02  0.16042502795E+01  0.38715714565E+00  0.16503151315E+01  0.00000000000E+00 0. -1.
</event>
<event>
 7    1  0.5426550E-010  0.4778727E+02  0.7816164E-02  0.1312668E+00
        -11   -1    0    0    0    0  0.00000000000E+00  0.00000000000E+00  0.45593999997E+02  0.45594000000E+02  0.51100000000E-03 0. -1.
         11   -1    0    0    0    0 -0.00000000000E+00 -0.00000000000E+00 -0.45593999997E+02  0.45594000000E+02  0.51100000000E-03 0.  1.
    9900012    2    1    2    0    0 -0.53933260975E+01  0.42515685340E+02  0.68521486113E+01  0.47787269512E+02  0.19999993013E+02 0.  0.
         12    1    1    2    0    0  0.53933260975E+01 -0.42515685340E+02 -0.68521486113E+01  0.43400730488E+02  0.00000000000E+00 0. -1.
         11    1    3    3    0    0 -0.42007531150E+01  0.35125853027E+01 -0.23962865847E+01  0.59771876246E+01  0.51100000000E-03 0.  1.
        -11    1    3    3    0    0  0.86901243059E+00  0.31790474575E+02  0.11748380714E+02  0.33903007329E+02  0.51100000000E-03 0. -1.
         12    1    3    3    0    0 -0.20615854130E+01  0.72126254622E+01 -0.24999455183E+01  0.79070745581E+01  0.00000000000E+00 0. -1.
</event>
<event>
 7    1  0.5426550E-010  0.4778727E+02  0.7816164E-02  0.1312668E+00
        -11   -1    0    0    0    0  0.00000000000E+00  0.00000000000E+00  0.45593999997E+02  0.45594000000E+02  0.51100000000E-03 0.  1.
         11   -1    0    0    0    0 -0.00000000000E+00 -0.00000000000E+00 -0.45593999997E+02  0.45594000000E+02  0.51100000000E-03 0. -1.
    9900012    2    1    2    0    0  0.29769785231E+02 -0.25457028375E+02  0.18690186292E+02  0.47787268785E+02  0.19999989698E+02 0.  0.
         12    1    1    2    0    0 -0.29769785231E+02  0.25457028375E+02 -0.18690186292E+02  0.43400731215E+02  0.00000000000E+00 0. -1.
         11    1    3    3    0    0  0.75446393358E+01 -0.13452160886E+02 -0.79408595593E+00  0.15443859232E+02  0.51100000000E-03 0. -1.
        -11    1    3    3    0    0  0.16933431926E+02 -0.89366163691E+01  0.11682420980E+02  0.22429516026E+02  0.51100000000E-03 0.  1.
         12    1    3    3    0    0  0.52917139687E+01 -0.30682511198E+01  0.78018512674E+01  0.99138935267E+01  0.00000000000E+00 0. -1.
</event>
<event>
 7    1  0.5426550E-010  0.4778728E+02  0.7816164E-02  0.1312668E+00
        -11   -1    0    0    0    0  0.00000000000E+00  0.00000000000E+00  0.45593999997E+02  0.45594000000E+02  0.51100000000E-03 0.  1.
         11   -1    0    0    0    0 -0.00000000000E+00 -0.00000000000E+00 -0.45593999997E+02  0.45594000000E+02  0.51100000000E-03 0. -1.
    9900012    2    1    2    0    0  0.14431860092E+02 -0.27953106436E+02  0.29899297286E+02  0.47787277387E+02  0.20000028918E+02 0.  0.
         12    1    1    2    0    0 -0.14431860092E+02  0.27953106436E+02 -0.29899297286E+02  0.43400722613E+02  0.00000000000E+00 0. -1.
         11    1    3    3    0    0  0.98605359755E+00 -0.32639140508E+00  0.22062191198E+01  0.24384905397E+01  0.51100000000E-03 0. -1.
        -11    1    3    3    0    0  0.15711639082E+02 -0.13202754521E+02  0.11420824962E+02  0.23486242200E+02  0.51100000000E-03 0.  1.
        -12    1    3    3    0    0 -0.22658325881E+01 -0.14423960510E+02  0.16272253204E+02  0.21862544647E+02  0.00000000000E+00 0.  1.
</event>
<event>
 7    1  0.5426550E-010  0.4778727E+02  0.7816164E-02  0.1312668E+00
        -11   -1    0    0    0    0  0.00000000000E+00  0.00000000000E+00  0.45593999997E+02  0.45594000000E+02  0.51100000000E-03 0. -1.
         11   -1    0    0    0    0 -0.00000000000E+00 -0.00000000000E+00 -0.45593999997E+02  0.45594000000E+02  0.51100000000E-03 0.  1.
    9900012    2    1    2    0    0 -0.40588064040E+02 -0.31733563382E+01 -0.15038678871E+02  0.47787274256E+02  0.20000014641E+02 0.  0.
         12    1    1    2    0    0  0.40588064040E+02  0.31733563382E+01  0.15038678871E+02  0.43400725744E+02  0.00000000000E+00 0. -1.
         11    1    3    3    0    0 -0.22617101966E+01  0.30359920572E+01  0.21474139611E+01  0.43524668598E+01  0.51100000000E-03 0. -1.
        -11    1    3    3    0    0 -0.32765453689E+02 -0.74247784866E+01 -0.11827857205E+02  0.35617418454E+02  0.51100000000E-03 0.  1.
        -12    1    3    3    0    0 -0.55609001544E+01  0.12154300913E+01 -0.53582356266E+01  0.78173889416E+01  0.00000000000E+00 0.  1.
</event>
<event>
 7    1  0.5426550E-010  0.4778727E+02  0.7816164E-02  0.1312668E+00
        -11   -1    0    0    0    0  0.00000000000E+00  0.00000000000E+00  0.45593999997E+02  0.45594000000E+02  0.51100000000E-03 0.  1.
         11   -1    0    0    0    0 -0.00000000000E+00 -0.00000000000E+00 -0.45593999997E+02  0.45594000000E+02  0.51100000000E-03 0. -1.
    9900012    2    1    2    0    0 -0.93051622301E+01 -0.58814361834E+01  0.41981499008E+02  0.47787267348E+02  0.19999983148E+02 0.  0.
         12    1    1    2    0    0  0.93051622301E+01  0.58814361834E+01 -0.41981499008E+02  0.43400732652E+02  0.00000000000E+00 0. -1.
         11    1    3    3    0    0 -0.34765333716E+01 -0.99533243922E+01  0.26030117738E+02  0.28084194496E+02  0.51100000000E-03 0. -1.
        -11    1    3    3    0    0  0.18964822081E+01  0.17410840332E+01  0.78806052205E+01  0.82904738875E+01  0.51100000000E-03 0.  1.
         12    1    3    3    0    0 -0.77251110665E+01  0.23308041756E+01  0.80707760497E+01  0.11412598965E+02  0.00000000000E+00 0. -1.
</event>
<event>
 7    1  0.5426550E-010  0.4778727E+02  0.7816164E-02  0.1312668E+00
        -11   -1    0    0    0    0  0.00000000000E+00  0.00000000000E+00  0.45593999997E+02  0.45594000000E+02  0.51100000000E-03 0.  1.
         11   -1    0    0    0    0 -0.00000000000E+00 -0.00000000000E+00 -0.45593999997E+02  0.45594000000E+02  0.51100000000E-03 0. -1.
    9900012    2    1    2    0    0 -0.38806180614E+02  0.19374625115E+02  0.15256167370E+01  0.47787271220E+02  0.20000000799E+02 0.  0.
         12    1    1    2    0    0  0.38806180614E+02 -0.19374625115E+02 -0.15256167370E+01  0.43400728780E+02  0.00000000000E+00 0. -1.
         11    1    3    3    0    0 -0.73307404637E+01  0.59558779276E+01 -0.66020174690E+00  0.94682682811E+01  0.51100000000E-03 0. -1.
        -11    1    3    3    0    0 -0.73975272630E+01  0.12042854799E+02  0.11350290279E+01  0.14178929878E+02  0.51100000000E-03 0.  1.
        -12    1    3    3    0    0 -0.24077912888E+02  0.13758923885E+01  0.10507894560E+01  0.24140073061E+02  0.00000000000E+00 0.  1.
</event>
<event>
 7    1  0.5426550E-010  0.4778727E+02  0.7816164E-02  0.1312668E+00
        -11   -1    0    0    0    0  0.00000000000E+00  0.00000000000E+00  0.45593999997E+02  0.45594000000E+02  0.51100000000E-03 0. -1.
         11   -1    0    0    0    0 -0.00000000000E+00 -0.00000000000E+00 -0.45593999997E+02  0.45594000000E+02  0.51100000000E-03 0.  1.
    9900012    2    1    2    0    0 -0.25545514776E+02 -0.31336289830E+02 -0.15782484078E+02  0.47787272021E+02  0.20000004450E+02 0.  0.
         12    1    1    2    0    0  0.25545514776E+02  0.31336289830E+02  0.15782484078E+02  0.43400727979E+02  0.00000000000E+00 0. -1.
         11    1    3    3    0    0  0.78989471235E+00 -0.48433071402E+01  0.87326375355E+00  0.49843903895E+01  0.51100000000E-03 0. -1.
        -11    1    3    3    0    0 -0.23405038834E+02 -0.18635104573E+02 -0.16998330214E+02  0.34409391096E+02  0.51100000000E-03 0.  1.
        -12    1    3    3    0    0 -0.29303706537E+01 -0.78578781172E+01  0.34258238218E+00  0.83934905350E+01  0.00000000000E+00 0.  1.
</event>
<event>
 7    1  0.5426550E-010  0.4778727E+02  0.7816164E-02  0.1312668E+00
        -11   -1    0    0    0    0  0.00000000000E+00  0.00000000000E+00  0.45593999997E+02  0.45594000000E+02  0.51100000000E-03 0.  1.
         11   -1    0    0    0    0 -0.00000000000E+00 -0.00000000000E+00 -0.45593999997E+02  0.45594000000E+02  0.51100000000E-03 0. -1.
    9900012    2    1    2    0    0 -0.22093096750E+02  0.43588558996E+00  0.37354092017E+02  0.47787272925E+02  0.20000008572E+02 0.  0.
         12    1    1    2    0    0  0.22093096750E+02 -0.43588558996E+00 -0.37354092017E+02  0.43400727075E+02  0.00000000000E+00 0. -1.
         11    1    3    3    0    0 -0.75255726082E+01  0.56604340283E+01  0.12664896171E+02  0.15782089588E+02  0.51100000000E-03 0. -1.
        -11    1    3    3    0    0 -0.29429133188E+01 -0.78324039337E+01  0.11646006736E+02  0.14340040562E+02  0.51100000000E-03 0.  1.
        -12    1    3    3    0    0 -0.11624610823E+02  0.26078554954E+01  0.13043189111E+02  0.17665142775E+02  0.00000000000E+00 0.  1.
</event>
<event>
 7    1  0.5426550E-010  0.4778724E+02  0.7816164E-02  0.1312668E+00
        -11   -1    0    0    0    0  0.00000000000E+00  0.00000000000E+00  0.45593999997E+02  0.45594000000E+02  0.51100000000E-03 0.  1.
         11   -1    0    0    0    0 -0.00000000000E+00 -0.00000000000E+00 -0.45593999997E+02  0.45594000000E+02  0.51100000000E-03 0. -1.
    9900012    2    1    2    0    0  0.11092024153E+02 -0.27915798136E+02  0.31325722969E+02  0.47787243038E+02  0.19999872305E+02 0.  0.
         12    1    1    2    0    0 -0.11092024153E+02  0.27915798136E+02 -0.31325722969E+02  0.43400756962E+02  0.00000000000E+00 0. -1.
         11    1    3    3    0    0  0.73751228292E+01 -0.17943525340E+02  0.25977820844E+02  0.32422364418E+02  0.51100000000E-03 0.  1.
        -11    1    3    3    0    0  0.40091384370E+00 -0.10611094376E+02  0.24097718076E+01  0.10888666410E+02  0.51100000000E-03 0. -1.
         12    1    3    3    0    0  0.33159874800E+01  0.63882158046E+00  0.29381303172E+01  0.44762122090E+01  0.00000000000E+00 0. -1.
</event>
<event>
 7    1  0.5426550E-010  0.4778727E+02  0.7816164E-02  0.1312668E+00
        -11   -1    0    0    0    0  0.00000000000E+00  0.00000000000E+00  0.45593999997E+02  0.45594000000E+02  0.51100000000E-03 0.  1.
         11   -1    0    0    0    0 -0.00000000000E+00 -0.00000000000E+00 -0.45593999997E+02  0.45594000000E+02  0.51100000000E-03 0. -1.
    9900012    2    1    2    0    0  0.14642895899E+01  0.39864344602E+02  0.17097167724E+02  0.47787271219E+02  0.20000000794E+02 0.  0.
         12    1    1    2    0    0 -0.14642895899E+01 -0.39864344602E+02 -0.17097167724E+02  0.43400728781E+02  0.00000000000E+00 0. -1.
         11    1    3    3    0    0 -0.34682662029E+00 -0.82525761146E-01  0.15611637191E+01  0.16013530607E+01  0.51100000000E-03 0.  1.
        -11    1    3    3    0    0 -0.14730773388E+01  0.38218506855E+01 -0.33486245099E+01  0.52905373902E+01  0.51100000000E-03 0. -1.
        -12    1    3    3    0    0  0.32841935489E+01  0.36125019678E+02  0.18884628515E+02  0.40895380768E+02  0.00000000000E+00 0.  1.
</event>
<event>
 7    1  0.5426550E-010  0.4778727E+02  0.7816164E-02  0.1312668E+00
        -11   -1    0    0    0    0  0.00000000000E+00  0.00000000000E+00  0.45593999997E+02  0.45594000000E+02  0.51100000000E-03 0.  1.
         11   -1    0    0    0    0 -0.00000000000E+00 -0.00000000000E+00 -0.45593999997E+02  0.45594000000E+02  0.51100000000E-03 0. -1.
    9900012    2    1    2    0    0 -0.37052331766E+02 -0.17330468069E+02  0.14505277891E+02  0.47787268445E+02  0.19999988148E+02 0.  0.
         12    1    1    2    0    0  0.37052331766E+02  0.17330468069E+02 -0.14505277891E+02  0.43400731555E+02  0.00000000000E+00 0. -1.
         11    1    3    3    0    0 -0.11149143043E+02 -0.83665662039E+01 -0.18441416379E+01  0.14060714039E+02  0.51100000000E-03 0. -1.
        -11    1    3    3    0    0 -0.11521538162E+02  0.13821908770E+01  0.83013678818E+01  0.14267760939E+02  0.51100000000E-03 0.  1.
        -12    1    3    3    0    0 -0.14381650562E+02 -0.10346092742E+02  0.80480516471E+01  0.19458793468E+02  0.00000000000E+00 0.  1.
</event>
<event>
 7    1  0.5426550E-010  0.4778727E+02  0.7816164E-02  0.1312668E+00
        -11   -1    0    0    0    0  0.00000000000E+00  0.00000000000E+00  0.45593999997E+02  0.45594000000E+02  0.51100000000E-03 0.  1.
         11   -1    0    0    0    0 -0.00000000000E+00 -0.00000000000E+00 -0.45593999997E+02  0.45594000000E+02  0.51100000000E-03 0. -1.
    9900012    2    1    2    0    0  0.15339493071E+02 -0.70540889824E+01  0.39982031602E+02  0.47787273393E+02  0.20000010706E+02 0.  0.
         12    1    1    2    0    0 -0.15339493071E+02  0.70540889824E+01 -0.39982031602E+02  0.43400726607E+02  0.00000000000E+00 0. -1.
         11    1    3    3    0    0  0.86451074653E+01 -0.59157718342E+01  0.30498855218E+02  0.32247703939E+02  0.51100000000E-03 0. -1.
        -11    1    3    3    0    0  0.87787541615E+01 -0.19359363271E+01  0.44436511036E+01  0.10027981326E+02  0.51100000000E-03 0.  1.
         12    1    3    3    0    0 -0.20843685561E+01  0.79761917889E+00  0.50395252799E+01  0.55115881268E+01  0.00000000000E+00 0. -1.
</event>
<event>
 7    1  0.5426550E-010  0.4778724E+02  0.7816164E-02  0.1312668E+00
        -11   -1    0    0    0    0  0.00000000000E+00  0.00000000000E+00  0.45593999997E+02  0.45594000000E+02  0.51100000000E-03 0.  1.
         11   -1    0    0    0    0 -0.00000000000E+00 -0.00000000000E+00 -0.45593999997E+02  0.45594000000E+02  0.51100000000E-03 0. -1.
    9900012    2    1    2    0    0  0.31339319713E+01  0.33809739829E+02  0.27031566637E+02  0.47787243880E+02  0.19999876146E+02 0.  0.
         12    1    1    2    0    0 -0.31339319713E+01 -0.33809739829E+02 -0.27031566637E+02  0.43400756120E+02  0.00000000000E+00 0. -1.
         11    1    3    3    0    0  0.49097531941E+01  0.14876308782E+02  0.20516779205E+02  0.25813726360E+02  0.51100000000E-03 0.  1.
        -11    1    3    3    0    0 -0.16628475594E+01  0.13709892589E+02  0.24555400525E+00  0.13812549143E+02  0.51100000000E-03 0. -1.
         12    1    3    3    0    0 -0.11297366335E+00  0.52235384581E+01  0.62692334277E+01  0.81609683765E+01  0.00000000000E+00 0. -1.
</event>
<event>
 7    1  0.5426550E-010  0.4778727E+02  0.7816164E-02  0.1312668E+00
        -11   -1    0    0    0    0  0.00000000000E+00  0.00000000000E+00  0.45593999997E+02  0.45594000000E+02  0.51100000000E-03 0.  1.
         11   -1    0    0    0    0 -0.00000000000E+00 -0.00000000000E+00 -0.45593999997E+02  0.45594000000E+02  0.51100000000E-03 0. -1.
    9900012    2    1    2    0    0 -0.77574846913E+01  0.37445721813E+02  0.20524688887E+02  0.47787268384E+02  0.19999987872E+02 0.  0.
         12    1    1    2    0    0  0.77574846913E+01 -0.37445721813E+02 -0.20524688887E+02  0.43400731616E+02  0.00000000000E+00 0. -1.
         11    1    3    3    0    0 -0.38047692709E+01  0.55279559515E+01  0.12363066441E+02  0.14066981847E+02  0.51100000000E-03 0. -1.
        -11    1    3    3    0    0 -0.32993479496E+01  0.31621954276E+02  0.85243962300E+01  0.32916546302E+02  0.51100000000E-03 0.  1.
        -12    1    3    3    0    0 -0.65336747085E+00  0.29581158599E+00 -0.36277378425E+00  0.80374023472E+00  0.00000000000E+00 0.  1.
</event>
<event>
 7    1  0.5426550E-010  0.4778727E+02  0.7816164E-02  0.1312668E+00
        -11   -1    0    0    0    0  0.00000000000E+00  0.00000000000E+00  0.45593999997E+02  0.45594000000E+02  0.51100000000E-03 0.  1.
         11   -1    0    0    0    0 -0.00000000000E+00 -0.00000000000E+00 -0.45593999997E+02  0.45594000000E+02  0.51100000000E-03 0. -1.
    9900012    2    1    2    0    0  0.26664958101E+02 -0.12334618512E+02  0.31944645727E+02  0.47787271953E+02  0.20000004142E+02 0.  0.
         12    1    1    2    0    0 -0.26664958101E+02  0.12334618512E+02 -0.31944645727E+02  0.43400728047E+02  0.00000000000E+00 0. -1.
         11    1    3    3    0    0  0.16902730121E+02 -0.15201315989E+01  0.12078701133E+02  0.20830461036E+02  0.51100000000E-03 0. -1.
        -11    1    3    3    0    0  0.27709846635E+01 -0.10300157497E+02  0.86620005750E+01  0.13740518720E+02  0.51100000000E-03 0.  1.
         12    1    3    3    0    0  0.69912433160E+01 -0.51432941613E+00  0.11203944019E+02  0.13216292197E+02  0.00000000000E+00 0. -1.
</event>
<event>
 7    1  0.5426550E-010  0.4778727E+02  0.7816164E-02  0.1312668E+00
        -11   -1    0    0    0    0  0.00000000000E+00  0.00000000000E+00  0.45593999997E+02  0.45594000000E+02  0.51100000000E-03 0.  1.
         11   -1    0    0    0    0 -0.00000000000E+00 -0.00000000000E+00 -0.45593999997E+02  0.45594000000E+02  0.51100000000E-03 0. -1.
    9900012    2    1    2    0    0 -0.41894718131E+02  0.79686123393E+01 -0.80596147261E+01  0.47787267524E+02  0.19999983949E+02 0.  0.
         12    1    1    2    0    0  0.41894718131E+02 -0.79686123393E+01  0.80596147261E+01  0.43400732476E+02  0.00000000000E+00 0. -1.
         11    1    3    3    0    0  0.10629083087E+01 -0.22560374630E+01  0.38953345661E+00  0.25241267167E+01  0.51100000000E-03 0. -1.
        -11    1    3    3    0    0 -0.30870997588E+02  0.62032919297E+01 -0.81317280748E+01  0.32521136582E+02  0.51100000000E-03 0.  1.
         12    1    3    3    0    0 -0.12086628852E+02  0.40213578727E+01 -0.31742010791E+00  0.12742004225E+02  0.00000000000E+00 0. -1.
</event>
<event>
 7    1  0.5426550E-010  0.4778727E+02  0.7816164E-02  0.1312668E+00
        -11   -1    0    0    0    0  0.00000000000E+00  0.00000000000E+00  0.45593999997E+02  0.45594000000E+02  0.51100000000E-03 0.  1.
         11   -1    0    0    0    0 -0.00000000000E+00 -0.00000000000E+00 -0.45593999997E+02  0.45594000000E+02  0.51100000000E-03 0. -1.
    9900012    2    1    2    0    0  0.17882584775E+02  0.24412370688E+02  0.31110653021E+02  0.47787269450E+02  0.19999992730E+02 0.  0.
         12    1    1    2    0    0 -0.17882584775E+02 -0.24412370688E+02 -0.31110653021E+02  0.43400730550E+02  0.00000000000E+00 0. -1.
         11    1    3    3    0    0  0.41287272496E+01  0.66917284052E+01  0.13420102253E+02  0.15553930773E+02  0.51100000000E-03 0.  1.
        -11    1    3    3    0    0  0.15027285162E+02  0.10141383131E+02  0.78718670484E+01  0.19764443889E+02  0.51100000000E-03 0. -1.
        -12    1    3    3    0    0 -0.12734276367E+01  0.75792591519E+01  0.98186837205E+01  0.12468894788E+02  0.00000000000E+00 0.  1.
</event>
<event>
 7    1  0.5426550E-010  0.4778727E+02  0.7816164E-02  0.1312668E+00
        -11   -1    0    0    0    0  0.00000000000E+00  0.00000000000E+00  0.45593999997E+02  0.45594000000E+02  0.51100000000E-03 0.  1.
         11   -1    0    0    0    0 -0.00000000000E+00 -0.00000000000E+00 -0.45593999997E+02  0.45594000000E+02  0.51100000000E-03 0. -1.
    9900012    2    1    2    0    0  0.19020270619E+02 -0.33796673068E+02 -0.19484281807E+02  0.47787273711E+02  0.20000012157E+02 0.  0.
         12    1    1    2    0    0 -0.19020270619E+02  0.33796673068E+02  0.19484281807E+02  0.43400726289E+02  0.00000000000E+00 0. -1.
         11    1    3    3    0    0  0.10059039640E+02 -0.39340845861E+01 -0.86931399554E+01  0.13864774883E+02  0.51100000000E-03 0. -1.
        -11    1    3    3    0    0  0.57748592995E+01 -0.19303713238E+02 -0.28899532395E+01  0.20355200188E+02  0.51100000000E-03 0.  1.
        -12    1    3    3    0    0  0.31863716795E+01 -0.10558875244E+02 -0.79011886125E+01  0.13567298640E+02  0.00000000000E+00 0.  1.
</event>
<event>
 7    1  0.5426550E-010  0.4778727E+02  0.7816164E-02  0.1312668E+00
        -11   -1    0    0    0    0  0.00000000000E+00  0.00000000000E+00  0.45593999997E+02  0.45594000000E+02  0.51100000000E-03 0. -1.
         11   -1    0    0    0    0 -0.00000000000E+00 -0.00000000000E+00 -0.45593999997E+02  0.45594000000E+02  0.51100000000E-03 0.  1.
    9900012    2    1    2    0    0  0.30516951213E+02  0.27507867849E+02 -0.13987715807E+02  0.47787270761E+02  0.19999998708E+02 0.  0.
         12    1    1    2    0    0 -0.30516951213E+02 -0.27507867849E+02  0.13987715807E+02  0.43400729239E+02  0.00000000000E+00 0. -1.
         11    1    3    3    0    0  0.87375110158E+01  0.28476572022E+01  0.33410156569E+01  0.97783248143E+01  0.51100000000E-03 0. -1.
        -11    1    3    3    0    0  0.10009541134E+02  0.15683864129E+02 -0.12596154803E+02  0.22468591941E+02  0.51100000000E-03 0.  1.
         12    1    3    3    0    0  0.11769899063E+02  0.89763465184E+01 -0.47325766617E+01  0.15540354006E+02  0.00000000000E+00 0. -1.
</event>
<event>
 7    1  0.5426550E-010  0.4778727E+02  0.7816164E-02  0.1312668E+00
        -11   -1    0    0    0    0  0.00000000000E+00  0.00000000000E+00  0.45593999997E+02  0.45594000000E+02  0.51100000000E-03 0.  1.
         11   -1    0    0    0    0 -0.00000000000E+00 -0.00000000000E+00 -0.45593999997E+02  0.45594000000E+02  0.51100000000E-03 0. -1.
    9900012    2    1    2    0    0  0.20646341301E+02 -0.37524381159E+02 -0.70194448317E+01  0.47787271939E+02  0.20000004080E+02 0.  0.
         12    1    1    2    0    0 -0.20646341301E+02  0.37524381159E+02  0.70194448317E+01  0.43400728061E+02  0.00000000000E+00 0. -1.
         11    1    3    3    0    0  0.62313021469E+01 -0.70935511900E+00 -0.43253889418E+01  0.76184841596E+01  0.51100000000E-03 0. -1.
        -11    1    3    3    0    0  0.36436636745E+00 -0.74168731085E+01  0.41544374448E+00  0.74374298870E+01  0.51100000000E-03 0.  1.
         12    1    3    3    0    0  0.14050672787E+02 -0.29398152931E+02 -0.31094996344E+01  0.32731357893E+02  0.00000000000E+00 0. -1.
</event>
<event>
 7    1  0.5426550E-010  0.4778727E+02  0.7816164E-02  0.1312668E+00
        -11   -1    0    0    0    0  0.00000000000E+00  0.00000000000E+00  0.45593999997E+02  0.45594000000E+02  0.51100000000E-03 0. -1.
         11   -1    0    0    0    0 -0.00000000000E+00 -0.00000000000E+00 -0.45593999997E+02  0.45594000000E+02  0.51100000000E-03 0.  1.
    9900012    2    1    2    0    0 -0.26302468270E+02  0.25552580296E+02 -0.23213556548E+02  0.47787269540E+02  0.19999993140E+02 0.  0.
         12    1    1    2    0    0  0.26302468270E+02 -0.25552580296E+02  0.23213556548E+02  0.43400730460E+02  0.00000000000E+00 0. -1.
         11    1    3    3    0    0  0.67574378544E+00  0.32099060597E+01  0.18214903670E+01  0.37520599668E+01  0.51100000000E-03 0. -1.
        -11    1    3    3    0    0 -0.87461249370E+00 -0.89697047364E+00 -0.58839472511E+00  0.13840923590E+01  0.51100000000E-03 0.  1.
         12    1    3    3    0    0 -0.26103599561E+02  0.23239644710E+02 -0.24446652190E+02  0.42651117214E+02  0.00000000000E+00 0. -1.
</event>
<event>
 7    1  0.5426550E-010  0.4778728E+02  0.7816164E-02  0.1312668E+00
        -11   -1    0    0    0    0  0.00000000000E+00  0.00000000000E+00  0.45593999997E+02  0.45594000000E+02  0.51100000000E-03 0.  1.
         11   -1    0    0    0    0 -0.00000000000E+00 -0.00000000000E+00 -0.45593999997E+02  0.45594000000E+02  0.51100000000E-03 0. -1.
    9900012    2    1    2    0    0  0.24572169547E+02 -0.66173217303E+01  0.35157386782E+02  0.47787282167E+02  0.20000050711E+02 0.  0.
         12    1    1    2    0    0 -0.24572169547E+02  0.66173217303E+01 -0.35157386782E+02  0.43400717833E+02  0.00000000000E+00 0. -1.
         11    1    3    3    0    0 -0.37132179667E+00 -0.52245510920E+01  0.10348279818E+02  0.11598306318E+02  0.51100000000E-03 0. -1.
        -11    1    3    3    0    0  0.14619060086E+02 -0.38513599459E+01  0.18307670862E+02  0.23742803202E+02  0.51100000000E-03 0.  1.
         12    1    3    3    0    0  0.10324431258E+02  0.24585893076E+01  0.65014361014E+01  0.12446172647E+02  0.00000000000E+00 0. -1.
</event>
<event>
 7    1  0.5426550E-010  0.4778727E+02  0.7816164E-02  0.1312668E+00
        -11   -1    0    0    0    0  0.00000000000E+00  0.00000000000E+00  0.45593999997E+02  0.45594000000E+02  0.51100000000E-03 0.  1.
         11   -1    0    0    0    0 -0.00000000000E+00 -0.00000000000E+00 -0.45593999997E+02  0.45594000000E+02  0.51100000000E-03 0. -1.
    9900012    2    1    2    0    0 -0.11073805532E+02 -0.39491494989E+02 -0.14192104581E+02  0.47787272151E+02  0.20000005045E+02 0.  0.
         12    1    1    2    0    0  0.11073805532E+02  0.39491494989E+02  0.14192104581E+02  0.43400727849E+02  0.00000000000E+00 0. -1.
         11    1    3    3    0    0 -0.60657213718E+01 -0.18906106763E+02 -0.13467643993E+02  0.23991900377E+02  0.51100000000E-03 0. -1.
        -11    1    3    3    0    0 -0.77912121568E+01 -0.15219336173E+02  0.19047728030E+01  0.17203468840E+02  0.51100000000E-03 0.  1.
         12    1    3    3    0    0  0.27831279968E+01 -0.53660520519E+01 -0.26292333909E+01  0.65919029342E+01  0.00000000000E+00 0. -1.
</event>
<event>
 7    1  0.5426550E-010  0.4778727E+02  0.7816164E-02  0.1312668E+00
        -11   -1    0    0    0    0  0.00000000000E+00  0.00000000000E+00  0.45593999997E+02  0.45594000000E+02  0.51100000000E-03 0. -1.
         11   -1    0    0    0    0 -0.00000000000E+00 -0.00000000000E+00 -0.45593999997E+02  0.45594000000E+02  0.51100000000E-03 0.  1.
    9900012    2    1    2    0    0 -0.15480999725E+02 -0.36713161160E+02  0.17207723768E+02  0.47787270603E+02  0.19999997989E+02 0.  0.
         12    1    1    2    0    0  0.15480999725E+02  0.36713161160E+02 -0.17207723768E+02  0.43400729397E+02  0.00000000000E+00 0. -1.
         11    1    3    3    0    0 -0.28171666429E+01 -0.30442517774E+01 -0.39675505742E+01  0.57398044042E+01  0.51100000000E-03 0. -1.
        -11    1    3    3    0    0 -0.12720138911E+02 -0.32200336011E+02  0.21163448209E+02  0.40577766246E+02  0.51100000000E-03 0.  1.
        -12    1    3    3    0    0  0.56305829136E-01 -0.14685733719E+01  0.11826133544E-01  0.14696999532E+01  0.00000000000E+00 0.  1.
</event>
<event>
 7    1  0.5426550E-010  0.4778727E+02  0.7816164E-02  0.1312668E+00
        -11   -1    0    0    0    0  0.00000000000E+00  0.00000000000E+00  0.45593999997E+02  0.45594000000E+02  0.51100000000E-03 0.  1.
         11   -1    0    0    0    0 -0.00000000000E+00 -0.00000000000E+00 -0.45593999997E+02  0.45594000000E+02  0.51100000000E-03 0. -1.
    9900012    2    1    2    0    0  0.23732170746E+02  0.35511387889E+02  0.77038170690E+01  0.47787269642E+02  0.19999993608E+02 0.  0.
         12    1    1    2    0    0 -0.23732170746E+02 -0.35511387889E+02 -0.77038170690E+01  0.43400730358E+02  0.00000000000E+00 0. -1.
         11    1    3    3    0    0  0.11363018897E+02  0.75577596612E+01  0.64672481465E+01  0.15101762427E+02  0.51100000000E-03 0. -1.
        -11    1    3    3    0    0  0.13067073119E+02  0.28222929495E+02  0.25167038558E+01  0.31202819548E+02  0.51100000000E-03 0.  1.
         12    1    3    3    0    0 -0.69792127023E+00 -0.26930126704E+00 -0.12801349333E+01  0.14826876675E+01  0.00000000000E+00 0. -1.
</event>
<event>
 7    1  0.5426550E-010  0.4778726E+02  0.7816164E-02  0.1312668E+00
        -11   -1    0    0    0    0  0.00000000000E+00  0.00000000000E+00  0.45593999997E+02  0.45594000000E+02  0.51100000000E-03 0. -1.
         11   -1    0    0    0    0 -0.00000000000E+00 -0.00000000000E+00 -0.45593999997E+02  0.45594000000E+02  0.51100000000E-03 0.  1.
    9900012    2    1    2    0    0  0.23054761330E+02  0.36195308107E+02 -0.64808546907E+01  0.47787264679E+02  0.19999970975E+02 0.  0.
         12    1    1    2    0    0 -0.23054761330E+02 -0.36195308107E+02  0.64808546907E+01  0.43400735321E+02  0.00000000000E+00 0. -1.
         11    1    3    3    0    0  0.18510732360E+02  0.18363073608E+02 -0.97343742216E+01  0.27831775484E+02  0.51100000000E-03 0. -1.
        -11    1    3    3    0    0  0.51263744465E+01  0.18033723128E+02  0.38028216084E+01  0.19129985292E+02  0.51100000000E-03 0.  1.
         12    1    3    3    0    0 -0.58234547671E+00 -0.20148862868E+00 -0.54930207753E+00  0.82550390315E+00  0.00000000000E+00 0. -1.
</event>
<event>
 7    1  0.5426550E-010  0.4778727E+02  0.7816164E-02  0.1312668E+00
        -11   -1    0    0    0    0  0.00000000000E+00  0.00000000000E+00  0.45593999997E+02  0.45594000000E+02  0.51100000000E-03 0.  1.
         11   -1    0    0    0    0 -0.00000000000E+00 -0.00000000000E+00 -0.45593999997E+02  0.45594000000E+02  0.51100000000E-03 0. -1.
    9900012    2    1    2    0    0 -0.38953436123E+02  0.10715888690E+02  0.15856324141E+02  0.47787268768E+02  0.19999989620E+02 0.  0.
         12    1    1    2    0    0  0.38953436123E+02 -0.10715888690E+02 -0.15856324141E+02  0.43400731232E+02  0.00000000000E+00 0. -1.
         11    1    3    3    0    0 -0.17407681712E+02 -0.11723774876E+01  0.81178330571E+01  0.19243208292E+02  0.51100000000E-03 0. -1.
        -11    1    3    3    0    0 -0.11830997184E+02  0.17954833628E+01  0.82357200202E+01  0.14526642399E+02  0.51100000000E-03 0.  1.
        -12    1    3    3    0    0 -0.97147572272E+01  0.10092782815E+02 -0.49722893661E+00  0.14017418077E+02  0.00000000000E+00 0.  1.
</event>
<event>
 7    1  0.5426550E-010  0.4778727E+02  0.7816164E-02  0.1312668E+00
        -11   -1    0    0    0    0  0.00000000000E+00  0.00000000000E+00  0.45593999997E+02  0.45594000000E+02  0.51100000000E-03 0.  1.
         11   -1    0    0    0    0 -0.00000000000E+00 -0.00000000000E+00 -0.45593999997E+02  0.45594000000E+02  0.51100000000E-03 0. -1.
    9900012    2    1    2    0    0  0.30727237587E+02  0.25951257686E+02  0.16309287490E+02  0.47787265402E+02  0.19999974276E+02 0.  0.
         12    1    1    2    0    0 -0.30727237587E+02 -0.25951257686E+02 -0.16309287490E+02  0.43400734598E+02  0.00000000000E+00 0. -1.
         11    1    3    3    0    0  0.10614850821E+02  0.91344179267E+01 -0.60697009132E+00  0.14017170248E+02  0.51100000000E-03 0. -1.
        -11    1    3    3    0    0  0.17818316273E+02  0.17096673954E+02  0.18596243854E+02  0.30912925142E+02  0.51100000000E-03 0.  1.
        -12    1    3    3    0    0  0.22940704922E+01 -0.27983419529E+00 -0.16799862728E+01  0.28571700119E+01  0.00000000000E+00 0.  1.
</event>
<event>
 7    1  0.5426550E-010  0.4778727E+02  0.7816164E-02  0.1312668E+00
        -11   -1    0    0    0    0  0.00000000000E+00  0.00000000000E+00  0.45593999997E+02  0.45594000000E+02  0.51100000000E-03 0.  1.
         11   -1    0    0    0    0 -0.00000000000E+00 -0.00000000000E+00 -0.45593999997E+02  0.45594000000E+02  0.51100000000E-03 0. -1.
    9900012    2    1    2    0    0 -0.18787133118E+02 -0.35045178339E+02  0.17392600871E+02  0.47787268892E+02  0.19999990188E+02 0.  0.
         12    1    1    2    0    0  0.18787133118E+02  0.35045178339E+02 -0.17392600871E+02  0.43400731108E+02  0.00000000000E+00 0. -1.
         11    1    3    3    0    0 -0.79307911023E+01 -0.17942091895E+02  0.16775551927E+02  0.25811533310E+02  0.51100000000E-03 0.  1.
        -11    1    3    3    0    0 -0.26108512801E+01 -0.11172966041E+02 -0.15859981411E+01  0.11583052487E+02  0.51100000000E-03 0. -1.
         12    1    3    3    0    0 -0.82454907353E+01 -0.59301204035E+01  0.22030470844E+01  0.10392683095E+02  0.00000000000E+00 0. -1.
</event>
<event>
 7    1  0.5426550E-010  0.4778727E+02  0.7816164E-02  0.1312668E+00
        -11   -1    0    0    0    0  0.00000000000E+00  0.00000000000E+00  0.45593999997E+02  0.45594000000E+02  0.51100000000E-03 0. -1.
         11   -1    0    0    0    0 -0.00000000000E+00 -0.00000000000E+00 -0.45593999997E+02  0.45594000000E+02  0.51100000000E-03 0.  1.
    9900012    2    1    2    0    0  0.20636248210E+02 -0.19801220016E+02 -0.32644759212E+02  0.47787270072E+02  0.19999995565E+02 0.  0.
         12    1    1    2    0    0 -0.20636248210E+02  0.19801220016E+02  0.32644759212E+02  0.43400729928E+02  0.00000000000E+00 0. -1.
         11    1    3    3    0    0 -0.15227361882E+01 -0.41987060529E+01 -0.27122258261E+00  0.44745301394E+01  0.51100000000E-03 0. -1.
        -11    1    3    3    0    0  0.72783461173E+01 -0.89329689837E+01 -0.19010114531E+02  0.22229635891E+02  0.51100000000E-03 0.  1.
         12    1    3    3    0    0  0.14880638281E+02 -0.66695449795E+01 -0.13363422098E+02  0.21083104042E+02  0.00000000000E+00 0. -1.
</event>
<event>
 7    1  0.5426550E-010  0.4778727E+02  0.7816164E-02  0.1312668E+00
        -11   -1    0    0    0    0  0.00000000000E+00  0.00000000000E+00  0.45593999997E+02  0.45594000000E+02  0.51100000000E-03 0.  1.
         11   -1    0    0    0    0 -0.00000000000E+00 -0.00000000000E+00 -0.45593999997E+02  0.45594000000E+02  0.51100000000E-03 0. -1.
    9900012    2    1    2    0    0  0.13552732644E+02 -0.13250732602E+02  0.39043115154E+02  0.47787270541E+02  0.19999997704E+02 0.  0.
         12    1    1    2    0    0 -0.13552732644E+02  0.13250732602E+02 -0.39043115154E+02  0.43400729459E+02  0.00000000000E+00 0. -1.
         11    1    3    3    0    0  0.39904049183E+01 -0.90922691888E+01  0.76839979170E+01  0.12555338094E+02  0.51100000000E-03 0.  1.
        -11    1    3    3    0    0  0.11709837660E+02 -0.38291222187E+01  0.30502428562E+02  0.32896513849E+02  0.51100000000E-03 0. -1.
         12    1    3    3    0    0 -0.21475099341E+01 -0.32934119478E+00  0.85668867553E+00  0.23354185977E+01  0.00000000000E+00 0. -1.
</event>
<event>
 7    1  0.5426550E-010  0.4778726E+02  0.7816164E-02  0.1312668E+00
        -11   -1    0    0    0    0  0.00000000000E+00  0.00000000000E+00  0.45593999997E+02  0.45594000000E+02  0.51100000000E-03 0. -1.
         11   -1    0    0    0    0 -0.00000000000E+00 -0.00000000000E+00 -0.45593999997E+02  0.45594000000E+02  0.51100000000E-03 0.  1.
    9900012    2    1    2    0    0 -0.31937524697E+02 -0.19817703892E+02 -0.21699698910E+02  0.47787264936E+02  0.19999972148E+02 0.  0.
         12    1    1    2    0    0  0.31937524697E+02  0.19817703892E+02  0.21699698910E+02  0.43400735064E+02  0.00000000000E+00 0. -1.
         11    1    3    3    0    0 -0.11193115493E+02 -0.23116867160E+01 -0.22977826776E+01  0.11658024507E+02  0.51100000000E-03 0. -1.
        -11    1    3    3    0    0 -0.24448520101E+01 -0.33045450338E+01 -0.10566142429E+02  0.11337578459E+02  0.51100000000E-03 0.  1.
        -12    1    3    3    0    0 -0.18299557194E+02 -0.14201472142E+02 -0.88357738040E+01  0.24791661969E+02  0.00000000000E+00 0.  1.
</event>
<event>
 7    1  0.5426550E-010  0.4778727E+02  0.7816164E-02  0.1312668E+00
        -11   -1    0    0    0    0  0.00000000000E+00  0.00000000000E+00  0.45593999997E+02  0.45594000000E+02  0.51100000000E-03 0.  1.
         11   -1    0    0    0    0 -0.00000000000E+00 -0.00000000000E+00 -0.45593999997E+02  0.45594000000E+02  0.51100000000E-03 0. -1.
    9900012    2    1    2    0    0  0.14488964917E+01 -0.39086146855E+02  0.18809499936E+02  0.47787268844E+02  0.19999989969E+02 0.  0.
         12    1    1    2    0    0 -0.14488964917E+01  0.39086146855E+02 -0.18809499936E+02  0.43400731156E+02  0.00000000000E+00 0. -1.
         11    1    3    3    0    0  0.40811583282E+01 -0.19184737847E+02  0.13558467597E+00  0.19614494717E+02  0.51100000000E-03 0. -1.
        -11    1    3    3    0    0 -0.45439653062E+01 -0.10541151252E+02  0.11265451376E+02  0.16083341860E+02  0.51100000000E-03 0.  1.
         12    1    3    3    0    0  0.19117034697E+01 -0.93602577560E+01  0.74084638848E+01  0.12089432267E+02  0.00000000000E+00 0. -1.
</event>
<event>
 7    1  0.5426550E-010  0.4778726E+02  0.7816164E-02  0.1312668E+00
        -11   -1    0    0    0    0  0.00000000000E+00  0.00000000000E+00  0.45593999997E+02  0.45594000000E+02  0.51100000000E-03 0. -1.
         11   -1    0    0    0    0 -0.00000000000E+00 -0.00000000000E+00 -0.45593999997E+02  0.45594000000E+02  0.51100000000E-03 0.  1.
    9900012    2    1    2    0    0 -0.27862530194E+02 -0.30549468613E+02 -0.13192188998E+02  0.47787257243E+02  0.19999937072E+02 0.  0.
         12    1    1    2    0    0  0.27862530194E+02  0.30549468613E+02  0.13192188998E+02  0.43400742757E+02  0.00000000000E+00 0. -1.
         11    1    3    3    0    0 -0.66798042058E+01 -0.18879635668E+02 -0.14890184852E+01  0.20081772917E+02  0.51100000000E-03 0. -1.
        -11    1    3    3    0    0 -0.18935533520E+02 -0.10907801195E+02 -0.12533249021E+02  0.25191603519E+02  0.51100000000E-03 0.  1.
         12    1    3    3    0    0 -0.22471924685E+01 -0.76203174932E+00  0.83007850808E+00  0.25138808061E+01  0.00000000000E+00 0. -1.
</event>
<event>
 7    1  0.5426550E-010  0.4778727E+02  0.7816164E-02  0.1312668E+00
        -11   -1    0    0    0    0  0.00000000000E+00  0.00000000000E+00  0.45593999997E+02  0.45594000000E+02  0.51100000000E-03 0. -1.
         11   -1    0    0    0    0 -0.00000000000E+00 -0.00000000000E+00 -0.45593999997E+02  0.45594000000E+02  0.51100000000E-03 0.  1.
    9900012    2    1    2    0    0  0.34282028494E+02 -0.26581742363E+02  0.13330920817E+01  0.47787266836E+02  0.19999980810E+02 0.  0.
         12    1    1    2    0    0 -0.34282028494E+02  0.26581742363E+02 -0.13330920817E+01  0.43400733164E+02  0.00000000000E+00 0. -1.
         11    1    3    3    0    0  0.23598525054E+02 -0.23570580354E+02 -0.38120856081E+00  0.33355778558E+02  0.51100000000E-03 0. -1.
        -11    1    3    3    0    0  0.69883659277E+01  0.96465697073E+00 -0.25786939742E+01  0.75111573199E+01  0.51100000000E-03 0.  1.
         12    1    3    3    0    0  0.36951375124E+01 -0.39758189792E+01  0.42929946167E+01  0.69203309581E+01  0.00000000000E+00 0. -1.
</event>
<event>
 7    1  0.5426550E-010  0.4778728E+02  0.7816164E-02  0.1312668E+00
        -11   -1    0    0    0    0  0.00000000000E+00  0.00000000000E+00  0.45593999997E+02  0.45594000000E+02  0.51100000000E-03 0.  1.
         11   -1    0    0    0    0 -0.00000000000E+00 -0.00000000000E+00 -0.45593999997E+02  0.45594000000E+02  0.51100000000E-03 0. -1.
    9900012    2    1    2    0    0 -0.37698362274E+02 -0.17243090385E+02  0.12850367504E+02  0.47787278472E+02  0.20000033864E+02 0.  0.
         12    1    1    2    0    0  0.37698362274E+02  0.17243090385E+02 -0.12850367504E+02  0.43400721528E+02  0.00000000000E+00 0. -1.
         11    1    3    3    0    0 -0.24442937384E+02 -0.13207102922E+02  0.15224616131E+01  0.27824497213E+02  0.51100000000E-03 0. -1.
        -11    1    3    3    0    0 -0.13055818714E+02 -0.40370715487E+01  0.12652285128E+02  0.18623444048E+02  0.51100000000E-03 0.  1.
        -12    1    3    3    0    0 -0.19960617708E+00  0.10840854179E-02 -0.13243792375E+01  0.13393372114E+01  0.00000000000E+00 0.  1.
</event>
<event>
 7    1  0.5426550E-010  0.4778727E+02  0.7816164E-02  0.1312668E+00
        -11   -1    0    0    0    0  0.00000000000E+00  0.00000000000E+00  0.45593999997E+02  0.45594000000E+02  0.51100000000E-03 0.  1.
         11   -1    0    0    0    0 -0.00000000000E+00 -0.00000000000E+00 -0.45593999997E+02  0.45594000000E+02  0.51100000000E-03 0. -1.
    9900012    2    1    2    0    0  0.41903613673E+02 -0.84062720566E+01 -0.75528389311E+01  0.47787267003E+02  0.19999981573E+02 0.  0.
         12    1    1    2    0    0 -0.41903613673E+02  0.84062720566E+01  0.75528389311E+01  0.43400732997E+02  0.00000000000E+00 0. -1.
         11    1    3    3    0    0  0.40019792507E+01 -0.47486047515E+01 -0.53865647323E+01  0.82207155945E+01  0.51100000000E-03 0. -1.
        -11    1    3    3    0    0  0.37409696041E+02 -0.40376254738E+01 -0.38002122768E+01  0.37818373722E+02  0.51100000000E-03 0.  1.
        -12    1    3    3    0    0  0.49193838115E+00  0.37995816865E+00  0.16339380780E+01  0.17481776865E+01  0.00000000000E+00 0.  1.
</event>
<event>
 7    1  0.5426550E-010  0.4778727E+02  0.7816164E-02  0.1312668E+00
        -11   -1    0    0    0    0  0.00000000000E+00  0.00000000000E+00  0.45593999997E+02  0.45594000000E+02  0.51100000000E-03 0. -1.
         11   -1    0    0    0    0 -0.00000000000E+00 -0.00000000000E+00 -0.45593999997E+02  0.45594000000E+02  0.51100000000E-03 0.  1.
    9900012    2    1    2    0    0 -0.35215344012E+02 -0.25357008537E+02 -0.72438567848E+00  0.47787273388E+02  0.20000010685E+02 0.  0.
         12    1    1    2    0    0  0.35215344012E+02  0.25357008537E+02  0.72438567848E+00  0.43400726612E+02  0.00000000000E+00 0. -1.
         11    1    3    3    0    0  0.54767962048E+00 -0.57751591673E+00 -0.14691613024E+00  0.80935913611E+00  0.51100000000E-03 0. -1.
        -11    1    3    3    0    0 -0.29442989533E+02 -0.11717711635E+02 -0.43471252510E+01  0.31985807740E+02  0.51100000000E-03 0.  1.
        -12    1    3    3    0    0 -0.63200340999E+01 -0.13061780985E+02  0.37696557028E+01  0.14992106512E+02  0.00000000000E+00 0.  1.
</event>
<event>
 7    1  0.5426550E-010  0.4778727E+02  0.7816164E-02  0.1312668E+00
        -11   -1    0    0    0    0  0.00000000000E+00  0.00000000000E+00  0.45593999997E+02  0.45594000000E+02  0.51100000000E-03 0.  1.
         11   -1    0    0    0    0 -0.00000000000E+00 -0.00000000000E+00 -0.45593999997E+02  0.45594000000E+02  0.51100000000E-03 0. -1.
    9900012    2    1    2    0    0  0.19212215119E+02  0.85732507120E+01  0.37960685892E+02  0.47787268314E+02  0.19999987549E+02 0.  0.
         12    1    1    2    0    0 -0.19212215119E+02 -0.85732507120E+01 -0.37960685892E+02  0.43400731686E+02  0.00000000000E+00 0. -1.
         11    1    3    3    0    0  0.14540982030E+02  0.81776974174E+01  0.18085722588E+02  0.24605045321E+02  0.51100000000E-03 0. -1.
        -11    1    3    3    0    0  0.19601139992E+00 -0.47794704111E+01  0.56903216731E+01  0.74338091773E+01  0.51100000000E-03 0.  1.
         12    1    3    3    0    0  0.44752216889E+01  0.51750237056E+01  0.14184641631E+02  0.15748413816E+02  0.00000000000E+00 0. -1.
</event>
<event>
 7    1  0.5426550E-010  0.4778727E+02  0.7816164E-02  0.1312668E+00
        -11   -1    0    0    0    0  0.00000000000E+00  0.00000000000E+00  0.45593999997E+02  0.45594000000E+02  0.51100000000E-03 0.  1.
         11   -1    0    0    0    0 -0.00000000000E+00 -0.00000000000E+00 -0.45593999997E+02  0.45594000000E+02  0.51100000000E-03 0. -1.
    9900012    2    1    2    0    0  0.36303121111E+02 -0.15990552062E+02  0.17607066537E+02  0.47787272475E+02  0.20000006522E+02 0.  0.
         12    1    1    2    0    0 -0.36303121111E+02  0.15990552062E+02 -0.17607066537E+02  0.43400727525E+02  0.00000000000E+00 0. -1.
         11    1    3    3    0    0 -0.13702152167E+01  0.16845328546E+00 -0.17887251963E+01  0.22595141820E+01  0.51100000000E-03 0. -1.
        -11    1    3    3    0    0  0.17184646202E+01 -0.10866532904E+01  0.19462926819E+01  0.28146032561E+01  0.51100000000E-03 0.  1.
         12    1    3    3    0    0  0.35954871708E+02 -0.15072352058E+02  0.17449499051E+02  0.42713155037E+02  0.00000000000E+00 0. -1.
</event>
<event>
 7    1  0.5426550E-010  0.4778727E+02  0.7816164E-02  0.1312668E+00
        -11   -1    0    0    0    0  0.00000000000E+00  0.00000000000E+00  0.45593999997E+02  0.45594000000E+02  0.51100000000E-03 0. -1.
         11   -1    0    0    0    0 -0.00000000000E+00 -0.00000000000E+00 -0.45593999997E+02  0.45594000000E+02  0.51100000000E-03 0.  1.
    9900012    2    1    2    0    0 -0.36508684917E-01 -0.32768079566E+01 -0.43276837519E+02  0.47787268797E+02  0.19999989754E+02 0.  0.
         12    1    1    2    0    0  0.36508684917E-01  0.32768079566E+01  0.43276837519E+02  0.43400731203E+02  0.00000000000E+00 0. -1.
         11    1    3    3    0    0 -0.92199764136E+00  0.39437840023E+01 -0.65644989998E+01  0.77133753498E+01  0.51100000000E-03 0.  1.
        -11    1    3    3    0    0 -0.30502835019E+01 -0.24056884645E+00 -0.28266383406E+02  0.28431506009E+02  0.51100000000E-03 0. -1.
        -12    1    3    3    0    0  0.39357724584E+01 -0.69800231124E+01 -0.84459551136E+01  0.11642387439E+02  0.00000000000E+00 0.  1.
</event>
<event>
 7    1  0.5426550E-010  0.4778727E+02  0.7816164E-02  0.1312668E+00
        -11   -1    0    0    0    0  0.00000000000E+00  0.00000000000E+00  0.45593999997E+02  0.45594000000E+02  0.51100000000E-03 0.  1.
         11   -1    0    0    0    0 -0.00000000000E+00 -0.00000000000E+00 -0.45593999997E+02  0.45594000000E+02  0.51100000000E-03 0. -1.
    9900012    2    1    2    0    0  0.32011769902E+02  0.49955347741E+01  0.28877579372E+02  0.47787269934E+02  0.19999994935E+02 0.  0.
         12    1    1    2    0    0 -0.32011769902E+02 -0.49955347741E+01 -0.28877579372E+02  0.43400730066E+02  0.00000000000E+00 0. -1.
         11    1    3    3    0    0  0.55708405912E+01 -0.13731567713E+01  0.10408780681E+01  0.58312307298E+01  0.51100000000E-03 0. -1.
        -11    1    3    3    0    0  0.28425091947E+02  0.47352494993E+01  0.25752636732E+02  0.38647208682E+02  0.51100000000E-03 0.  1.
        -12    1    3    3    0    0 -0.19841626358E+01  0.16334420461E+01  0.20840645712E+01  0.33088305215E+01  0.00000000000E+00 0.  1.
</event>
<event>
 7    1  0.5426550E-010  0.4778727E+02  0.7816164E-02  0.1312668E+00
        -11   -1    0    0    0    0  0.00000000000E+00  0.00000000000E+00  0.45593999997E+02  0.45594000000E+02  0.51100000000E-03 0. -1.
         11   -1    0    0    0    0 -0.00000000000E+00 -0.00000000000E+00 -0.45593999997E+02  0.45594000000E+02  0.51100000000E-03 0.  1.
    9900012    2    1    2    0    0 -0.17931260635E+02  0.38678652287E+02  0.81274408313E+01  0.47787267919E+02  0.19999985751E+02 0.  0.
         12    1    1    2    0    0  0.17931260635E+02 -0.38678652287E+02 -0.81274408313E+01  0.43400732081E+02  0.00000000000E+00 0. -1.
         11    1    3    3    0    0 -0.89376332527E+01  0.24066068906E+02  0.12356291049E+02  0.28490961541E+02  0.51100000000E-03 0. -1.
        -11    1    3    3    0    0 -0.34718458491E+01  0.12283686295E+02 -0.20993242180E+01  0.12936376039E+02  0.51100000000E-03 0.  1.
         12    1    3    3    0    0 -0.55217815333E+01  0.23288970853E+01 -0.21295259998E+01  0.63599303392E+01  0.00000000000E+00 0. -1.
</event>
<event>
 7    1  0.5426550E-010  0.4778727E+02  0.7816164E-02  0.1312668E+00
        -11   -1    0    0    0    0  0.00000000000E+00  0.00000000000E+00  0.45593999997E+02  0.45594000000E+02  0.51100000000E-03 0.  1.
         11   -1    0    0    0    0 -0.00000000000E+00 -0.00000000000E+00 -0.45593999997E+02  0.45594000000E+02  0.51100000000E-03 0. -1.
    9900012    2    1    2    0    0 -0.28368895867E+02 -0.17296719172E+01  0.32799962872E+02  0.47787267494E+02  0.19999983812E+02 0.  0.
         12    1    1    2    0    0  0.28368895867E+02  0.17296719172E+01 -0.32799962872E+02  0.43400732506E+02  0.00000000000E+00 0. -1.
         11    1    3    3    0    0  0.23174933552E+00  0.78926517641E-01 -0.95277890322E+00  0.98373017095E+00  0.51100000000E-03 0. -1.
        -11    1    3    3    0    0 -0.15810532527E+02  0.64728065424E+01  0.19693985654E+02  0.26071502345E+02  0.51100000000E-03 0.  1.
        -12    1    3    3    0    0 -0.12790112675E+02 -0.82814049773E+01  0.14058756121E+02  0.20732034978E+02  0.00000000000E+00 0.  1.
</event>
<event>
 7    1  0.5426550E-010  0.4778727E+02  0.7816164E-02  0.1312668E+00
        -11   -1    0    0    0    0  0.00000000000E+00  0.00000000000E+00  0.45593999997E+02  0.45594000000E+02  0.51100000000E-03 0.  1.
         11   -1    0    0    0    0 -0.00000000000E+00 -0.00000000000E+00 -0.45593999997E+02  0.45594000000E+02  0.51100000000E-03 0. -1.
    9900012    2    1    2    0    0 -0.20977909080E+02 -0.35816314600E+02  0.12678407154E+02  0.47787273407E+02  0.20000010770E+02 0.  0.
         12    1    1    2    0    0  0.20977909080E+02  0.35816314600E+02 -0.12678407154E+02  0.43400726593E+02  0.00000000000E+00 0. -1.
         11    1    3    3    0    0 -0.39168204663E+01  0.83428900822E+00  0.33095222718E+00  0.40183392530E+01  0.51100000000E-03 0. -1.
        -11    1    3    3    0    0 -0.84296664979E+01 -0.29720531828E+02  0.83679853118E+01  0.32006131723E+02  0.51100000000E-03 0.  1.
        -12    1    3    3    0    0 -0.86314221155E+01 -0.69300717803E+01  0.39794696145E+01  0.11762802431E+02  0.00000000000E+00 0.  1.
</event>
<event>
 7    1  0.5426550E-010  0.4778727E+02  0.7816164E-02  0.1312668E+00
        -11   -1    0    0    0    0  0.00000000000E+00  0.00000000000E+00  0.45593999997E+02  0.45594000000E+02  0.51100000000E-03 0.  1.
         11   -1    0    0    0    0 -0.00000000000E+00 -0.00000000000E+00 -0.45593999997E+02  0.45594000000E+02  0.51100000000E-03 0. -1.
    9900012    2    1    2    0    0 -0.64599113167E+01 -0.21191573765E+02  0.37320370457E+02  0.47787270699E+02  0.19999998423E+02 0.  0.
         12    1    1    2    0    0  0.64599113167E+01  0.21191573765E+02 -0.37320370457E+02  0.43400729301E+02  0.00000000000E+00 0. -1.
         11    1    3    3    0    0 -0.27050023086E+01  0.16601460697E+01  0.49726304850E+01  0.58991674551E+01  0.51100000000E-03 0. -1.
        -11    1    3    3    0    0 -0.71439196237E+01 -0.21206215557E+02  0.30080895089E+02  0.37491324536E+02  0.51100000000E-03 0.  1.
        -12    1    3    3    0    0  0.33890106156E+01 -0.16455042781E+01  0.22668448826E+01  0.43967787076E+01  0.00000000000E+00 0.  1.
</event>
<event>
 7    1  0.5426550E-010  0.4778727E+02  0.7816164E-02  0.1312668E+00
        -11   -1    0    0    0    0  0.00000000000E+00  0.00000000000E+00  0.45593999997E+02  0.45594000000E+02  0.51100000000E-03 0.  1.
         11   -1    0    0    0    0 -0.00000000000E+00 -0.00000000000E+00 -0.45593999997E+02  0.45594000000E+02  0.51100000000E-03 0. -1.
    9900012    2    1    2    0    0 -0.19081793747E+02 -0.25074688743E+02  0.29845738776E+02  0.47787274300E+02  0.20000014845E+02 0.  0.
         12    1    1    2    0    0  0.19081793747E+02  0.25074688743E+02 -0.29845738776E+02  0.43400725700E+02  0.00000000000E+00 0. -1.
         11    1    3    3    0    0 -0.10443160992E+02 -0.15394472533E+02  0.54083065526E+01  0.19372639885E+02  0.51100000000E-03 0. -1.
        -11    1    3    3    0    0 -0.77258031011E+01 -0.50852140198E+01  0.12189763049E+02  0.15301560660E+02  0.51100000000E-03 0.  1.
         12    1    3    3    0    0 -0.91282965455E+00 -0.45950021899E+01  0.12247669175E+02  0.13113073756E+02  0.00000000000E+00 0. -1.
</event>
<event>
 7    1  0.5426550E-010  0.4778727E+02  0.7816164E-02  0.1312668E+00
        -11   -1    0    0    0    0  0.00000000000E+00  0.00000000000E+00  0.45593999997E+02  0.45594000000E+02  0.51100000000E-03 0.  1.
         11   -1    0    0    0    0 -0.00000000000E+00 -0.00000000000E+00 -0.45593999997E+02  0.45594000000E+02  0.51100000000E-03 0. -1.
    9900012    2    1    2    0    0 -0.26797317575E+02  0.33554621516E+02  0.62940057020E+01  0.47787270029E+02  0.19999995369E+02 0.  0.
         12    1    1    2    0    0  0.26797317575E+02 -0.33554621516E+02 -0.62940057020E+01  0.43400729971E+02  0.00000000000E+00 0. -1.
         11    1    3    3    0    0 -0.49504450993E+01  0.10548134745E+02 -0.42516156018E+01  0.12403478897E+02  0.51100000000E-03 0. -1.
        -11    1    3    3    0    0 -0.58090975612E+01  0.57707091331E+01  0.84198583909E+01  0.11744816472E+02  0.51100000000E-03 0.  1.
        -12    1    3    3    0    0 -0.16037774914E+02  0.17235777638E+02  0.21257629129E+01  0.23638974659E+02  0.00000000000E+00 0.  1.
</event>
<event>
 7    1  0.5426550E-010  0.4778727E+02  0.7816164E-02  0.1312668E+00
        -11   -1    0    0    0    0  0.00000000000E+00  0.00000000000E+00  0.45593999997E+02  0.45594000000E+02  0.51100000000E-03 0.  1.
         11   -1    0    0    0    0 -0.00000000000E+00 -0.00000000000E+00 -0.45593999997E+02  0.45594000000E+02  0.51100000000E-03 0. -1.
    9900012    2    1    2    0    0  0.33048496988E+02  0.18441939540E+01  0.28071677774E+02  0.47787270772E+02  0.19999998757E+02 0.  0.
         12    1    1    2    0    0 -0.33048496988E+02 -0.18441939540E+01 -0.28071677774E+02  0.43400729228E+02  0.00000000000E+00 0. -1.
         11    1    3    3    0    0  0.84500006006E+01  0.62332630828E+01  0.70960222821E+01  0.12673184734E+02  0.51100000000E-03 0. -1.
        -11    1    3    3    0    0  0.17130552629E+02 -0.46896673683E+01  0.21174965379E+02  0.27637437878E+02  0.51100000000E-03 0.  1.
        -12    1    3    3    0    0  0.74679437581E+01  0.30059823953E+00 -0.19930988708E+00  0.74766481599E+01  0.00000000000E+00 0.  1.
</event>
<event>
 7    1  0.5426550E-010  0.4778727E+02  0.7816164E-02  0.1312668E+00
        -11   -1    0    0    0    0  0.00000000000E+00  0.00000000000E+00  0.45593999997E+02  0.45594000000E+02  0.51100000000E-03 0.  1.
         11   -1    0    0    0    0 -0.00000000000E+00 -0.00000000000E+00 -0.45593999997E+02  0.45594000000E+02  0.51100000000E-03 0. -1.
    9900012    2    1    2    0    0  0.22577883241E+02  0.18815142715E+02  0.31935136646E+02  0.47787270057E+02  0.19999995496E+02 0.  0.
         12    1    1    2    0    0 -0.22577883241E+02 -0.18815142715E+02 -0.31935136646E+02  0.43400729943E+02  0.00000000000E+00 0. -1.
         11    1    3    3    0    0  0.84687374460E+01  0.49937696979E+01  0.54786103548E+01  0.11254884335E+02  0.51100000000E-03 0. -1.
        -11    1    3    3    0    0  0.13511357733E+02  0.33119158920E+01  0.19349945120E+02  0.23831616627E+02  0.51100000000E-03 0.  1.
        -12    1    3    3    0    0  0.59778806176E+00  0.10509457125E+02  0.71065811713E+01  0.12700769094E+02  0.00000000000E+00 0.  1.
</event>
<event>
 7    1  0.5426550E-010  0.4778727E+02  0.7816164E-02  0.1312668E+00
        -11   -1    0    0    0    0  0.00000000000E+00  0.00000000000E+00  0.45593999997E+02  0.45594000000E+02  0.51100000000E-03 0. -1.
         11   -1    0    0    0    0 -0.00000000000E+00 -0.00000000000E+00 -0.45593999997E+02  0.45594000000E+02  0.51100000000E-03 0.  1.
    9900012    2    1    2    0    0 -0.14299890474E+02  0.27712082527E+02 -0.30185709937E+02  0.47787268785E+02  0.19999989700E+02 0.  0.
         12    1    1    2    0    0  0.14299890474E+02 -0.27712082527E+02  0.30185709937E+02  0.43400731215E+02  0.00000000000E+00 0. -1.
         11    1    3    3    0    0 -0.39197253724E+01  0.18992454396E+02 -0.13758958345E+02  0.23777857472E+02  0.51100000000E-03 0. -1.
        -11    1    3    3    0    0 -0.24596957869E+01 -0.25057728454E+01 -0.18124090964E+01  0.39514336526E+01  0.51100000000E-03 0.  1.
        -12    1    3    3    0    0 -0.79204693146E+01  0.11225400977E+02 -0.14614342496E+02  0.20057977661E+02  0.00000000000E+00 0.  1.
</event>
<event>
 7    1  0.5426550E-010  0.4778727E+02  0.7816164E-02  0.1312668E+00
        -11   -1    0    0    0    0  0.00000000000E+00  0.00000000000E+00  0.45593999997E+02  0.45594000000E+02  0.51100000000E-03 0.  1.
         11   -1    0    0    0    0 -0.00000000000E+00 -0.00000000000E+00 -0.45593999997E+02  0.45594000000E+02  0.51100000000E-03 0. -1.
    9900012    2    1    2    0    0 -0.19073278714E+00 -0.20542107160E+02  0.38230994597E+02  0.47787268515E+02  0.19999988467E+02 0.  0.
         12    1    1    2    0    0  0.19073278714E+00  0.20542107160E+02 -0.38230994597E+02  0.43400731485E+02  0.00000000000E+00 0. -1.
         11    1    3    3    0    0 -0.29381696074E+01 -0.20311177226E+01  0.18363291157E+02  0.18707451516E+02  0.51100000000E-03 0. -1.
        -11    1    3    3    0    0  0.50270717044E+00 -0.12546188937E+02  0.18815412818E+02  0.22620330040E+02  0.51100000000E-03 0.  1.
         12    1    3    3    0    0  0.22447296498E+01 -0.59648005012E+01  0.10522906214E+01  0.64594869588E+01  0.00000000000E+00 0. -1.
</event>
<event>
 7    1  0.5426550E-010  0.4778727E+02  0.7816164E-02  0.1312668E+00
        -11   -1    0    0    0    0  0.00000000000E+00  0.00000000000E+00  0.45593999997E+02  0.45594000000E+02  0.51100000000E-03 0.  1.
         11   -1    0    0    0    0 -0.00000000000E+00 -0.00000000000E+00 -0.45593999997E+02  0.45594000000E+02  0.51100000000E-03 0. -1.
    9900012    2    1    2    0    0 -0.42044692923E+02  0.33764644871E+00  0.10758859030E+02  0.47787271254E+02  0.20000000954E+02 0.  0.
         12    1    1    2    0    0  0.42044692923E+02 -0.33764644871E+00 -0.10758859030E+02  0.43400728746E+02  0.00000000000E+00 0. -1.
         11    1    3    3    0    0  0.19669002578E+01  0.10964583503E+01  0.41238461349E+00  0.22893184289E+01  0.51100000000E-03 0. -1.
        -11    1    3    3    0    0 -0.38166774011E+02 -0.22643504952E+01  0.95631946521E+01  0.39411731931E+02  0.51100000000E-03 0.  1.
         12    1    3    3    0    0 -0.58448191692E+01  0.15055385936E+01  0.78327976431E+00  0.60862208936E+01  0.00000000000E+00 0. -1.
</event>
<event>
 7    1  0.5426550E-010  0.4778727E+02  0.7816164E-02  0.1312668E+00
        -11   -1    0    0    0    0  0.00000000000E+00  0.00000000000E+00  0.45593999997E+02  0.45594000000E+02  0.51100000000E-03 0.  1.
         11   -1    0    0    0    0 -0.00000000000E+00 -0.00000000000E+00 -0.45593999997E+02  0.45594000000E+02  0.51100000000E-03 0. -1.
    9900012    2    1    2    0    0 -0.22739087241E+02 -0.59888205395E+01  0.36478643633E+02  0.47787268424E+02  0.19999988054E+02 0.  0.
         12    1    1    2    0    0  0.22739087241E+02  0.59888205395E+01 -0.36478643633E+02  0.43400731576E+02  0.00000000000E+00 0. -1.
         11    1    3    3    0    0 -0.15648428056E+01 -0.20616576938E+01 -0.42222652058E+00  0.26224875497E+01  0.51100000000E-03 0. -1.
        -11    1    3    3    0    0 -0.22653987563E+02 -0.22047947819E+01  0.36248714533E+02  0.42802261366E+02  0.51100000000E-03 0.  1.
        -12    1    3    3    0    0  0.14797431283E+01 -0.17223680638E+01  0.65215562091E+00  0.23625195082E+01  0.00000000000E+00 0.  1.
</event>
<event>
 7    1  0.5426550E-010  0.4778727E+02  0.7816164E-02  0.1312668E+00
        -11   -1    0    0    0    0  0.00000000000E+00  0.00000000000E+00  0.45593999997E+02  0.45594000000E+02  0.51100000000E-03 0. -1.
         11   -1    0    0    0    0 -0.00000000000E+00 -0.00000000000E+00 -0.45593999997E+02  0.45594000000E+02  0.51100000000E-03 0.  1.
    9900012    2    1    2    0    0 -0.60316172189E+01  0.42295509080E+02  0.76375887345E+01  0.47787271247E+02  0.20000000922E+02 0.  0.
         12    1    1    2    0    0  0.60316172189E+01 -0.42295509080E+02 -0.76375887345E+01  0.43400728753E+02  0.00000000000E+00 0. -1.
         11    1    3    3    0    0  0.32771953560E+01  0.18297762575E+02  0.25206301607E+01  0.18759043188E+02  0.51100000000E-03 0. -1.
        -11    1    3    3    0    0 -0.63752768883E+01  0.89993207751E+01  0.78048772306E+01  0.13511033960E+02  0.51100000000E-03 0.  1.
        -12    1    3    3    0    0 -0.29335356867E+01  0.14998425730E+02 -0.26879186568E+01  0.15517194099E+02  0.00000000000E+00 0.  1.
</event>
<event>
 7    1  0.5426550E-010  0.4778727E+02  0.7816164E-02  0.1312668E+00
        -11   -1    0    0    0    0  0.00000000000E+00  0.00000000000E+00  0.45593999997E+02  0.45594000000E+02  0.51100000000E-03 0. -1.
         11   -1    0    0    0    0 -0.00000000000E+00 -0.00000000000E+00 -0.45593999997E+02  0.45594000000E+02  0.51100000000E-03 0.  1.
    9900012    2    1    2    0    0 -0.19770765695E+02 -0.69799794192E+01 -0.38000262452E+02  0.47787271489E+02  0.20000002027E+02 0.  0.
         12    1    1    2    0    0  0.19770765695E+02  0.69799794192E+01  0.38000262452E+02  0.43400728511E+02  0.00000000000E+00 0. -1.
         11    1    3    3    0    0  0.25546424140E+01  0.61892266121E+00 -0.41932445996E+01  0.49489962272E+01  0.51100000000E-03 0. -1.
        -11    1    3    3    0    0 -0.20356682537E+02 -0.23613634349E+01 -0.28679323487E+02  0.35248746887E+02  0.51100000000E-03 0.  1.
        -12    1    3    3    0    0 -0.19687255716E+01 -0.52375386455E+01 -0.51276943656E+01  0.75895283744E+01  0.00000000000E+00 0.  1.
</event>
<event>
 7    1  0.5426550E-010  0.4778728E+02  0.7816164E-02  0.1312668E+00
        -11   -1    0    0    0    0  0.00000000000E+00  0.00000000000E+00  0.45593999997E+02  0.45594000000E+02  0.51100000000E-03 0.  1.
         11   -1    0    0    0    0 -0.00000000000E+00 -0.00000000000E+00 -0.45593999997E+02  0.45594000000E+02  0.51100000000E-03 0. -1.
    9900012    2    1    2    0    0 -0.21819762247E+02  0.76498773049E+01  0.36728730183E+02  0.47787282631E+02  0.20000052827E+02 0.  0.
         12    1    1    2    0    0  0.21819762247E+02 -0.76498773049E+01 -0.36728730183E+02  0.43400717369E+02  0.00000000000E+00 0. -1.
         11    1    3    3    0    0 -0.71229689226E+00 -0.23304947659E+01  0.33917385162E+00  0.24604088846E+01  0.51100000000E-03 0. -1.
        -11    1    3    3    0    0 -0.14534760518E+02  0.10001393755E+02  0.34051080353E+02  0.38350530816E+02  0.51100000000E-03 0.  1.
        -12    1    3    3    0    0 -0.65727048369E+01 -0.21021684366E-01  0.23384759782E+01  0.69763429306E+01  0.00000000000E+00 0.  1.
</event>
<event>
 7    1  0.5426550E-010  0.4778728E+02  0.7816164E-02  0.1312668E+00
        -11   -1    0    0    0    0  0.00000000000E+00  0.00000000000E+00  0.45593999997E+02  0.45594000000E+02  0.51100000000E-03 0. -1.
         11   -1    0    0    0    0 -0.00000000000E+00 -0.00000000000E+00 -0.45593999997E+02  0.45594000000E+02  0.51100000000E-03 0.  1.
    9900012    2    1    2    0    0 -0.34971246783E+02  0.24965141406E+02 -0.61136141008E+01  0.47787278067E+02  0.20000032017E+02 0.  0.
         12    1    1    2    0    0  0.34971246783E+02 -0.24965141406E+02  0.61136141008E+01  0.43400721933E+02  0.00000000000E+00 0. -1.
         11    1    3    3    0    0 -0.31933016787E+01 -0.28623829589E+01 -0.17640281230E+01  0.46370472603E+01  0.51100000000E-03 0. -1.
        -11    1    3    3    0    0 -0.24825967458E+02  0.19820423617E+02 -0.62521575795E+01  0.32376956732E+02  0.51100000000E-03 0.  1.
         12    1    3    3    0    0 -0.69519776465E+01  0.80071007477E+01  0.19025716017E+01  0.10773274074E+02  0.00000000000E+00 0. -1.
</event>
<event>
 7    1  0.5426550E-010  0.4778727E+02  0.7816164E-02  0.1312668E+00
        -11   -1    0    0    0    0  0.00000000000E+00  0.00000000000E+00  0.45593999997E+02  0.45594000000E+02  0.51100000000E-03 0. -1.
         11   -1    0    0    0    0 -0.00000000000E+00 -0.00000000000E+00 -0.45593999997E+02  0.45594000000E+02  0.51100000000E-03 0.  1.
    9900012    2    1    2    0    0  0.17427330194E+01 -0.40117394340E+02  0.16467575103E+02  0.47787268707E+02  0.19999989343E+02 0.  0.
         12    1    1    2    0    0 -0.17427330194E+01  0.40117394340E+02 -0.16467575103E+02  0.43400731293E+02  0.00000000000E+00 0. -1.
         11    1    3    3    0    0  0.39015482844E+01 -0.50497239632E+01  0.61149730150E+01  0.88382513177E+01  0.51100000000E-03 0. -1.
        -11    1    3    3    0    0 -0.41558444057E+01 -0.20870537847E+02  0.26084992406E-01  0.21280297776E+02  0.51100000000E-03 0.  1.
        -12    1    3    3    0    0  0.19970291407E+01 -0.14197132529E+02  0.10326517096E+02  0.17668719613E+02  0.00000000000E+00 0.  1.
</event>
<event>
 7    1  0.5426550E-010  0.4778728E+02  0.7816164E-02  0.1312668E+00
        -11   -1    0    0    0    0  0.00000000000E+00  0.00000000000E+00  0.45593999997E+02  0.45594000000E+02  0.51100000000E-03 0.  1.
         11   -1    0    0    0    0 -0.00000000000E+00 -0.00000000000E+00 -0.45593999997E+02  0.45594000000E+02  0.51100000000E-03 0. -1.
    9900012    2    1    2    0    0  0.38775931017E+02 -0.14672901765E+00  0.19494313446E+02  0.47787278666E+02  0.20000034749E+02 0.  0.
         12    1    1    2    0    0 -0.38775931017E+02  0.14672901765E+00 -0.19494313446E+02  0.43400721334E+02  0.00000000000E+00 0. -1.
         11    1    3    3    0    0  0.21923015978E+01  0.27374525919E+01 -0.20799165422E+01  0.40774852632E+01  0.51100000000E-03 0. -1.
        -11    1    3    3    0    0  0.36186007558E+02 -0.18137731996E+01  0.19038854392E+02  0.40929144788E+02  0.51100000000E-03 0.  1.
         12    1    3    3    0    0  0.39762186052E+00 -0.10704084099E+01  0.25353755957E+01  0.27806486148E+01  0.00000000000E+00 0. -1.
</event>
<event>
 7    1  0.5426550E-010  0.4778727E+02  0.7816164E-02  0.1312668E+00
        -11   -1    0    0    0    0  0.00000000000E+00  0.00000000000E+00  0.45593999997E+02  0.45594000000E+02  0.51100000000E-03 0. -1.
         11   -1    0    0    0    0 -0.00000000000E+00 -0.00000000000E+00 -0.45593999997E+02  0.45594000000E+02  0.51100000000E-03 0.  1.
    9900012    2    1    2    0    0 -0.36543531829E+02 -0.47434119434E+01 -0.22928004544E+02  0.47787273419E+02  0.20000010826E+02 0.  0.
         12    1    1    2    0    0  0.36543531829E+02  0.47434119434E+01  0.22928004544E+02  0.43400726581E+02  0.00000000000E+00 0. -1.
         11    1    3    3    0    0 -0.14736848645E+02 -0.14984821000E+01 -0.20566238431E+02  0.25345420100E+02  0.51100000000E-03 0. -1.
        -11    1    3    3    0    0 -0.16175724070E+02 -0.12532537892E+01 -0.68724631061E+00  0.16238750014E+02  0.51100000000E-03 0.  1.
         12    1    3    3    0    0 -0.56309591133E+01 -0.19916760541E+01 -0.16745198026E+01  0.62031033048E+01  0.00000000000E+00 0. -1.
</event>
<event>
 7    1  0.5426550E-010  0.4778729E+02  0.7816164E-02  0.1312668E+00
        -11   -1    0    0    0    0  0.00000000000E+00  0.00000000000E+00  0.45593999997E+02  0.45594000000E+02  0.51100000000E-03 0. -1.
         11   -1    0    0    0    0 -0.00000000000E+00 -0.00000000000E+00 -0.45593999997E+02  0.45594000000E+02  0.51100000000E-03 0.  1.
    9900012    2    1    2    0    0  0.51280962682E+01  0.94896221180E+01 -0.42038929879E+02  0.47787286588E+02  0.20000070871E+02 0.  0.
         12    1    1    2    0    0 -0.51280962682E+01 -0.94896221180E+01  0.42038929879E+02  0.43400713412E+02  0.00000000000E+00 0. -1.
         11    1    3    3    0    0 -0.53793083804E+01  0.31282383367E+01 -0.83295812733E+01  0.10397343805E+02  0.51100000000E-03 0. -1.
        -11    1    3    3    0    0  0.10255464727E+02  0.69108040474E+00 -0.18624611424E+02  0.21272712564E+02  0.51100000000E-03 0.  1.
        -12    1    3    3    0    0  0.25193992162E+00  0.56703033765E+01 -0.15084737182E+02  0.16117230220E+02  0.00000000000E+00 0.  1.
</event>
<event>
 7    1  0.5426550E-010  0.4778729E+02  0.7816164E-02  0.1312668E+00
        -11   -1    0    0    0    0  0.00000000000E+00  0.00000000000E+00  0.45593999997E+02  0.45594000000E+02  0.51100000000E-03 0.  1.
         11   -1    0    0    0    0 -0.00000000000E+00 -0.00000000000E+00 -0.45593999997E+02  0.45594000000E+02  0.51100000000E-03 0. -1.
    9900012    2    1    2    0    0  0.27900397765E+01  0.17636560677E+02  0.39557414748E+02  0.47787289683E+02  0.20000084981E+02 0.  0.
         12    1    1    2    0    0 -0.27900397765E+01 -0.17636560677E+02 -0.39557414748E+02  0.43400710317E+02  0.00000000000E+00 0. -1.
         11    1    3    3    0    0 -0.56311286570E+01  0.83032247841E+01  0.93063825755E+01  0.13684367310E+02  0.51100000000E-03 0. -1.
        -11    1    3    3    0    0  0.42532497690E+01  0.70895969216E+01  0.27301086819E+02  0.28525459854E+02  0.51100000000E-03 0.  1.
         12    1    3    3    0    0  0.41679186645E+01  0.22437389711E+01  0.29499453532E+01  0.55774625190E+01  0.00000000000E+00 0. -1.
</event>
<event>
 7    1  0.5426550E-010  0.4778728E+02  0.7816164E-02  0.1312668E+00
        -11   -1    0    0    0    0  0.00000000000E+00  0.00000000000E+00  0.45593999997E+02  0.45594000000E+02  0.51100000000E-03 0.  1.
         11   -1    0    0    0    0 -0.00000000000E+00 -0.00000000000E+00 -0.45593999997E+02  0.45594000000E+02  0.51100000000E-03 0. -1.
    9900012    2    1    2    0    0  0.23384178753E+02 -0.37296615005E+01  0.36371589976E+02  0.47787277100E+02  0.20000027610E+02 0.  0.
         12    1    1    2    0    0 -0.23384178753E+02  0.37296615005E+01 -0.36371589976E+02  0.43400722900E+02  0.00000000000E+00 0. -1.
         11    1    3    3    0    0  0.11651520087E+02 -0.83706805817E+01  0.85527657353E+01  0.16702575123E+02  0.51100000000E-03 0. -1.
        -11    1    3    3    0    0  0.10101647256E+02  0.49499654298E+01  0.26966231660E+02  0.29218540094E+02  0.51100000000E-03 0.  1.
        -12    1    3    3    0    0  0.16310114100E+01 -0.30894634853E+00  0.85259258043E+00  0.18661618831E+01  0.00000000000E+00 0.  1.
</event>
<event>
 7    1  0.5426550E-010  0.4778727E+02  0.7816164E-02  0.1312668E+00
        -11   -1    0    0    0    0  0.00000000000E+00  0.00000000000E+00  0.45593999997E+02  0.45594000000E+02  0.51100000000E-03 0.  1.
         11   -1    0    0    0    0 -0.00000000000E+00 -0.00000000000E+00 -0.45593999997E+02  0.45594000000E+02  0.51100000000E-03 0. -1.
    9900012    2    1    2    0    0  0.31145609988E+02  0.69577290414E+01  0.29413675413E+02  0.47787270556E+02  0.19999997775E+02 0.  0.
         12    1    1    2    0    0 -0.31145609988E+02 -0.69577290414E+01 -0.29413675413E+02  0.43400729444E+02  0.00000000000E+00 0. -1.
         11    1    3    3    0    0  0.19488001383E+02 -0.10351717372E+01  0.25455646204E+02  0.32075593561E+02  0.51100000000E-03 0.  1.
        -11    1    3    3    0    0  0.11975492082E+02  0.65037578825E+01  0.31460894906E+01  0.13986034339E+02  0.51100000000E-03 0. -1.
        -12    1    3    3    0    0 -0.31788347611E+00  0.14891428961E+01  0.81193971849E+00  0.17256426559E+01  0.00000000000E+00 0.  1.
</event>
<event>
 7    1  0.5426550E-010  0.4778727E+02  0.7816164E-02  0.1312668E+00
        -11   -1    0    0    0    0  0.00000000000E+00  0.00000000000E+00  0.45593999997E+02  0.45594000000E+02  0.51100000000E-03 0.  1.
         11   -1    0    0    0    0 -0.00000000000E+00 -0.00000000000E+00 -0.45593999997E+02  0.45594000000E+02  0.51100000000E-03 0. -1.
    9900012    2    1    2    0    0 -0.84662878458E+01 -0.38728818781E+01  0.42390397695E+02  0.47787273501E+02  0.20000011199E+02 0.  0.
         12    1    1    2    0    0  0.84662878458E+01  0.38728818781E+01 -0.42390397695E+02  0.43400726499E+02  0.00000000000E+00 0. -1.
         11    1    3    3    0    0 -0.35952189505E+01  0.50700655291E+01  0.30556891124E+01  0.69259223201E+01  0.51100000000E-03 0. -1.
        -11    1    3    3    0    0 -0.52235050877E+01 -0.55271844412E+01  0.28360933558E+02  0.29362856226E+02  0.51100000000E-03 0.  1.
         12    1    3    3    0    0  0.35243619243E+00 -0.34157629661E+01  0.10973775025E+02  0.11498494954E+02  0.00000000000E+00 0. -1.
</event>
<event>
 7    1  0.5426550E-010  0.4778727E+02  0.7816164E-02  0.1312668E+00
        -11   -1    0    0    0    0  0.00000000000E+00  0.00000000000E+00  0.45593999997E+02  0.45594000000E+02  0.51100000000E-03 0. -1.
         11   -1    0    0    0    0 -0.00000000000E+00 -0.00000000000E+00 -0.45593999997E+02  0.45594000000E+02  0.51100000000E-03 0.  1.
    9900012    2    1    2    0    0 -0.20360266955E+02  0.35102874464E+02 -0.15390608744E+02  0.47787273006E+02  0.20000008942E+02 0.  0.
         12    1    1    2    0    0  0.20360266955E+02 -0.35102874464E+02  0.15390608744E+02  0.43400726994E+02  0.00000000000E+00 0. -1.
         11    1    3    3    0    0 -0.42540616731E+01 -0.57093726833E+00 -0.39520528666E+01  0.58345293045E+01  0.51100000000E-03 0. -1.
        -11    1    3    3    0    0 -0.48923488848E+01  0.10238571195E+02 -0.81295305041E+01  0.13958964295E+02  0.51100000000E-03 0.  1.
         12    1    3    3    0    0 -0.11213856397E+02  0.25435240538E+02 -0.33090253731E+01  0.27993779406E+02  0.00000000000E+00 0. -1.
</event>
<event>
 7    1  0.5426550E-010  0.4778727E+02  0.7816164E-02  0.1312668E+00
        -11   -1    0    0    0    0  0.00000000000E+00  0.00000000000E+00  0.45593999997E+02  0.45594000000E+02  0.51100000000E-03 0. -1.
         11   -1    0    0    0    0 -0.00000000000E+00 -0.00000000000E+00 -0.45593999997E+02  0.45594000000E+02  0.51100000000E-03 0.  1.
    9900012    2    1    2    0    0  0.53549661796E+01 -0.36487941606E+02 -0.22881830407E+02  0.47787266041E+02  0.19999977187E+02 0.  0.
         12    1    1    2    0    0 -0.53549661796E+01  0.36487941606E+02  0.22881830407E+02  0.43400733959E+02  0.00000000000E+00 0. -1.
         11    1    3    3    0    0 -0.73431009892E+00 -0.31460647670E+02 -0.13684868742E+02  0.34315990382E+02  0.51100000000E-03 0. -1.
        -11    1    3    3    0    0  0.58101566950E+01 -0.55802580684E+01 -0.97453873654E+01  0.12643962041E+02  0.51100000000E-03 0.  1.
         12    1    3    3    0    0  0.27911958349E+00  0.55296413266E+00  0.54842570029E+00  0.82731361806E+00  0.00000000000E+00 0. -1.
</event>
<event>
 7    1  0.5426550E-010  0.4778728E+02  0.7816164E-02  0.1312668E+00
        -11   -1    0    0    0    0  0.00000000000E+00  0.00000000000E+00  0.45593999997E+02  0.45594000000E+02  0.51100000000E-03 0.  1.
         11   -1    0    0    0    0 -0.00000000000E+00 -0.00000000000E+00 -0.45593999997E+02  0.45594000000E+02  0.51100000000E-03 0. -1.
    9900012    2    1    2    0    0 -0.46998530137E+01  0.13737436248E+02  0.40900086522E+02  0.47787275922E+02  0.20000022237E+02 0.  0.
         12    1    1    2    0    0  0.46998530137E+01 -0.13737436248E+02 -0.40900086522E+02  0.43400724078E+02  0.00000000000E+00 0. -1.
         11    1    3    3    0    0 -0.66251992387E+01  0.10887619004E+02  0.19615262600E+02  0.23392136278E+02  0.51100000000E-03 0.  1.
        -11    1    3    3    0    0 -0.37494432356E+01  0.41583922789E+01  0.13934517598E+02  0.15017367674E+02  0.51100000000E-03 0. -1.
         12    1    3    3    0    0  0.56747894606E+01 -0.13085750348E+01  0.73503063244E+01  0.93777719692E+01  0.00000000000E+00 0. -1.
</event>
<event>
 7    1  0.5426550E-010  0.4778728E+02  0.7816164E-02  0.1312668E+00
        -11   -1    0    0    0    0  0.00000000000E+00  0.00000000000E+00  0.45593999997E+02  0.45594000000E+02  0.51100000000E-03 0. -1.
         11   -1    0    0    0    0 -0.00000000000E+00 -0.00000000000E+00 -0.45593999997E+02  0.45594000000E+02  0.51100000000E-03 0.  1.
    9900012    2    1    2    0    0  0.23367549459E+02  0.36365500195E+02 -0.38897650089E+01  0.47787282910E+02  0.20000054098E+02 0.  0.
         12    1    1    2    0    0 -0.23367549459E+02 -0.36365500195E+02  0.38897650089E+01  0.43400717090E+02  0.00000000000E+00 0. -1.
         11    1    3    3    0    0  0.45377736189E+01  0.12155632852E+01 -0.52293640370E+00  0.47267796924E+01  0.51100000000E-03 0. -1.
        -11    1    3    3    0    0 -0.21703259341E+01  0.32199512691E+01  0.21642125292E+01  0.44454715125E+01  0.51100000000E-03 0.  1.
        -12    1    3    3    0    0  0.21000101774E+02  0.31929985641E+02 -0.55310411344E+01  0.38615031705E+02  0.00000000000E+00 0.  1.
</event>
<event>
 7    1  0.5426550E-010  0.4778727E+02  0.7816164E-02  0.1312668E+00
        -11   -1    0    0    0    0  0.00000000000E+00  0.00000000000E+00  0.45593999997E+02  0.45594000000E+02  0.51100000000E-03 0.  1.
         11   -1    0    0    0    0 -0.00000000000E+00 -0.00000000000E+00 -0.45593999997E+02  0.45594000000E+02  0.51100000000E-03 0. -1.
    9900012    2    1    2    0    0  0.37764654186E+01  0.39192362454E+02  0.18257070616E+02  0.47787267365E+02  0.19999983225E+02 0.  0.
         12    1    1    2    0    0 -0.37764654186E+01 -0.39192362454E+02 -0.18257070616E+02  0.43400732635E+02  0.00000000000E+00 0. -1.
         11    1    3    3    0    0 -0.40798723821E+01  0.66967223694E+01  0.22233151950E+01  0.81507410623E+01  0.51100000000E-03 0. -1.
        -11    1    3    3    0    0  0.99372314070E+01  0.11713551591E+02  0.65943568658E+01  0.16716500880E+02  0.51100000000E-03 0.  1.
        -12    1    3    3    0    0 -0.20808936063E+01  0.20782088493E+02  0.94393985550E+01  0.22920025423E+02  0.00000000000E+00 0.  1.
</event>
<event>
 7    1  0.5426550E-010  0.4778727E+02  0.7816164E-02  0.1312668E+00
        -11   -1    0    0    0    0  0.00000000000E+00  0.00000000000E+00  0.45593999997E+02  0.45594000000E+02  0.51100000000E-03 0.  1.
         11   -1    0    0    0    0 -0.00000000000E+00 -0.00000000000E+00 -0.45593999997E+02  0.45594000000E+02  0.51100000000E-03 0. -1.
    9900012    2    1    2    0    0  0.17000437516E+02 -0.39920939125E+02  0.96264018977E+00  0.47787274977E+02  0.20000017932E+02 0.  0.
         12    1    1    2    0    0 -0.17000437516E+02  0.39920939125E+02 -0.96264018977E+00  0.43400725023E+02  0.00000000000E+00 0. -1.
         11    1    3    3    0    0  0.81211313608E+01 -0.16551780077E+01 -0.65154153678E+00  0.83136571647E+01  0.51100000000E-03 0. -1.
        -11    1    3    3    0    0  0.23144440557E+01 -0.47013628386E+01  0.19578876907E+00  0.52438342203E+01  0.51100000000E-03 0.  1.
         12    1    3    3    0    0  0.65648620999E+01 -0.33564398279E+02  0.14183929575E+01  0.34229783592E+02  0.00000000000E+00 0. -1.
</event>
<event>
 7    1  0.5426550E-010  0.4778727E+02  0.7816164E-02  0.1312668E+00
        -11   -1    0    0    0    0  0.00000000000E+00  0.00000000000E+00  0.45593999997E+02  0.45594000000E+02  0.51100000000E-03 0.  1.
         11   -1    0    0    0    0 -0.00000000000E+00 -0.00000000000E+00 -0.45593999997E+02  0.45594000000E+02  0.51100000000E-03 0. -1.
    9900012    2    1    2    0    0 -0.80628471697E+01  0.66935310492E+01  0.42116628952E+02  0.47787270782E+02  0.19999998804E+02 0.  0.
         12    1    1    2    0    0  0.80628471697E+01 -0.66935310492E+01 -0.42116628952E+02  0.43400729218E+02  0.00000000000E+00 0. -1.
         11    1    3    3    0    0  0.35439846096E+01 -0.18038888898E+01  0.11866944737E+02  0.12515519154E+02  0.51100000000E-03 0. -1.
        -11    1    3    3    0    0 -0.86442918569E+01  0.93112171945E+01  0.29484782657E+02  0.32105684169E+02  0.51100000000E-03 0.  1.
         12    1    3    3    0    0 -0.29625399224E+01 -0.81379725544E+00  0.76490155786E+00  0.31660674595E+01  0.00000000000E+00 0. -1.
</event>
<event>
 7    1  0.5426550E-010  0.4778726E+02  0.7816164E-02  0.1312668E+00
        -11   -1    0    0    0    0  0.00000000000E+00  0.00000000000E+00  0.45593999997E+02  0.45594000000E+02  0.51100000000E-03 0.  1.
         11   -1    0    0    0    0 -0.00000000000E+00 -0.00000000000E+00 -0.45593999997E+02  0.45594000000E+02  0.51100000000E-03 0. -1.
    9900012    2    1    2    0    0 -0.70905715146E+01 -0.26363926579E+01  0.42736367293E+02  0.47787264291E+02  0.19999969210E+02 0.  0.
         12    1    1    2    0    0  0.70905715146E+01  0.26363926579E+01 -0.42736367293E+02  0.43400735709E+02  0.00000000000E+00 0. -1.
         11    1    3    3    0    0 -0.14291722902E+01 -0.60833035006E+01  0.31558413637E+02  0.32171145246E+02  0.51100000000E-03 0. -1.
        -11    1    3    3    0    0  0.22933590670E+01  0.12101145299E+01  0.20669525735E+01  0.33160467710E+01  0.51100000000E-03 0.  1.
         12    1    3    3    0    0 -0.79547582915E+01  0.22367963129E+01  0.91110010823E+01  0.12300072274E+02  0.00000000000E+00 0. -1.
</event>
<event>
 7    1  0.5426550E-010  0.4778727E+02  0.7816164E-02  0.1312668E+00
        -11   -1    0    0    0    0  0.00000000000E+00  0.00000000000E+00  0.45593999997E+02  0.45594000000E+02  0.51100000000E-03 0.  1.
         11   -1    0    0    0    0 -0.00000000000E+00 -0.00000000000E+00 -0.45593999997E+02  0.45594000000E+02  0.51100000000E-03 0. -1.
    9900012    2    1    2    0    0  0.11083089887E+02  0.41065062666E+02  0.86283905233E+01  0.47787269866E+02  0.19999994625E+02 0.  0.
         12    1    1    2    0    0 -0.11083089887E+02 -0.41065062666E+02 -0.86283905233E+01  0.43400730134E+02  0.00000000000E+00 0. -1.
         11    1    3    3    0    0  0.20655189419E+01  0.10162335837E+02  0.93248532014E+01  0.13946050540E+02  0.51100000000E-03 0. -1.
        -11    1    3    3    0    0  0.54479326545E+01  0.22512143098E+02 -0.50976084691E+01  0.23716284900E+02  0.51100000000E-03 0.  1.
        -12    1    3    3    0    0  0.35696382904E+01  0.83905837302E+01  0.44011457910E+01  0.10124934426E+02  0.00000000000E+00 0.  1.
</event>
<event>
 7    1  0.5426550E-010  0.4778727E+02  0.7816164E-02  0.1312668E+00
        -11   -1    0    0    0    0  0.00000000000E+00  0.00000000000E+00  0.45593999997E+02  0.45594000000E+02  0.51100000000E-03 0.  1.
         11   -1    0    0    0    0 -0.00000000000E+00 -0.00000000000E+00 -0.45593999997E+02  0.45594000000E+02  0.51100000000E-03 0. -1.
    9900012    2    1    2    0    0 -0.77611404325E+01  0.39066809622E+02 -0.17238680534E+02  0.47787273953E+02  0.20000013262E+02 0.  0.
         12    1    1    2    0    0  0.77611404325E+01 -0.39066809622E+02  0.17238680534E+02  0.43400726047E+02  0.00000000000E+00 0. -1.
         11    1    3    3    0    0 -0.52102189471E+01  0.18784580303E+00 -0.24709953073E+01  0.57695307948E+01  0.51100000000E-03 0. -1.
        -11    1    3    3    0    0 -0.37467154865E+01  0.35995789631E+02 -0.13996779121E+02  0.38802636175E+02  0.51100000000E-03 0.  1.
         12    1    3    3    0    0  0.11957940011E+01  0.28831741882E+01 -0.77090610578E+00  0.32151069837E+01  0.00000000000E+00 0. -1.
</event>
<event>
 7    1  0.5426550E-010  0.4778727E+02  0.7816164E-02  0.1312668E+00
        -11   -1    0    0    0    0  0.00000000000E+00  0.00000000000E+00  0.45593999997E+02  0.45594000000E+02  0.51100000000E-03 0.  1.
         11   -1    0    0    0    0 -0.00000000000E+00 -0.00000000000E+00 -0.45593999997E+02  0.45594000000E+02  0.51100000000E-03 0. -1.
    9900012    2    1    2    0    0 -0.17712137652E+02 -0.25530751620E+02  0.30299906939E+02  0.47787268912E+02  0.19999990278E+02 0.  0.
         12    1    1    2    0    0  0.17712137652E+02  0.25530751620E+02 -0.30299906939E+02  0.43400731088E+02  0.00000000000E+00 0. -1.
         11    1    3    3    0    0  0.14660967953E+01 -0.10208465674E+02  0.10503616970E+02  0.14720332230E+02  0.51100000000E-03 0. -1.
        -11    1    3    3    0    0 -0.13920395156E+02 -0.15972799049E+02  0.15952379278E+02  0.26521427481E+02  0.51100000000E-03 0.  1.
         12    1    3    3    0    0 -0.52578392916E+01  0.65051310289E+00  0.38439106901E+01  0.65455092015E+01  0.00000000000E+00 0. -1.
</event>
<event>
 7    1  0.5426550E-010  0.4778727E+02  0.7816164E-02  0.1312668E+00
        -11   -1    0    0    0    0  0.00000000000E+00  0.00000000000E+00  0.45593999997E+02  0.45594000000E+02  0.51100000000E-03 0.  1.
         11   -1    0    0    0    0 -0.00000000000E+00 -0.00000000000E+00 -0.45593999997E+02  0.45594000000E+02  0.51100000000E-03 0. -1.
    9900012    2    1    2    0    0 -0.34834490943E+02 -0.11164046701E+02  0.23356917589E+02  0.47787270775E+02  0.19999998771E+02 0.  0.
         12    1    1    2    0    0  0.34834490943E+02  0.11164046701E+02 -0.23356917589E+02  0.43400729225E+02  0.00000000000E+00 0. -1.
         11    1    3    3    0    0 -0.76150644234E+01  0.23806275246E+01  0.12026041125E+02  0.14431987354E+02  0.51100000000E-03 0. -1.
        -11    1    3    3    0    0 -0.19515857928E+02 -0.84490708307E+01  0.11378121972E+02  0.24118813579E+02  0.51100000000E-03 0.  1.
         12    1    3    3    0    0 -0.77035685914E+01 -0.50956033945E+01 -0.47245508176E-01  0.92364698416E+01  0.00000000000E+00 0. -1.
</event>
<event>
 7    1  0.5426550E-010  0.4778728E+02  0.7816164E-02  0.1312668E+00
        -11   -1    0    0    0    0  0.00000000000E+00  0.00000000000E+00  0.45593999997E+02  0.45594000000E+02  0.51100000000E-03 0. -1.
         11   -1    0    0    0    0 -0.00000000000E+00 -0.00000000000E+00 -0.45593999997E+02  0.45594000000E+02  0.51100000000E-03 0.  1.
    9900012    2    1    2    0    0 -0.37660419354E+02  0.17640002272E+02 -0.12415555963E+02  0.47787275399E+02  0.20000019852E+02 0.  0.
         12    1    1    2    0    0  0.37660419354E+02 -0.17640002272E+02  0.12415555963E+02  0.43400724601E+02  0.00000000000E+00 0. -1.
         11    1    3    3    0    0 -0.20382213380E+02  0.54307065720E+01  0.34452726448E+00  0.21096110908E+02  0.51100000000E-03 0. -1.
        -11    1    3    3    0    0 -0.10068301813E+02  0.12701593042E+02 -0.91604733171E+01  0.18617610987E+02  0.51100000000E-03 0.  1.
        -12    1    3    3    0    0 -0.72099041601E+01 -0.49229734131E+00 -0.35996099103E+01  0.80735535037E+01  0.00000000000E+00 0.  1.
</event>
<event>
 7    1  0.5426550E-010  0.4778727E+02  0.7816164E-02  0.1312668E+00
        -11   -1    0    0    0    0  0.00000000000E+00  0.00000000000E+00  0.45593999997E+02  0.45594000000E+02  0.51100000000E-03 0.  1.
         11   -1    0    0    0    0 -0.00000000000E+00 -0.00000000000E+00 -0.45593999997E+02  0.45594000000E+02  0.51100000000E-03 0. -1.
    9900012    2    1    2    0    0 -0.16797821986E+02  0.20876435703E+02  0.34141339517E+02  0.47787268956E+02  0.19999990478E+02 0.  0.
         12    1    1    2    0    0  0.16797821986E+02 -0.20876435703E+02 -0.34141339517E+02  0.43400731044E+02  0.00000000000E+00 0. -1.
         11    1    3    3    0    0 -0.12180342203E+02  0.17004152598E+02  0.29742990425E+02  0.36361345154E+02  0.51100000000E-03 0. -1.
        -11    1    3    3    0    0 -0.16205333341E+01  0.63270561412E+01  0.36444300216E+01  0.74792805900E+01  0.51100000000E-03 0.  1.
         12    1    3    3    0    0 -0.29969464486E+01 -0.24547730363E+01  0.75391907073E+00  0.39466432117E+01  0.00000000000E+00 0. -1.
</event>
<event>
 7    1  0.5426550E-010  0.4778727E+02  0.7816164E-02  0.1312668E+00
        -11   -1    0    0    0    0  0.00000000000E+00  0.00000000000E+00  0.45593999997E+02  0.45594000000E+02  0.51100000000E-03 0.  1.
         11   -1    0    0    0    0 -0.00000000000E+00 -0.00000000000E+00 -0.45593999997E+02  0.45594000000E+02  0.51100000000E-03 0. -1.
    9900012    2    1    2    0    0  0.56035378721E+01  0.27118485936E+01  0.42951946997E+02  0.47787268321E+02  0.19999987582E+02 0.  0.
         12    1    1    2    0    0 -0.56035378721E+01 -0.27118485936E+01 -0.42951946997E+02  0.43400731679E+02  0.00000000000E+00 0. -1.
         11    1    3    3    0    0 -0.20503485779E+01 -0.35478390157E+01  0.23809925143E+01  0.47392210950E+01  0.51100000000E-03 0. -1.
        -11    1    3    3    0    0  0.15209597695E+01 -0.26508474702E+01  0.14563557576E+02  0.14880776877E+02  0.51100000000E-03 0.  1.
         12    1    3    3    0    0  0.61329266805E+01  0.89105350796E+01  0.26007396906E+02  0.28167270349E+02  0.00000000000E+00 0. -1.
</event>
<event>
 7    1  0.5426550E-010  0.4778727E+02  0.7816164E-02  0.1312668E+00
        -11   -1    0    0    0    0  0.00000000000E+00  0.00000000000E+00  0.45593999997E+02  0.45594000000E+02  0.51100000000E-03 0.  1.
         11   -1    0    0    0    0 -0.00000000000E+00 -0.00000000000E+00 -0.45593999997E+02  0.45594000000E+02  0.51100000000E-03 0. -1.
    9900012    2    1    2    0    0 -0.34518480675E+01  0.84536399940E+01  0.42429281536E+02  0.47787271713E+02  0.20000003047E+02 0.  0.
         12    1    1    2    0    0  0.34518480675E+01 -0.84536399940E+01 -0.42429281536E+02  0.43400728287E+02  0.00000000000E+00 0. -1.
         11    1    3    3    0    0 -0.63948015706E+01  0.24307074333E+01  0.19872378595E+02  0.21016975449E+02  0.51100000000E-03 0.  1.
        -11    1    3    3    0    0  0.46388769857E+01  0.66549348326E+01  0.59382072024E+01  0.10053339861E+02  0.51100000000E-03 0. -1.
        -12    1    3    3    0    0 -0.16959234826E+01 -0.63200227203E+00  0.16618695738E+02  0.16716956403E+02  0.00000000000E+00 0.  1.
</event>
<event>
 7    1  0.5426550E-010  0.4778727E+02  0.7816164E-02  0.1312668E+00
        -11   -1    0    0    0    0  0.00000000000E+00  0.00000000000E+00  0.45593999997E+02  0.45594000000E+02  0.51100000000E-03 0.  1.
         11   -1    0    0    0    0 -0.00000000000E+00 -0.00000000000E+00 -0.45593999997E+02  0.45594000000E+02  0.51100000000E-03 0. -1.
    9900012    2    1    2    0    0  0.28137583139E+02 -0.24327535494E+02 -0.22362271229E+02  0.47787265644E+02  0.19999975376E+02 0.  0.
         12    1    1    2    0    0 -0.28137583139E+02  0.24327535494E+02  0.22362271229E+02  0.43400734356E+02  0.00000000000E+00 0. -1.
         11    1    3    3    0    0  0.29838505234E+02 -0.22257916873E+02 -0.20156185395E+02  0.42332293442E+02  0.51100000000E-03 0. -1.
        -11    1    3    3    0    0  0.10693970489E+01 -0.19328415905E+01 -0.11147976825E+01  0.24743202695E+01  0.51100000000E-03 0.  1.
         12    1    3    3    0    0 -0.27703191433E+01 -0.13677703001E+00 -0.10912881522E+01  0.29806519325E+01  0.00000000000E+00 0. -1.
</event>
<event>
 7    1  0.5426550E-010  0.4778727E+02  0.7816164E-02  0.1312668E+00
        -11   -1    0    0    0    0  0.00000000000E+00  0.00000000000E+00  0.45593999997E+02  0.45594000000E+02  0.51100000000E-03 0.  1.
         11   -1    0    0    0    0 -0.00000000000E+00 -0.00000000000E+00 -0.45593999997E+02  0.45594000000E+02  0.51100000000E-03 0. -1.
    9900012    2    1    2    0    0  0.34053166801E+02 -0.12848752613E+02  0.23641374955E+02  0.47787271635E+02  0.20000002693E+02 0.  0.
         12    1    1    2    0    0 -0.34053166801E+02  0.12848752613E+02 -0.23641374955E+02  0.43400728365E+02  0.00000000000E+00 0. -1.
         11    1    3    3    0    0  0.21501735051E+01 -0.12836804079E+01 -0.34451452790E+00  0.25277998363E+01  0.51100000000E-03 0. -1.
        -11    1    3    3    0    0  0.47373810151E+01 -0.64277477050E+01 -0.93356088356E+00  0.80392944732E+01  0.51100000000E-03 0.  1.
        -12    1    3    3    0    0  0.27165612280E+02 -0.51373244998E+01  0.24919450366E+02  0.37220177326E+02  0.00000000000E+00 0.  1.
</event>
<event>
 7    1  0.5426550E-010  0.4778727E+02  0.7816164E-02  0.1312668E+00
        -11   -1    0    0    0    0  0.00000000000E+00  0.00000000000E+00  0.45593999997E+02  0.45594000000E+02  0.51100000000E-03 0.  1.
         11   -1    0    0    0    0 -0.00000000000E+00 -0.00000000000E+00 -0.45593999997E+02  0.45594000000E+02  0.51100000000E-03 0. -1.
    9900012    2    1    2    0    0  0.29345836171E+02 -0.10966808613E+02  0.30036214574E+02  0.47787272153E+02  0.20000005054E+02 0.  0.
         12    1    1    2    0    0 -0.29345836171E+02  0.10966808613E+02 -0.30036214574E+02  0.43400727847E+02  0.00000000000E+00 0. -1.
         11    1    3    3    0    0  0.39970926177E+01 -0.88808478946E+01  0.42782659336E+01  0.10637187992E+02  0.51100000000E-03 0. -1.
        -11    1    3    3    0    0  0.12369144623E+02 -0.50197703798E+01  0.14615067223E+02  0.19793787499E+02  0.51100000000E-03 0.  1.
         12    1    3    3    0    0  0.12979598930E+02  0.29338096618E+01  0.11142881418E+02  0.17356296662E+02  0.00000000000E+00 0. -1.
</event>
<event>
 7    1  0.5648648E-010  0.4778727E+02  0.7816164E-02  0.1312668E+00
        -11   -1    0    0    0    0  0.00000000000E+00  0.00000000000E+00  0.45593999997E+02  0.45594000000E+02  0.51100000000E-03 0.  1.
         11   -1    0    0    0    0 -0.00000000000E+00 -0.00000000000E+00 -0.45593999997E+02  0.45594000000E+02  0.51100000000E-03 0. -1.
    9900012    2    1    2    0    0  0.33154501191E+02  0.13930854512E+02  0.24296780395E+02  0.47787271962E+02  0.20000004183E+02 0.  0.
         12    1    1    2    0    0 -0.33154501191E+02 -0.13930854512E+02 -0.24296780395E+02  0.43400728038E+02  0.00000000000E+00 0. -1.
         11    1    3    3    0    0  0.49202607397E+01 -0.15403501654E+01  0.65212086197E+00  0.51968169352E+01  0.51100000000E-03 0. -1.
        -11    1    3    3    0    0  0.96880111571E+01  0.38221947679E+01  0.16576987276E+02  0.19577110115E+02  0.51100000000E-03 0.  1.
        -12    1    3    3    0    0  0.18546229294E+02  0.11649009909E+02  0.70676722573E+01  0.23013344912E+02  0.00000000000E+00 0.  1.
</event>
<event>
 7    1  0.5426550E-010  0.4778728E+02  0.7816164E-02  0.1312668E+00
        -11   -1    0    0    0    0  0.00000000000E+00  0.00000000000E+00  0.45593999997E+02  0.45594000000E+02  0.51100000000E-03 0.  1.
         11   -1    0    0    0    0 -0.00000000000E+00 -0.00000000000E+00 -0.45593999997E+02  0.45594000000E+02  0.51100000000E-03 0. -1.
    9900012    2    1    2    0    0 -0.37377270188E+02  0.10660655055E+02  0.19310944522E+02  0.47787280291E+02  0.20000042160E+02 0.  0.
         12    1    1    2    0    0  0.37377270188E+02 -0.10660655055E+02 -0.19310944522E+02  0.43400719709E+02  0.00000000000E+00 0. -1.
         11    1    3    3    0    0 -0.15307643694E+02  0.81908947999E+00  0.91279543548E+00  0.15356694267E+02  0.51100000000E-03 0. -1.
        -11    1    3    3    0    0 -0.21645921704E+02  0.55629341859E+01  0.16189196721E+02  0.27596779774E+02  0.51100000000E-03 0.  1.
         12    1    3    3    0    0 -0.42370479019E+00  0.42786313890E+01  0.22089523653E+01  0.48338062502E+01  0.00000000000E+00 0. -1.
</event>
<event>
 7    1  0.5426550E-010  0.4778727E+02  0.7816164E-02  0.1312668E+00
        -11   -1    0    0    0    0  0.00000000000E+00  0.00000000000E+00  0.45593999997E+02  0.45594000000E+02  0.51100000000E-03 0.  1.
         11   -1    0    0    0    0 -0.00000000000E+00 -0.00000000000E+00 -0.45593999997E+02  0.45594000000E+02  0.51100000000E-03 0. -1.
    9900012    2    1    2    0    0 -0.41134606750E+02 -0.12660746970E+02  0.55922206680E+01  0.47787270532E+02  0.19999997664E+02 0.  0.
         12    1    1    2    0    0  0.41134606750E+02  0.12660746970E+02 -0.55922206680E+01  0.43400729468E+02  0.00000000000E+00 0. -1.
         11    1    3    3    0    0  0.10246843526E+01 -0.18611845636E+01 -0.14436791253E+01  0.25686953265E+01  0.51100000000E-03 0. -1.
        -11    1    3    3    0    0 -0.24581788902E+02 -0.85801856061E+01 -0.31238234325E+00  0.26038078148E+02  0.51100000000E-03 0.  1.
         12    1    3    3    0    0 -0.17577502201E+02 -0.22193768003E+01  0.73482821366E+01  0.19180497057E+02  0.00000000000E+00 0. -1.
</event>
<event>
 7    1  0.5426550E-010  0.4778727E+02  0.7816164E-02  0.1312668E+00
        -11   -1    0    0    0    0  0.00000000000E+00  0.00000000000E+00  0.45593999997E+02  0.45594000000E+02  0.51100000000E-03 0.  1.
         11   -1    0    0    0    0 -0.00000000000E+00 -0.00000000000E+00 -0.45593999997E+02  0.45594000000E+02  0.51100000000E-03 0. -1.
    9900012    2    1    2    0    0 -0.43145452776E+02 -0.33273161781E+01  0.33200126135E+01  0.47787267150E+02  0.19999982243E+02 0.  0.
         12    1    1    2    0    0  0.43145452776E+02  0.33273161781E+01 -0.33200126135E+01  0.43400732850E+02  0.00000000000E+00 0. -1.
         11    1    3    3    0    0 -0.25814384259E+01 -0.43537246717E+01  0.45500843084E+01  0.68060275006E+01  0.51100000000E-03 0. -1.
        -11    1    3    3    0    0 -0.39793548990E+02  0.16791262419E+00 -0.13811126334E+01  0.39817862929E+02  0.51100000000E-03 0.  1.
         12    1    3    3    0    0 -0.77046536030E+00  0.85849586944E+00  0.15104093841E+00  0.11633767207E+01  0.00000000000E+00 0. -1.
</event>
<event>
 7    1  0.5426550E-010  0.4778728E+02  0.7816164E-02  0.1312668E+00
        -11   -1    0    0    0    0  0.00000000000E+00  0.00000000000E+00  0.45593999997E+02  0.45594000000E+02  0.51100000000E-03 0.  1.
         11   -1    0    0    0    0 -0.00000000000E+00 -0.00000000000E+00 -0.45593999997E+02  0.45594000000E+02  0.51100000000E-03 0. -1.
    9900012    2    1    2    0    0 -0.28392398545E+02  0.27144926362E+02  0.18456618347E+02  0.47787284762E+02  0.20000062543E+02 0.  0.
         12    1    1    2    0    0  0.28392398545E+02 -0.27144926362E+02 -0.18456618347E+02  0.43400715238E+02  0.00000000000E+00 0. -1.
         11    1    3    3    0    0 -0.15677275161E+02  0.31426899774E+01  0.10207941881E+02  0.18969858578E+02  0.51100000000E-03 0. -1.
        -11    1    3    3    0    0 -0.91725377292E+01  0.19592384712E+02  0.82720230052E+01  0.23160815011E+02  0.51100000000E-03 0.  1.
         12    1    3    3    0    0 -0.35425856555E+01  0.44098516731E+01 -0.23346539276E-01  0.56566111733E+01  0.00000000000E+00 0. -1.
</event>
<event>
 7    1  0.5426550E-010  0.4778727E+02  0.7816164E-02  0.1312668E+00
        -11   -1    0    0    0    0  0.00000000000E+00  0.00000000000E+00  0.45593999997E+02  0.45594000000E+02  0.51100000000E-03 0.  1.
         11   -1    0    0    0    0 -0.00000000000E+00 -0.00000000000E+00 -0.45593999997E+02  0.45594000000E+02  0.51100000000E-03 0. -1.
    9900012    2    1    2    0    0  0.65532944282E+01  0.71954812216E+01  0.42295418571E+02  0.47787273624E+02  0.20000011762E+02 0.  0.
         12    1    1    2    0    0 -0.65532944282E+01 -0.71954812216E+01 -0.42295418571E+02  0.43400726376E+02  0.00000000000E+00 0. -1.
         11    1    3    3    0    0  0.11254960086E+00  0.47039540974E+01  0.10288767419E+01  0.48164758044E+01  0.51100000000E-03 0. -1.
        -11    1    3    3    0    0  0.81032133259E+01 -0.91271340560E+00  0.26518642905E+02  0.27744072047E+02  0.51100000000E-03 0.  1.
        -12    1    3    3    0    0 -0.16624684986E+01  0.34042405297E+01  0.14747898924E+02  0.15226725773E+02  0.00000000000E+00 0.  1.
</event>
<event>
 7    1  0.5426550E-010  0.4778727E+02  0.7816164E-02  0.1312668E+00
        -11   -1    0    0    0    0  0.00000000000E+00  0.00000000000E+00  0.45593999997E+02  0.45594000000E+02  0.51100000000E-03 0.  1.
         11   -1    0    0    0    0 -0.00000000000E+00 -0.00000000000E+00 -0.45593999997E+02  0.45594000000E+02  0.51100000000E-03 0. -1.
    9900012    2    1    2    0    0 -0.93254320344E+00 -0.36894177721E+02 -0.22837984829E+02  0.47787268006E+02  0.19999986145E+02 0.  0.
         12    1    1    2    0    0  0.93254320344E+00  0.36894177721E+02  0.22837984829E+02  0.43400731994E+02  0.00000000000E+00 0. -1.
         11    1    3    3    0    0  0.10947827711E+01 -0.12288254247E+02  0.13453803966E+01  0.12410068108E+02  0.51100000000E-03 0. -1.
        -11    1    3    3    0    0 -0.98674016515E+00 -0.22432725068E+02 -0.18123505207E+02  0.28855887638E+02  0.51100000000E-03 0.  1.
         12    1    3    3    0    0 -0.10405858094E+01 -0.21731984057E+01 -0.60598600191E+01  0.65213122597E+01  0.00000000000E+00 0. -1.
</event>
<event>
 7    1  0.5426550E-010  0.4778727E+02  0.7816164E-02  0.1312668E+00
        -11   -1    0    0    0    0  0.00000000000E+00  0.00000000000E+00  0.45593999997E+02  0.45594000000E+02  0.51100000000E-03 0.  1.
         11   -1    0    0    0    0 -0.00000000000E+00 -0.00000000000E+00 -0.45593999997E+02  0.45594000000E+02  0.51100000000E-03 0. -1.
    9900012    2    1    2    0    0 -0.42858748542E+02 -0.67936927285E+01 -0.77238469771E+00  0.47787272292E+02  0.20000005687E+02 0.  0.
         12    1    1    2    0    0  0.42858748542E+02  0.67936927285E+01  0.77238469771E+00  0.43400727708E+02  0.00000000000E+00 0. -1.
         11    1    3    3    0    0 -0.32487221333E+02 -0.13583627340E+01  0.40131708856E+01  0.32762329589E+02  0.51100000000E-03 0. -1.
        -11    1    3    3    0    0 -0.13048264116E+01  0.15659266336E+01  0.90962359298E+00  0.22320648575E+01  0.51100000000E-03 0.  1.
         12    1    3    3    0    0 -0.90667007972E+01 -0.70012566281E+01 -0.56951791763E+01  0.12792877845E+02  0.00000000000E+00 0. -1.
</event>
<event>
 7    1  0.5426550E-010  0.4778727E+02  0.7816164E-02  0.1312668E+00
        -11   -1    0    0    0    0  0.00000000000E+00  0.00000000000E+00  0.45593999997E+02  0.45594000000E+02  0.51100000000E-03 0.  1.
         11   -1    0    0    0    0 -0.00000000000E+00 -0.00000000000E+00 -0.45593999997E+02  0.45594000000E+02  0.51100000000E-03 0. -1.
    9900012    2    1    2    0    0  0.13461045827E+02  0.32193330978E+02  0.25807225267E+02  0.47787272008E+02  0.20000004393E+02 0.  0.
         12    1    1    2    0    0 -0.13461045827E+02 -0.32193330978E+02 -0.25807225267E+02  0.43400727992E+02  0.00000000000E+00 0. -1.
         11    1    3    3    0    0  0.78690559749E+01  0.14233108433E+02  0.65046495783E+01  0.17516103562E+02  0.51100000000E-03 0. -1.
        -11    1    3    3    0    0 -0.44078167172E+01  0.37854711642E+01  0.33650144704E+01  0.67143102993E+01  0.51100000000E-03 0.  1.
        -12    1    3    3    0    0  0.99998065697E+01  0.14174751381E+02  0.15937561219E+02  0.23556858147E+02  0.00000000000E+00 0.  1.
</event>
<event>
 7    1  0.5426550E-010  0.4778729E+02  0.7816164E-02  0.1312668E+00
        -11   -1    0    0    0    0  0.00000000000E+00  0.00000000000E+00  0.45593999997E+02  0.45594000000E+02  0.51100000000E-03 0.  1.
         11   -1    0    0    0    0 -0.00000000000E+00 -0.00000000000E+00 -0.45593999997E+02  0.45594000000E+02  0.51100000000E-03 0. -1.
    9900012    2    1    2    0    0 -0.25703247915E+02  0.30793438514E+02 -0.16574938969E+02  0.47787292509E+02  0.20000097867E+02 0.  0.
         12    1    1    2    0    0  0.25703247915E+02 -0.30793438514E+02  0.16574938969E+02  0.43400707491E+02  0.00000000000E+00 0. -1.
         11    1    3    3    0    0 -0.52753449644E+01  0.30830811518E+00 -0.48357045505E+01  0.71629852121E+01  0.51100000000E-03 0. -1.
        -11    1    3    3    0    0 -0.16404034327E+02  0.29733562997E+02 -0.12968124693E+02  0.36350369586E+02  0.51100000000E-03 0.  1.
        -12    1    3    3    0    0 -0.40238686234E+01  0.75156740129E+00  0.12288902740E+01  0.42739377116E+01  0.00000000000E+00 0.  1.
</event>
<event>
 7    1  0.5426550E-010  0.4778727E+02  0.7816164E-02  0.1312668E+00
        -11   -1    0    0    0    0  0.00000000000E+00  0.00000000000E+00  0.45593999997E+02  0.45594000000E+02  0.51100000000E-03 0. -1.
         11   -1    0    0    0    0 -0.00000000000E+00 -0.00000000000E+00 -0.45593999997E+02  0.45594000000E+02  0.51100000000E-03 0.  1.
    9900012    2    1    2    0    0  0.52698891937E+00 -0.43037700250E+02 -0.55768921211E+01  0.47787273210E+02  0.20000009874E+02 0.  0.
         12    1    1    2    0    0 -0.52698891937E+00  0.43037700250E+02  0.55768921211E+01  0.43400726790E+02  0.00000000000E+00 0. -1.
         11    1    3    3    0    0  0.12658427766E+01  0.83301659604E+00  0.11059226228E+01  0.18759903233E+01  0.51100000000E-03 0. -1.
        -11    1    3    3    0    0  0.31027550259E+00 -0.41241488584E+02 -0.90467661148E+01  0.42223223810E+02  0.51100000000E-03 0.  1.
        -12    1    3    3    0    0 -0.10491293598E+01 -0.26292282624E+01  0.23639513709E+01  0.36880590768E+01  0.00000000000E+00 0.  1.
</event>
<event>
 7    1  0.5426550E-010  0.4778731E+02  0.7816164E-02  0.1312668E+00
        -11   -1    0    0    0    0  0.00000000000E+00  0.00000000000E+00  0.45593999997E+02  0.45594000000E+02  0.51100000000E-03 0.  1.
         11   -1    0    0    0    0 -0.00000000000E+00 -0.00000000000E+00 -0.45593999997E+02  0.45594000000E+02  0.51100000000E-03 0. -1.
    9900012    2    1    2    0    0 -0.18966911983E+02 -0.50163061775E+01  0.38713213655E+02  0.47787308884E+02  0.20000172527E+02 0.  0.
         12    1    1    2    0    0  0.18966911983E+02  0.50163061775E+01 -0.38713213655E+02  0.43400691116E+02  0.00000000000E+00 0. -1.
         11    1    3    3    0    0 -0.92763722153E+01 -0.49697684686E+01  0.20794342384E+02  0.23305672175E+02  0.51100000000E-03 0. -1.
        -11    1    3    3    0    0 -0.26812586971E+01 -0.12974147431E+01  0.17050650857E+02  0.17308874259E+02  0.51100000000E-03 0.  1.
         12    1    3    3    0    0 -0.70092810702E+01  0.12508770341E+01  0.86822041415E+00  0.71727624500E+01  0.00000000000E+00 0. -1.
</event>
<event>
 7    1  0.5426550E-010  0.4778727E+02  0.7816164E-02  0.1312668E+00
        -11   -1    0    0    0    0  0.00000000000E+00  0.00000000000E+00  0.45593999997E+02  0.45594000000E+02  0.51100000000E-03 0. -1.
         11   -1    0    0    0    0 -0.00000000000E+00 -0.00000000000E+00 -0.45593999997E+02  0.45594000000E+02  0.51100000000E-03 0.  1.
    9900012    2    1    2    0    0  0.41376834866E+01  0.20433251401E+02 -0.38065536023E+02  0.47787271663E+02  0.20000002821E+02 0.  0.
         12    1    1    2    0    0 -0.41376834866E+01 -0.20433251401E+02  0.38065536023E+02  0.43400728337E+02  0.00000000000E+00 0. -1.
         11    1    3    3    0    0  0.33669959502E+01  0.15824243336E+02 -0.12508424805E+02  0.20450037414E+02  0.51100000000E-03 0. -1.
        -11    1    3    3    0    0  0.27657316400E+01  0.55874004194E+00 -0.19901211535E+02  0.20100240864E+02  0.51100000000E-03 0.  1.
        -12    1    3    3    0    0 -0.19950441036E+01  0.40502680231E+01 -0.56558996829E+01  0.72369933851E+01  0.00000000000E+00 0.  1.
</event>
<event>
 7    1  0.5426550E-010  0.4778727E+02  0.7816164E-02  0.1312668E+00
        -11   -1    0    0    0    0  0.00000000000E+00  0.00000000000E+00  0.45593999997E+02  0.45594000000E+02  0.51100000000E-03 0. -1.
         11   -1    0    0    0    0 -0.00000000000E+00 -0.00000000000E+00 -0.45593999997E+02  0.45594000000E+02  0.51100000000E-03 0.  1.
    9900012    2    1    2    0    0  0.31050264525E+02 -0.13865509241E+02 -0.26967608283E+02  0.47787272240E+02  0.20000005449E+02 0.  0.
         12    1    1    2    0    0 -0.31050264525E+02  0.13865509241E+02  0.26967608283E+02  0.43400727760E+02  0.00000000000E+00 0. -1.
         11    1    3    3    0    0  0.17444267446E+02 -0.15232602276E+02 -0.89210724541E+01  0.24817739076E+02  0.51100000000E-03 0. -1.
        -11    1    3    3    0    0  0.10450989768E+02  0.25291910982E+01 -0.12552253065E+02  0.16528129114E+02  0.51100000000E-03 0.  1.
         12    1    3    3    0    0  0.31550073115E+01 -0.11620980632E+01 -0.54942827637E+01  0.64414040497E+01  0.00000000000E+00 0. -1.
</event>
<event>
 7    1  0.5426550E-010  0.4778727E+02  0.7816164E-02  0.1312668E+00
        -11   -1    0    0    0    0  0.00000000000E+00  0.00000000000E+00  0.45593999997E+02  0.45594000000E+02  0.51100000000E-03 0.  1.
         11   -1    0    0    0    0 -0.00000000000E+00 -0.00000000000E+00 -0.45593999997E+02  0.45594000000E+02  0.51100000000E-03 0. -1.
    9900012    2    1    2    0    0 -0.19224370904E+02 -0.23394773455E+02  0.31092308468E+02  0.47787268353E+02  0.19999987728E+02 0.  0.
         12    1    1    2    0    0  0.19224370904E+02  0.23394773455E+02 -0.31092308468E+02  0.43400731647E+02  0.00000000000E+00 0. -1.
         11    1    3    3    0    0 -0.23502331550E+01 -0.77794738577E+01  0.31410560469E+01  0.87126369565E+01  0.51100000000E-03 0. -1.
        -11    1    3    3    0    0 -0.29206020929E+01 -0.27112655379E+01  0.16304015795E+02  0.16783974759E+02  0.51100000000E-03 0.  1.
        -12    1    3    3    0    0 -0.13953535656E+02 -0.12904034060E+02  0.11647236625E+02  0.22290656637E+02  0.00000000000E+00 0.  1.
</event>
<event>
 7    1  0.5426550E-010  0.4778726E+02  0.7816164E-02  0.1312668E+00
        -11   -1    0    0    0    0  0.00000000000E+00  0.00000000000E+00  0.45593999997E+02  0.45594000000E+02  0.51100000000E-03 0.  1.
         11   -1    0    0    0    0 -0.00000000000E+00 -0.00000000000E+00 -0.45593999997E+02  0.45594000000E+02  0.51100000000E-03 0. -1.
    9900012    2    1    2    0    0  0.69416198156E+00 -0.70249676083E+01  0.42822795114E+02  0.47787264843E+02  0.19999971725E+02 0.  0.
         12    1    1    2    0    0 -0.69416198156E+00  0.70249676083E+01 -0.42822795114E+02  0.43400735157E+02  0.00000000000E+00 0. -1.
         11    1    3    3    0    0  0.71113950271E+01  0.32347001697E+00  0.64800296177E+01  0.96263885331E+01  0.51100000000E-03 0. -1.
        -11    1    3    3    0    0 -0.32812691990E+01 -0.48445137952E+01  0.30603329496E+02  0.31157660663E+02  0.51100000000E-03 0.  1.
         12    1    3    3    0    0 -0.31359638466E+01 -0.25039238301E+01  0.57394360008E+01  0.70032156472E+01  0.00000000000E+00 0. -1.
</event>
<event>
 7    1  0.5426550E-010  0.4778727E+02  0.7816164E-02  0.1312668E+00
        -11   -1    0    0    0    0  0.00000000000E+00  0.00000000000E+00  0.45593999997E+02  0.45594000000E+02  0.51100000000E-03 0.  1.
         11   -1    0    0    0    0 -0.00000000000E+00 -0.00000000000E+00 -0.45593999997E+02  0.45594000000E+02  0.51100000000E-03 0. -1.
    9900012    2    1    2    0    0 -0.14175132145E+02  0.15560502522E+02  0.37954702422E+02  0.47787273670E+02  0.20000011971E+02 0.  0.
         12    1    1    2    0    0  0.14175132145E+02 -0.15560502522E+02 -0.37954702422E+02  0.43400726330E+02  0.00000000000E+00 0. -1.
         11    1    3    3    0    0  0.25099289639E+01  0.33818042904E+01  0.14678124528E+02  0.15270353093E+02  0.51100000000E-03 0. -1.
        -11    1    3    3    0    0 -0.88671690407E+01  0.10985377465E+02  0.18523578230E+02  0.23290087066E+02  0.51100000000E-03 0.  1.
         12    1    3    3    0    0 -0.78178920679E+01  0.11933207662E+01  0.47529996639E+01  0.92268335111E+01  0.00000000000E+00 0. -1.
</event>
<event>
 7    1  0.5426550E-010  0.4778728E+02  0.7816164E-02  0.1312668E+00
        -11   -1    0    0    0    0  0.00000000000E+00  0.00000000000E+00  0.45593999997E+02  0.45594000000E+02  0.51100000000E-03 0.  1.
         11   -1    0    0    0    0 -0.00000000000E+00 -0.00000000000E+00 -0.45593999997E+02  0.45594000000E+02  0.51100000000E-03 0. -1.
    9900012    2    1    2    0    0 -0.84965725133E+01  0.36140919008E+02  0.22478099109E+02  0.47787277532E+02  0.20000029577E+02 0.  0.
         12    1    1    2    0    0  0.84965725133E+01 -0.36140919008E+02 -0.22478099109E+02  0.43400722468E+02  0.00000000000E+00 0. -1.
         11    1    3    3    0    0  0.33868949353E+01  0.16045340837E+01  0.33615648665E+01  0.50344518611E+01  0.51100000000E-03 0. -1.
        -11    1    3    3    0    0 -0.90525717991E+01  0.25387964661E+02  0.19339214531E+02  0.33173830421E+02  0.51100000000E-03 0.  1.
        -12    1    3    3    0    0 -0.28308956495E+01  0.91484202629E+01 -0.22268028859E+00  0.95789952498E+01  0.00000000000E+00 0.  1.
</event>
<event>
 7    1  0.5426550E-010  0.4778727E+02  0.7816164E-02  0.1312668E+00
        -11   -1    0    0    0    0  0.00000000000E+00  0.00000000000E+00  0.45593999997E+02  0.45594000000E+02  0.51100000000E-03 0.  1.
         11   -1    0    0    0    0 -0.00000000000E+00 -0.00000000000E+00 -0.45593999997E+02  0.45594000000E+02  0.51100000000E-03 0. -1.
    9900012    2    1    2    0    0  0.32732809834E+02  0.28497110206E+02 -0.31809420807E+00  0.47787270586E+02  0.19999997911E+02 0.  0.
         12    1    1    2    0    0 -0.32732809834E+02 -0.28497110206E+02  0.31809420807E+00  0.43400729414E+02  0.00000000000E+00 0. -1.
         11    1    3    3    0    0  0.79538468035E+01  0.36774202478E+01 -0.17176526571E+01  0.89295817128E+01  0.51100000000E-03 0. -1.
        -11    1    3    3    0    0  0.93307881750E+01  0.15815609532E+02 -0.62667579814E+01  0.19402818576E+02  0.51100000000E-03 0.  1.
        -12    1    3    3    0    0  0.15448174855E+02  0.90040804259E+01  0.76663164304E+01  0.19454870297E+02  0.00000000000E+00 0.  1.
</event>
<event>
 7    1  0.5426550E-010  0.4778727E+02  0.7816164E-02  0.1312668E+00
        -11   -1    0    0    0    0  0.00000000000E+00  0.00000000000E+00  0.45593999997E+02  0.45594000000E+02  0.51100000000E-03 0. -1.
         11   -1    0    0    0    0 -0.00000000000E+00 -0.00000000000E+00 -0.45593999997E+02  0.45594000000E+02  0.51100000000E-03 0.  1.
    9900012    2    1    2    0    0 -0.33513481901E+02 -0.49677298792E+00 -0.27572144515E+02  0.47787269526E+02  0.19999993075E+02 0.  0.
         12    1    1    2    0    0  0.33513481901E+02  0.49677298792E+00  0.27572144515E+02  0.43400730474E+02  0.00000000000E+00 0. -1.
         11    1    3    3    0    0 -0.28353383894E+02 -0.82873931243E-01 -0.13330183177E+02  0.31330736188E+02  0.51100000000E-03 0. -1.
        -11    1    3    3    0    0 -0.54014251392E+01 -0.23938776993E+01 -0.12426108150E+02  0.13759149973E+02  0.51100000000E-03 0.  1.
         12    1    3    3    0    0  0.24132713195E+00  0.19799786426E+01 -0.18158531889E+01  0.26973833642E+01  0.00000000000E+00 0. -1.
</event>
<event>
 7    1  0.5426550E-010  0.4778726E+02  0.7816164E-02  0.1312668E+00
        -11   -1    0    0    0    0  0.00000000000E+00  0.00000000000E+00  0.45593999997E+02  0.45594000000E+02  0.51100000000E-03 0.  1.
         11   -1    0    0    0    0 -0.00000000000E+00 -0.00000000000E+00 -0.45593999997E+02  0.45594000000E+02  0.51100000000E-03 0. -1.
    9900012    2    1    2    0    0 -0.23683650313E+02 -0.33944124799E+02  0.13057757341E+02  0.47787263517E+02  0.19999965679E+02 0.  0.
         12    1    1    2    0    0  0.23683650313E+02  0.33944124799E+02 -0.13057757341E+02  0.43400736483E+02  0.00000000000E+00 0. -1.
         11    1    3    3    0    0 -0.14112713817E+02 -0.85013005771E+01  0.12074236269E+02  0.20426159319E+02  0.51100000000E-03 0. -1.
        -11    1    3    3    0    0 -0.81442034916E+01 -0.19097930753E+02  0.16293129325E+01  0.20825793393E+02  0.51100000000E-03 0.  1.
         12    1    3    3    0    0 -0.14267330041E+01 -0.63448934686E+01 -0.64579185986E+00  0.65353108051E+01  0.00000000000E+00 0. -1.
</event>
<event>
 7    1  0.5426550E-010  0.4778727E+02  0.7816164E-02  0.1312668E+00
        -11   -1    0    0    0    0  0.00000000000E+00  0.00000000000E+00  0.45593999997E+02  0.45594000000E+02  0.51100000000E-03 0.  1.
         11   -1    0    0    0    0 -0.00000000000E+00 -0.00000000000E+00 -0.45593999997E+02  0.45594000000E+02  0.51100000000E-03 0. -1.
    9900012    2    1    2    0    0  0.17713466018E+01  0.17874722248E+02  0.39509243570E+02  0.47787266231E+02  0.19999978054E+02 0.  0.
         12    1    1    2    0    0 -0.17713466018E+01 -0.17874722248E+02 -0.39509243570E+02  0.43400733769E+02  0.00000000000E+00 0. -1.
         11    1    3    3    0    0  0.10622201368E+01  0.12410735180E+02  0.13421308161E+02  0.18310821182E+02  0.51100000000E-03 0. -1.
        -11    1    3    3    0    0  0.85845225940E+00  0.54717655503E+01  0.27502158997E+02  0.28054338493E+02  0.51100000000E-03 0.  1.
        -12    1    3    3    0    0 -0.14932579444E+00 -0.77784818588E-02 -0.14142235890E+01  0.14221065562E+01  0.00000000000E+00 0.  1.
</event>
<event>
 7    1  0.5426550E-010  0.4778727E+02  0.7816164E-02  0.1312668E+00
        -11   -1    0    0    0    0  0.00000000000E+00  0.00000000000E+00  0.45593999997E+02  0.45594000000E+02  0.51100000000E-03 0. -1.
         11   -1    0    0    0    0 -0.00000000000E+00 -0.00000000000E+00 -0.45593999997E+02  0.45594000000E+02  0.51100000000E-03 0.  1.
    9900012    2    1    2    0    0 -0.15741520265E+02 -0.18530984322E+02 -0.35950388648E+02  0.47787270926E+02  0.19999999461E+02 0.  0.
         12    1    1    2    0    0  0.15741520265E+02  0.18530984322E+02  0.35950388648E+02  0.43400729074E+02  0.00000000000E+00 0. -1.
         11    1    3    3    0    0 -0.11835673505E+00 -0.37451630103E+01 -0.17429452492E+02  0.17827677042E+02  0.51100000000E-03 0. -1.
        -11    1    3    3    0    0 -0.34932517228E+01 -0.58989536266E+01 -0.11444295440E+02  0.13340628166E+02  0.51100000000E-03 0.  1.
         12    1    3    3    0    0 -0.12129911808E+02 -0.88868676850E+01 -0.70766407159E+01  0.16618965718E+02  0.00000000000E+00 0. -1.
</event>
<event>
 7    1  0.5426550E-010  0.4778727E+02  0.7816164E-02  0.1312668E+00
        -11   -1    0    0    0    0  0.00000000000E+00  0.00000000000E+00  0.45593999997E+02  0.45594000000E+02  0.51100000000E-03 0.  1.
         11   -1    0    0    0    0 -0.00000000000E+00 -0.00000000000E+00 -0.45593999997E+02  0.45594000000E+02  0.51100000000E-03 0. -1.
    9900012    2    1    2    0    0 -0.68277466825E+01 -0.84911859009E+01  0.42010768388E+02  0.47787273931E+02  0.20000013161E+02 0.  0.
         12    1    1    2    0    0  0.68277466825E+01  0.84911859009E+01 -0.42010768388E+02  0.43400726069E+02  0.00000000000E+00 0. -1.
         11    1    3    3    0    0  0.35089683970E+01 -0.90997803602E+01  0.11302027551E+02  0.14928318352E+02  0.51100000000E-03 0. -1.
        -11    1    3    3    0    0 -0.25653771872E+01 -0.22055764823E+01  0.10243364394E+02  0.10787596679E+02  0.51100000000E-03 0.  1.
         12    1    3    3    0    0 -0.77713378923E+01  0.28141709416E+01  0.20465376443E+02  0.22071358900E+02  0.00000000000E+00 0. -1.
</event>
<event>
 7    1  0.5426550E-010  0.4778727E+02  0.7816164E-02  0.1312668E+00
        -11   -1    0    0    0    0  0.00000000000E+00  0.00000000000E+00  0.45593999997E+02  0.45594000000E+02  0.51100000000E-03 0.  1.
         11   -1    0    0    0    0 -0.00000000000E+00 -0.00000000000E+00 -0.45593999997E+02  0.45594000000E+02  0.51100000000E-03 0. -1.
    9900012    2    1    2    0    0  0.20693714176E+02 -0.18324062485E+02  0.33460755237E+02  0.47787271741E+02  0.20000003178E+02 0.  0.
         12    1    1    2    0    0 -0.20693714176E+02  0.18324062485E+02 -0.33460755237E+02  0.43400728259E+02  0.00000000000E+00 0. -1.
         11    1    3    3    0    0  0.94103533173E+00 -0.21028020095E+01  0.38513335817E-01  0.23040849214E+01  0.51100000000E-03 0. -1.
        -11    1    3    3    0    0  0.10571616544E+02 -0.66962899847E+00  0.47765855105E+01  0.11619950463E+02  0.51100000000E-03 0.  1.
        -12    1    3    3    0    0  0.91810622998E+01 -0.15551631477E+02  0.28645656391E+02  0.33863236357E+02  0.00000000000E+00 0.  1.
</event>
<event>
 7    1  0.5426550E-010  0.4778728E+02  0.7816164E-02  0.1312668E+00
        -11   -1    0    0    0    0  0.00000000000E+00  0.00000000000E+00  0.45593999997E+02  0.45594000000E+02  0.51100000000E-03 0.  1.
         11   -1    0    0    0    0 -0.00000000000E+00 -0.00000000000E+00 -0.45593999997E+02  0.45594000000E+02  0.51100000000E-03 0. -1.
    9900012    2    1    2    0    0 -0.24396306171E+02 -0.35766815762E+02 -0.30294458414E+01  0.47787281035E+02  0.20000045553E+02 0.  0.
         12    1    1    2    0    0  0.24396306171E+02  0.35766815762E+02  0.30294458414E+01  0.43400718965E+02  0.00000000000E+00 0. -1.
         11    1    3    3    0    0 -0.10197617900E+02 -0.82080789505E+01  0.68768634632E+01  0.14786995038E+02  0.51100000000E-03 0. -1.
        -11    1    3    3    0    0 -0.78501606606E+01 -0.20669074631E+02 -0.69846206736E+01  0.23186646905E+02  0.51100000000E-03 0.  1.
         12    1    3    3    0    0 -0.63485276108E+01 -0.68896621802E+01 -0.29216886309E+01  0.98136390925E+01  0.00000000000E+00 0. -1.
</event>
<event>
 7    1  0.5426550E-010  0.4778727E+02  0.7816164E-02  0.1312668E+00
        -11   -1    0    0    0    0  0.00000000000E+00  0.00000000000E+00  0.45593999997E+02  0.45594000000E+02  0.51100000000E-03 0.  1.
         11   -1    0    0    0    0 -0.00000000000E+00 -0.00000000000E+00 -0.45593999997E+02  0.45594000000E+02  0.51100000000E-03 0. -1.
    9900012    2    1    2    0    0 -0.15141669867E+02  0.19580821520E+02  0.35650307879E+02  0.47787272015E+02  0.20000004426E+02 0.  0.
         12    1    1    2    0    0  0.15141669867E+02 -0.19580821520E+02 -0.35650307879E+02  0.43400727985E+02  0.00000000000E+00 0. -1.
         11    1    3    3    0    0 -0.28067672534E+01  0.10224677333E+02  0.26482284633E+02  0.28526012140E+02  0.51100000000E-03 0. -1.
        -11    1    3    3    0    0 -0.35353941314E+01  0.11911304904E+01  0.56168140204E+01  0.67428779842E+01  0.51100000000E-03 0.  1.
         12    1    3    3    0    0 -0.87995084824E+01  0.81650136968E+01  0.35512092256E+01  0.12518381891E+02  0.00000000000E+00 0. -1.
</event>
<event>
 7    1  0.5426550E-010  0.4778727E+02  0.7816164E-02  0.1312668E+00
        -11   -1    0    0    0    0  0.00000000000E+00  0.00000000000E+00  0.45593999997E+02  0.45594000000E+02  0.51100000000E-03 0.  1.
         11   -1    0    0    0    0 -0.00000000000E+00 -0.00000000000E+00 -0.45593999997E+02  0.45594000000E+02  0.51100000000E-03 0. -1.
    9900012    2    1    2    0    0 -0.16636094825E+02  0.39841519800E+02  0.44178167899E+01  0.47787268944E+02  0.19999990423E+02 0.  0.
         12    1    1    2    0    0  0.16636094825E+02 -0.39841519800E+02 -0.44178167899E+01  0.43400731056E+02  0.00000000000E+00 0. -1.
         11    1    3    3    0    0  0.78423538177E+00  0.15473277925E+02  0.56355532242E+01  0.16486261410E+02  0.51100000000E-03 0. -1.
        -11    1    3    3    0    0 -0.15149899236E+02  0.19175008996E+02  0.24340431182E+01  0.24558603035E+02  0.51100000000E-03 0.  1.
         12    1    3    3    0    0 -0.22704309709E+01  0.51932328783E+01 -0.36517795525E+01  0.67424044985E+01  0.00000000000E+00 0. -1.
</event>
<event>
 7    1  0.5426550E-010  0.4778727E+02  0.7816164E-02  0.1312668E+00
        -11   -1    0    0    0    0  0.00000000000E+00  0.00000000000E+00  0.45593999997E+02  0.45594000000E+02  0.51100000000E-03 0.  1.
         11   -1    0    0    0    0 -0.00000000000E+00 -0.00000000000E+00 -0.45593999997E+02  0.45594000000E+02  0.51100000000E-03 0. -1.
    9900012    2    1    2    0    0 -0.57139796652E+01  0.36009468859E+02  0.23543399994E+02  0.47787273112E+02  0.20000009426E+02 0.  0.
         12    1    1    2    0    0  0.57139796652E+01 -0.36009468859E+02 -0.23543399994E+02  0.43400726888E+02  0.00000000000E+00 0. -1.
         11    1    3    3    0    0  0.47622841841E+01  0.26830361314E+02  0.14822506618E+02  0.31020224719E+02  0.51100000000E-03 0.  1.
        -11    1    3    3    0    0 -0.50105159633E+01  0.22775153179E+01  0.37040082799E+01  0.66341558499E+01  0.51100000000E-03 0. -1.
        -12    1    3    3    0    0 -0.54657478860E+01  0.69015922268E+01  0.50168850962E+01  0.10132892543E+02  0.00000000000E+00 0.  1.
</event>
<event>
 7    1  0.5426550E-010  0.4778727E+02  0.7816164E-02  0.1312668E+00
        -11   -1    0    0    0    0  0.00000000000E+00  0.00000000000E+00  0.45593999997E+02  0.45594000000E+02  0.51100000000E-03 0. -1.
         11   -1    0    0    0    0 -0.00000000000E+00 -0.00000000000E+00 -0.45593999997E+02  0.45594000000E+02  0.51100000000E-03 0.  1.
    9900012    2    1    2    0    0  0.93950466483E+01  0.40509048574E+02 -0.12424719907E+02  0.47787267487E+02  0.19999983780E+02 0.  0.
         12    1    1    2    0    0 -0.93950466483E+01 -0.40509048574E+02  0.12424719907E+02  0.43400732513E+02  0.00000000000E+00 0. -1.
         11    1    3    3    0    0  0.10174479838E+02  0.13668871819E+02 -0.57595173053E+00  0.17049628073E+02  0.51100000000E-03 0. -1.
        -11    1    3    3    0    0 -0.64522995261E+00  0.22245920054E+02 -0.55440663147E+01  0.22935430066E+02  0.51100000000E-03 0.  1.
        -12    1    3    3    0    0 -0.13420323735E+00  0.45942567019E+01 -0.63047018615E+01  0.78022093483E+01  0.00000000000E+00 0.  1.
</event>
<event>
 7    1  0.5426550E-010  0.4778722E+02  0.7816164E-02  0.1312668E+00
        -11   -1    0    0    0    0  0.00000000000E+00  0.00000000000E+00  0.45593999997E+02  0.45594000000E+02  0.51100000000E-03 0.  1.
         11   -1    0    0    0    0 -0.00000000000E+00 -0.00000000000E+00 -0.45593999997E+02  0.45594000000E+02  0.51100000000E-03 0. -1.
    9900012    2    1    2    0    0 -0.10005033266E+02  0.40449204983E+02  0.12140374017E+02  0.47787221716E+02  0.19999775089E+02 0.  0.
         12    1    1    2    0    0  0.10005033266E+02 -0.40449204983E+02 -0.12140374017E+02  0.43400778284E+02  0.00000000000E+00 0. -1.
         11    1    3    3    0    0 -0.22727040837E+01  0.30278389332E+02  0.12185877057E+02  0.32717604501E+02  0.51100000000E-03 0.  1.
        -11    1    3    3    0    0 -0.54566719863E+01  0.13577753477E+01 -0.15759826424E+01  0.58397384026E+01  0.51100000000E-03 0. -1.
         12    1    3    3    0    0 -0.22756571957E+01  0.88130403033E+01  0.15304796025E+01  0.92298788114E+01  0.00000000000E+00 0. -1.
</event>
<event>
 7    1  0.5426550E-010  0.4778725E+02  0.7816164E-02  0.1312668E+00
        -11   -1    0    0    0    0  0.00000000000E+00  0.00000000000E+00  0.45593999997E+02  0.45594000000E+02  0.51100000000E-03 0.  1.
         11   -1    0    0    0    0 -0.00000000000E+00 -0.00000000000E+00 -0.45593999997E+02  0.45594000000E+02  0.51100000000E-03 0. -1.
    9900012    2    1    2    0    0 -0.16541177699E+02 -0.27753436926E+02  0.28978630191E+02  0.47787253133E+02  0.19999918335E+02 0.  0.
         12    1    1    2    0    0  0.16541177699E+02  0.27753436926E+02 -0.28978630191E+02  0.43400746867E+02  0.00000000000E+00 0. -1.
         11    1    3    3    0    0  0.21489480558E+01 -0.56161438189E+01  0.10502908546E+02  0.12102484758E+02  0.51100000000E-03 0. -1.
        -11    1    3    3    0    0 -0.12939327193E+02 -0.18333734529E+02  0.95037570449E+01  0.24369518014E+02  0.51100000000E-03 0.  1.
        -12    1    3    3    0    0 -0.57507985618E+01 -0.38035585779E+01  0.89719646000E+01  0.11315250361E+02  0.00000000000E+00 0.  1.
</event>
<event>
 7    1  0.5426550E-010  0.4778727E+02  0.7816164E-02  0.1312668E+00
        -11   -1    0    0    0    0  0.00000000000E+00  0.00000000000E+00  0.45593999997E+02  0.45594000000E+02  0.51100000000E-03 0. -1.
         11   -1    0    0    0    0 -0.00000000000E+00 -0.00000000000E+00 -0.45593999997E+02  0.45594000000E+02  0.51100000000E-03 0.  1.
    9900012    2    1    2    0    0  0.15289101911E+02  0.33257560987E+02 -0.23319546399E+02  0.47787271385E+02  0.20000001554E+02 0.  0.
         12    1    1    2    0    0 -0.15289101911E+02 -0.33257560987E+02  0.23319546399E+02  0.43400728615E+02  0.00000000000E+00 0. -1.
         11    1    3    3    0    0  0.38608726456E+01  0.56778149292E+01  0.23887138936E+01  0.72697919009E+01  0.51100000000E-03 0. -1.
        -11    1    3    3    0    0  0.10064293286E+02  0.18752669028E+02 -0.12849030166E+02  0.24860614865E+02  0.51100000000E-03 0.  1.
         12    1    3    3    0    0  0.13639359794E+01  0.88270770301E+01 -0.12859230127E+02  0.15656864619E+02  0.00000000000E+00 0. -1.
</event>
<event>
 7    1  0.5426550E-010  0.4778722E+02  0.7816164E-02  0.1312668E+00
        -11   -1    0    0    0    0  0.00000000000E+00  0.00000000000E+00  0.45593999997E+02  0.45594000000E+02  0.51100000000E-03 0.  1.
         11   -1    0    0    0    0 -0.00000000000E+00 -0.00000000000E+00 -0.45593999997E+02  0.45594000000E+02  0.51100000000E-03 0. -1.
    9900012    2    1    2    0    0 -0.95340311577E+01  0.28109985306E+02  0.31663207056E+02  0.47787219994E+02  0.19999767239E+02 0.  0.
         12    1    1    2    0    0  0.95340311577E+01 -0.28109985306E+02 -0.31663207056E+02  0.43400780006E+02  0.00000000000E+00 0. -1.
         11    1    3    3    0    0  0.60623101542E+00  0.24040812555E+01 -0.12267279448E+01  0.27662220516E+01  0.51100000000E-03 0. -1.
        -11    1    3    3    0    0 -0.67303570355E+01  0.25178203385E+02  0.23784620030E+02  0.35283817563E+02  0.51100000000E-03 0.  1.
        -12    1    3    3    0    0 -0.34099051375E+01  0.52770066579E+00  0.91053149705E+01  0.97371803799E+01  0.00000000000E+00 0.  1.
</event>
<event>
 7    1  0.5426550E-010  0.4778727E+02  0.7816164E-02  0.1312668E+00
        -11   -1    0    0    0    0  0.00000000000E+00  0.00000000000E+00  0.45593999997E+02  0.45594000000E+02  0.51100000000E-03 0.  1.
         11   -1    0    0    0    0 -0.00000000000E+00 -0.00000000000E+00 -0.45593999997E+02  0.45594000000E+02  0.51100000000E-03 0. -1.
    9900012    2    1    2    0    0  0.28872673128E+02  0.19920205605E+01  0.32342290564E+02  0.47787272375E+02  0.20000006066E+02 0.  0.
         12    1    1    2    0    0 -0.28872673128E+02 -0.19920205605E+01 -0.32342290564E+02  0.43400727625E+02  0.00000000000E+00 0. -1.
         11    1    3    3    0    0 -0.11746410382E+01  0.34443839277E+01  0.32716356912E+01  0.48935838163E+01  0.51100000000E-03 0. -1.
        -11    1    3    3    0    0  0.16993194386E+02 -0.55177919689E+01  0.16316194561E+02  0.24195720466E+02  0.51100000000E-03 0.  1.
         12    1    3    3    0    0  0.13054119780E+02  0.40654286017E+01  0.12754460312E+02  0.18697968093E+02  0.00000000000E+00 0. -1.
</event>
<event>
 7    1  0.5426550E-010  0.4778727E+02  0.7816164E-02  0.1312668E+00
        -11   -1    0    0    0    0  0.00000000000E+00  0.00000000000E+00  0.45593999997E+02  0.45594000000E+02  0.51100000000E-03 0.  1.
         11   -1    0    0    0    0 -0.00000000000E+00 -0.00000000000E+00 -0.45593999997E+02  0.45594000000E+02  0.51100000000E-03 0. -1.
    9900012    2    1    2    0    0 -0.10072523807E+02  0.45398297315E+01  0.41970908542E+02  0.47787274733E+02  0.20000016819E+02 0.  0.
         12    1    1    2    0    0  0.10072523807E+02 -0.45398297315E+01 -0.41970908542E+02  0.43400725267E+02  0.00000000000E+00 0. -1.
         11    1    3    3    0    0 -0.73226993793E+01  0.67440163984E+01  0.94442327088E+01  0.13722143240E+02  0.51100000000E-03 0. -1.
        -11    1    3    3    0    0 -0.18656607606E+00  0.36747088417E+01  0.10645783724E+02  0.11263702914E+02  0.51100000000E-03 0.  1.
         12    1    3    3    0    0 -0.25632583520E+01 -0.58788955086E+01  0.21880892109E+02  0.22801428580E+02  0.00000000000E+00 0. -1.
</event>
<event>
 7    1  0.5426550E-010  0.4778727E+02  0.7816164E-02  0.1312668E+00
        -11   -1    0    0    0    0  0.00000000000E+00  0.00000000000E+00  0.45593999997E+02  0.45594000000E+02  0.51100000000E-03 0.  1.
         11   -1    0    0    0    0 -0.00000000000E+00 -0.00000000000E+00 -0.45593999997E+02  0.45594000000E+02  0.51100000000E-03 0. -1.
    9900012    2    1    2    0    0 -0.33563814897E+02  0.25448996384E+02 -0.10461445977E+02  0.47787274899E+02  0.20000017573E+02 0.  0.
         12    1    1    2    0    0  0.33563814897E+02 -0.25448996384E+02  0.10461445977E+02  0.43400725101E+02  0.00000000000E+00 0. -1.
         11    1    3    3    0    0 -0.11281454320E+02  0.90755503794E+01 -0.11747768992E+02  0.18645291706E+02  0.51100000000E-03 0. -1.
        -11    1    3    3    0    0 -0.17597108017E+02  0.92522623487E+01  0.38290269281E+01  0.20246580369E+02  0.51100000000E-03 0.  1.
        -12    1    3    3    0    0 -0.46852525594E+01  0.71211836560E+01 -0.25427039136E+01  0.88954028239E+01  0.00000000000E+00 0.  1.
</event>
<event>
 7    1  0.5426550E-010  0.4778723E+02  0.7816164E-02  0.1312668E+00
        -11   -1    0    0    0    0  0.00000000000E+00  0.00000000000E+00  0.45593999997E+02  0.45594000000E+02  0.51100000000E-03 0.  1.
         11   -1    0    0    0    0 -0.00000000000E+00 -0.00000000000E+00 -0.45593999997E+02  0.45594000000E+02  0.51100000000E-03 0. -1.
    9900012    2    1    2    0    0 -0.10212423456E+02  0.33383757818E+02  0.25784835996E+02  0.47787232193E+02  0.19999822859E+02 0.  0.
         12    1    1    2    0    0  0.10212423456E+02 -0.33383757818E+02 -0.25784835996E+02  0.43400767807E+02  0.00000000000E+00 0. -1.
         11    1    3    3    0    0  0.23434211123E+01  0.21345732984E+02  0.20208562675E+02  0.29487589674E+02  0.51100000000E-03 0. -1.
        -11    1    3    3    0    0 -0.94674488264E+01  0.96290804201E+01  0.45636538176E+01  0.14254077081E+02  0.51100000000E-03 0.  1.
         12    1    3    3    0    0 -0.30883957420E+01  0.24089444142E+01  0.10126195040E+01  0.40455654376E+01  0.00000000000E+00 0. -1.
</event>
<event>
 7    1  0.5426550E-010  0.4778726E+02  0.7816164E-02  0.1312668E+00
        -11   -1    0    0    0    0  0.00000000000E+00  0.00000000000E+00  0.45593999997E+02  0.45594000000E+02  0.51100000000E-03 0. -1.
         11   -1    0    0    0    0 -0.00000000000E+00 -0.00000000000E+00 -0.45593999997E+02  0.45594000000E+02  0.51100000000E-03 0.  1.
    9900012    2    1    2    0    0 -0.20586514549E+02  0.17658073938E+02 -0.33882322019E+02  0.47787263809E+02  0.19999967012E+02 0.  0.
         12    1    1    2    0    0  0.20586514549E+02 -0.17658073938E+02  0.33882322019E+02  0.43400736191E+02  0.00000000000E+00 0. -1.
         11    1    3    3    0    0 -0.40373054209E+01  0.32581308981E+01 -0.18459829858E+02  0.19174998583E+02  0.51100000000E-03 0.  1.
        -11    1    3    3    0    0 -0.11640481400E+02  0.14756554971E+02 -0.14157449720E+02  0.23530620575E+02  0.51100000000E-03 0. -1.
         12    1    3    3    0    0 -0.49087277286E+01 -0.35661193135E+00 -0.12650424416E+01  0.50816446514E+01  0.00000000000E+00 0. -1.
</event>
<event>
 7    1  0.5426550E-010  0.4778727E+02  0.7816164E-02  0.1312668E+00
        -11   -1    0    0    0    0  0.00000000000E+00  0.00000000000E+00  0.45593999997E+02  0.45594000000E+02  0.51100000000E-03 0. -1.
         11   -1    0    0    0    0 -0.00000000000E+00 -0.00000000000E+00 -0.45593999997E+02  0.45594000000E+02  0.51100000000E-03 0.  1.
    9900012    2    1    2    0    0  0.30322921749E+02 -0.23019127531E+02  0.20839001212E+02  0.47787265130E+02  0.19999973035E+02 0.  0.
         12    1    1    2    0    0 -0.30322921749E+02  0.23019127531E+02 -0.20839001212E+02  0.43400734870E+02  0.00000000000E+00 0. -1.
         11    1    3    3    0    0  0.23903361843E+01 -0.10388224361E+02  0.16565718620E+01  0.10787638437E+02  0.51100000000E-03 0. -1.
        -11    1    3    3    0    0  0.22436441752E+02 -0.13242812741E+02  0.14968609608E+02  0.30047051130E+02  0.51100000000E-03 0.  1.
         12    1    3    3    0    0  0.54961438129E+01  0.61190957084E+00  0.42138197427E+01  0.69525755630E+01  0.00000000000E+00 0. -1.
</event>
<event>
 7    1  0.5426550E-010  0.4778727E+02  0.7816164E-02  0.1312668E+00
        -11   -1    0    0    0    0  0.00000000000E+00  0.00000000000E+00  0.45593999997E+02  0.45594000000E+02  0.51100000000E-03 0. -1.
         11   -1    0    0    0    0 -0.00000000000E+00 -0.00000000000E+00 -0.45593999997E+02  0.45594000000E+02  0.51100000000E-03 0.  1.
    9900012    2    1    2    0    0  0.13155406890E+02 -0.29233495918E+01 -0.41255454452E+02  0.47787271604E+02  0.20000002550E+02 0.  0.
         12    1    1    2    0    0 -0.13155406890E+02  0.29233495918E+01  0.41255454452E+02  0.43400728396E+02  0.00000000000E+00 0. -1.
         11    1    3    3    0    0  0.64318509847E+01 -0.11078899923E+02 -0.16861924779E+02  0.21176289527E+02  0.51100000000E-03 0. -1.
        -11    1    3    3    0    0  0.42994887571E+01  0.52037592020E+01 -0.14124022389E+02  0.15654159898E+02  0.51100000000E-03 0.  1.
         12    1    3    3    0    0  0.24240671484E+01  0.29517911295E+01 -0.10269507284E+02  0.10956822180E+02  0.00000000000E+00 0. -1.
</event>
<event>
 7    1  0.5426550E-010  0.4778729E+02  0.7816164E-02  0.1312668E+00
        -11   -1    0    0    0    0  0.00000000000E+00  0.00000000000E+00  0.45593999997E+02  0.45594000000E+02  0.51100000000E-03 0.  1.
         11   -1    0    0    0    0 -0.00000000000E+00 -0.00000000000E+00 -0.45593999997E+02  0.45594000000E+02  0.51100000000E-03 0. -1.
    9900012    2    1    2    0    0 -0.39807643672E+02  0.42941803072E+00  0.17285501134E+02  0.47787292125E+02  0.20000096115E+02 0.  0.
         12    1    1    2    0    0  0.39807643672E+02 -0.42941803072E+00 -0.17285501134E+02  0.43400707875E+02  0.00000000000E+00 0. -1.
         11    1    3    3    0    0 -0.18232250212E+02 -0.26021335359E+01  0.21521900694E+01  0.18542329117E+02  0.51100000000E-03 0. -1.
        -11    1    3    3    0    0 -0.14156472537E+01  0.39751456611E+01  0.53587170471E+01  0.68206809650E+01  0.51100000000E-03 0.  1.
         12    1    3    3    0    0 -0.20159746206E+02 -0.94359409442E+00  0.97745940175E+01  0.22424282043E+02  0.00000000000E+00 0. -1.
</event>
<event>
 7    1  0.5426550E-010  0.4778727E+02  0.7816164E-02  0.1312668E+00
        -11   -1    0    0    0    0  0.00000000000E+00  0.00000000000E+00  0.45593999997E+02  0.45594000000E+02  0.51100000000E-03 0.  1.
         11   -1    0    0    0    0 -0.00000000000E+00 -0.00000000000E+00 -0.45593999997E+02  0.45594000000E+02  0.51100000000E-03 0. -1.
    9900012    2    1    2    0    0  0.15404971227E+02  0.33284742099E+02 -0.23204222634E+02  0.47787272550E+02  0.20000006865E+02 0.  0.
         12    1    1    2    0    0 -0.15404971227E+02 -0.33284742099E+02  0.23204222634E+02  0.43400727450E+02  0.00000000000E+00 0. -1.
         11    1    3    3    0    0  0.83767885987E+01  0.35674942082E+01 -0.67837823147E+01  0.11354175659E+02  0.51100000000E-03 0. -1.
        -11    1    3    3    0    0  0.66568080688E+01  0.24755705401E+02 -0.83656956479E+01  0.26965587468E+02  0.51100000000E-03 0.  1.
         12    1    3    3    0    0  0.37137455967E+00  0.49615424902E+01 -0.80547446715E+01  0.94675094226E+01  0.00000000000E+00 0. -1.
</event>
<event>
 7    1  0.5426550E-010  0.4778727E+02  0.7816164E-02  0.1312668E+00
        -11   -1    0    0    0    0  0.00000000000E+00  0.00000000000E+00  0.45593999997E+02  0.45594000000E+02  0.51100000000E-03 0. -1.
         11   -1    0    0    0    0 -0.00000000000E+00 -0.00000000000E+00 -0.45593999997E+02  0.45594000000E+02  0.51100000000E-03 0.  1.
    9900012    2    1    2    0    0  0.23958724101E+02 -0.33786368168E+02 -0.12964724183E+02  0.47787271807E+02  0.20000003479E+02 0.  0.
         12    1    1    2    0    0 -0.23958724101E+02  0.33786368168E+02  0.12964724183E+02  0.43400728193E+02  0.00000000000E+00 0. -1.
         11    1    3    3    0    0 -0.62802302131E+00 -0.24454262358E+01 -0.44490632810E+01  0.51155338655E+01  0.51100000000E-03 0. -1.
        -11    1    3    3    0    0  0.17216703734E+02 -0.16360976532E+02  0.38219674400E+00  0.23753789490E+02  0.51100000000E-03 0.  1.
        -12    1    3    3    0    0  0.73700433882E+01 -0.14979965400E+02 -0.88978576459E+01  0.18917948452E+02  0.00000000000E+00 0.  1.
</event>
<event>
 7    1  0.5426550E-010  0.4778727E+02  0.7816164E-02  0.1312668E+00
        -11   -1    0    0    0    0  0.00000000000E+00  0.00000000000E+00  0.45593999997E+02  0.45594000000E+02  0.51100000000E-03 0.  1.
         11   -1    0    0    0    0 -0.00000000000E+00 -0.00000000000E+00 -0.45593999997E+02  0.45594000000E+02  0.51100000000E-03 0. -1.
    9900012    2    1    2    0    0 -0.10808244916E+02  0.32569463391E+02  0.26571325589E+02  0.47787269046E+02  0.19999990889E+02 0.  0.
         12    1    1    2    0    0  0.10808244916E+02 -0.32569463391E+02 -0.26571325589E+02  0.43400730954E+02  0.00000000000E+00 0. -1.
         11    1    3    3    0    0  0.42035139481E+01  0.41292783807E+01  0.70625413011E+01  0.91978236202E+01  0.51100000000E-03 0. -1.
        -11    1    3    3    0    0 -0.98959511659E+01  0.96895891465E+01  0.76725607294E+01  0.15833072213E+02  0.51100000000E-03 0.  1.
        -12    1    3    3    0    0 -0.51158076981E+01  0.18750595864E+02  0.11836223559E+02  0.22756373213E+02  0.00000000000E+00 0.  1.
</event>
<event>
 7    1  0.5426550E-010  0.4778729E+02  0.7816164E-02  0.1312668E+00
        -11   -1    0    0    0    0  0.00000000000E+00  0.00000000000E+00  0.45593999997E+02  0.45594000000E+02  0.51100000000E-03 0.  1.
         11   -1    0    0    0    0 -0.00000000000E+00 -0.00000000000E+00 -0.45593999997E+02  0.45594000000E+02  0.51100000000E-03 0. -1.
    9900012    2    1    2    0    0  0.12815909045E+02 -0.35930420315E+02  0.20697327622E+02  0.47787285728E+02  0.20000066948E+02 0.  0.
         12    1    1    2    0    0 -0.12815909045E+02  0.35930420315E+02 -0.20697327622E+02  0.43400714272E+02  0.00000000000E+00 0. -1.
         11    1    3    3    0    0  0.83373464743E+01 -0.34573565782E+02  0.15252625103E+02  0.38697356110E+02  0.51100000000E-03 0. -1.
        -11    1    3    3    0    0  0.53275756125E+01 -0.22703413350E+01  0.52710222869E+01  0.78307846282E+01  0.51100000000E-03 0.  1.
         12    1    3    3    0    0 -0.84901304172E+00  0.91348680208E+00  0.17368023223E+00  0.12591449899E+01  0.00000000000E+00 0. -1.
</event>
<event>
 7    1  0.5426550E-010  0.4778726E+02  0.7816164E-02  0.1312668E+00
        -11   -1    0    0    0    0  0.00000000000E+00  0.00000000000E+00  0.45593999997E+02  0.45594000000E+02  0.51100000000E-03 0. -1.
         11   -1    0    0    0    0 -0.00000000000E+00 -0.00000000000E+00 -0.45593999997E+02  0.45594000000E+02  0.51100000000E-03 0.  1.
    9900012    2    1    2    0    0 -0.30689468078E+02 -0.51722055147E+01 -0.30249447751E+02  0.47787259799E+02  0.19999948727E+02 0.  0.
         12    1    1    2    0    0  0.30689468078E+02  0.51722055147E+01  0.30249447751E+02  0.43400740201E+02  0.00000000000E+00 0. -1.
         11    1    3    3    0    0 -0.34417813840E+01 -0.60666264612E+01 -0.62231312602E+01  0.93475760846E+01  0.51100000000E-03 0. -1.
        -11    1    3    3    0    0 -0.18818692146E+02  0.54516683021E+01 -0.20145061784E+02  0.28101376761E+02  0.51100000000E-03 0.  1.
        -12    1    3    3    0    0 -0.84289945483E+01 -0.45572473555E+01 -0.38812547064E+01  0.10338306953E+02  0.00000000000E+00 0.  1.
</event>
<event>
 7    1  0.5426550E-010  0.4778727E+02  0.7816164E-02  0.1312668E+00
        -11   -1    0    0    0    0  0.00000000000E+00  0.00000000000E+00  0.45593999997E+02  0.45594000000E+02  0.51100000000E-03 0.  1.
         11   -1    0    0    0    0 -0.00000000000E+00 -0.00000000000E+00 -0.45593999997E+02  0.45594000000E+02  0.51100000000E-03 0. -1.
    9900012    2    1    2    0    0 -0.39224154900E+02  0.15292662401E+02  0.10546270957E+02  0.47787266342E+02  0.19999978560E+02 0.  0.
         12    1    1    2    0    0  0.39224154900E+02 -0.15292662401E+02 -0.10546270957E+02  0.43400733658E+02  0.00000000000E+00 0. -1.
         11    1    3    3    0    0 -0.24907369925E+02  0.68998037442E+01  0.12847726865E+02  0.28862578785E+02  0.51100000000E-03 0. -1.
        -11    1    3    3    0    0 -0.13275252246E+02  0.41456540480E+01  0.15613698007E+00  0.13908384115E+02  0.51100000000E-03 0.  1.
         12    1    3    3    0    0 -0.10415327295E+01  0.42472046088E+01 -0.24575928878E+01  0.50163034415E+01  0.00000000000E+00 0. -1.
</event>
<event>
 7    1  0.5426550E-010  0.4778728E+02  0.7816164E-02  0.1312668E+00
        -11   -1    0    0    0    0  0.00000000000E+00  0.00000000000E+00  0.45593999997E+02  0.45594000000E+02  0.51100000000E-03 0.  1.
         11   -1    0    0    0    0 -0.00000000000E+00 -0.00000000000E+00 -0.45593999997E+02  0.45594000000E+02  0.51100000000E-03 0. -1.
    9900012    2    1    2    0    0 -0.97876716585E-01  0.35118686345E+02  0.25500800252E+02  0.47787279684E+02  0.20000039390E+02 0.  0.
         12    1    1    2    0    0  0.97876716585E-01 -0.35118686345E+02 -0.25500800252E+02  0.43400720316E+02  0.00000000000E+00 0. -1.
         11    1    3    3    0    0 -0.21147520376E+01  0.12727114071E+02  0.71304182597E+01  0.14740911559E+02  0.51100000000E-03 0.  1.
        -11    1    3    3    0    0  0.32219728855E+01  0.21523220246E+02  0.89861285579E+01  0.23545288823E+02  0.51100000000E-03 0. -1.
        -12    1    3    3    0    0 -0.12050975645E+01  0.86835202829E+00  0.93842534346E+01  0.95010793023E+01  0.00000000000E+00 0.  1.
</event>
<event>
 7    1  0.5426550E-010  0.4778727E+02  0.7816164E-02  0.1312668E+00
        -11   -1    0    0    0    0  0.00000000000E+00  0.00000000000E+00  0.45593999997E+02  0.45594000000E+02  0.51100000000E-03 0. -1.
         11   -1    0    0    0    0 -0.00000000000E+00 -0.00000000000E+00 -0.45593999997E+02  0.45594000000E+02  0.51100000000E-03 0.  1.
    9900012    2    1    2    0    0  0.30115449077E+02  0.59872048943E+00 -0.31246196841E+02  0.47787267790E+02  0.19999985162E+02 0.  0.
         12    1    1    2    0    0 -0.30115449077E+02 -0.59872048943E+00  0.31246196841E+02  0.43400732210E+02  0.00000000000E+00 0. -1.
         11    1    3    3    0    0  0.38546859872E+01 -0.70725966811E+01 -0.10328884570E+02  0.13098323732E+02  0.51100000000E-03 0. -1.
        -11    1    3    3    0    0  0.16977572323E+02  0.29316443826E+01 -0.12375419092E+02  0.21212814493E+02  0.51100000000E-03 0.  1.
         12    1    3    3    0    0  0.92831907666E+01  0.47396727879E+01 -0.85418931798E+01  0.13476129565E+02  0.00000000000E+00 0. -1.
</event>
<event>
 7    1  0.5426550E-010  0.4778727E+02  0.7816164E-02  0.1312668E+00
        -11   -1    0    0    0    0  0.00000000000E+00  0.00000000000E+00  0.45593999997E+02  0.45594000000E+02  0.51100000000E-03 0.  1.
         11   -1    0    0    0    0 -0.00000000000E+00 -0.00000000000E+00 -0.45593999997E+02  0.45594000000E+02  0.51100000000E-03 0. -1.
    9900012    2    1    2    0    0 -0.37800129422E+02  0.69965645221E+01  0.20145017556E+02  0.47787269226E+02  0.19999991707E+02 0.  0.
         12    1    1    2    0    0  0.37800129422E+02 -0.69965645221E+01 -0.20145017556E+02  0.43400730774E+02  0.00000000000E+00 0. -1.
         11    1    3    3    0    0 -0.20169242243E+02  0.52495556869E+01  0.22039098951E+01  0.20957418415E+02  0.51100000000E-03 0. -1.
        -11    1    3    3    0    0 -0.74354773692E+01 -0.33898971332E+01  0.10043596592E+02  0.12948033019E+02  0.51100000000E-03 0.  1.
        -12    1    3    3    0    0 -0.10195409810E+02  0.51369059684E+01  0.78975110681E+01  0.13881817791E+02  0.00000000000E+00 0.  1.
</event>
<event>
 7    1  0.5426550E-010  0.4778730E+02  0.7816164E-02  0.1312668E+00
        -11   -1    0    0    0    0  0.00000000000E+00  0.00000000000E+00  0.45593999997E+02  0.45594000000E+02  0.51100000000E-03 0. -1.
         11   -1    0    0    0    0 -0.00000000000E+00 -0.00000000000E+00 -0.45593999997E+02  0.45594000000E+02  0.51100000000E-03 0.  1.
    9900012    2    1    2    0    0 -0.21040834878E+01 -0.21878840828E+02 -0.37423389264E+02  0.47787298309E+02  0.20000124308E+02 0.  0.
         12    1    1    2    0    0  0.21040834878E+01  0.21878840828E+02  0.37423389264E+02  0.43400701691E+02  0.00000000000E+00 0. -1.
         11    1    3    3    0    0  0.12227896433E+01 -0.11402277715E+02 -0.42313358873E+01  0.12223393770E+02  0.51100000000E-03 0. -1.
        -11    1    3    3    0    0 -0.34849973004E+01 -0.10758802817E+02 -0.25860423017E+02  0.28225139913E+02  0.51100000000E-03 0.  1.
         12    1    3    3    0    0  0.15812416932E+00  0.28223970398E+00 -0.73316303600E+01  0.73387646262E+01  0.00000000000E+00 0. -1.
</event>
<event>
 7    1  0.5426550E-010  0.4778727E+02  0.7816164E-02  0.1312668E+00
        -11   -1    0    0    0    0  0.00000000000E+00  0.00000000000E+00  0.45593999997E+02  0.45594000000E+02  0.51100000000E-03 0.  1.
         11   -1    0    0    0    0 -0.00000000000E+00 -0.00000000000E+00 -0.45593999997E+02  0.45594000000E+02  0.51100000000E-03 0. -1.
    9900012    2    1    2    0    0 -0.38392841977E+02  0.14132349443E+02  0.14487571370E+02  0.47787270282E+02  0.19999996523E+02 0.  0.
         12    1    1    2    0    0  0.38392841977E+02 -0.14132349443E+02 -0.14487571370E+02  0.43400729718E+02  0.00000000000E+00 0. -1.
         11    1    3    3    0    0 -0.42397136827E+01 -0.30330921168E+01 -0.10331923036E+01  0.53143491133E+01  0.51100000000E-03 0. -1.
        -11    1    3    3    0    0 -0.17173272343E+02  0.76922552530E+01  0.12989332224E+02  0.22865144340E+02  0.51100000000E-03 0.  1.
         12    1    3    3    0    0 -0.16979855952E+02  0.94731863064E+01  0.25314314498E+01  0.19607776828E+02  0.00000000000E+00 0. -1.
</event>
<event>
 7    1  0.5426550E-010  0.4778727E+02  0.7816164E-02  0.1312668E+00
        -11   -1    0    0    0    0  0.00000000000E+00  0.00000000000E+00  0.45593999997E+02  0.45594000000E+02  0.51100000000E-03 0.  1.
         11   -1    0    0    0    0 -0.00000000000E+00 -0.00000000000E+00 -0.45593999997E+02  0.45594000000E+02  0.51100000000E-03 0. -1.
    9900012    2    1    2    0    0 -0.26161143876E+02 -0.19554769373E+02  0.28580216259E+02  0.47787271716E+02  0.20000003063E+02 0.  0.
         12    1    1    2    0    0  0.26161143876E+02  0.19554769373E+02 -0.28580216259E+02  0.43400728284E+02  0.00000000000E+00 0. -1.
         11    1    3    3    0    0 -0.20006128770E+02 -0.17618195992E+02  0.23586589517E+02  0.35594567334E+02  0.51100000000E-03 0.  1.
        -11    1    3    3    0    0  0.23750906261E+01 -0.83154983652E+00  0.12901869056E+01  0.28279167466E+01  0.51100000000E-03 0. -1.
        -12    1    3    3    0    0 -0.85301057327E+01 -0.11050235447E+01  0.37034398366E+01  0.93647876360E+01  0.00000000000E+00 0.  1.
</event>
<event>
 7    1  0.5426550E-010  0.4778727E+02  0.7816164E-02  0.1312668E+00
        -11   -1    0    0    0    0  0.00000000000E+00  0.00000000000E+00  0.45593999997E+02  0.45594000000E+02  0.51100000000E-03 0. -1.
         11   -1    0    0    0    0 -0.00000000000E+00 -0.00000000000E+00 -0.45593999997E+02  0.45594000000E+02  0.51100000000E-03 0.  1.
    9900012    2    1    2    0    0 -0.25453502779E+02 -0.24833939090E+02 -0.24880066632E+02  0.47787273623E+02  0.20000011755E+02 0.  0.
         12    1    1    2    0    0  0.25453502779E+02  0.24833939090E+02  0.24880066632E+02  0.43400726377E+02  0.00000000000E+00 0. -1.
         11    1    3    3    0    0 -0.34418218491E+01 -0.10646953397E+02  0.60238917672E+00  0.11205651577E+02  0.51100000000E-03 0. -1.
        -11    1    3    3    0    0 -0.14664768014E+02 -0.99796209238E+01 -0.16273819396E+02  0.24072504080E+02  0.51100000000E-03 0.  1.
         12    1    3    3    0    0 -0.73469129158E+01 -0.42073647694E+01 -0.92086364130E+01  0.12509117966E+02  0.00000000000E+00 0. -1.
</event>
<event>
 7    1  0.5426550E-010  0.4778727E+02  0.7816164E-02  0.1312668E+00
        -11   -1    0    0    0    0  0.00000000000E+00  0.00000000000E+00  0.45593999997E+02  0.45594000000E+02  0.51100000000E-03 0.  1.
         11   -1    0    0    0    0 -0.00000000000E+00 -0.00000000000E+00 -0.45593999997E+02  0.45594000000E+02  0.51100000000E-03 0. -1.
    9900012    2    1    2    0    0 -0.28235968063E+02 -0.92842695900E+01  0.31625245241E+02  0.47787266241E+02  0.19999978098E+02 0.  0.
         12    1    1    2    0    0  0.28235968063E+02  0.92842695900E+01 -0.31625245241E+02  0.43400733759E+02  0.00000000000E+00 0. -1.
         11    1    3    3    0    0  0.16026025368E+01 -0.41016620947E+01  0.70316738346E+01  0.82967706975E+01  0.51100000000E-03 0. -1.
        -11    1    3    3    0    0 -0.26549503226E+02 -0.49271320424E+01  0.19073700685E+02  0.33059927553E+02  0.51100000000E-03 0.  1.
         12    1    3    3    0    0 -0.32890673735E+01 -0.25547545291E+00  0.55198707215E+01  0.64305679902E+01  0.00000000000E+00 0. -1.
</event>
<event>
 7    1  0.5426550E-010  0.4778728E+02  0.7816164E-02  0.1312668E+00
        -11   -1    0    0    0    0  0.00000000000E+00  0.00000000000E+00  0.45593999997E+02  0.45594000000E+02  0.51100000000E-03 0.  1.
         11   -1    0    0    0    0 -0.00000000000E+00 -0.00000000000E+00 -0.45593999997E+02  0.45594000000E+02  0.51100000000E-03 0. -1.
    9900012    2    1    2    0    0  0.35498766241E+02  0.16953879927E+02  0.18331022540E+02  0.47787276082E+02  0.20000022969E+02 0.  0.
         12    1    1    2    0    0 -0.35498766241E+02 -0.16953879927E+02 -0.18331022540E+02  0.43400723918E+02  0.00000000000E+00 0. -1.
         11    1    3    3    0    0  0.10877575976E+02  0.40493793810E+01  0.10449518192E+02  0.15617668302E+02  0.51100000000E-03 0. -1.
        -11    1    3    3    0    0  0.14109940146E+02  0.14357369209E+02  0.25398816622E+01  0.20289787103E+02  0.51100000000E-03 0.  1.
        -12    1    3    3    0    0  0.10511250119E+02 -0.14528686630E+01  0.53416226850E+01  0.11879820677E+02  0.00000000000E+00 0.  1.
</event>
<event>
 7    1  0.5426550E-010  0.4778727E+02  0.7816164E-02  0.1312668E+00
        -11   -1    0    0    0    0  0.00000000000E+00  0.00000000000E+00  0.45593999997E+02  0.45594000000E+02  0.51100000000E-03 0. -1.
         11   -1    0    0    0    0 -0.00000000000E+00 -0.00000000000E+00 -0.45593999997E+02  0.45594000000E+02  0.51100000000E-03 0.  1.
    9900012    2    1    2    0    0 -0.15600044606E+02 -0.14400434328E+02 -0.37853530251E+02  0.47787266677E+02  0.19999980087E+02 0.  0.
         12    1    1    2    0    0  0.15600044606E+02  0.14400434328E+02  0.37853530251E+02  0.43400733323E+02  0.00000000000E+00 0. -1.
         11    1    3    3    0    0 -0.15766006747E+01 -0.90207716034E+01 -0.18973586677E+02  0.21067913557E+02  0.51100000000E-03 0. -1.
        -11    1    3    3    0    0 -0.15645656614E+02 -0.34571784682E+01 -0.14216405069E+02  0.21420663556E+02  0.51100000000E-03 0.  1.
        -12    1    3    3    0    0  0.16222126830E+01 -0.19224842560E+01 -0.46635385050E+01  0.52986895635E+01  0.00000000000E+00 0.  1.
</event>
<event>
 7    1  0.5426550E-010  0.4778728E+02  0.7816164E-02  0.1312668E+00
        -11   -1    0    0    0    0  0.00000000000E+00  0.00000000000E+00  0.45593999997E+02  0.45594000000E+02  0.51100000000E-03 0.  1.
         11   -1    0    0    0    0 -0.00000000000E+00 -0.00000000000E+00 -0.45593999997E+02  0.45594000000E+02  0.51100000000E-03 0. -1.
    9900012    2    1    2    0    0 -0.10486011213E+02  0.32390877886E+02  0.26916478531E+02  0.47787283210E+02  0.20000055468E+02 0.  0.
         12    1    1    2    0    0  0.10486011213E+02 -0.32390877886E+02 -0.26916478531E+02  0.43400716790E+02  0.00000000000E+00 0. -1.
         11    1    3    3    0    0 -0.14062026867E+01  0.15775461932E+01 -0.18627557116E+01  0.28170759823E+01  0.51100000000E-03 0. -1.
        -11    1    3    3    0    0 -0.91620034128E+01  0.30880176419E+02  0.23947703183E+02  0.40137514749E+02  0.51100000000E-03 0.  1.
        -12    1    3    3    0    0  0.82194886849E-01 -0.66844726673E-01  0.48315310594E+01  0.48326924788E+01  0.00000000000E+00 0.  1.
</event>
<event>
 7    1  0.5426550E-010  0.4778726E+02  0.7816164E-02  0.1312668E+00
        -11   -1    0    0    0    0  0.00000000000E+00  0.00000000000E+00  0.45593999997E+02  0.45594000000E+02  0.51100000000E-03 0. -1.
         11   -1    0    0    0    0 -0.00000000000E+00 -0.00000000000E+00 -0.45593999997E+02  0.45594000000E+02  0.51100000000E-03 0.  1.
    9900012    2    1    2    0    0 -0.16800544791E+02  0.10152734698E+02 -0.38707718672E+02  0.47787264846E+02  0.19999971738E+02 0.  0.
         12    1    1    2    0    0  0.16800544791E+02 -0.10152734698E+02  0.38707718672E+02  0.43400735154E+02  0.00000000000E+00 0. -1.
         11    1    3    3    0    0 -0.70091368652E+00  0.27065755289E+01 -0.80420785472E+00  0.29092235432E+01  0.51100000000E-03 0. -1.
        -11    1    3    3    0    0 -0.15660440292E+02  0.74411457209E+01 -0.18081486915E+02  0.25051151852E+02  0.51100000000E-03 0.  1.
        -12    1    3    3    0    0 -0.43919081252E+00  0.50134483939E-02 -0.19822023902E+02  0.19826889451E+02  0.00000000000E+00 0.  1.
</event>
<event>
 7    1  0.5426550E-010  0.4778724E+02  0.7816164E-02  0.1312668E+00
        -11   -1    0    0    0    0  0.00000000000E+00  0.00000000000E+00  0.45593999997E+02  0.45594000000E+02  0.51100000000E-03 0.  1.
         11   -1    0    0    0    0 -0.00000000000E+00 -0.00000000000E+00 -0.45593999997E+02  0.45594000000E+02  0.51100000000E-03 0. -1.
    9900012    2    1    2    0    0  0.10283849868E+02 -0.14097338893E+02  0.39738316628E+02  0.47787235716E+02  0.19999838924E+02 0.  0.
         12    1    1    2    0    0 -0.10283849868E+02  0.14097338893E+02 -0.39738316628E+02  0.43400764284E+02  0.00000000000E+00 0. -1.
         11    1    3    3    0    0  0.28724701535E+01 -0.22138357547E+01  0.22570274269E+01  0.42715719118E+01  0.51100000000E-03 0. -1.
        -11    1    3    3    0    0  0.34159305083E+01 -0.47960884462E+01  0.34264562276E+02  0.34766812823E+02  0.51100000000E-03 0.  1.
        -12    1    3    3    0    0  0.39954492062E+01 -0.70874146924E+01  0.32167269249E+01  0.87488509812E+01  0.00000000000E+00 0.  1.
</event>
<event>
 7    1  0.5426550E-010  0.4778727E+02  0.7816164E-02  0.1312668E+00
        -11   -1    0    0    0    0  0.00000000000E+00  0.00000000000E+00  0.45593999997E+02  0.45594000000E+02  0.51100000000E-03 0.  1.
         11   -1    0    0    0    0 -0.00000000000E+00 -0.00000000000E+00 -0.45593999997E+02  0.45594000000E+02  0.51100000000E-03 0. -1.
    9900012    2    1    2    0    0 -0.41669985154E+02 -0.43157384608E+01  0.11340641326E+02  0.47787269512E+02  0.19999993015E+02 0.  0.
         12    1    1    2    0    0  0.41669985154E+02  0.43157384608E+01 -0.11340641326E+02  0.43400730488E+02  0.00000000000E+00 0. -1.
         11    1    3    3    0    0 -0.17212291365E+02 -0.68463238728E+01  0.37615304037E+01  0.18901963809E+02  0.51100000000E-03 0. -1.
        -11    1    3    3    0    0 -0.23239234874E+02  0.61605587135E+01  0.64096141205E+01  0.24881673469E+02  0.51100000000E-03 0.  1.
         12    1    3    3    0    0 -0.12184589146E+01 -0.36299733015E+01  0.11694968016E+01  0.40036322340E+01  0.00000000000E+00 0. -1.
</event>
<event>
 7    1  0.5426550E-010  0.4778727E+02  0.7816164E-02  0.1312668E+00
        -11   -1    0    0    0    0  0.00000000000E+00  0.00000000000E+00  0.45593999997E+02  0.45594000000E+02  0.51100000000E-03 0.  1.
         11   -1    0    0    0    0 -0.00000000000E+00 -0.00000000000E+00 -0.45593999997E+02  0.45594000000E+02  0.51100000000E-03 0. -1.
    9900012    2    1    2    0    0 -0.18681535744E+02  0.19823407059E+02  0.33788404719E+02  0.47787267994E+02  0.19999986093E+02 0.  0.
         12    1    1    2    0    0  0.18681535744E+02 -0.19823407059E+02 -0.33788404719E+02  0.43400732006E+02  0.00000000000E+00 0. -1.
         11    1    3    3    0    0 -0.91949856747E+01  0.14210029362E+02  0.30302592326E+02  0.34709073712E+02  0.51100000000E-03 0. -1.
        -11    1    3    3    0    0 -0.65429936060E+01  0.31081460293E+01 -0.82229387370E+00  0.72902335040E+01  0.51100000000E-03 0.  1.
         12    1    3    3    0    0 -0.29435564635E+01  0.25052316680E+01  0.43081062668E+01  0.57879607782E+01  0.00000000000E+00 0. -1.
</event>
<event>
 7    1  0.5426550E-010  0.4778727E+02  0.7816164E-02  0.1312668E+00
        -11   -1    0    0    0    0  0.00000000000E+00  0.00000000000E+00  0.45593999997E+02  0.45594000000E+02  0.51100000000E-03 0.  1.
         11   -1    0    0    0    0 -0.00000000000E+00 -0.00000000000E+00 -0.45593999997E+02  0.45594000000E+02  0.51100000000E-03 0. -1.
    9900012    2    1    2    0    0  0.33929554435E+02 -0.26981378086E+02 -0.21008950616E+01  0.47787272038E+02  0.20000004531E+02 0.  0.
         12    1    1    2    0    0 -0.33929554435E+02  0.26981378086E+02  0.21008950616E+01  0.43400727962E+02  0.00000000000E+00 0. -1.
         11    1    3    3    0    0  0.16664858440E+02 -0.52207705143E+01 -0.69123318902E+01  0.18781754018E+02  0.51100000000E-03 0. -1.
        -11    1    3    3    0    0  0.16311517433E+02 -0.21312263066E+02  0.31279750787E+01  0.27019666659E+02  0.51100000000E-03 0.  1.
         12    1    3    3    0    0  0.95317856177E+00 -0.44834450500E+00  0.16834617500E+01  0.19858513613E+01  0.00000000000E+00 0. -1.
</event>
<event>
 7    1  0.5426550E-010  0.4778728E+02  0.7816164E-02  0.1312668E+00
        -11   -1    0    0    0    0  0.00000000000E+00  0.00000000000E+00  0.45593999997E+02  0.45594000000E+02  0.51100000000E-03 0. -1.
         11   -1    0    0    0    0 -0.00000000000E+00 -0.00000000000E+00 -0.45593999997E+02  0.45594000000E+02  0.51100000000E-03 0.  1.
    9900012    2    1    2    0    0 -0.35961230567E+01 -0.43141266921E+02 -0.30857513600E+01  0.47787275651E+02  0.20000021004E+02 0.  0.
         12    1    1    2    0    0  0.35961230567E+01  0.43141266921E+02  0.30857513600E+01  0.43400724349E+02  0.00000000000E+00 0. -1.
         11    1    3    3    0    0 -0.82835582305E+00 -0.40622795165E+01  0.15292281291E+01  0.44189169681E+01  0.51100000000E-03 0. -1.
        -11    1    3    3    0    0  0.61231872802E+01 -0.57125619282E+01  0.81348543802E+00  0.84135928753E+01  0.51100000000E-03 0.  1.
        -12    1    3    3    0    0 -0.88909545139E+01 -0.33366425476E+02 -0.54284649270E+01  0.34954765808E+02  0.00000000000E+00 0.  1.
</event>
<event>
 7    1  0.5426550E-010  0.4778727E+02  0.7816164E-02  0.1312668E+00
        -11   -1    0    0    0    0  0.00000000000E+00  0.00000000000E+00  0.45593999997E+02  0.45594000000E+02  0.51100000000E-03 0.  1.
         11   -1    0    0    0    0 -0.00000000000E+00 -0.00000000000E+00 -0.45593999997E+02  0.45594000000E+02  0.51100000000E-03 0. -1.
    9900012    2    1    2    0    0 -0.52083888855E+00  0.41103154586E+02 -0.13924167342E+02  0.47787273897E+02  0.20000013006E+02 0.  0.
         12    1    1    2    0    0  0.52083888855E+00 -0.41103154586E+02  0.13924167342E+02  0.43400726103E+02  0.00000000000E+00 0. -1.
         11    1    3    3    0    0 -0.31959948292E+01  0.96358096137E+01 -0.91728956217E+01  0.13682296014E+02  0.51100000000E-03 0. -1.
        -11    1    3    3    0    0  0.12942630131E+01  0.18196967250E+02  0.32753113606E+01  0.18534627015E+02  0.51100000000E-03 0.  1.
        -12    1    3    3    0    0  0.13808929275E+01  0.13270377723E+02 -0.80265830813E+01  0.15570350868E+02  0.00000000000E+00 0.  1.
</event>
<event>
 7    1  0.5426550E-010  0.4778727E+02  0.7816164E-02  0.1312668E+00
        -11   -1    0    0    0    0  0.00000000000E+00  0.00000000000E+00  0.45593999997E+02  0.45594000000E+02  0.51100000000E-03 0. -1.
         11   -1    0    0    0    0 -0.00000000000E+00 -0.00000000000E+00 -0.45593999997E+02  0.45594000000E+02  0.51100000000E-03 0.  1.
    9900012    2    1    2    0    0 -0.22550953817E+02  0.31155045869E+02 -0.20110719950E+02  0.47787268923E+02  0.19999990327E+02 0.  0.
         12    1    1    2    0    0  0.22550953817E+02 -0.31155045869E+02  0.20110719950E+02  0.43400731077E+02  0.00000000000E+00 0. -1.
         11    1    3    3    0    0 -0.81356802399E+01  0.16362351534E+02 -0.83273534729E+01  0.20081350971E+02  0.51100000000E-03 0. -1.
        -11    1    3    3    0    0 -0.46873121271E+01  0.78400741115E+00 -0.93361595695E+01  0.10476136614E+02  0.51100000000E-03 0.  1.
        -12    1    3    3    0    0 -0.97279614501E+01  0.14008686923E+02 -0.24472069075E+01  0.17229781338E+02  0.00000000000E+00 0.  1.
</event>
<event>
 7    1  0.5426550E-010  0.4778727E+02  0.7816164E-02  0.1312668E+00
        -11   -1    0    0    0    0  0.00000000000E+00  0.00000000000E+00  0.45593999997E+02  0.45594000000E+02  0.51100000000E-03 0. -1.
         11   -1    0    0    0    0 -0.00000000000E+00 -0.00000000000E+00 -0.45593999997E+02  0.45594000000E+02  0.51100000000E-03 0.  1.
    9900012    2    1    2    0    0 -0.37902686950E+02  0.86121275131E+01 -0.19309088863E+02  0.47787270386E+02  0.19999996998E+02 0.  0.
         12    1    1    2    0    0  0.37902686950E+02 -0.86121275131E+01  0.19309088863E+02  0.43400729614E+02  0.00000000000E+00 0. -1.
         11    1    3    3    0    0 -0.12070960802E+02  0.61580290915E+01 -0.96589722523E+00  0.13585373557E+02  0.51100000000E-03 0. -1.
        -11    1    3    3    0    0 -0.25973272706E+02 -0.39793825204E+00 -0.16004447957E+02  0.30510844050E+02  0.51100000000E-03 0.  1.
        -12    1    3    3    0    0  0.14154655874E+00  0.28520366737E+01 -0.23387436801E+01  0.36910527790E+01  0.00000000000E+00 0.  1.
</event>
<event>
 7    1  0.5426550E-010  0.4778722E+02  0.7816164E-02  0.1312668E+00
        -11   -1    0    0    0    0  0.00000000000E+00  0.00000000000E+00  0.45593999997E+02  0.45594000000E+02  0.51100000000E-03 0. -1.
         11   -1    0    0    0    0 -0.00000000000E+00 -0.00000000000E+00 -0.45593999997E+02  0.45594000000E+02  0.51100000000E-03 0.  1.
    9900012    2    1    2    0    0  0.42669585173E+02 -0.66934946712E+01 -0.42581197115E+01  0.47787217136E+02  0.19999754210E+02 0.  0.
         12    1    1    2    0    0 -0.42669585173E+02  0.66934946712E+01  0.42581197115E+01  0.43400782864E+02  0.00000000000E+00 0. -1.
         11    1    3    3    0    0  0.75803479940E+01 -0.49305913594E+01 -0.68067572543E+00  0.90683916197E+01  0.51100000000E-03 0.  1.
        -11    1    3    3    0    0 -0.14048614650E+01 -0.60361083580E+00  0.11339097435E+01  0.19036106074E+01  0.51100000000E-03 0. -1.
        -12    1    3    3    0    0  0.36494098644E+02 -0.11592924760E+01 -0.47113537296E+01  0.36815214909E+02  0.00000000000E+00 0.  1.
</event>
<event>
 7    1  0.5426550E-010  0.4778727E+02  0.7816164E-02  0.1312668E+00
        -11   -1    0    0    0    0  0.00000000000E+00  0.00000000000E+00  0.45593999997E+02  0.45594000000E+02  0.51100000000E-03 0. -1.
         11   -1    0    0    0    0 -0.00000000000E+00 -0.00000000000E+00 -0.45593999997E+02  0.45594000000E+02  0.51100000000E-03 0.  1.
    9900012    2    1    2    0    0  0.24191104926E+02  0.35021139280E+02  0.84813714681E+01  0.47787269407E+02  0.19999992536E+02 0.  0.
         12    1    1    2    0    0 -0.24191104926E+02 -0.35021139280E+02 -0.84813714681E+01  0.43400730593E+02  0.00000000000E+00 0. -1.
         11    1    3    3    0    0  0.79819521287E+01  0.20480635085E+01  0.59892707942E+01  0.10187123678E+02  0.51100000000E-03 0. -1.
        -11    1    3    3    0    0  0.14419025970E+02  0.30459536422E+02  0.43786748083E+01  0.33983296814E+02  0.51100000000E-03 0.  1.
         12    1    3    3    0    0  0.17901268268E+01  0.25135393491E+01 -0.18865741345E+01  0.36168489159E+01  0.00000000000E+00 0. -1.
</event>
<event>
 7    1  0.5426550E-010  0.4778725E+02  0.7816164E-02  0.1312668E+00
        -11   -1    0    0    0    0  0.00000000000E+00  0.00000000000E+00  0.45593999997E+02  0.45594000000E+02  0.51100000000E-03 0.  1.
         11   -1    0    0    0    0 -0.00000000000E+00 -0.00000000000E+00 -0.45593999997E+02  0.45594000000E+02  0.51100000000E-03 0. -1.
    9900012    2    1    2    0    0 -0.39556156792E+02  0.67610167671E+01  0.16529493004E+02  0.47787250849E+02  0.19999907920E+02 0.  0.
         12    1    1    2    0    0  0.39556156792E+02 -0.67610167671E+01 -0.16529493004E+02  0.43400749151E+02  0.00000000000E+00 0. -1.
         11    1    3    3    0    0 -0.19422927720E+02  0.76390441032E+01  0.37728142682E+01  0.21209414037E+02  0.51100000000E-03 0. -1.
        -11    1    3    3    0    0 -0.17060961128E+02  0.40257859022E+01  0.96133563679E+01  0.19992497784E+02  0.51100000000E-03 0.  1.
         12    1    3    3    0    0 -0.30722679443E+01 -0.49038132383E+01  0.31433223684E+01  0.65853390276E+01  0.00000000000E+00 0. -1.
</event>
<event>
 7    1  0.5426550E-010  0.4778727E+02  0.7816164E-02  0.1312668E+00
        -11   -1    0    0    0    0  0.00000000000E+00  0.00000000000E+00  0.45593999997E+02  0.45594000000E+02  0.51100000000E-03 0. -1.
         11   -1    0    0    0    0 -0.00000000000E+00 -0.00000000000E+00 -0.45593999997E+02  0.45594000000E+02  0.51100000000E-03 0.  1.
    9900012    2    1    2    0    0 -0.42621591807E+02  0.71757181704E+01  0.39410892433E+01  0.47787271851E+02  0.20000003678E+02 0.  0.
         12    1    1    2    0    0  0.42621591807E+02 -0.71757181704E+01 -0.39410892433E+01  0.43400728149E+02  0.00000000000E+00 0. -1.
         11    1    3    3    0    0 -0.30607277595E+02 -0.69226416458E+00  0.42024161425E+01  0.30902183955E+02  0.51100000000E-03 0. -1.
        -11    1    3    3    0    0 -0.14650127860E+01  0.42526178638E+01 -0.29943623472E+01  0.54034458715E+01  0.51100000000E-03 0.  1.
        -12    1    3    3    0    0 -0.10549301426E+02  0.36153644712E+01  0.27330354481E+01  0.11481642025E+02  0.00000000000E+00 0.  1.
</event>
<event>
 7    1  0.5426550E-010  0.4778727E+02  0.7816164E-02  0.1312668E+00
        -11   -1    0    0    0    0  0.00000000000E+00  0.00000000000E+00  0.45593999997E+02  0.45594000000E+02  0.51100000000E-03 0. -1.
         11   -1    0    0    0    0 -0.00000000000E+00 -0.00000000000E+00 -0.45593999997E+02  0.45594000000E+02  0.51100000000E-03 0.  1.
    9900012    2    1    2    0    0  0.31758107579E+02  0.61997385392E-01 -0.29581107401E+02  0.47787272406E+02  0.20000006207E+02 0.  0.
         12    1    1    2    0    0 -0.31758107579E+02 -0.61997385392E-01  0.29581107401E+02  0.43400727594E+02  0.00000000000E+00 0. -1.
         11    1    3    3    0    0 -0.10247554627E+00  0.36265906695E+01 -0.29231790841E+01  0.46591455591E+01  0.51100000000E-03 0. -1.
        -11    1    3    3    0    0  0.17046452039E+02 -0.51638931833E+01 -0.20077891232E+02  0.26839691439E+02  0.51100000000E-03 0.  1.
        -12    1    3    3    0    0  0.14814131087E+02  0.15992998992E+01 -0.65800370839E+01  0.16288435408E+02  0.00000000000E+00 0.  1.
</event>
<event>
 7    1  0.5426550E-010  0.4778727E+02  0.7816164E-02  0.1312668E+00
        -11   -1    0    0    0    0  0.00000000000E+00  0.00000000000E+00  0.45593999997E+02  0.45594000000E+02  0.51100000000E-03 0.  1.
         11   -1    0    0    0    0 -0.00000000000E+00 -0.00000000000E+00 -0.45593999997E+02  0.45594000000E+02  0.51100000000E-03 0. -1.
    9900012    2    1    2    0    0 -0.72699424912E+01  0.25002218573E+02  0.34722614792E+02  0.47787274483E+02  0.20000015677E+02 0.  0.
         12    1    1    2    0    0  0.72699424912E+01 -0.25002218573E+02 -0.34722614792E+02  0.43400725517E+02  0.00000000000E+00 0. -1.
         11    1    3    3    0    0  0.25606373612E+01 -0.18123475111E-01 -0.29515641390E+00  0.25776558586E+01  0.51100000000E-03 0. -1.
        -11    1    3    3    0    0 -0.20690586471E+01  0.12398591145E+02  0.22670687920E+02  0.25922310026E+02  0.51100000000E-03 0.  1.
         12    1    3    3    0    0 -0.77615212053E+01  0.12621750903E+02  0.12347083286E+02  0.19287308598E+02  0.00000000000E+00 0. -1.
</event>
<event>
 7    1  0.5426550E-010  0.4778728E+02  0.7816164E-02  0.1312668E+00
        -11   -1    0    0    0    0  0.00000000000E+00  0.00000000000E+00  0.45593999997E+02  0.45594000000E+02  0.51100000000E-03 0. -1.
         11   -1    0    0    0    0 -0.00000000000E+00 -0.00000000000E+00 -0.45593999997E+02  0.45594000000E+02  0.51100000000E-03 0.  1.
    9900012    2    1    2    0    0  0.17304493972E+02  0.19005364707E+02 -0.34971029535E+02  0.47787282194E+02  0.20000050837E+02 0.  0.
         12    1    1    2    0    0 -0.17304493972E+02 -0.19005364707E+02  0.34971029535E+02  0.43400717806E+02  0.00000000000E+00 0. -1.
         11    1    3    3    0    0  0.14597802028E+02  0.35958910977E+01 -0.18058098635E+02  0.23497259062E+02  0.51100000000E-03 0. -1.
        -11    1    3    3    0    0  0.51838861658E+01  0.11907935410E+02 -0.14050326246E+02  0.19133302626E+02  0.51100000000E-03 0.  1.
         12    1    3    3    0    0 -0.24771942214E+01  0.35015382001E+01 -0.28626046537E+01  0.51567205063E+01  0.00000000000E+00 0. -1.
</event>
<event>
 7    1  0.5426550E-010  0.4778727E+02  0.7816164E-02  0.1312668E+00
        -11   -1    0    0    0    0  0.00000000000E+00  0.00000000000E+00  0.45593999997E+02  0.45594000000E+02  0.51100000000E-03 0.  1.
         11   -1    0    0    0    0 -0.00000000000E+00 -0.00000000000E+00 -0.45593999997E+02  0.45594000000E+02  0.51100000000E-03 0. -1.
    9900012    2    1    2    0    0  0.15984790375E+02  0.29086946387E+02  0.27965318638E+02  0.47787273969E+02  0.20000013334E+02 0.  0.
         12    1    1    2    0    0 -0.15984790375E+02 -0.29086946387E+02 -0.27965318638E+02  0.43400726031E+02  0.00000000000E+00 0. -1.
         11    1    3    3    0    0 -0.39148845371E+01  0.90742007791E+01  0.62356725333E+01  0.11685506105E+02  0.51100000000E-03 0. -1.
        -11    1    3    3    0    0  0.12177504654E+02  0.14042423770E+02  0.17263769912E+02  0.25367677008E+02  0.51100000000E-03 0.  1.
         12    1    3    3    0    0  0.77221702576E+01  0.59703218381E+01  0.44658761933E+01  0.10734090856E+02  0.00000000000E+00 0. -1.
</event>
<event>
 7    1  0.5426550E-010  0.4778727E+02  0.7816164E-02  0.1312668E+00
        -11   -1    0    0    0    0  0.00000000000E+00  0.00000000000E+00  0.45593999997E+02  0.45594000000E+02  0.51100000000E-03 0.  1.
         11   -1    0    0    0    0 -0.00000000000E+00 -0.00000000000E+00 -0.45593999997E+02  0.45594000000E+02  0.51100000000E-03 0. -1.
    9900012    2    1    2    0    0 -0.36473719930E+02 -0.13593810220E+02  0.19196337692E+02  0.47787270713E+02  0.19999998489E+02 0.  0.
         12    1    1    2    0    0  0.36473719930E+02  0.13593810220E+02 -0.19196337692E+02  0.43400729287E+02  0.00000000000E+00 0. -1.
         11    1    3    3    0    0 -0.92503530346E+01 -0.45901488999E+00  0.26197803379E+01  0.96251220883E+01  0.51100000000E-03 0. -1.
        -11    1    3    3    0    0 -0.15393836274E+02 -0.10912678489E+02  0.15840446003E+01  0.18935837573E+02  0.51100000000E-03 0.  1.
        -12    1    3    3    0    0 -0.11829530621E+02 -0.22221168414E+01  0.14992512754E+02  0.19226311052E+02  0.00000000000E+00 0.  1.
</event>
<event>
 7    1  0.5426550E-010  0.4778727E+02  0.7816164E-02  0.1312668E+00
        -11   -1    0    0    0    0  0.00000000000E+00  0.00000000000E+00  0.45593999997E+02  0.45594000000E+02  0.51100000000E-03 0.  1.
         11   -1    0    0    0    0 -0.00000000000E+00 -0.00000000000E+00 -0.45593999997E+02  0.45594000000E+02  0.51100000000E-03 0. -1.
    9900012    2    1    2    0    0  0.13424381548E+02  0.15731695592E+01  0.41242384789E+02  0.47787272063E+02  0.20000004644E+02 0.  0.
         12    1    1    2    0    0 -0.13424381548E+02 -0.15731695592E+01 -0.41242384789E+02  0.43400727937E+02  0.00000000000E+00 0. -1.
         11    1    3    3    0    0  0.12678691501E+02  0.53141305503E+01  0.40664581721E+02  0.42925486701E+02  0.51100000000E-03 0.  1.
        -11    1    3    3    0    0 -0.79183110296E+00 -0.29826788807E+01  0.12440520392E+00  0.30885023421E+01  0.51100000000E-03 0. -1.
        -12    1    3    3    0    0  0.15375211503E+01 -0.75828211040E+00  0.45339786329E+00  0.17732830200E+01  0.00000000000E+00 0.  1.
</event>
<event>
 7    1  0.5426550E-010  0.4778723E+02  0.7816164E-02  0.1312668E+00
        -11   -1    0    0    0    0  0.00000000000E+00  0.00000000000E+00  0.45593999997E+02  0.45594000000E+02  0.51100000000E-03 0.  1.
         11   -1    0    0    0    0 -0.00000000000E+00 -0.00000000000E+00 -0.45593999997E+02  0.45594000000E+02  0.51100000000E-03 0. -1.
    9900012    2    1    2    0    0 -0.71088042831E-01 -0.41178467534E+02 -0.13709687627E+02  0.47787230689E+02  0.19999816003E+02 0.  0.
         12    1    1    2    0    0  0.71088042831E-01  0.41178467534E+02  0.13709687627E+02  0.43400769311E+02  0.00000000000E+00 0. -1.
         11    1    3    3    0    0  0.50147935723E+00 -0.41104506590E+00 -0.20439590058E+01  0.21443433192E+01  0.51100000000E-03 0. -1.
        -11    1    3    3    0    0 -0.19855183423E+01 -0.15185873865E+02 -0.12854505261E+02  0.19994783167E+02  0.51100000000E-03 0.  1.
        -12    1    3    3    0    0  0.14129509422E+01 -0.25581548603E+02  0.11887766399E+01  0.25648104203E+02  0.00000000000E+00 0.  1.
</event>
<event>
 7    1  0.5426550E-010  0.4778727E+02  0.7816164E-02  0.1312668E+00
        -11   -1    0    0    0    0  0.00000000000E+00  0.00000000000E+00  0.45593999997E+02  0.45594000000E+02  0.51100000000E-03 0.  1.
         11   -1    0    0    0    0 -0.00000000000E+00 -0.00000000000E+00 -0.45593999997E+02  0.45594000000E+02  0.51100000000E-03 0. -1.
    9900012    2    1    2    0    0  0.14290429883E+02  0.30320548091E+02  0.27569388684E+02  0.47787271721E+02  0.20000003083E+02 0.  0.
         12    1    1    2    0    0 -0.14290429883E+02 -0.30320548091E+02 -0.27569388684E+02  0.43400728279E+02  0.00000000000E+00 0. -1.
         11    1    3    3    0    0  0.36434173460E+01  0.18316644638E+02  0.14323135954E+02  0.23535636481E+02  0.51100000000E-03 0. -1.
        -11    1    3    3    0    0  0.11764649289E+02  0.45311869629E+01  0.68256269706E+01  0.14336241209E+02  0.51100000000E-03 0.  1.
        -12    1    3    3    0    0 -0.11176367517E+01  0.74727164902E+01  0.64206257591E+01  0.99153940310E+01  0.00000000000E+00 0.  1.
</event>
<event>
 7    1  0.5426550E-010  0.4778729E+02  0.7816164E-02  0.1312668E+00
        -11   -1    0    0    0    0  0.00000000000E+00  0.00000000000E+00  0.45593999997E+02  0.45594000000E+02  0.51100000000E-03 0.  1.
         11   -1    0    0    0    0 -0.00000000000E+00 -0.00000000000E+00 -0.45593999997E+02  0.45594000000E+02  0.51100000000E-03 0. -1.
    9900012    2    1    2    0    0 -0.40780777683E+01 -0.42138545674E+02 -0.95568770768E+01  0.47787289761E+02  0.20000085335E+02 0.  0.
         12    1    1    2    0    0  0.40780777683E+01  0.42138545674E+02  0.95568770768E+01  0.43400710239E+02  0.00000000000E+00 0. -1.
         11    1    3    3    0    0 -0.34226897820E+01 -0.10357656041E+02 -0.10258010522E+02  0.14974065050E+02  0.51100000000E-03 0. -1.
        -11    1    3    3    0    0  0.32590339842E+01 -0.21962351342E+02 -0.21128249847E+00  0.22203846953E+02  0.51100000000E-03 0.  1.
         12    1    3    3    0    0 -0.39144219705E+01 -0.98185382917E+01  0.91241594320E+00  0.10609377758E+02  0.00000000000E+00 0. -1.
</event>
<event>
 7    1  0.5426550E-010  0.4778729E+02  0.7816164E-02  0.1312668E+00
        -11   -1    0    0    0    0  0.00000000000E+00  0.00000000000E+00  0.45593999997E+02  0.45594000000E+02  0.51100000000E-03 0. -1.
         11   -1    0    0    0    0 -0.00000000000E+00 -0.00000000000E+00 -0.45593999997E+02  0.45594000000E+02  0.51100000000E-03 0.  1.
    9900012    2    1    2    0    0  0.13350391305E+02 -0.34189945590E+02 -0.23161100649E+02  0.47787286749E+02  0.20000071602E+02 0.  0.
         12    1    1    2    0    0 -0.13350391305E+02  0.34189945590E+02  0.23161100649E+02  0.43400713251E+02  0.00000000000E+00 0. -1.
         11    1    3    3    0    0  0.58024758321E+01 -0.15455064547E+02 -0.93227375788E+00  0.16534717432E+02  0.51100000000E-03 0.  1.
        -11    1    3    3    0    0  0.35428204010E+01 -0.12432105029E+02 -0.19303958188E+02  0.23232555043E+02  0.51100000000E-03 0. -1.
         12    1    3    3    0    0  0.40050950719E+01 -0.63027760141E+01 -0.29248687034E+01  0.80200142737E+01  0.00000000000E+00 0. -1.
</event>
<event>
 7    1  0.5426550E-010  0.4778726E+02  0.7816164E-02  0.1312668E+00
        -11   -1    0    0    0    0  0.00000000000E+00  0.00000000000E+00  0.45593999997E+02  0.45594000000E+02  0.51100000000E-03 0.  1.
         11   -1    0    0    0    0 -0.00000000000E+00 -0.00000000000E+00 -0.45593999997E+02  0.45594000000E+02  0.51100000000E-03 0. -1.
    9900012    2    1    2    0    0  0.27509868359E+01 -0.19032929871E+02  0.38907633678E+02  0.47787259149E+02  0.19999945762E+02 0.  0.
         12    1    1    2    0    0 -0.27509868359E+01  0.19032929871E+02 -0.38907633678E+02  0.43400740851E+02  0.00000000000E+00 0. -1.
         11    1    3    3    0    0  0.40457255196E+01  0.72267682417E+00  0.68031458456E+01  0.79481413192E+01  0.51100000000E-03 0. -1.
        -11    1    3    3    0    0  0.31053659863E+01 -0.17924854402E+02  0.28708831720E+02  0.33987361213E+02  0.51100000000E-03 0.  1.
        -12    1    3    3    0    0 -0.44001046700E+01 -0.18307522939E+01  0.33956561122E+01  0.58517566167E+01  0.00000000000E+00 0.  1.
</event>
<event>
 7    1  0.5426550E-010  0.4778728E+02  0.7816164E-02  0.1312668E+00
        -11   -1    0    0    0    0  0.00000000000E+00  0.00000000000E+00  0.45593999997E+02  0.45594000000E+02  0.51100000000E-03 0.  1.
         11   -1    0    0    0    0 -0.00000000000E+00 -0.00000000000E+00 -0.45593999997E+02  0.45594000000E+02  0.51100000000E-03 0. -1.
    9900012    2    1    2    0    0  0.76127434528E+01  0.48134272949E+01  0.42455858791E+02  0.47787275456E+02  0.20000020115E+02 0.  0.
         12    1    1    2    0    0 -0.76127434528E+01 -0.48134272949E+01 -0.42455858791E+02  0.43400724544E+02  0.00000000000E+00 0. -1.
         11    1    3    3    0    0  0.67624095022E+01 -0.36614369950E+01  0.17667854176E+02  0.19268870610E+02  0.51100000000E-03 0. -1.
        -11    1    3    3    0    0  0.16966010570E+01  0.10380448751E+02  0.24144878775E+02  0.26336426157E+02  0.51100000000E-03 0.  1.
         12    1    3    3    0    0 -0.84626710644E+00 -0.19055844606E+01  0.64312584022E+00  0.21819786888E+01  0.00000000000E+00 0. -1.
</event>
<event>
 7    1  0.7244173E-010  0.4778727E+02  0.7816164E-02  0.1312668E+00
        -11   -1    0    0    0    0  0.00000000000E+00  0.00000000000E+00  0.45593999997E+02  0.45594000000E+02  0.51100000000E-03 0.  1.
         11   -1    0    0    0    0 -0.00000000000E+00 -0.00000000000E+00 -0.45593999997E+02  0.45594000000E+02  0.51100000000E-03 0. -1.
    9900012    2    1    2    0    0  0.52374547780E+01  0.42974624088E+02  0.30617125960E+01  0.47787270374E+02  0.19999996941E+02 0.  0.
         12    1    1    2    0    0 -0.52374547780E+01 -0.42974624088E+02 -0.30617125960E+01  0.43400729626E+02  0.00000000000E+00 0. -1.
         11    1    3    3    0    0 -0.41713018708E+00  0.15774877313E+01  0.26140096004E+01  0.30814787988E+01  0.51100000000E-03 0. -1.
        -11    1    3    3    0    0 -0.49495107939E+01  0.19378993377E+02  0.26148809839E+01  0.20171282662E+02  0.51100000000E-03 0.  1.
        -12    1    3    3    0    0  0.10604095759E+02  0.22018142980E+02 -0.21671779882E+01  0.24534508913E+02  0.00000000000E+00 0.  1.
</event>
<event>
 7    1  0.5426550E-010  0.4778727E+02  0.7816164E-02  0.1312668E+00
        -11   -1    0    0    0    0  0.00000000000E+00  0.00000000000E+00  0.45593999997E+02  0.45594000000E+02  0.51100000000E-03 0.  1.
         11   -1    0    0    0    0 -0.00000000000E+00 -0.00000000000E+00 -0.45593999997E+02  0.45594000000E+02  0.51100000000E-03 0. -1.
    9900012    2    1    2    0    0  0.21805032200E+02 -0.29498774693E+02  0.23194525125E+02  0.47787272663E+02  0.20000007378E+02 0.  0.
         12    1    1    2    0    0 -0.21805032200E+02  0.29498774693E+02 -0.23194525125E+02  0.43400727337E+02  0.00000000000E+00 0. -1.
         11    1    3    3    0    0  0.12356075371E+02 -0.53340406452E+01  0.11184794752E+02  0.17499263473E+02  0.51100000000E-03 0. -1.
        -11    1    3    3    0    0  0.10655830312E+02 -0.19185553370E+02  0.67863820246E+01  0.22971442249E+02  0.51100000000E-03 0.  1.
         12    1    3    3    0    0 -0.12068734833E+01 -0.49791806776E+01  0.52233483485E+01  0.73165669405E+01  0.00000000000E+00 0. -1.
</event>
<event>
 7    1  0.5426550E-010  0.4778726E+02  0.7816164E-02  0.1312668E+00
        -11   -1    0    0    0    0  0.00000000000E+00  0.00000000000E+00  0.45593999997E+02  0.45594000000E+02  0.51100000000E-03 0.  1.
         11   -1    0    0    0    0 -0.00000000000E+00 -0.00000000000E+00 -0.45593999997E+02  0.45594000000E+02  0.51100000000E-03 0. -1.
    9900012    2    1    2    0    0 -0.25182678437E+02 -0.35277786959E+01  0.35171174318E+02  0.47787262464E+02  0.19999960876E+02 0.  0.
         12    1    1    2    0    0  0.25182678437E+02  0.35277786959E+01 -0.35171174318E+02  0.43400737536E+02  0.00000000000E+00 0. -1.
         11    1    3    3    0    0 -0.21155841506E+02 -0.20795811177E+01  0.28695387374E+02  0.35711616377E+02  0.51100000000E-03 0. -1.
        -11    1    3    3    0    0 -0.61183357529E+01  0.11978024615E+01  0.60300428460E+01  0.86735333116E+01  0.51100000000E-03 0.  1.
         12    1    3    3    0    0  0.20914988216E+01 -0.26460000397E+01  0.44574409772E+00  0.34021127747E+01  0.00000000000E+00 0. -1.
</event>
<event>
 7    1  0.5426550E-010  0.4778727E+02  0.7816164E-02  0.1312668E+00
        -11   -1    0    0    0    0  0.00000000000E+00  0.00000000000E+00  0.45593999997E+02  0.45594000000E+02  0.51100000000E-03 0.  1.
         11   -1    0    0    0    0 -0.00000000000E+00 -0.00000000000E+00 -0.45593999997E+02  0.45594000000E+02  0.51100000000E-03 0. -1.
    9900012    2    1    2    0    0 -0.36502821070E+02  0.10689307030E+02  0.20902298845E+02  0.47787270422E+02  0.19999997162E+02 0.  0.
         12    1    1    2    0    0  0.36502821070E+02 -0.10689307030E+02 -0.20902298845E+02  0.43400729578E+02  0.00000000000E+00 0. -1.
         11    1    3    3    0    0 -0.42773148045E+01  0.78114017774E+00  0.60629465104E+01  0.74608928798E+01  0.51100000000E-03 0. -1.
        -11    1    3    3    0    0 -0.93248401118E+00 -0.79710590393E+00 -0.26450481105E+01  0.29156789983E+01  0.51100000000E-03 0.  1.
        -12    1    3    3    0    0 -0.31293022255E+02  0.10705272756E+02  0.17484400446E+02  0.37410698544E+02  0.00000000000E+00 0.  1.
</event>
<event>
 7    1  0.5426550E-010  0.4778727E+02  0.7816164E-02  0.1312668E+00
        -11   -1    0    0    0    0  0.00000000000E+00  0.00000000000E+00  0.45593999997E+02  0.45594000000E+02  0.51100000000E-03 0.  1.
         11   -1    0    0    0    0 -0.00000000000E+00 -0.00000000000E+00 -0.45593999997E+02  0.45594000000E+02  0.51100000000E-03 0. -1.
    9900012    2    1    2    0    0 -0.28759218349E+02  0.26017864411E+02  0.19483358079E+02  0.47787272465E+02  0.20000006475E+02 0.  0.
         12    1    1    2    0    0  0.28759218349E+02 -0.26017864411E+02 -0.19483358079E+02  0.43400727535E+02  0.00000000000E+00 0. -1.
         11    1    3    3    0    0 -0.12481133610E+02  0.14857195714E+02  0.85490395606E+01  0.21203797734E+02  0.51100000000E-03 0. -1.
        -11    1    3    3    0    0 -0.18012332063E+02  0.98821200979E+01  0.12381904789E+02  0.23987746256E+02  0.51100000000E-03 0.  1.
        -12    1    3    3    0    0  0.17342473246E+01  0.12785485997E+01 -0.14475862701E+01  0.25957284746E+01  0.00000000000E+00 0.  1.
</event>
<event>
 7    1  0.5426550E-010  0.4778728E+02  0.7816164E-02  0.1312668E+00
        -11   -1    0    0    0    0  0.00000000000E+00  0.00000000000E+00  0.45593999997E+02  0.45594000000E+02  0.51100000000E-03 0. -1.
         11   -1    0    0    0    0 -0.00000000000E+00 -0.00000000000E+00 -0.45593999997E+02  0.45594000000E+02  0.51100000000E-03 0.  1.
    9900012    2    1    2    0    0  0.58958553841E+01  0.34916037140E+02  0.25094461337E+02  0.47787277079E+02  0.20000027514E+02 0.  0.
         12    1    1    2    0    0 -0.58958553841E+01 -0.34916037140E+02 -0.25094461337E+02  0.43400722921E+02  0.00000000000E+00 0. -1.
         11    1    3    3    0    0  0.75919278996E+01  0.17756395239E+02  0.13501292712E+02  0.23562933736E+02  0.51100000000E-03 0. -1.
        -11    1    3    3    0    0 -0.48092326048E+01  0.16049904074E+02  0.12373267402E+02  0.20828487355E+02  0.51100000000E-03 0.  1.
        -12    1    3    3    0    0  0.31131600893E+01  0.11097378278E+01 -0.78009877746E+00  0.33958559879E+01  0.00000000000E+00 0.  1.
</event>
<event>
 7    1  0.5426550E-010  0.4778727E+02  0.7816164E-02  0.1312668E+00
        -11   -1    0    0    0    0  0.00000000000E+00  0.00000000000E+00  0.45593999997E+02  0.45594000000E+02  0.51100000000E-03 0.  1.
         11   -1    0    0    0    0 -0.00000000000E+00 -0.00000000000E+00 -0.45593999997E+02  0.45594000000E+02  0.51100000000E-03 0. -1.
    9900012    2    1    2    0    0  0.15708924842E+02 -0.34926220911E+01  0.40307008618E+02  0.47787266453E+02  0.19999979064E+02 0.  0.
         12    1    1    2    0    0 -0.15708924842E+02  0.34926220911E+01 -0.40307008618E+02  0.43400733547E+02  0.00000000000E+00 0. -1.
         11    1    3    3    0    0  0.75012102059E+01 -0.32978977485E+01  0.31424996845E+02  0.32475755743E+02  0.51100000000E-03 0. -1.
        -11    1    3    3    0    0  0.69209496625E+01  0.11916868440E+01  0.10627109430E+02  0.12737940056E+02  0.51100000000E-03 0.  1.
         12    1    3    3    0    0  0.12867649732E+01 -0.13864111867E+01 -0.17450976576E+01  0.25735706537E+01  0.00000000000E+00 0. -1.
</event>
<event>
 7    1  0.5426550E-010  0.4778727E+02  0.7816164E-02  0.1312668E+00
        -11   -1    0    0    0    0  0.00000000000E+00  0.00000000000E+00  0.45593999997E+02  0.45594000000E+02  0.51100000000E-03 0.  1.
         11   -1    0    0    0    0 -0.00000000000E+00 -0.00000000000E+00 -0.45593999997E+02  0.45594000000E+02  0.51100000000E-03 0. -1.
    9900012    2    1    2    0    0  0.39620889775E+02  0.12002897132E+02  0.13028403581E+02  0.47787265606E+02  0.19999975202E+02 0.  0.
         12    1    1    2    0    0 -0.39620889775E+02 -0.12002897132E+02 -0.13028403581E+02  0.43400734394E+02  0.00000000000E+00 0. -1.
         11    1    3    3    0    0  0.10425182048E+01 -0.14661142214E+01  0.24249758700E+01  0.30194110931E+01  0.51100000000E-03 0. -1.
        -11    1    3    3    0    0  0.39170897836E+02  0.12280652291E+02  0.79683149301E+01  0.41817074276E+02  0.51100000000E-03 0.  1.
        -12    1    3    3    0    0 -0.59252626533E+00  0.11883590621E+01  0.26351127807E+01  0.29507802362E+01  0.00000000000E+00 0.  1.
</event>
<event>
 7    1  0.5426550E-010  0.4778727E+02  0.7816164E-02  0.1312668E+00
        -11   -1    0    0    0    0  0.00000000000E+00  0.00000000000E+00  0.45593999997E+02  0.45594000000E+02  0.51100000000E-03 0. -1.
         11   -1    0    0    0    0 -0.00000000000E+00 -0.00000000000E+00 -0.45593999997E+02  0.45594000000E+02  0.51100000000E-03 0.  1.
    9900012    2    1    2    0    0 -0.16397138420E+02  0.32717777198E+02 -0.23330324956E+02  0.47787272406E+02  0.20000006207E+02 0.  0.
         12    1    1    2    0    0  0.16397138420E+02 -0.32717777198E+02  0.23330324956E+02  0.43400727594E+02  0.00000000000E+00 0. -1.
         11    1    3    3    0    0 -0.12938003598E+01  0.11634486304E+02 -0.14670079264E+02  0.18768228920E+02  0.51100000000E-03 0. -1.
        -11    1    3    3    0    0 -0.16435873498E+02  0.20363833581E+02 -0.79789883986E+01  0.27358507121E+02  0.51100000000E-03 0.  1.
        -12    1    3    3    0    0  0.13325354377E+01  0.71945731305E+00 -0.68125729333E+00  0.16605363645E+01  0.00000000000E+00 0.  1.
</event>
<event>
 7    1  0.5426550E-010  0.4778727E+02  0.7816164E-02  0.1312668E+00
        -11   -1    0    0    0    0  0.00000000000E+00  0.00000000000E+00  0.45593999997E+02  0.45594000000E+02  0.51100000000E-03 0. -1.
         11   -1    0    0    0    0 -0.00000000000E+00 -0.00000000000E+00 -0.45593999997E+02  0.45594000000E+02  0.51100000000E-03 0.  1.
    9900012    2    1    2    0    0 -0.27126782412E+02 -0.26342399775E+02 -0.21303492269E+02  0.47787272670E+02  0.20000007411E+02 0.  0.
         12    1    1    2    0    0  0.27126782412E+02  0.26342399775E+02  0.21303492269E+02  0.43400727330E+02  0.00000000000E+00 0. -1.
         11    1    3    3    0    0 -0.23877113116E+01  0.29248563696E+00 -0.15871556642E+01  0.28819744133E+01  0.51100000000E-03 0. -1.
        -11    1    3    3    0    0 -0.17516795822E+02 -0.11176638666E+02 -0.18464294793E+02  0.27797222347E+02  0.51100000000E-03 0.  1.
        -12    1    3    3    0    0 -0.72222752783E+01 -0.15458246745E+02 -0.12520418123E+01  0.17108075910E+02  0.00000000000E+00 0.  1.
</event>
<event>
 7    1  0.5426550E-010  0.4778727E+02  0.7816164E-02  0.1312668E+00
        -11   -1    0    0    0    0  0.00000000000E+00  0.00000000000E+00  0.45593999997E+02  0.45594000000E+02  0.51100000000E-03 0.  1.
         11   -1    0    0    0    0 -0.00000000000E+00 -0.00000000000E+00 -0.45593999997E+02  0.45594000000E+02  0.51100000000E-03 0. -1.
    9900012    2    1    2    0    0  0.10503760720E+02  0.66858746712E+01  0.41576354306E+02  0.47787272508E+02  0.20000006675E+02 0.  0.
         12    1    1    2    0    0 -0.10503760720E+02 -0.66858746712E+01 -0.41576354306E+02  0.43400727492E+02  0.00000000000E+00 0. -1.
         11    1    3    3    0    0  0.34160720567E+01  0.28233127364E+01  0.30254745926E+02  0.30577610999E+02  0.51100000000E-03 0. -1.
        -11    1    3    3    0    0  0.73093553344E+01 -0.11799133726E+01  0.42995642942E+01  0.85618411777E+01  0.51100000000E-03 0.  1.
        -12    1    3    3    0    0 -0.22166667120E+00  0.50424753074E+01  0.70220440867E+01  0.86478203320E+01  0.00000000000E+00 0.  1.
</event>
<event>
 7    1  0.5426550E-010  0.4778729E+02  0.7816164E-02  0.1312668E+00
        -11   -1    0    0    0    0  0.00000000000E+00  0.00000000000E+00  0.45593999997E+02  0.45594000000E+02  0.51100000000E-03 0.  1.
         11   -1    0    0    0    0 -0.00000000000E+00 -0.00000000000E+00 -0.45593999997E+02  0.45594000000E+02  0.51100000000E-03 0. -1.
    9900012    2    1    2    0    0 -0.81924060674E+01 -0.42468217401E+02 -0.35995817921E+01  0.47787285773E+02  0.20000067152E+02 0.  0.
         12    1    1    2    0    0  0.81924060674E+01  0.42468217401E+02  0.35995817921E+01  0.43400714227E+02  0.00000000000E+00 0. -1.
         11    1    3    3    0    0  0.27445290727E+01 -0.11850973903E+02 -0.41086573986E+01  0.12839746422E+02  0.51100000000E-03 0. -1.
        -11    1    3    3    0    0 -0.11780414742E+02 -0.24589474043E+02  0.45485767420E+01  0.27642538882E+02  0.51100000000E-03 0.  1.
        -12    1    3    3    0    0  0.84347960166E+00 -0.60277694543E+01 -0.40395011356E+01  0.73050004693E+01  0.00000000000E+00 0.  1.
</event>
<event>
 7    1  0.5426550E-010  0.4778729E+02  0.7816164E-02  0.1312668E+00
        -11   -1    0    0    0    0  0.00000000000E+00  0.00000000000E+00  0.45593999997E+02  0.45594000000E+02  0.51100000000E-03 0.  1.
         11   -1    0    0    0    0 -0.00000000000E+00 -0.00000000000E+00 -0.45593999997E+02  0.45594000000E+02  0.51100000000E-03 0. -1.
    9900012    2    1    2    0    0  0.37025179598E+02  0.22460066665E+02 -0.28815710178E+01  0.47787286061E+02  0.20000068467E+02 0.  0.
         12    1    1    2    0    0 -0.37025179598E+02 -0.22460066665E+02  0.28815710178E+01  0.43400713939E+02  0.00000000000E+00 0. -1.
         11    1    3    3    0    0  0.14661018065E+02  0.21113984054E+01  0.57866712513E+01  0.15902484660E+02  0.51100000000E-03 0. -1.
        -11    1    3    3    0    0  0.12303196560E+02  0.10613014885E+02 -0.19779655586E+01  0.16368172731E+02  0.51100000000E-03 0.  1.
         12    1    3    3    0    0  0.10060964972E+02  0.97356533752E+01 -0.66902767105E+01  0.15516628670E+02  0.00000000000E+00 0. -1.
</event>
<event>
 7    1  0.5426550E-010  0.4778726E+02  0.7816164E-02  0.1312668E+00
        -11   -1    0    0    0    0  0.00000000000E+00  0.00000000000E+00  0.45593999997E+02  0.45594000000E+02  0.51100000000E-03 0. -1.
         11   -1    0    0    0    0 -0.00000000000E+00 -0.00000000000E+00 -0.45593999997E+02  0.45594000000E+02  0.51100000000E-03 0.  1.
    9900012    2    1    2    0    0  0.61221633144E+01 -0.32228378013E+02  0.28416104602E+02  0.47787259987E+02  0.19999949583E+02 0.  0.
         12    1    1    2    0    0 -0.61221633144E+01  0.32228378013E+02 -0.28416104602E+02  0.43400740013E+02  0.00000000000E+00 0. -1.
         11    1    3    3    0    0  0.10098382511E+02 -0.89220181756E+01  0.14942987739E+02  0.20121446779E+02  0.51100000000E-03 0. -1.
        -11    1    3    3    0    0 -0.30698199313E+01 -0.22901665554E+02  0.13291810521E+02  0.26656749741E+02  0.51100000000E-03 0.  1.
        -12    1    3    3    0    0 -0.90639926517E+00 -0.40469428312E+00  0.18130634266E+00  0.10090634671E+01  0.00000000000E+00 0.  1.
</event>
<event>
 7    1  0.5426550E-010  0.4778727E+02  0.7816164E-02  0.1312668E+00
        -11   -1    0    0    0    0  0.00000000000E+00  0.00000000000E+00  0.45593999997E+02  0.45594000000E+02  0.51100000000E-03 0. -1.
         11   -1    0    0    0    0 -0.00000000000E+00 -0.00000000000E+00 -0.45593999997E+02  0.45594000000E+02  0.51100000000E-03 0.  1.
    9900012    2    1    2    0    0  0.35029517342E+02  0.97387221898E+01 -0.23700500560E+02  0.47787268187E+02  0.19999986972E+02 0.  0.
         12    1    1    2    0    0 -0.35029517342E+02 -0.97387221898E+01  0.23700500560E+02  0.43400731813E+02  0.00000000000E+00 0. -1.
         11    1    3    3    0    0  0.83639155532E+01  0.89738178632E+01 -0.88706321342E+01  0.15138447911E+02  0.51100000000E-03 0. -1.
        -11    1    3    3    0    0  0.23575844585E+02  0.93373189673E+00 -0.16814462964E+02  0.28972719378E+02  0.51100000000E-03 0.  1.
        -12    1    3    3    0    0  0.30897572042E+01 -0.16882757013E+00  0.19845945389E+01  0.36761008981E+01  0.00000000000E+00 0.  1.
</event>
<event>
 7    1  0.5426550E-010  0.4778727E+02  0.7816164E-02  0.1312668E+00
        -11   -1    0    0    0    0  0.00000000000E+00  0.00000000000E+00  0.45593999997E+02  0.45594000000E+02  0.51100000000E-03 0. -1.
         11   -1    0    0    0    0 -0.00000000000E+00 -0.00000000000E+00 -0.45593999997E+02  0.45594000000E+02  0.51100000000E-03 0.  1.
    9900012    2    1    2    0    0 -0.28727213427E+02  0.46802284271E+01 -0.32194193255E+02  0.47787269490E+02  0.19999992915E+02 0.  0.
         12    1    1    2    0    0  0.28727213427E+02 -0.46802284271E+01  0.32194193255E+02  0.43400730510E+02  0.00000000000E+00 0. -1.
         11    1    3    3    0    0 -0.10419705235E+02  0.77702257410E+00 -0.17788309274E+01  0.10598974526E+02  0.51100000000E-03 0. -1.
        -11    1    3    3    0    0 -0.68912577349E+01 -0.30037305315E+00 -0.20058082708E+02  0.21210995717E+02  0.51100000000E-03 0.  1.
         12    1    3    3    0    0 -0.11416250457E+02  0.42035789061E+01 -0.10357279620E+02  0.15977299247E+02  0.00000000000E+00 0. -1.
</event>
<event>
 7    1  0.5426550E-010  0.4778727E+02  0.7816164E-02  0.1312668E+00
        -11   -1    0    0    0    0  0.00000000000E+00  0.00000000000E+00  0.45593999997E+02  0.45594000000E+02  0.51100000000E-03 0. -1.
         11   -1    0    0    0    0 -0.00000000000E+00 -0.00000000000E+00 -0.45593999997E+02  0.45594000000E+02  0.51100000000E-03 0.  1.
    9900012    2    1    2    0    0  0.97502507120E+01 -0.23226621377E+02 -0.35342322670E+02  0.47787273033E+02  0.20000009067E+02 0.  0.
         12    1    1    2    0    0 -0.97502507120E+01  0.23226621377E+02  0.35342322670E+02  0.43400726967E+02  0.00000000000E+00 0. -1.
         11    1    3    3    0    0  0.38168936082E+01 -0.23349596676E+02 -0.29510445859E+02  0.37823785596E+02  0.51100000000E-03 0. -1.
        -11    1    3    3    0    0  0.67505322683E+01 -0.33859683140E+00 -0.38696337800E+01  0.77883502472E+01  0.51100000000E-03 0.  1.
        -12    1    3    3    0    0 -0.81717516451E+00  0.46157213087E+00 -0.19622430315E+01  0.21751371902E+01  0.00000000000E+00 0.  1.
</event>
<event>
 7    1  0.5426550E-010  0.4778728E+02  0.7816164E-02  0.1312668E+00
        -11   -1    0    0    0    0  0.00000000000E+00  0.00000000000E+00  0.45593999997E+02  0.45594000000E+02  0.51100000000E-03 0. -1.
         11   -1    0    0    0    0 -0.00000000000E+00 -0.00000000000E+00 -0.45593999997E+02  0.45594000000E+02  0.51100000000E-03 0.  1.
    9900012    2    1    2    0    0 -0.37129631081E+02  0.16761663324E+02 -0.14968631813E+02  0.47787276505E+02  0.20000024896E+02 0.  0.
         12    1    1    2    0    0  0.37129631081E+02 -0.16761663324E+02  0.14968631813E+02  0.43400723495E+02  0.00000000000E+00 0. -1.
         11    1    3    3    0    0 -0.11789230133E+01  0.73917405521E+01 -0.44758711226E+01  0.87213021062E+01  0.51100000000E-03 0. -1.
        -11    1    3    3    0    0 -0.13557734236E+02  0.63503234759E+01 -0.52964605268E+01  0.15880530855E+02  0.51100000000E-03 0.  1.
         12    1    3    3    0    0 -0.22392973832E+02  0.30195992956E+01 -0.51963001634E+01  0.23185443544E+02  0.00000000000E+00 0. -1.
</event>
<event>
 7    1  0.5426550E-010  0.4778728E+02  0.7816164E-02  0.1312668E+00
        -11   -1    0    0    0    0  0.00000000000E+00  0.00000000000E+00  0.45593999997E+02  0.45594000000E+02  0.51100000000E-03 0.  1.
         11   -1    0    0    0    0 -0.00000000000E+00 -0.00000000000E+00 -0.45593999997E+02  0.45594000000E+02  0.51100000000E-03 0. -1.
    9900012    2    1    2    0    0  0.39550565362E+02 -0.16698174249E+02  0.63676139936E+01  0.47787277060E+02  0.20000027429E+02 0.  0.
         12    1    1    2    0    0 -0.39550565362E+02  0.16698174249E+02 -0.63676139936E+01  0.43400722940E+02  0.00000000000E+00 0. -1.
         11    1    3    3    0    0  0.33381810099E+02 -0.16729053686E+02  0.33775595820E+01  0.37491524265E+02  0.51100000000E-03 0. -1.
        -11    1    3    3    0    0  0.67360454148E+01 -0.16045098267E-01  0.48825611132E+01  0.83194932875E+01  0.51100000000E-03 0.  1.
         12    1    3    3    0    0 -0.56729015140E+00  0.46924535053E-01 -0.18925067016E+01  0.19762595081E+01  0.00000000000E+00 0. -1.
</event>
<event>
 7    1  0.5426550E-010  0.4778726E+02  0.7816164E-02  0.1312668E+00
        -11   -1    0    0    0    0  0.00000000000E+00  0.00000000000E+00  0.45593999997E+02  0.45594000000E+02  0.51100000000E-03 0.  1.
         11   -1    0    0    0    0 -0.00000000000E+00 -0.00000000000E+00 -0.45593999997E+02  0.45594000000E+02  0.51100000000E-03 0. -1.
    9900012    2    1    2    0    0 -0.22073713722E+02  0.32479415619E+02  0.18478709349E+02  0.47787262960E+02  0.19999963139E+02 0.  0.
         12    1    1    2    0    0  0.22073713722E+02 -0.32479415619E+02 -0.18478709349E+02  0.43400737040E+02  0.00000000000E+00 0. -1.
         11    1    3    3    0    0  0.17309800580E+01 -0.64783660506E+00  0.24527908814E+01  0.30711834197E+01  0.51100000000E-03 0. -1.
        -11    1    3    3    0    0 -0.13550071919E+02  0.24970966863E+02  0.87429658416E+01  0.29725293725E+02  0.51100000000E-03 0.  1.
         12    1    3    3    0    0 -0.10254621860E+02  0.81562853613E+01  0.72829526256E+01  0.14990785815E+02  0.00000000000E+00 0. -1.
</event>
<event>
 7    1  0.5426550E-010  0.4778727E+02  0.7816164E-02  0.1312668E+00
        -11   -1    0    0    0    0  0.00000000000E+00  0.00000000000E+00  0.45593999997E+02  0.45594000000E+02  0.51100000000E-03 0. -1.
         11   -1    0    0    0    0 -0.00000000000E+00 -0.00000000000E+00 -0.45593999997E+02  0.45594000000E+02  0.51100000000E-03 0.  1.
    9900012    2    1    2    0    0 -0.42319792300E+02  0.96034522300E+01 -0.65749884779E+00  0.47787269364E+02  0.19999992337E+02 0.  0.
         12    1    1    2    0    0  0.42319792300E+02 -0.96034522300E+01  0.65749884779E+00  0.43400730636E+02  0.00000000000E+00 0. -1.
         11    1    3    3    0    0 -0.78897804008E+01 -0.23863555739E+01  0.50211798024E+01  0.96517135560E+01  0.51100000000E-03 0. -1.
        -11    1    3    3    0    0 -0.24351901163E+02  0.11493357730E+02 -0.73376945261E+01  0.27909749611E+02  0.51100000000E-03 0.  1.
         12    1    3    3    0    0 -0.10078110736E+02  0.49645007359E+00  0.16590158759E+01  0.10225806196E+02  0.00000000000E+00 0. -1.
</event>
<event>
 7    1  0.5426550E-010  0.4778727E+02  0.7816164E-02  0.1312668E+00
        -11   -1    0    0    0    0  0.00000000000E+00  0.00000000000E+00  0.45593999997E+02  0.45594000000E+02  0.51100000000E-03 0.  1.
         11   -1    0    0    0    0 -0.00000000000E+00 -0.00000000000E+00 -0.45593999997E+02  0.45594000000E+02  0.51100000000E-03 0. -1.
    9900012    2    1    2    0    0  0.23635656793E+02 -0.11235254545E+02  0.34622939272E+02  0.47787272580E+02  0.20000007000E+02 0.  0.
         12    1    1    2    0    0 -0.23635656793E+02  0.11235254545E+02 -0.34622939272E+02  0.43400727420E+02  0.00000000000E+00 0. -1.
         11    1    3    3    0    0  0.30101457735E+01 -0.12376262306E+01  0.19786407052E+02  0.20052296641E+02  0.51100000000E-03 0. -1.
        -11    1    3    3    0    0  0.10545561075E+02 -0.65626946427E+01  0.10394984146E+02  0.16196713093E+02  0.51100000000E-03 0.  1.
         12    1    3    3    0    0  0.10079949945E+02 -0.34349336717E+01  0.44415480748E+01  0.11538262847E+02  0.00000000000E+00 0. -1.
</event>
<event>
 7    1  0.5687133E-010  0.4778725E+02  0.7816164E-02  0.1312668E+00
        -11   -1    0    0    0    0  0.00000000000E+00  0.00000000000E+00  0.45593999997E+02  0.45594000000E+02  0.51100000000E-03 0. -1.
         11   -1    0    0    0    0 -0.00000000000E+00 -0.00000000000E+00 -0.45593999997E+02  0.45594000000E+02  0.51100000000E-03 0.  1.
    9900012    2    1    2    0    0  0.17491945758E+02  0.33410271502E+02 -0.21480464391E+02  0.47787253939E+02  0.19999922008E+02 0.  0.
         12    1    1    2    0    0 -0.17491945758E+02 -0.33410271502E+02  0.21480464391E+02  0.43400746061E+02  0.00000000000E+00 0. -1.
         11    1    3    3    0    0  0.76524096506E+01  0.93060959365E+00 -0.37386429796E+01  0.85675468640E+01  0.51100000000E-03 0. -1.
        -11    1    3    3    0    0  0.99730924370E+01  0.19952570917E+02 -0.13043282388E+02  0.25839792466E+02  0.51100000000E-03 0.  1.
         12    1    3    3    0    0 -0.13355632968E+00  0.12527090991E+02 -0.46985390235E+01  0.13379914609E+02  0.00000000000E+00 0. -1.
</event>
<event>
 7    1  0.5426550E-010  0.4778727E+02  0.7816164E-02  0.1312668E+00
        -11   -1    0    0    0    0  0.00000000000E+00  0.00000000000E+00  0.45593999997E+02  0.45594000000E+02  0.51100000000E-03 0.  1.
         11   -1    0    0    0    0 -0.00000000000E+00 -0.00000000000E+00 -0.45593999997E+02  0.45594000000E+02  0.51100000000E-03 0. -1.
    9900012    2    1    2    0    0 -0.29055165605E+02  0.39360999148E+01  0.31998867666E+02  0.47787273476E+02  0.20000011087E+02 0.  0.
         12    1    1    2    0    0  0.29055165605E+02 -0.39360999148E+01 -0.31998867666E+02  0.43400726524E+02  0.00000000000E+00 0. -1.
         11    1    3    3    0    0 -0.24803595606E+02  0.33822394262E+01  0.16592621149E+02  0.30032864921E+02  0.51100000000E-03 0.  1.
        -11    1    3    3    0    0  0.48422780399E+00 -0.29062218105E+01  0.47082156949E+01  0.55540883202E+01  0.51100000000E-03 0. -1.
        -12    1    3    3    0    0 -0.47357978030E+01  0.34600822991E+01  0.10698030823E+02  0.12200320235E+02  0.00000000000E+00 0.  1.
</event>
